<event>
11    1  0.7105277E-009  0.1784407E+03  0.7561462E-02  0.1070911E+00
         22   -1    0    0    0    0  0.00000000000E+00  0.00000000000E+00  0.47221903768E+03  0.47221903768E+03  0.00000000000E+00 0.  1.
         22   -1    0    0    0    0 -0.00000000000E+00 -0.00000000000E+00 -0.37245326446E+03  0.37245326446E+03  0.00000000000E+00 0. -1.
         24    2    1    2    0    0 -0.78655524891E+01 -0.20077712653E+02 -0.64252521670E+02  0.11313298400E+03  0.90585341344E+02 0.  0.
         25    2    1    2    0    0 -0.10651761231E+03  0.75659102775E+02 -0.23991200353E+03  0.30045728832E+03  0.12508601482E+03 0.  0.
        -24    2    1    2    0    0  0.11438316480E+03 -0.55581390122E+02  0.40393029842E+03  0.43108202982E+03  0.80617809026E+02 0.  0.
        -13    1    3    3    0    0 -0.37174776820E+02 -0.18346371212E+02  0.11193130091E+01  0.41470546535E+02  0.00000000000E+00 0.  1.
         14    1    3    3    0    0  0.29309224331E+02 -0.17313414406E+01 -0.65371834679E+02  0.71662437464E+02  0.00000000000E+00 0. -1.
         11    1    5    5    0    0  0.93891195583E+02 -0.75539931645E+02  0.30031589834E+03  0.32359152751E+03  0.00000000000E+00 0. -1.
        -12    1    5    5    0    0  0.20491969218E+02  0.19958541523E+02  0.10361440009E+03  0.10749050232E+03  0.00000000000E+00 0.  1.
          5    1    4    4  501    0 -0.51228284286E+02  0.19712444855E+02 -0.81166950358E+01  0.55644143730E+02  0.41800000000E+01 0.  1.
         -5    1    4    4    0  501 -0.55289328026E+02  0.55946657919E+02 -0.23179530849E+03  0.24481314459E+03  0.41800000000E+01 0.  1.
</event>
<event>
11    1  0.7105277E-009  0.1546515E+03  0.7561462E-02  0.1092218E+00
         22   -1    0    0    0    0  0.00000000000E+00  0.00000000000E+00  0.21075190002E+03  0.21075190002E+03  0.00000000000E+00 0. -1.
         22   -1    0    0    0    0 -0.00000000000E+00 -0.00000000000E+00 -0.88643036714E+03  0.88643036714E+03  0.00000000000E+00 0. -1.
        -24    2    1    2    0    0  0.47489259931E+02 -0.23446757950E+02 -0.69981174087E+03  0.70634297682E+03  0.79868316416E+02 0.  0.
         25    2    1    2    0    0 -0.12168343099E+03  0.64509038596E+02 -0.10875107254E+03  0.21551151576E+03  0.12510053642E+03 0.  0.
         24    2    1    2    0    0  0.74194171054E+02 -0.41062280646E+02  0.13288434629E+03  0.17532777458E+03  0.76750851073E+02 0.  0.
        -13    1    5    5    0    0  0.11002443524E+02 -0.40297827738E+02  0.20823149763E+02  0.46675178092E+02  0.00000000000E+00 0.  1.
         14    1    5    5    0    0  0.63191727530E+02 -0.76445290865E+00  0.11206119652E+03  0.12865259649E+03  0.00000000000E+00 0. -1.
         11    1    3    3    0    0  0.44900679553E+02  0.11738679952E+02 -0.56795036707E+03  0.56984338821E+03  0.00000000000E+00 0. -1.
        -12    1    3    3    0    0  0.25885803782E+01 -0.35185437901E+02 -0.13186137381E+03  0.13649958861E+03  0.00000000000E+00 0.  1.
          5    1    4    4  501    0 -0.83593886326E+02  0.77133293900E+02 -0.12759472724E+03  0.17098353628E+03  0.41800000000E+01 0. -1.
         -5    1    4    4    0  501 -0.38089544660E+02 -0.12624255304E+02  0.18843654703E+02  0.44527979484E+02  0.41800000000E+01 0. -1.
</event>
<event>
11    1  0.7105277E-009  0.1542621E+03  0.7561462E-02  0.1092602E+00
         22   -1    0    0    0    0  0.00000000000E+00  0.00000000000E+00  0.24081613215E+04  0.24081613215E+04  0.00000000000E+00 0. -1.
         22   -1    0    0    0    0 -0.00000000000E+00 -0.00000000000E+00 -0.24786476478E+03  0.24786476478E+03  0.00000000000E+00 0. -1.
        -24    2    1    2    0    0 -0.86572984118E+02  0.26191385411E+02 -0.22110619399E+03  0.25183127120E+03  0.79687953212E+02 0.  0.
         25    2    1    2    0    0  0.70262091433E+02 -0.56452077041E+02  0.55130317930E+03  0.57245687236E+03  0.12509227280E+03 0.  0.
         24    2    1    2    0    0  0.16310892686E+02  0.30260691630E+02  0.18300995714E+04  0.18317379427E+04  0.69409615993E+02 0.  0.
        -13    1    5    5    0    0  0.17893601166E+02  0.34869601221E+02  0.47047687049E+03  0.47210650887E+03  0.00000000000E+00 0.  1.
         14    1    5    5    0    0 -0.15827084800E+01 -0.46089095905E+01  0.13596227009E+04  0.13596314338E+04  0.00000000000E+00 0. -1.
         13    1    3    3    0    0 -0.55518866678E+02  0.14237477787E+02 -0.20852232055E+03  0.21625588662E+03  0.00000000000E+00 0. -1.
        -14    1    3    3    0    0 -0.31054117440E+02  0.11953907624E+02 -0.12583873439E+02  0.35575384583E+02  0.00000000000E+00 0.  1.
          5    1    4    4  501    0  0.21236869017E+02 -0.22013004590E+02  0.47184919872E+03  0.47285802912E+03  0.41800000000E+01 0. -1.
         -5    1    4    4    0  501  0.49025222416E+02 -0.34439072451E+02  0.79453980586E+02  0.99598843242E+02  0.41800000000E+01 0. -1.
</event>
<event>
11    1  0.7105277E-009  0.1666206E+03  0.7561462E-02  0.1081011E+00
         22   -1    0    0    0    0  0.00000000000E+00  0.00000000000E+00  0.64326966561E+03  0.64326966561E+03  0.00000000000E+00 0. -1.
         22   -1    0    0    0    0 -0.00000000000E+00 -0.00000000000E+00 -0.49578632856E+03  0.49578632856E+03  0.00000000000E+00 0. -1.
        -24    2    1    2    0    0  0.98430777250E+02  0.25098493927E+02 -0.31361887521E+03  0.33958506928E+03  0.81502564907E+02 0.  0.
         25    2    1    2    0    0 -0.14493009517E+03 -0.25619102812E+02 -0.10934545475E+03  0.22195794023E+03  0.12509127803E+03 0.  0.
         24    2    1    2    0    0  0.46499317921E+02  0.52060888528E+00  0.57044766701E+03  0.57751298467E+03  0.77124892601E+02 0.  0.
        -11    1    5    5    0    0 -0.19624367627E+02  0.75126296140E+01  0.20420615251E+03  0.20528445662E+03  0.00000000000E+00 0.  1.
         12    1    5    5    0    0  0.66123685548E+02 -0.69920207287E+01  0.36624151450E+03  0.37222852804E+03  0.00000000000E+00 0. -1.
         13    1    3    3    0    0  0.10480941337E+03  0.63307889953E+00 -0.24621407756E+03  0.26759444297E+03  0.00000000000E+00 0. -1.
        -14    1    3    3    0    0 -0.63786361179E+01  0.24465415027E+02 -0.67404797651E+02  0.71990626317E+02  0.00000000000E+00 0.  1.
          5    1    4    4  501    0 -0.54446893554E+02 -0.18363366658E+02  0.22484372079E+02  0.61844133437E+02  0.41800000000E+01 0.  1.
         -5    1    4    4    0  501 -0.90483201617E+02 -0.72557361537E+01 -0.13182982683E+03  0.16011380679E+03  0.41800000000E+01 0.  1.
</event>
<event>
11    1  0.7105277E-009  0.2104140E+03  0.7561462E-02  0.1047394E+00
         22   -1    0    0    0    0  0.00000000000E+00  0.00000000000E+00  0.42956190643E+03  0.42956190643E+03  0.00000000000E+00 0. -1.
         22   -1    0    0    0    0 -0.00000000000E+00 -0.00000000000E+00 -0.21440415741E+04  0.21440415741E+04  0.00000000000E+00 0.  1.
        -24    2    1    2    0    0 -0.46980881087E+01  0.28302867601E+02 -0.18194606465E+04  0.18214531103E+04  0.80195166144E+02 0.  0.
         25    2    1    2    0    0  0.15164716840E+03  0.57104230402E+02 -0.26352875194E+03  0.33369515056E+03  0.12508914260E+03 0.  0.
         24    2    1    2    0    0 -0.14694908029E+03 -0.85407098004E+02  0.36850973070E+03  0.41845521969E+03  0.10206343460E+03 0.  0.
        -11    1    5    5    0    0  0.14768589290E+02  0.60210269406E+00  0.21851306146E+02  0.26380927534E+02  0.00000000000E+00 0.  1.
         12    1    5    5    0    0 -0.16171766958E+03 -0.86009200698E+02  0.34665842455E+03  0.39207429216E+03  0.00000000000E+00 0. -1.
         11    1    3    3    0    0 -0.23289954539E+02 -0.20434961820E+02 -0.49767462569E+03  0.49863818817E+03  0.00000000000E+00 0. -1.
        -12    1    3    3    0    0  0.18591866430E+02  0.48737829421E+02 -0.13217860208E+04  0.13228149221E+04  0.00000000000E+00 0.  1.
          5    1    4    4  501    0  0.62252339535E+02  0.59248579054E+02 -0.44049603800E+02  0.96662236123E+02  0.41800000000E+01 0. -1.
         -5    1    4    4    0  501  0.89394828862E+02 -0.21443486514E+01 -0.21947914814E+03  0.23703291444E+03  0.41800000000E+01 0. -1.
</event>
<event>
11    1  0.7105277E-009  0.1319347E+03  0.7561462E-02  0.1116914E+00
         22   -1    0    0    0    0  0.00000000000E+00  0.00000000000E+00  0.34855536831E+03  0.34855536831E+03  0.00000000000E+00 0. -1.
         22   -1    0    0    0    0 -0.00000000000E+00 -0.00000000000E+00 -0.63376429347E+03  0.63376429347E+03  0.00000000000E+00 0.  1.
        -24    2    1    2    0    0 -0.86713906799E+01 -0.60702587354E+01 -0.54054793651E+03  0.54628986485E+03  0.78284760434E+02 0.  0.
         25    2    1    2    0    0 -0.17242470896E+02 -0.27977407873E+02 -0.32266108233E+02  0.13329883256E+03  0.12508972327E+03 0.  0.
         24    2    1    2    0    0  0.25913861576E+02  0.34047666608E+02  0.28760511958E+03  0.30273096438E+03  0.84252953436E+02 0.  0.
        -11    1    5    5    0    0  0.42714289283E+02 -0.12560095434E+02  0.15058678461E+03  0.15703071739E+03  0.00000000000E+00 0.  1.
         12    1    5    5    0    0 -0.16800427707E+02  0.46607762042E+02  0.13701833497E+03  0.14570024699E+03  0.00000000000E+00 0. -1.
         11    1    3    3    0    0  0.54485487295E+01 -0.21528847828E+02 -0.43868308959E+02  0.49169162114E+02  0.00000000000E+00 0. -1.
        -12    1    3    3    0    0 -0.14119939409E+02  0.15458589093E+02 -0.49667962755E+03  0.49712070273E+03  0.00000000000E+00 0.  1.
          5    1    4    4  501    0 -0.20079824530E+02 -0.73029949977E+02 -0.42320506214E+02  0.86862365804E+02  0.41800000000E+01 0. -1.
         -5    1    4    4    0  501  0.28373536343E+01  0.45052542105E+02  0.10054397981E+02  0.46436466753E+02  0.41800000000E+01 0. -1.
</event>
<event>
11    1  0.7105277E-009  0.3527978E+03  0.7561462E-02  0.9800313E-01
         22   -1    0    0    0    0  0.00000000000E+00  0.00000000000E+00  0.34338159178E+03  0.34338159178E+03  0.00000000000E+00 0. -1.
         22   -1    0    0    0    0 -0.00000000000E+00 -0.00000000000E+00 -0.10573502457E+04  0.10573502457E+04  0.00000000000E+00 0.  1.
        -24    2    1    2    0    0  0.33026481579E+03  0.37969365300E+02 -0.88865088939E+03  0.95177184473E+03  0.75184572615E+02 0.  0.
         25    2    1    2    0    0 -0.30831574832E+03 -0.28395404525E+02  0.14002346169E+03  0.36209702627E+03  0.12507112756E+03 0.  0.
         24    2    1    2    0    0 -0.21949067470E+02 -0.95739607746E+01  0.34658773733E+02  0.86862966519E+02  0.75963952425E+02 0.  0.
        -11    1    5    5    0    0 -0.12925548675E+02 -0.42087066610E+02  0.28815589820E+02  0.52618715312E+02  0.00000000000E+00 0.  1.
         12    1    5    5    0    0 -0.90235187944E+01  0.32513105835E+02  0.58431839127E+01  0.34244251207E+02  0.00000000000E+00 0. -1.
         13    1    3    3    0    0  0.61365245029E+02 -0.16582858328E+02 -0.22044977668E+03  0.22943144625E+03  0.00000000000E+00 0. -1.
        -14    1    3    3    0    0  0.26889957076E+03  0.54552223627E+02 -0.66820111270E+03  0.72234039848E+03  0.00000000000E+00 0.  1.
          5    1    4    4  501    0 -0.29409032035E+03  0.69210935051E+01  0.13416393983E+03  0.32334881044E+03  0.41800000000E+01 0.  1.
         -5    1    4    4    0  501 -0.14225427969E+02 -0.35316498030E+02  0.58595218656E+01  0.38748215837E+02  0.41800000000E+01 0.  1.
</event>
<event>
11    1  0.7105277E-009  0.1441534E+03  0.7561462E-02  0.1103007E+00
         22   -1    0    0    0    0  0.00000000000E+00  0.00000000000E+00  0.32777426629E+04  0.32777426629E+04  0.00000000000E+00 0. -1.
         22   -1    0    0    0    0 -0.00000000000E+00 -0.00000000000E+00 -0.26850921807E+03  0.26850921807E+03  0.00000000000E+00 0.  1.
        -24    2    1    2    0    0  0.23402417032E+02 -0.70149060686E+02 -0.24194383052E+03  0.26624200047E+03  0.82942280214E+02 0.  0.
         25    2    1    2    0    0  0.19751629839E+02  0.21114823077E+02  0.29138239784E+03  0.31841177743E+03  0.12508555312E+03 0.  0.
         24    2    1    2    0    0 -0.43154046871E+02  0.49034237610E+02  0.29597948775E+04  0.29615981031E+04  0.80068588892E+02 0.  0.
        -11    1    5    5    0    0  0.10868873545E+02 -0.14496738748E+02  0.77594513592E+03  0.77615664773E+03  0.00000000000E+00 0.  1.
         12    1    5    5    0    0 -0.54022920416E+02  0.63530976358E+02  0.21838497416E+04  0.21854414553E+04  0.00000000000E+00 0. -1.
         11    1    3    3    0    0 -0.22091640517E+02 -0.31696570735E+02 -0.39652761401E+02  0.55362935831E+02  0.00000000000E+00 0. -1.
        -12    1    3    3    0    0  0.45494057549E+02 -0.38452489951E+02 -0.20229106912E+03  0.21087906464E+03  0.00000000000E+00 0.  1.
          5    1    4    4  501    0 -0.44738322701E+02  0.38002893781E+02  0.16951444103E+03  0.17943900237E+03  0.41800000000E+01 0.  1.
         -5    1    4    4    0  501  0.64489952540E+02 -0.16888070704E+02  0.12186795682E+03  0.13897277507E+03  0.41800000000E+01 0.  1.
</event>
<event>
11    1  0.7105277E-009  0.1537257E+03  0.7561462E-02  0.1093131E+00
         22   -1    0    0    0    0  0.00000000000E+00  0.00000000000E+00  0.87330902606E+03  0.87330902606E+03  0.00000000000E+00 0.  1.
         22   -1    0    0    0    0 -0.00000000000E+00 -0.00000000000E+00 -0.13325178389E+03  0.13325178389E+03  0.00000000000E+00 0.  1.
         24    2    1    2    0    0 -0.65915230270E+02 -0.51046085467E+02 -0.35546212934E+02  0.12138224314E+03  0.80744010757E+02 0.  0.
         25    2    1    2    0    0  0.88871020451E+02  0.60834572204E+02  0.78398427570E+02  0.18273560110E+03  0.12508830086E+03 0.  0.
        -24    2    1    2    0    0 -0.22955790181E+02 -0.97884867372E+01  0.69720502754E+03  0.70244296571E+03  0.81905353130E+02 0.  0.
        -13    1    3    3    0    0 -0.36792450889E+02 -0.34587420943E+01 -0.51470241009E+02  0.63362710239E+02  0.00000000000E+00 0.  1.
         14    1    3    3    0    0 -0.29122779381E+02 -0.47587343372E+02  0.15924028075E+02  0.58019532903E+02  0.00000000000E+00 0. -1.
         13    1    5    5    0    0 -0.69571216732E+01 -0.33798563761E+02  0.12991415199E+03  0.13441886528E+03  0.00000000000E+00 0. -1.
        -14    1    5    5    0    0 -0.15998668508E+02  0.24010077024E+02  0.56729087554E+03  0.56802410043E+03  0.00000000000E+00 0.  1.
          5    1    4    4  501    0  0.44500417913E+02  0.80381360019E+02  0.18057284369E+01  0.91990126036E+02  0.41800000000E+01 0.  1.
         -5    1    4    4    0  501  0.44370602538E+02 -0.19546787815E+02  0.76592699133E+02  0.90745475060E+02  0.41800000000E+01 0.  1.
</event>
<event>
11    1  0.7105277E-009  0.2312735E+03  0.7561462E-02  0.1034377E+00
         22   -1    0    0    0    0  0.00000000000E+00  0.00000000000E+00  0.41915610712E+03  0.41915610712E+03  0.00000000000E+00 0. -1.
         22   -1    0    0    0    0 -0.00000000000E+00 -0.00000000000E+00 -0.88350840569E+03  0.88350840569E+03  0.00000000000E+00 0. -1.
         24    2    1    2    0    0 -0.14696771144E+03 -0.12968032405E+03 -0.77109535660E+03  0.79967010273E+03  0.80422195863E+02 0.  0.
         25    2    1    2    0    0  0.14491741237E+03  0.10904800096E+03  0.40340290025E+02  0.22398121069E+03  0.12509085027E+03 0.  0.
        -24    2    1    2    0    0  0.20502990663E+01  0.20632323089E+02  0.26640276800E+03  0.27901319938E+03  0.80299652246E+02 0.  0.
        -11    1    3    3    0    0 -0.73199941516E+02 -0.83526326864E+02 -0.28553171646E+03  0.30637108190E+03  0.00000000000E+00 0.  1.
         12    1    3    3    0    0 -0.73767769924E+02 -0.46153997187E+02 -0.48556364013E+03  0.49329902083E+03  0.00000000000E+00 0. -1.
         13    1    5    5    0    0  0.22964570368E+02 -0.81352316790E+00  0.23306178213E+03  0.23419186067E+03  0.00000000000E+00 0. -1.
        -14    1    5    5    0    0 -0.20914271301E+02  0.21445846257E+02  0.33340985862E+02  0.44821338712E+02  0.00000000000E+00 0.  1.
          5    1    4    4  501    0  0.66875072892E+02  0.73627923943E+02 -0.39187620899E+02  0.10698826380E+03  0.41800000000E+01 0. -1.
         -5    1    4    4    0  501  0.78042339481E+02  0.35420077020E+02  0.79527910925E+02  0.11699294690E+03  0.41800000000E+01 0. -1.
</event>
<event>
11    1  0.7105277E-009  0.1392426E+03  0.7561462E-02  0.1108407E+00
         22   -1    0    0    0    0  0.00000000000E+00  0.00000000000E+00  0.12922922889E+03  0.12922922889E+03  0.00000000000E+00 0.  1.
         22   -1    0    0    0    0 -0.00000000000E+00 -0.00000000000E+00 -0.53518032739E+03  0.53518032739E+03  0.00000000000E+00 0.  1.
        -24    2    1    2    0    0 -0.13274648985E+02 -0.43553775281E+02 -0.33594528979E+03  0.34774787719E+03  0.77435138753E+02 0.  0.
         25    2    1    2    0    0 -0.21668675699E+01 -0.22367158174E+02 -0.14108731272E+03  0.18988990317E+03  0.12509020920E+03 0.  0.
         24    2    1    2    0    0  0.15441516554E+02  0.65920933454E+02  0.71081504012E+02  0.12677177592E+03  0.80215291906E+02 0.  0.
        -11    1    5    5    0    0  0.14583941730E+02  0.14083613831E+02  0.72121476610E+02  0.74916933488E+02  0.00000000000E+00 0.  1.
         12    1    5    5    0    0  0.85757482428E+00  0.51837319623E+02 -0.10399725975E+01  0.51854842429E+02  0.00000000000E+00 0. -1.
         13    1    3    3    0    0 -0.22574382148E+02 -0.58528795213E+02 -0.17621778853E+03  0.18705061239E+03  0.00000000000E+00 0. -1.
        -14    1    3    3    0    0  0.92997331639E+01  0.14975019933E+02 -0.15972750125E+03  0.16069726480E+03  0.00000000000E+00 0.  1.
          5    1    4    4  501    0 -0.87170847155E+01 -0.53246490257E+02 -0.10053774661E+02  0.55042956639E+02  0.41800000000E+01 0. -1.
         -5    1    4    4    0  501  0.65502171456E+01  0.30879332083E+02 -0.13103353806E+03  0.13484694654E+03  0.41800000000E+01 0. -1.
</event>
<event>
11    1  0.7105277E-009  0.2175310E+03  0.7561462E-02  0.1042775E+00
         22   -1    0    0    0    0  0.00000000000E+00  0.00000000000E+00  0.18092151583E+03  0.18092151583E+03  0.00000000000E+00 0. -1.
         22   -1    0    0    0    0 -0.00000000000E+00 -0.00000000000E+00 -0.18859626958E+04  0.18859626958E+04  0.00000000000E+00 0. -1.
         24    2    1    2    0    0 -0.15741498837E+03 -0.82494963185E+02 -0.16766472837E+04  0.16881340326E+04  0.84056532914E+02 0.  0.
         25    2    1    2    0    0  0.14508114761E+03  0.11140038358E+03 -0.11996271373E+03  0.25200638689E+03  0.12513025811E+03 0.  0.
        -24    2    1    2    0    0  0.12333840758E+02 -0.28905420394E+02  0.91568817459E+02  0.12674379209E+03  0.81801549785E+02 0.  0.
        -11    1    3    3    0    0  0.77012510778E+01 -0.17547309083E+02 -0.16651313327E+03  0.16761217401E+03  0.00000000000E+00 0.  1.
         12    1    3    3    0    0 -0.16511623945E+03 -0.64947654103E+02 -0.15101341504E+04  0.15205218586E+04  0.00000000000E+00 0. -1.
         11    1    5    5    0    0  0.13446124494E+02 -0.18793575860E+02  0.10633259764E+03  0.10881460416E+03  0.00000000000E+00 0. -1.
        -12    1    5    5    0    0 -0.11122837356E+01 -0.10111844535E+02 -0.14763780177E+02  0.17929187938E+02  0.00000000000E+00 0.  1.
          5    1    4    4  501    0  0.79005304349E+02  0.27075574637E+02  0.92235414199E+01  0.84127706337E+02  0.41800000000E+01 0. -1.
         -5    1    4    4    0  501  0.66075843261E+02  0.84324808943E+02 -0.12918625515E+03  0.16787868056E+03  0.41800000000E+01 0. -1.
</event>
<event>
11    1  0.7105277E-009  0.1631975E+03  0.7561462E-02  0.1084108E+00
         22   -1    0    0    0    0  0.00000000000E+00  0.00000000000E+00  0.57076953327E+02  0.57076953327E+02  0.00000000000E+00 0.  1.
         22   -1    0    0    0    0 -0.00000000000E+00 -0.00000000000E+00 -0.96951560833E+03  0.96951560833E+03  0.00000000000E+00 0.  1.
        -24    2    1    2    0    0  0.80680978693E+02  0.58031660419E+02 -0.49121081763E+03  0.50757315259E+03  0.80407362468E+02 0.  0.
         25    2    1    2    0    0 -0.76638896919E+02 -0.91556071207E+02 -0.39056544473E+03  0.42713418741E+03  0.12508482218E+03 0.  0.
         24    2    1    2    0    0 -0.40420817745E+01  0.33524410788E+02 -0.30662392639E+02  0.91885221655E+02  0.79765199758E+02 0.  0.
        -13    1    5    5    0    0  0.49590592588E+01 -0.21478957667E+02  0.86503514520E+01  0.23680508260E+02  0.00000000000E+00 0.  1.
         14    1    5    5    0    0 -0.90011410333E+01  0.55003368455E+02 -0.39312744091E+02  0.68204713395E+02  0.00000000000E+00 0. -1.
         13    1    3    3    0    0  0.17189273211E+02 -0.57436206121E+01 -0.24083158774E+03  0.24151255442E+03  0.00000000000E+00 0. -1.
        -14    1    3    3    0    0  0.63491705482E+02  0.63775281032E+02 -0.25037922989E+03  0.26606059817E+03  0.00000000000E+00 0.  1.
          5    1    4    4  501    0 -0.79952827129E+02 -0.98205903332E+02 -0.39682198231E+03  0.41655973408E+03  0.41800000000E+01 0.  1.
         -5    1    4    4    0  501  0.33139302102E+01  0.66498321244E+01  0.62565375779E+01  0.10574453328E+02  0.41800000000E+01 0.  1.
</event>
<event>
11    1  0.7105277E-009  0.1513894E+03  0.7561462E-02  0.1095467E+00
         22   -1    0    0    0    0  0.00000000000E+00  0.00000000000E+00  0.78120829769E+03  0.78120829769E+03  0.00000000000E+00 0. -1.
         22   -1    0    0    0    0 -0.00000000000E+00 -0.00000000000E+00 -0.30348710929E+03  0.30348710929E+03  0.00000000000E+00 0.  1.
        -24    2    1    2    0    0 -0.37862195522E+02  0.79821277938E+02 -0.23258498090E+03  0.26118020250E+03  0.79462837690E+02 0.  0.
         25    2    1    2    0    0  0.30654500136E+02 -0.57814689379E+02  0.38050245896E+02  0.14621707451E+03  0.12509746192E+03 0.  0.
         24    2    1    2    0    0  0.72076953862E+01 -0.22006588560E+02  0.67225592341E+03  0.67729812997E+03  0.79173792996E+02 0.  0.
        -13    1    5    5    0    0  0.37098168766E+02 -0.22345735233E-01  0.18816087864E+03  0.19178318715E+03  0.00000000000E+00 0.  1.
         14    1    5    5    0    0 -0.29890473380E+02 -0.21984242824E+02  0.48409504477E+03  0.48551494282E+03  0.00000000000E+00 0. -1.
         13    1    3    3    0    0 -0.51276893644E+02  0.34290219512E+02 -0.77838120976E+02  0.99317229386E+02  0.00000000000E+00 0. -1.
        -14    1    3    3    0    0  0.13414698122E+02  0.45531058427E+02 -0.15474685993E+03  0.16186297311E+03  0.00000000000E+00 0.  1.
          5    1    4    4  501    0  0.78933018166E+02 -0.39621444314E+02  0.15543635640E+02  0.89773922802E+02  0.41800000000E+01 0. -1.
         -5    1    4    4    0  501 -0.48278518030E+02 -0.18193245065E+02  0.22506610256E+02  0.56443151705E+02  0.41800000000E+01 0. -1.
</event>
<event>
11    1  0.7105277E-009  0.1368484E+03  0.7561462E-02  0.1111130E+00
         22   -1    0    0    0    0  0.00000000000E+00  0.00000000000E+00  0.43742246909E+03  0.43742246909E+03  0.00000000000E+00 0.  1.
         22   -1    0    0    0    0 -0.00000000000E+00 -0.00000000000E+00 -0.21611840919E+03  0.21611840919E+03  0.00000000000E+00 0. -1.
         24    2    1    2    0    0 -0.25720768714E+01 -0.44762712258E+02 -0.17196846658E+03  0.19399100131E+03  0.77775568824E+02 0.  0.
         25    2    1    2    0    0  0.48666395384E+02  0.36081863723E+01  0.15684756370E+03  0.20647258845E+03  0.12509330316E+03 0.  0.
        -24    2    1    2    0    0 -0.46094318513E+02  0.41154525886E+02  0.23642496278E+03  0.25307728851E+03  0.65825297071E+02 0.  0.
        -11    1    3    3    0    0  0.11215343601E+02 -0.19697237368E+02 -0.32900138951E+01  0.22903914151E+02  0.00000000000E+00 0.  1.
         12    1    3    3    0    0 -0.13787420472E+02 -0.25065474890E+02 -0.16867845268E+03  0.17108708716E+03  0.00000000000E+00 0. -1.
         11    1    5    5    0    0  0.14715839885E+02  0.19616963022E+02  0.47764972627E+02  0.53692399758E+02  0.00000000000E+00 0. -1.
        -12    1    5    5    0    0 -0.60810158398E+02  0.21537562864E+02  0.18865999015E+03  0.19938488875E+03  0.00000000000E+00 0.  1.
          5    1    4    4  501    0  0.65493380337E+02  0.17665646349E+02  0.16821363267E+03  0.18142424465E+03  0.41800000000E+01 0. -1.
         -5    1    4    4    0  501 -0.16826984953E+02 -0.14057459977E+02 -0.11366068973E+02  0.25048343808E+02  0.41800000000E+01 0. -1.
</event>
<event>
11    1  0.7105277E-009  0.1524516E+03  0.7561462E-02  0.1094400E+00
         22   -1    0    0    0    0  0.00000000000E+00  0.00000000000E+00  0.81898688986E+03  0.81898688986E+03  0.00000000000E+00 0. -1.
         22   -1    0    0    0    0 -0.00000000000E+00 -0.00000000000E+00 -0.15152758884E+04  0.15152758884E+04  0.00000000000E+00 0. -1.
        -24    2    1    2    0    0  0.27513592333E+02  0.46281296386E+02 -0.14398500115E+04  0.14430581377E+04  0.79685487414E+02 0.  0.
         25    2    1    2    0    0 -0.10983256236E+03 -0.20556395256E+02  0.33117222302E+02  0.17096951765E+03  0.12509223961E+03 0.  0.
         24    2    1    2    0    0  0.82318970032E+02 -0.25724901130E+02  0.71044379068E+03  0.72023512293E+03  0.81055963461E+02 0.  0.
        -11    1    5    5    0    0  0.57902606895E+01  0.19735911013E+02  0.54010406346E+02  0.57794093954E+02  0.00000000000E+00 0.  1.
         12    1    5    5    0    0  0.76528709342E+02 -0.45460812143E+02  0.65643338434E+03  0.66244102897E+03  0.00000000000E+00 0. -1.
         13    1    3    3    0    0  0.46376052034E+02  0.57752238936E+02 -0.11230912832E+04  0.11255310257E+04  0.00000000000E+00 0. -1.
        -14    1    3    3    0    0 -0.18862459701E+02 -0.11470942550E+02 -0.31675872833E+03  0.31752711204E+03  0.00000000000E+00 0.  1.
          5    1    4    4  501    0 -0.23067796822E+02 -0.32904412294E+02 -0.39929299536E+02  0.56803564677E+02  0.41800000000E+01 0.  1.
         -5    1    4    4    0  501 -0.86764765542E+02  0.12348017038E+02  0.73046521838E+02  0.11416595297E+03  0.41800000000E+01 0.  1.
</event>
<event>
11    1  0.7105277E-009  0.1398313E+03  0.7561462E-02  0.1107747E+00
         22   -1    0    0    0    0  0.00000000000E+00  0.00000000000E+00  0.26002521721E+03  0.26002521721E+03  0.00000000000E+00 0. -1.
         22   -1    0    0    0    0 -0.00000000000E+00 -0.00000000000E+00 -0.82502143363E+03  0.82502143363E+03  0.00000000000E+00 0. -1.
         24    2    1    2    0    0  0.18259052206E+02 -0.60068074194E+02 -0.72549632406E+03  0.73253503947E+03  0.79505353876E+02 0.  0.
         25    2    1    2    0    0  0.23449681614E+01  0.61227293577E+02 -0.32550849856E+02  0.14303936316E+03  0.12508565558E+03 0.  0.
        -24    2    1    2    0    0 -0.20604020367E+02 -0.11592193831E+01  0.19305095750E+03  0.20947224821E+03  0.78638928874E+02 0.  0.
        -13    1    3    3    0    0  0.23841140000E+02  0.50659156241E+01 -0.77324786672E+02  0.81075187890E+02  0.00000000000E+00 0.  1.
         14    1    3    3    0    0 -0.55820877943E+01 -0.65133989818E+02 -0.64817153739E+03  0.65145985158E+03  0.00000000000E+00 0. -1.
         13    1    5    5    0    0 -0.21873188638E+02  0.11563801527E+02  0.19497812129E+03  0.19654166395E+03  0.00000000000E+00 0. -1.
        -14    1    5    5    0    0  0.12691682707E+01 -0.12723020910E+02 -0.19271637856E+01  0.12930584265E+02  0.00000000000E+00 0.  1.
          5    1    4    4  501    0  0.22458555736E+02 -0.34043246696E+02 -0.16837679458E+02  0.44320528211E+02  0.41800000000E+01 0. -1.
         -5    1    4    4    0  501 -0.20113587575E+02  0.95270540273E+02 -0.15713170398E+02  0.98718834946E+02  0.41800000000E+01 0. -1.
</event>
<event>
11    1  0.7105277E-009  0.2625218E+03  0.7561462E-02  0.1017432E+00
         22   -1    0    0    0    0  0.00000000000E+00  0.00000000000E+00  0.86713244431E+03  0.86713244431E+03  0.00000000000E+00 0. -1.
         22   -1    0    0    0    0 -0.00000000000E+00 -0.00000000000E+00 -0.10372636453E+04  0.10372636453E+04  0.00000000000E+00 0. -1.
        -24    2    1    2    0    0  0.24341274617E+02 -0.49433673487E+01 -0.68170532684E+03  0.68692671988E+03  0.80803659026E+02 0.  0.
         25    2    1    2    0    0  0.40199275461E+02 -0.21727502028E+03 -0.28640859510E+03  0.38275536123E+03  0.12508943608E+03 0.  0.
         24    2    1    2    0    0 -0.64540550079E+02  0.22221838763E+03  0.79798272098E+03  0.83471400847E+03  0.80153344025E+02 0.  0.
        -11    1    5    5    0    0  0.87337652432E+01  0.10739104213E+03  0.31669976716E+03  0.33452631750E+03  0.00000000000E+00 0.  1.
         12    1    5    5    0    0 -0.73274315322E+02  0.11482734550E+03  0.48128295382E+03  0.50018769097E+03  0.00000000000E+00 0. -1.
         13    1    3    3    0    0 -0.19956612587E+02 -0.18608262935E+01 -0.47879805862E+03  0.47921739326E+03  0.00000000000E+00 0. -1.
        -14    1    3    3    0    0  0.44297887204E+02 -0.30825410552E+01 -0.20290726822E+03  0.20770932662E+03  0.00000000000E+00 0.  1.
          5    1    4    4  501    0  0.64635102555E+02 -0.21427889453E+03 -0.27682242428E+03  0.35600739895E+03  0.41800000000E+01 0. -1.
         -5    1    4    4    0  501 -0.24435827094E+02 -0.29961257487E+01 -0.95861708263E+01  0.26747962285E+02  0.41800000000E+01 0. -1.
</event>
<event>
11    1  0.7105277E-009  0.1431747E+03  0.7561462E-02  0.1104064E+00
         22   -1    0    0    0    0  0.00000000000E+00  0.00000000000E+00  0.41210016163E+03  0.41210016163E+03  0.00000000000E+00 0.  1.
         22   -1    0    0    0    0 -0.00000000000E+00 -0.00000000000E+00 -0.16362723186E+04  0.16362723186E+04  0.00000000000E+00 0. -1.
         24    2    1    2    0    0 -0.23647897563E+02  0.23885200274E+02 -0.13604057237E+04  0.13641472459E+04  0.95206352230E+02 0.  0.
         25    2    1    2    0    0  0.24555705751E+02  0.46381200245E+02 -0.24949430892E+03  0.28398829100E+03  0.12509093021E+03 0.  0.
        -24    2    1    2    0    0 -0.90780818817E+00 -0.70266400518E+02  0.38572787571E+03  0.40023694329E+03  0.80407869743E+02 0.  0.
        -11    1    3    3    0    0 -0.50349955371E+02 -0.23157881925E+01 -0.42251900629E+03  0.42551473718E+03  0.00000000000E+00 0.  1.
         12    1    3    3    0    0  0.26702057808E+02  0.26200988466E+02 -0.93788671746E+03  0.93863250875E+03  0.00000000000E+00 0. -1.
         13    1    5    5    0    0  0.21585749775E+02  0.96343892711E+01  0.77183200239E+02  0.80721821394E+02  0.00000000000E+00 0. -1.
        -14    1    5    5    0    0 -0.22493557963E+02 -0.79900789789E+02  0.30854467547E+03  0.31951512189E+03  0.00000000000E+00 0.  1.
          5    1    4    4  501    0  0.28361942034E+02  0.13371817774E+02  0.62222072299E+00  0.31639608486E+02  0.41800000000E+01 0.  1.
         -5    1    4    4    0  501 -0.38062362829E+01  0.33009382470E+02 -0.25011652965E+03  0.25234868252E+03  0.41800000000E+01 0.  1.
</event>
<event>
11    1  0.7105277E-009  0.1679784E+03  0.7561462E-02  0.1079804E+00
         22   -1    0    0    0    0  0.00000000000E+00  0.00000000000E+00  0.37364159087E+03  0.37364159087E+03  0.00000000000E+00 0.  1.
         22   -1    0    0    0    0 -0.00000000000E+00 -0.00000000000E+00 -0.47638724028E+03  0.47638724028E+03  0.00000000000E+00 0. -1.
        -24    2    1    2    0    0  0.34597598929E+02 -0.29153115083E+02 -0.36928306644E+03  0.38234627942E+03  0.88157791782E+02 0.  0.
         25    2    1    2    0    0 -0.13982667775E+03  0.94915685006E+01  0.22457659578E+02  0.18919165199E+03  0.12509014759E+03 0.  0.
         24    2    1    2    0    0  0.10522907882E+03  0.19661546582E+02  0.24407975745E+03  0.27849089975E+03  0.80762106235E+02 0.  0.
        -11    1    5    5    0    0  0.18258217826E+02  0.12530939735E+02  0.14407386512E+03  0.14576579016E+03  0.00000000000E+00 0.  1.
         12    1    5    5    0    0  0.86970860995E+02  0.71306068472E+01  0.10000589232E+03  0.13272510959E+03  0.00000000000E+00 0. -1.
         11    1    3    3    0    0  0.41053001447E+02  0.14194159641E+02 -0.27457659698E+03  0.27799124213E+03  0.00000000000E+00 0. -1.
        -12    1    3    3    0    0 -0.64554025181E+01 -0.43347274724E+02 -0.94706469465E+02  0.10435503728E+03  0.00000000000E+00 0.  1.
          5    1    4    4  501    0 -0.10291127674E+03  0.17408394705E+02  0.71923496602E+02  0.12682367622E+03  0.41800000000E+01 0. -1.
         -5    1    4    4    0  501 -0.36915401010E+02 -0.79168262047E+01 -0.49465837024E+02  0.62367975768E+02  0.41800000000E+01 0. -1.
</event>
<event>
11    1  0.7105277E-009  0.1719789E+03  0.7561462E-02  0.1076322E+00
         22   -1    0    0    0    0  0.00000000000E+00  0.00000000000E+00  0.71816153706E+03  0.71816153706E+03  0.00000000000E+00 0.  1.
         22   -1    0    0    0    0 -0.00000000000E+00 -0.00000000000E+00 -0.91131928350E+03  0.91131928350E+03  0.00000000000E+00 0.  1.
        -24    2    1    2    0    0 -0.54784668774E+02  0.48593352216E+02 -0.80334715041E+03  0.81017117245E+03  0.75153248743E+02 0.  0.
         25    2    1    2    0    0  0.16276032775E+03 -0.81253946077E+02  0.30014584983E+02  0.22280174328E+03  0.12508642395E+03 0.  0.
         24    2    1    2    0    0 -0.10797565898E+03  0.32660593861E+02  0.58017481899E+03  0.59650790482E+03  0.80581651803E+02 0.  0.
        -11    1    5    5    0    0 -0.11090869554E+03  0.24400033483E+02  0.39170673879E+03  0.40783608177E+03  0.00000000000E+00 0.  1.
         12    1    5    5    0    0  0.29330365600E+01  0.82605603784E+01  0.18846808020E+03  0.18867182305E+03  0.00000000000E+00 0. -1.
         11    1    3    3    0    0 -0.41149733076E+01  0.44098112734E+02 -0.20845440004E+03  0.21310751617E+03  0.00000000000E+00 0. -1.
        -12    1    3    3    0    0 -0.50669695466E+02  0.44952394819E+01 -0.59489275036E+03  0.59706365628E+03  0.00000000000E+00 0.  1.
          5    1    4    4  501    0  0.12252124023E+02  0.30364867553E+02  0.14642401088E+00  0.33009598068E+02  0.41800000000E+01 0. -1.
         -5    1    4    4    0  501  0.15050820373E+03 -0.11161881363E+03  0.29868160972E+02  0.18979214522E+03  0.41800000000E+01 0. -1.
</event>
<event>
11    1  0.7105277E-009  0.1551120E+03  0.7561462E-02  0.1091767E+00
         22   -1    0    0    0    0  0.00000000000E+00  0.00000000000E+00  0.23453703713E+03  0.23453703713E+03  0.00000000000E+00 0.  1.
         22   -1    0    0    0    0 -0.00000000000E+00 -0.00000000000E+00 -0.18740949341E+04  0.18740949341E+04  0.00000000000E+00 0. -1.
         24    2    1    2    0    0 -0.78394097002E+02  0.47435267227E+02 -0.16897609069E+04  0.16942472078E+04  0.82376814644E+02 0.  0.
         25    2    1    2    0    0  0.76008492358E+02 -0.54194541541E+02 -0.13917660135E+03  0.20912239169E+03  0.12509080341E+03 0.  0.
        -24    2    1    2    0    0  0.23856046444E+01  0.67592743143E+01  0.18937961130E+03  0.20526237175E+03  0.78845578081E+02 0.  0.
        -11    1    3    3    0    0 -0.55955994656E+02  0.48449127062E+02 -0.64310370276E+03  0.64734902777E+03  0.00000000000E+00 0.  1.
         12    1    3    3    0    0 -0.22438102347E+02 -0.10138598350E+01 -0.10466572042E+04  0.10468981800E+04  0.00000000000E+00 0. -1.
         13    1    5    5    0    0  0.35856633715E+02 -0.36949623253E-01  0.14439989894E+03  0.14878518192E+03  0.00000000000E+00 0. -1.
        -14    1    5    5    0    0 -0.33471029071E+02  0.67962239376E+01  0.44979712358E+02  0.56477189826E+02  0.00000000000E+00 0.  1.
          5    1    4    4  501    0  0.10835314470E+03 -0.24837478512E+02 -0.88984532759E+02  0.14245358463E+03  0.41800000000E+01 0.  1.
         -5    1    4    4    0  501 -0.32344652337E+02 -0.29357063029E+02 -0.50192068594E+02  0.66668807056E+02  0.41800000000E+01 0.  1.
</event>
<event>
11    1  0.7105277E-009  0.1341742E+03  0.7561462E-02  0.1114244E+00
         22   -1    0    0    0    0  0.00000000000E+00  0.00000000000E+00  0.39536242087E+03  0.39536242087E+03  0.00000000000E+00 0. -1.
         22   -1    0    0    0    0 -0.00000000000E+00 -0.00000000000E+00 -0.17611096156E+03  0.17611096156E+03  0.00000000000E+00 0.  1.
         24    2    1    2    0    0 -0.95593421983E+01 -0.73146171064E+01 -0.67758212176E+02  0.10571138358E+03  0.80242361973E+02 0.  0.
         25    2    1    2    0    0  0.53353031739E+02 -0.12605071149E+02 -0.26383374541E+02  0.13909789535E+03  0.12508680276E+03 0.  0.
        -24    2    1    2    0    0 -0.43793689540E+02  0.19919688255E+02  0.31339304603E+03  0.32666410349E+03  0.78610139212E+02 0.  0.
        -13    1    3    3    0    0  0.28291564683E-01 -0.43364097564E+02 -0.30710072897E+02  0.53137127654E+02  0.00000000000E+00 0.  1.
         14    1    3    3    0    0 -0.95876337630E+01  0.36049480458E+02 -0.37048139279E+02  0.52574255929E+02  0.00000000000E+00 0. -1.
         11    1    5    5    0    0 -0.57281240644E+02  0.30738548668E+02  0.29204283435E+03  0.29919060145E+03  0.00000000000E+00 0. -1.
        -12    1    5    5    0    0  0.13487551104E+02 -0.10818860413E+02  0.21350211680E+02  0.27473502037E+02  0.00000000000E+00 0.  1.
          5    1    4    4  501    0 -0.30220254734E+02  0.29846269919E+02 -0.10216663318E+02  0.43885262145E+02  0.41800000000E+01 0. -1.
         -5    1    4    4    0  501  0.83573286472E+02 -0.42451341067E+02 -0.16166711223E+02  0.95212633206E+02  0.41800000000E+01 0. -1.
</event>
<event>
11    1  0.7105277E-009  0.1394473E+03  0.7561462E-02  0.1108177E+00
         22   -1    0    0    0    0  0.00000000000E+00  0.00000000000E+00  0.69260891374E+03  0.69260891374E+03  0.00000000000E+00 0.  1.
         22   -1    0    0    0    0 -0.00000000000E+00 -0.00000000000E+00 -0.12334958846E+03  0.12334958846E+03  0.00000000000E+00 0.  1.
        -24    2    1    2    0    0  0.28297936104E+02  0.50344590068E+02 -0.67166780921E+02  0.12027270125E+03  0.81355978695E+02 0.  0.
         25    2    1    2    0    0 -0.45386785216E+02 -0.90126580327E+02  0.23949963967E+03  0.28841440418E+03  0.12506010708E+03 0.  0.
         24    2    1    2    0    0  0.17088849112E+02  0.39781990259E+02  0.39692646653E+03  0.40727139678E+03  0.80279108671E+02 0.  0.
        -11    1    5    5    0    0 -0.15481641858E+02  0.40477682143E+02  0.33003859913E+03  0.33287174843E+03  0.00000000000E+00 0.  1.
         12    1    5    5    0    0  0.32570490970E+02 -0.69569188406E+00  0.66887867397E+02  0.74399648347E+02  0.00000000000E+00 0. -1.
         13    1    3    3    0    0  0.13367017070E+02 -0.62135560883E+01  0.13929466454E+02  0.20280913695E+02  0.00000000000E+00 0. -1.
        -14    1    3    3    0    0  0.14930919034E+02  0.56558146156E+02 -0.81096247375E+02  0.99991787553E+02  0.00000000000E+00 0.  1.
          5    1    4    4  501    0  0.15006683575E+01 -0.21238496212E+02 -0.11041428219E+02  0.24345662118E+02  0.41800000000E+01 0.  1.
         -5    1    4    4    0  501 -0.46887453573E+02 -0.68888084115E+02  0.25054106789E+03  0.26406874206E+03  0.41800000000E+01 0.  1.
</event>
<event>
11    1  0.7105277E-009  0.1402968E+03  0.7561462E-02  0.1107227E+00
         22   -1    0    0    0    0  0.00000000000E+00  0.00000000000E+00  0.57912470734E+03  0.57912470734E+03  0.00000000000E+00 0.  1.
         22   -1    0    0    0    0 -0.00000000000E+00 -0.00000000000E+00 -0.90503524404E+03  0.90503524404E+03  0.00000000000E+00 0.  1.
         24    2    1    2    0    0  0.63384874532E+02  0.77738836845E+01 -0.87025289713E+03  0.87644006742E+03  0.82030550644E+02 0.  0.
         25    2    1    2    0    0 -0.53224085464E+02  0.57444585076E+02  0.20491817125E+03  0.25252913093E+03  0.12508725527E+03 0.  0.
        -24    2    1    2    0    0 -0.10160789069E+02 -0.65218468761E+02  0.33942418918E+03  0.35519075302E+03  0.81209608636E+02 0.  0.
        -11    1    3    3    0    0  0.78790333905E+02  0.68775930368E+01 -0.82161432040E+03  0.82541220580E+03  0.00000000000E+00 0.  1.
         12    1    3    3    0    0 -0.15405459373E+02  0.89629064772E+00 -0.48638576727E+02  0.51027861619E+02  0.00000000000E+00 0. -1.
         13    1    5    5    0    0 -0.38871189003E+02 -0.30968238796E+02  0.10043702539E+03  0.11206068542E+03  0.00000000000E+00 0. -1.
        -14    1    5    5    0    0  0.28710399934E+02 -0.34250229965E+02  0.23898716379E+03  0.24313006760E+03  0.00000000000E+00 0.  1.
          5    1    4    4  501    0  0.29337204751E+02  0.57640717060E+02  0.94673611613E+02  0.11473312068E+03  0.41800000000E+01 0. -1.
         -5    1    4    4    0  501 -0.82561290214E+02 -0.19613198327E+00  0.11024455964E+03  0.13779601024E+03  0.41800000000E+01 0. -1.
</event>
<event>
11    1  0.7105277E-009  0.1546782E+03  0.7561462E-02  0.1092192E+00
         22   -1    0    0    0    0  0.00000000000E+00  0.00000000000E+00  0.82243235451E+03  0.82243235451E+03  0.00000000000E+00 0.  1.
         22   -1    0    0    0    0 -0.00000000000E+00 -0.00000000000E+00 -0.32270131926E+03  0.32270131926E+03  0.00000000000E+00 0.  1.
         24    2    1    2    0    0 -0.36171638427E+02  0.77979943137E+02 -0.20686422545E+03  0.23802003639E+03  0.80445453544E+02 0.  0.
         25    2    1    2    0    0  0.62610348635E+02 -0.97530713960E+02 -0.23174220391E+02  0.17208886691E+03  0.12508092461E+03 0.  0.
        -24    2    1    2    0    0 -0.26438710208E+02  0.19550770823E+02  0.72976948109E+03  0.73502477047E+03  0.81342975331E+02 0.  0.
        -11    1    3    3    0    0 -0.23682002654E+02  0.70724927108E+02 -0.21033299206E+03  0.22316545457E+03  0.00000000000E+00 0.  1.
         12    1    3    3    0    0 -0.12489635772E+02  0.72550160289E+01  0.34687666127E+01  0.14854581823E+02  0.00000000000E+00 0. -1.
         13    1    5    5    0    0 -0.33044362405E+01  0.82927241953E+00 -0.10766338406E+01  0.35729724377E+01  0.00000000000E+00 0. -1.
        -14    1    5    5    0    0 -0.23134273967E+02  0.18721498404E+02  0.73084611493E+03  0.73145179803E+03  0.00000000000E+00 0.  1.
          5    1    4    4  501    0  0.28214676520E+02 -0.12090433834E+03  0.15501835540E+00  0.12422328055E+03  0.41800000000E+01 0.  1.
         -5    1    4    4    0  501  0.34395672115E+02  0.23373624378E+02 -0.23329238746E+02  0.47865586357E+02  0.41800000000E+01 0.  1.
</event>
<event>
11    1  0.7105277E-009  0.1337224E+03  0.7561462E-02  0.1114778E+00
         22   -1    0    0    0    0  0.00000000000E+00  0.00000000000E+00  0.13286485251E+03  0.13286485251E+03  0.00000000000E+00 0.  1.
         22   -1    0    0    0    0 -0.00000000000E+00 -0.00000000000E+00 -0.42776003264E+03  0.42776003264E+03  0.00000000000E+00 0. -1.
         24    2    1    2    0    0 -0.17876480648E+02 -0.44317764524E+02 -0.31262161757E+03  0.32623403339E+03  0.80079560186E+02 0.  0.
         25    2    1    2    0    0 -0.11257411031E+02  0.49803123084E+02 -0.27484714583E+02  0.13788008427E+03  0.12509367583E+03 0.  0.
        -24    2    1    2    0    0  0.29133891679E+02 -0.54853585602E+01  0.45211152013E+02  0.96510767485E+02  0.79946276782E+02 0.  0.
        -13    1    3    3    0    0  0.71480574632E+01 -0.27477637146E+02 -0.27518089202E+02  0.39539353838E+02  0.00000000000E+00 0.  1.
         14    1    3    3    0    0 -0.25024538111E+02 -0.16840127378E+02 -0.28510352837E+03  0.28669467955E+03  0.00000000000E+00 0. -1.
         11    1    5    5    0    0  0.45980272135E+02 -0.12941788615E+02  0.82888483239E-01  0.47766957080E+02  0.00000000000E+00 0. -1.
        -12    1    5    5    0    0 -0.16846380456E+02  0.74564300544E+01  0.45128263530E+02  0.48743810405E+02  0.00000000000E+00 0.  1.
          5    1    4    4  501    0  0.13855436866E+02  0.51019952211E+02  0.39554595457E+02  0.66159255408E+02  0.41800000000E+01 0. -1.
         -5    1    4    4    0  501 -0.25112847897E+02 -0.12168291275E+01 -0.67039310040E+02  0.71720828866E+02  0.41800000000E+01 0. -1.
</event>
<event>
11    1  0.7105277E-009  0.1738599E+03  0.7561462E-02  0.1074721E+00
         22   -1    0    0    0    0  0.00000000000E+00  0.00000000000E+00  0.24912339178E+04  0.24912339178E+04  0.00000000000E+00 0. -1.
         22   -1    0    0    0    0 -0.00000000000E+00 -0.00000000000E+00 -0.67337255665E+02  0.67337255665E+02  0.00000000000E+00 0.  1.
        -24    2    1    2    0    0  0.19162424832E+02  0.85575107717E+01 -0.10088909930E+02  0.82870539718E+02  0.79531822144E+02 0.  0.
         25    2    1    2    0    0 -0.12397141091E+03 -0.63019947958E+02  0.46155854837E+03  0.49801853698E+03  0.12508295262E+03 0.  0.
         24    2    1    2    0    0  0.10480898608E+03  0.54462437186E+02  0.19724270237E+04  0.19776820967E+04  0.82504735984E+02 0.  0.
        -13    1    5    5    0    0 -0.13164565973E+02  0.73079871849E+01  0.33267386160E+03  0.33301443012E+03  0.00000000000E+00 0.  1.
         14    1    5    5    0    0  0.11797355205E+03  0.47154450001E+02  0.16397531621E+04  0.16446676666E+04  0.00000000000E+00 0. -1.
         11    1    3    3    0    0 -0.22336489234E+02  0.18569525922E+02  0.15677112422E+02  0.33007846009E+02  0.00000000000E+00 0. -1.
        -12    1    3    3    0    0  0.41498914066E+02 -0.10012015151E+02 -0.25766022352E+02  0.49862693708E+02  0.00000000000E+00 0.  1.
          5    1    4    4  501    0 -0.51544307694E+01 -0.67459257141E+02  0.15444151311E+03  0.16866230433E+03  0.41800000000E+01 0. -1.
         -5    1    4    4    0  501 -0.11881698014E+03  0.44393091834E+01  0.30711703527E+03  0.32935623265E+03  0.41800000000E+01 0. -1.
</event>
<event>
11    1  0.7105277E-009  0.1824505E+03  0.7561462E-02  0.1067678E+00
         22   -1    0    0    0    0  0.00000000000E+00  0.00000000000E+00  0.23187344745E+04  0.23187344745E+04  0.00000000000E+00 0.  1.
         22   -1    0    0    0    0 -0.00000000000E+00 -0.00000000000E+00 -0.25273212646E+03  0.25273212646E+03  0.00000000000E+00 0.  1.
        -24    2    1    2    0    0  0.12818302067E+03 -0.32910607814E+02 -0.21632340397E+03  0.26650382212E+03  0.81941913604E+02 0.  0.
         25    2    1    2    0    0 -0.15383512470E+03  0.11729748802E+02  0.10018358827E+04  0.10213354497E+04  0.12509249588E+03 0.  0.
         24    2    1    2    0    0  0.25652104029E+02  0.21180859012E+02  0.12804898694E+04  0.12836273291E+04  0.83295589638E+02 0.  0.
        -13    1    5    5    0    0  0.52483234288E+02 -0.39761863235E+01  0.70326989189E+03  0.70523672676E+03  0.00000000000E+00 0.  1.
         14    1    5    5    0    0 -0.26831130259E+02  0.25157045335E+02  0.57721997747E+03  0.57839060234E+03  0.00000000000E+00 0. -1.
         13    1    3    3    0    0 -0.32973117757E+01 -0.97470652065E+01  0.21085842746E+01  0.10503507639E+02  0.00000000000E+00 0. -1.
        -14    1    3    3    0    0  0.13148033245E+03 -0.23163542607E+02 -0.21843198824E+03  0.25600031448E+03  0.00000000000E+00 0.  1.
          5    1    4    4  501    0 -0.15524125325E+03 -0.51208974496E+01  0.62248348538E+03  0.64158337905E+03  0.41800000000E+01 0. -1.
         -5    1    4    4    0  501  0.14061285499E+01  0.16850646252E+02  0.37935239728E+03  0.37975207070E+03  0.41800000000E+01 0. -1.
</event>
<event>
11    1  0.7105277E-009  0.1313569E+03  0.7561462E-02  0.1117613E+00
         22   -1    0    0    0    0  0.00000000000E+00  0.00000000000E+00  0.24249129723E+03  0.24249129723E+03  0.00000000000E+00 0.  1.
         22   -1    0    0    0    0 -0.00000000000E+00 -0.00000000000E+00 -0.12150344328E+03  0.12150344328E+03  0.00000000000E+00 0. -1.
         24    2    1    2    0    0 -0.37566608604E+01  0.43826010623E+01 -0.25644461733E+02  0.83854611103E+02  0.79628121244E+02 0.  0.
         25    2    1    2    0    0 -0.26520876521E+02 -0.30604787088E+02  0.29276833959E+02  0.13470513260E+03  0.12509328462E+03 0.  0.
        -24    2    1    2    0    0  0.30277537382E+02  0.26222186025E+02  0.11735548173E+03  0.14543499681E+03  0.75991426452E+02 0.  0.
        -13    1    3    3    0    0 -0.55583762162E+01 -0.21563513931E+02  0.20897683839E+02  0.30538399910E+02  0.00000000000E+00 0.  1.
         14    1    3    3    0    0  0.18017153559E+01  0.25946114994E+02 -0.46542145573E+02  0.53316211193E+02  0.00000000000E+00 0. -1.
         13    1    5    5    0    0  0.29678625669E+02 -0.67902991535E+01  0.83950044962E+01  0.31581720737E+02  0.00000000000E+00 0. -1.
        -14    1    5    5    0    0  0.59891171252E+00  0.33012485179E+02  0.10896047723E+03  0.11385327607E+03  0.00000000000E+00 0.  1.
          5    1    4    4  501    0 -0.76203510345E+02 -0.87473989848E+01  0.21037594804E+02  0.79646373258E+02  0.41800000000E+01 0.  1.
         -5    1    4    4    0  501  0.49682633824E+02 -0.21857388103E+02  0.82392391548E+01  0.55058759342E+02  0.41800000000E+01 0.  1.
</event>
<event>
11    1  0.7105277E-009  0.2250197E+03  0.7561462E-02  0.1038118E+00
         22   -1    0    0    0    0  0.00000000000E+00  0.00000000000E+00  0.12904316488E+04  0.12904316488E+04  0.00000000000E+00 0.  1.
         22   -1    0    0    0    0 -0.00000000000E+00 -0.00000000000E+00 -0.10530985182E+04  0.10530985182E+04  0.00000000000E+00 0.  1.
         24    2    1    2    0    0 -0.78720241045E+01 -0.14695719064E+03 -0.40953620479E+03  0.44311774350E+03  0.83516746404E+02 0.  0.
         25    2    1    2    0    0  0.81193015308E+02  0.27091221753E+03 -0.58251594196E+03  0.65951397470E+03  0.12509246521E+03 0.  0.
        -24    2    1    2    0    0 -0.73320991204E+02 -0.12395502689E+03  0.12293852774E+04  0.12408984489E+04  0.87749551432E+02 0.  0.
        -13    1    3    3    0    0 -0.44893201947E+02 -0.97903357200E+02 -0.26603345878E+03  0.28700917777E+03  0.00000000000E+00 0.  1.
         14    1    3    3    0    0  0.37021177842E+02 -0.49053833437E+02 -0.14350274601E+03  0.15610856573E+03  0.00000000000E+00 0. -1.
         13    1    5    5    0    0  0.11850551447E+02 -0.61308169227E+02  0.41256667979E+03  0.41726537414E+03  0.00000000000E+00 0. -1.
        -14    1    5    5    0    0 -0.85171542651E+02 -0.62646857664E+02  0.81681859758E+03  0.82363307474E+03  0.00000000000E+00 0.  1.
          5    1    4    4  501    0  0.70243268842E+02  0.50088678912E+02 -0.19648110657E+03  0.21462826052E+03  0.41800000000E+01 0. -1.
         -5    1    4    4    0  501  0.10949746466E+02  0.22082353862E+03 -0.38603483538E+03  0.44488571418E+03  0.41800000000E+01 0. -1.
</event>
<event>
11    1  0.7105277E-009  0.2114877E+03  0.7561462E-02  0.1046685E+00
         22   -1    0    0    0    0  0.00000000000E+00  0.00000000000E+00  0.18902673701E+04  0.18902673701E+04  0.00000000000E+00 0.  1.
         22   -1    0    0    0    0 -0.00000000000E+00 -0.00000000000E+00 -0.29154327790E+04  0.29154327790E+04  0.00000000000E+00 0. -1.
         24    2    1    2    0    0 -0.50839619595E+02 -0.38623760183E+02 -0.18239771036E+04  0.18275107044E+04  0.93949127138E+02 0.  0.
         25    2    1    2    0    0  0.18982322308E+03 -0.59993940994E+02 -0.10721696809E+04  0.10976504269E+04  0.12512596077E+03 0.  0.
        -24    2    1    2    0    0 -0.13898360348E+03  0.98617701177E+02  0.18709813757E+04  0.18805390177E+04  0.82545720373E+02 0.  0.
        -11    1    3    3    0    0 -0.27904058268E+01  0.22751711905E+02 -0.15209789508E+03  0.15381546232E+03  0.00000000000E+00 0.  1.
         12    1    3    3    0    0 -0.48049213768E+02 -0.61375472088E+02 -0.16718792085E+04  0.16736952421E+04  0.00000000000E+00 0. -1.
         13    1    5    5    0    0 -0.11597266901E+02 -0.14094070100E+02  0.13134648881E+03  0.13260859525E+03  0.00000000000E+00 0. -1.
        -14    1    5    5    0    0 -0.12738633658E+03  0.11271177128E+03  0.17396348868E+04  0.17479304224E+04  0.00000000000E+00 0.  1.
          5    1    4    4  501    0  0.14955461856E+03 -0.98155114510E+02 -0.78421471494E+03  0.80437006531E+03  0.41800000000E+01 0. -1.
         -5    1    4    4    0  501  0.40268604516E+02  0.38161173516E+02 -0.28795496599E+03  0.29328036162E+03  0.41800000000E+01 0. -1.
</event>
<event>
11    1  0.7105277E-009  0.1305275E+03  0.7561462E-02  0.1118623E+00
         22   -1    0    0    0    0  0.00000000000E+00  0.00000000000E+00  0.10790878694E+03  0.10790878694E+03  0.00000000000E+00 0. -1.
         22   -1    0    0    0    0 -0.00000000000E+00 -0.00000000000E+00 -0.15432715959E+04  0.15432715959E+04  0.00000000000E+00 0. -1.
         24    2    1    2    0    0  0.33143419044E+02  0.14194926992E+02 -0.13008401959E+04  0.13038262031E+04  0.80483353870E+02 0.  0.
         25    2    1    2    0    0 -0.41788348961E+02 -0.41723673298E+02 -0.19692446285E+03  0.24065291333E+03  0.12508976617E+03 0.  0.
        -24    2    1    2    0    0  0.86449299167E+01  0.27528746306E+02  0.62401849812E+02  0.10670126646E+03  0.81600261751E+02 0.  0.
        -13    1    3    3    0    0 -0.20195151881E+02 -0.33794061439E+01 -0.12671443245E+03  0.12835813935E+03  0.00000000000E+00 0.  1.
         14    1    3    3    0    0  0.53338570925E+02  0.17574333136E+02 -0.11741257635E+04  0.11754680637E+04  0.00000000000E+00 0. -1.
         11    1    5    5    0    0 -0.73992635883E+01  0.46668950933E+02  0.66308726764E+02  0.81422277835E+02  0.00000000000E+00 0. -1.
        -12    1    5    5    0    0  0.16044193505E+02 -0.19140204627E+02 -0.39068769522E+01  0.25278988625E+02  0.00000000000E+00 0.  1.
          5    1    4    4  501    0 -0.52823559201E+02  0.56524098837E+01 -0.18193715588E+03  0.18958079870E+03  0.41800000000E+01 0.  1.
         -5    1    4    4    0  501  0.11035210240E+02 -0.47376083181E+02 -0.14987306970E+02  0.51072114631E+02  0.41800000000E+01 0.  1.
</event>
<event>
11    1  0.7105277E-009  0.1337809E+03  0.7561462E-02  0.1114709E+00
         22   -1    0    0    0    0  0.00000000000E+00  0.00000000000E+00  0.12979587474E+03  0.12979587474E+03  0.00000000000E+00 0. -1.
         22   -1    0    0    0    0 -0.00000000000E+00 -0.00000000000E+00 -0.63386771617E+03  0.63386771617E+03  0.00000000000E+00 0. -1.
         24    2    1    2    0    0 -0.65027051660E+01 -0.47754592072E+02 -0.51735929287E+03  0.52530908286E+03  0.77241234956E+02 0.  0.
         25    2    1    2    0    0  0.13800118796E+02  0.36784272362E+02 -0.43683629822E+02  0.13819989031E+03  0.12508966462E+03 0.  0.
        -24    2    1    2    0    0 -0.72974136301E+01  0.10970319710E+02  0.56971081254E+02  0.10015461774E+03  0.81312011389E+02 0.  0.
        -11    1    3    3    0    0  0.43657658077E+01 -0.12005417793E+02 -0.91148398902E+01  0.15693000787E+02  0.00000000000E+00 0.  1.
         12    1    3    3    0    0 -0.10868470974E+02 -0.35749174279E+02 -0.50824445298E+03  0.50961608207E+03  0.00000000000E+00 0. -1.
         13    1    5    5    0    0  0.33064917515E+02 -0.10371541425E+02  0.35809876996E+02  0.49831766297E+02  0.00000000000E+00 0. -1.
        -14    1    5    5    0    0 -0.40362331145E+02  0.21341861135E+02  0.21161204258E+02  0.50322851448E+02  0.00000000000E+00 0.  1.
          5    1    4    4  501    0  0.36478801317E+02  0.42795682141E+02  0.27785360263E+02  0.62862325763E+02  0.41800000000E+01 0. -1.
         -5    1    4    4    0  501 -0.22678682521E+02 -0.60114097782E+01 -0.71468990085E+02  0.75337564549E+02  0.41800000000E+01 0. -1.
</event>
<event>
11    1  0.7105277E-009  0.1934095E+03  0.7561462E-02  0.1059284E+00
         22   -1    0    0    0    0  0.00000000000E+00  0.00000000000E+00  0.15462202942E+04  0.15462202942E+04  0.00000000000E+00 0. -1.
         22   -1    0    0    0    0 -0.00000000000E+00 -0.00000000000E+00 -0.36783426450E+03  0.36783426450E+03  0.00000000000E+00 0.  1.
         24    2    1    2    0    0  0.12137187480E+03  0.82326299895E+02 -0.32150621949E+03  0.36276751396E+03  0.82007733580E+02 0.  0.
         25    2    1    2    0    0 -0.18031093009E+03 -0.36446038075E+02  0.52452430610E+03  0.56974716743E+03  0.12508294008E+03 0.  0.
        -24    2    1    2    0    0  0.58939055288E+02 -0.45880261820E+02  0.97536794309E+03  0.98153987733E+03  0.80616969147E+02 0.  0.
        -13    1    3    3    0    0  0.83579877132E+02  0.63659644848E+02 -0.29456954198E+03  0.31274488214E+03  0.00000000000E+00 0.  1.
         14    1    3    3    0    0  0.37791997670E+02  0.18666655047E+02 -0.26936677503E+02  0.50022631813E+02  0.00000000000E+00 0. -1.
         13    1    5    5    0    0  0.10955137552E+02 -0.95787566723E+01  0.67747315939E+03  0.67762943363E+03  0.00000000000E+00 0. -1.
        -14    1    5    5    0    0  0.47983917735E+02 -0.36301505148E+02  0.29789478369E+03  0.30391044370E+03  0.00000000000E+00 0.  1.
          5    1    4    4  501    0 -0.12173418433E+03 -0.82701325107E+02  0.36505285879E+03  0.39362391051E+03  0.41800000000E+01 0.  1.
         -5    1    4    4    0  501 -0.58576745761E+02  0.46255287032E+02  0.15947144731E+03  0.17612325692E+03  0.41800000000E+01 0.  1.
</event>
<event>
11    1  0.7105277E-009  0.2327092E+03  0.7561462E-02  0.1033536E+00
         22   -1    0    0    0    0  0.00000000000E+00  0.00000000000E+00  0.46043149611E+03  0.46043149611E+03  0.00000000000E+00 0.  1.
         22   -1    0    0    0    0 -0.00000000000E+00 -0.00000000000E+00 -0.64896950651E+03  0.64896950651E+03  0.00000000000E+00 0.  1.
         24    2    1    2    0    0 -0.19047719673E+03 -0.55592662297E+02 -0.54457395845E+03  0.58508589887E+03  0.79953775783E+02 0.  0.
         25    2    1    2    0    0  0.16047757776E+03  0.87164441930E+02  0.83049974609E+02  0.23642444410E+03  0.12509407094E+03 0.  0.
        -24    2    1    2    0    0  0.29999618965E+02 -0.31571779634E+02  0.27298597344E+03  0.28789065965E+03  0.80392386525E+02 0.  0.
        -13    1    3    3    0    0 -0.14334301569E+03 -0.74139190804E+02 -0.37874156156E+03  0.41169043007E+03  0.00000000000E+00 0.  1.
         14    1    3    3    0    0 -0.47134181036E+02  0.18546528507E+02 -0.16583239689E+03  0.17339546880E+03  0.00000000000E+00 0. -1.
         11    1    5    5    0    0 -0.48640358902E+00  0.11735089646E+02  0.21690587196E+01  0.11943773824E+02  0.00000000000E+00 0. -1.
        -12    1    5    5    0    0  0.30486022554E+02 -0.43306869279E+02  0.27081691472E+03  0.27594688583E+03  0.00000000000E+00 0.  1.
          5    1    4    4  501    0  0.17071614805E+03  0.65112691311E+02  0.98203042321E+02  0.20747283123E+03  0.41800000000E+01 0. -1.
         -5    1    4    4    0  501 -0.10238570291E+02  0.22051750620E+02 -0.15153067712E+02  0.28951612876E+02  0.41800000000E+01 0. -1.
</event>
<event>
11    1  0.7105277E-009  0.1468107E+03  0.7561462E-02  0.1100183E+00
         22   -1    0    0    0    0  0.00000000000E+00  0.00000000000E+00  0.44374842890E+03  0.44374842890E+03  0.00000000000E+00 0.  1.
         22   -1    0    0    0    0 -0.00000000000E+00 -0.00000000000E+00 -0.58373222592E+03  0.58373222592E+03  0.00000000000E+00 0.  1.
        -24    2    1    2    0    0 -0.35244357689E+02  0.15644773218E+02 -0.53254614171E+03  0.53996061111E+03  0.80406124338E+02 0.  0.
         25    2    1    2    0    0 -0.29740346965E+02  0.44012586237E+02  0.10920901900E+03  0.17434883722E+03  0.12509720711E+03 0.  0.
         24    2    1    2    0    0  0.64984704654E+02 -0.59657359455E+02  0.28335332569E+03  0.31317120648E+03  0.10002542183E+03 0.  0.
        -13    1    5    5    0    0  0.86695837780E+02 -0.62761467350E+02  0.25982735180E+03  0.28100786967E+03  0.00000000000E+00 0.  1.
         14    1    5    5    0    0 -0.21711133125E+02  0.31041078948E+01  0.23525973886E+02  0.32163336809E+02  0.00000000000E+00 0. -1.
         13    1    3    3    0    0  0.22650382661E+02  0.61949061456E+01 -0.72957472490E+02  0.76643391685E+02  0.00000000000E+00 0. -1.
        -14    1    3    3    0    0 -0.57894740351E+02  0.94498670720E+01 -0.45958866922E+03  0.46331721943E+03  0.00000000000E+00 0.  1.
          5    1    4    4  501    0 -0.41052532831E+02 -0.28622224986E+02  0.10671238141E+02  0.51340918753E+02  0.41800000000E+01 0.  1.
         -5    1    4    4    0  501  0.11312185866E+02  0.72634811223E+02  0.98537780856E+02  0.12300791847E+03  0.41800000000E+01 0.  1.
</event>
<event>
11    1  0.7105277E-009  0.1608255E+03  0.7561462E-02  0.1086303E+00
         22   -1    0    0    0    0  0.00000000000E+00  0.00000000000E+00  0.19610910021E+04  0.19610910021E+04  0.00000000000E+00 0.  1.
         22   -1    0    0    0    0 -0.00000000000E+00 -0.00000000000E+00 -0.12476445227E+03  0.12476445227E+03  0.00000000000E+00 0.  1.
        -24    2    1    2    0    0 -0.14384766172E+02 -0.93018420753E+02 -0.39560704400E+02  0.12993232538E+03  0.80361755513E+02 0.  0.
         25    2    1    2    0    0 -0.43826004153E+02  0.14531456913E+03  0.21540002758E+03  0.29168698496E+03  0.12508829951E+03 0.  0.
         24    2    1    2    0    0  0.58210770325E+02 -0.52296148377E+02  0.16604872267E+04  0.16642361440E+04  0.79628715104E+02 0.  0.
        -13    1    5    5    0    0 -0.15750717646E+02 -0.90679100435E+01  0.60680525980E+03  0.60707737186E+03  0.00000000000E+00 0.  1.
         14    1    5    5    0    0  0.73961487971E+02 -0.43228238334E+02  0.10536819669E+04  0.10571587722E+04  0.00000000000E+00 0. -1.
         13    1    3    3    0    0 -0.15448725573E+02 -0.57529919053E+02  0.18065031777E+02  0.62247088937E+02  0.00000000000E+00 0. -1.
        -14    1    3    3    0    0  0.10639594008E+01 -0.35488501701E+02 -0.57625736178E+02  0.67685236445E+02  0.00000000000E+00 0.  1.
          5    1    4    4  501    0 -0.53329496706E+02  0.31081207706E+02  0.14360998177E+03  0.15636935747E+03  0.41800000000E+01 0. -1.
         -5    1    4    4    0  501  0.95034925527E+01  0.11423336142E+03  0.71790045811E+02  0.13531762749E+03  0.41800000000E+01 0. -1.
</event>
<event>
11    1  0.7105277E-009  0.1532102E+03  0.7561462E-02  0.1093643E+00
         22   -1    0    0    0    0  0.00000000000E+00  0.00000000000E+00  0.60096940534E+03  0.60096940534E+03  0.00000000000E+00 0. -1.
         22   -1    0    0    0    0 -0.00000000000E+00 -0.00000000000E+00 -0.26726860523E+03  0.26726860523E+03  0.00000000000E+00 0. -1.
         24    2    1    2    0    0 -0.45084698144E+02 -0.77599190592E+02 -0.21734488847E+03  0.24858126327E+03  0.80619969709E+02 0.  0.
         25    2    1    2    0    0  0.10202024017E+03  0.13321190712E+02  0.26695963954E+03  0.31225086607E+03  0.12509025021E+03 0.  0.
        -24    2    1    2    0    0 -0.56935542023E+02  0.64277999880E+02  0.28408604905E+03  0.30740588122E+03  0.80125996615E+02 0.  0.
        -13    1    3    3    0    0 -0.46593846915E+01  0.43268730680E+01 -0.98381081851E+02  0.98586352820E+02  0.00000000000E+00 0.  1.
         14    1    3    3    0    0 -0.40425313452E+02 -0.81926063660E+02 -0.11896380662E+03  0.14999491045E+03  0.00000000000E+00 0. -1.
         13    1    5    5    0    0 -0.42658964186E+02  0.67019502639E+02  0.12803850434E+03  0.15068264516E+03  0.00000000000E+00 0. -1.
        -14    1    5    5    0    0 -0.14276577836E+02 -0.27415027596E+01  0.15604754471E+03  0.15672323606E+03  0.00000000000E+00 0.  1.
          5    1    4    4  501    0  0.45805329617E+02 -0.18302007882E+02  0.23497975687E+03  0.24013756527E+03  0.41800000000E+01 0. -1.
         -5    1    4    4    0  501  0.56214910549E+02  0.31623198594E+02  0.31979882661E+02  0.72113300801E+02  0.41800000000E+01 0. -1.
</event>
<event>
11    1  0.7105277E-009  0.1859476E+03  0.7561462E-02  0.1064931E+00
         22   -1    0    0    0    0  0.00000000000E+00  0.00000000000E+00  0.26351682601E+03  0.26351682601E+03  0.00000000000E+00 0.  1.
         22   -1    0    0    0    0 -0.00000000000E+00 -0.00000000000E+00 -0.86568262063E+03  0.86568262063E+03  0.00000000000E+00 0.  1.
        -24    2    1    2    0    0  0.80183006221E+02  0.10430945755E+03 -0.52322696712E+03  0.54518607010E+03  0.78432228646E+02 0.  0.
         25    2    1    2    0    0 -0.73340662208E+02 -0.13776415317E+03 -0.29194691433E+03  0.35389015251E+03  0.12508966633E+03 0.  0.
         24    2    1    2    0    0 -0.68423440134E+01  0.33454695623E+02  0.21300808684E+03  0.23012322403E+03  0.80113786886E+02 0.  0.
        -13    1    5    5    0    0  0.33574422008E+02  0.20002463019E+02  0.14236051143E+03  0.14762742142E+03  0.00000000000E+00 0.  1.
         14    1    5    5    0    0 -0.40416766022E+02  0.13452232604E+02  0.70647575407E+02  0.82495802612E+02  0.00000000000E+00 0. -1.
         11    1    3    3    0    0  0.12634959133E+01 -0.78137845895E+01 -0.55711099422E+01  0.96793035660E+01  0.00000000000E+00 0. -1.
        -12    1    3    3    0    0  0.78919510308E+02  0.11212324214E+03 -0.51765585718E+03  0.53550676654E+03  0.00000000000E+00 0.  1.
          5    1    4    4  501    0 -0.52348117860E+02 -0.20633798907E+02 -0.18647464314E+03  0.19482387953E+03  0.41800000000E+01 0. -1.
         -5    1    4    4    0  501 -0.20992544348E+02 -0.11713035427E+03 -0.10547227119E+03  0.15906627297E+03  0.41800000000E+01 0. -1.
</event>
<event>
11    1  0.7105277E-009  0.1518513E+03  0.7561462E-02  0.1095002E+00
         22   -1    0    0    0    0  0.00000000000E+00  0.00000000000E+00  0.39996751029E+03  0.39996751029E+03  0.00000000000E+00 0.  1.
         22   -1    0    0    0    0 -0.00000000000E+00 -0.00000000000E+00 -0.68964011180E+03  0.68964011180E+03  0.00000000000E+00 0. -1.
        -24    2    1    2    0    0 -0.45031824552E+02 -0.23490210866E+02 -0.60442624120E+03  0.61179730092E+03  0.79907453511E+02 0.  0.
         25    2    1    2    0    0  0.10129179069E+03 -0.38991935176E+02  0.27227152888E+02  0.16783619605E+03  0.12508906020E+03 0.  0.
         24    2    1    2    0    0 -0.56259966135E+02  0.62482146041E+02  0.28752648680E+03  0.30997412513E+03  0.79644681376E+02 0.  0.
        -13    1    5    5    0    0 -0.30135884030E+02  0.66985338247E+02  0.26560706752E+03  0.27557634398E+03  0.00000000000E+00 0.  1.
         14    1    5    5    0    0 -0.26124082105E+02 -0.45031922057E+01  0.21919419280E+02  0.34397781142E+02  0.00000000000E+00 0. -1.
         11    1    3    3    0    0 -0.53388941871E+02  0.89374783073E+01 -0.47633875639E+03  0.47940470218E+03  0.00000000000E+00 0. -1.
        -12    1    3    3    0    0  0.83571173188E+01 -0.32427689173E+02 -0.12808748481E+03  0.13239259874E+03  0.00000000000E+00 0.  1.
          5    1    4    4  501    0  0.59140979233E+02  0.42578197073E+02  0.43673772868E+01  0.73123899479E+02  0.41800000000E+01 0.  1.
         -5    1    4    4    0  501  0.42150811454E+02 -0.81570132249E+02  0.22859775601E+02  0.94712296571E+02  0.41800000000E+01 0.  1.
</event>
<event>
11    1  0.7105277E-009  0.1470386E+03  0.7561462E-02  0.1099944E+00
         22   -1    0    0    0    0  0.00000000000E+00  0.00000000000E+00  0.29392062140E+04  0.29392062140E+04  0.00000000000E+00 0.  1.
         22   -1    0    0    0    0 -0.00000000000E+00 -0.00000000000E+00 -0.18788403281E+03  0.18788403281E+03  0.00000000000E+00 0.  1.
        -24    2    1    2    0    0  0.61755036742E+02  0.44502333258E+02 -0.15737593499E+03  0.19261382008E+03  0.80862578150E+02 0.  0.
         25    2    1    2    0    0 -0.11157848259E+03 -0.48962899523E+02  0.62557594707E+03  0.64949258570E+03  0.12509288555E+03 0.  0.
         24    2    1    2    0    0  0.49823445849E+02  0.44605662647E+01  0.22831221691E+04  0.22849838411E+04  0.77472848918E+02 0.  0.
        -13    1    5    5    0    0  0.38871264663E+02  0.35714865163E+02  0.17742837123E+04  0.17750687927E+04  0.00000000000E+00 0.  1.
         14    1    5    5    0    0  0.10952181186E+02 -0.31254298899E+02  0.50883845680E+03  0.50991504841E+03  0.00000000000E+00 0. -1.
         11    1    3    3    0    0  0.60791189783E+02  0.36426725655E+02 -0.54461625154E+02  0.89378653557E+02  0.00000000000E+00 0. -1.
        -12    1    3    3    0    0  0.96384695951E+00  0.80756076025E+01 -0.10291430983E+03  0.10323516653E+03  0.00000000000E+00 0.  1.
          5    1    4    4  501    0 -0.65275991960E+02  0.10774449616E+02  0.11031342267E+03  0.12869952413E+03  0.41800000000E+01 0. -1.
         -5    1    4    4    0  501 -0.46302490631E+02 -0.59737349139E+02  0.51526252440E+03  0.52079306157E+03  0.41800000000E+01 0. -1.
</event>
<event>
11    1  0.7105277E-009  0.2573564E+03  0.7561462E-02  0.1020052E+00
         22   -1    0    0    0    0  0.00000000000E+00  0.00000000000E+00  0.41346731597E+03  0.41346731597E+03  0.00000000000E+00 0.  1.
         22   -1    0    0    0    0 -0.00000000000E+00 -0.00000000000E+00 -0.66647305833E+03  0.66647305833E+03  0.00000000000E+00 0.  1.
         24    2    1    2    0    0  0.41272301960E+01  0.12605863955E+03 -0.48529537995E+03  0.50784643148E+03  0.80551707189E+02 0.  0.
         25    2    1    2    0    0  0.30000978859E+02 -0.30049766437E+03  0.14916779586E+03  0.35930033080E+03  0.12508713510E+03 0.  0.
        -24    2    1    2    0    0 -0.34128209055E+02  0.17443902482E+03  0.83121841724E+02  0.21279361202E+03  0.82329658768E+02 0.  0.
        -13    1    3    3    0    0  0.37836864726E+02  0.76451018349E+02 -0.34258051477E+03  0.35304078467E+03  0.00000000000E+00 0.  1.
         14    1    3    3    0    0 -0.33709634530E+02  0.49607621198E+02 -0.14271486518E+03  0.15480564681E+03  0.00000000000E+00 0. -1.
         11    1    5    5    0    0 -0.14726137680E+00  0.42765760518E+02 -0.14761035432E+02  0.45241796225E+02  0.00000000000E+00 0. -1.
        -12    1    5    5    0    0 -0.33980947678E+02  0.13167326430E+03  0.97882877156E+02  0.16755181580E+03  0.00000000000E+00 0.  1.
          5    1    4    4  501    0  0.42783764871E+02 -0.66248747288E+02  0.85052211283E+02  0.11606333658E+03  0.41800000000E+01 0.  1.
         -5    1    4    4    0  501 -0.12782786012E+02 -0.23424891708E+03  0.64115584581E+02  0.24323699422E+03  0.41800000000E+01 0.  1.
</event>
<event>
11    1  0.7105277E-009  0.1622569E+03  0.7561462E-02  0.1084974E+00
         22   -1    0    0    0    0  0.00000000000E+00  0.00000000000E+00  0.58441326400E+02  0.58441326400E+02  0.00000000000E+00 0.  1.
         22   -1    0    0    0    0 -0.00000000000E+00 -0.00000000000E+00 -0.11455547156E+04  0.11455547156E+04  0.00000000000E+00 0. -1.
        -24    2    1    2    0    0  0.10235915824E+03  0.98252925466E+01 -0.77189150940E+03  0.78261539792E+03  0.78079607682E+02 0.  0.
         25    2    1    2    0    0 -0.10125981930E+03 -0.39762838547E+02 -0.28466157150E+03  0.32941838508E+03  0.12509847244E+03 0.  0.
         24    2    1    2    0    0 -0.10993389427E+01  0.29937546000E+02 -0.30560308322E+02  0.91962259017E+02  0.81398153740E+02 0.  0.
        -11    1    5    5    0    0 -0.97836286270E+01  0.40993881588E+02  0.14648095642E+02  0.44618207301E+02  0.00000000000E+00 0.  1.
         12    1    5    5    0    0  0.86842896843E+01 -0.11056335588E+02 -0.45208403964E+02  0.47344051717E+02  0.00000000000E+00 0. -1.
         13    1    3    3    0    0  0.94323532567E+02  0.54052298964E+01 -0.41550717802E+03  0.42611308393E+03  0.00000000000E+00 0. -1.
        -14    1    3    3    0    0  0.80356256724E+01  0.44200626502E+01 -0.35638433138E+03  0.35650231400E+03  0.00000000000E+00 0.  1.
          5    1    4    4  501    0 -0.37449664389E+02  0.42270616406E+01 -0.23326632801E+03  0.23632815658E+03  0.41800000000E+01 0.  1.
         -5    1    4    4    0  501 -0.63810154907E+02 -0.43989900187E+02 -0.51395243496E+02  0.93090228498E+02  0.41800000000E+01 0.  1.
</event>
<event>
11    1  0.7105277E-009  0.1605069E+03  0.7561462E-02  0.1086601E+00
         22   -1    0    0    0    0  0.00000000000E+00  0.00000000000E+00  0.18820069070E+04  0.18820069070E+04  0.00000000000E+00 0.  1.
         22   -1    0    0    0    0 -0.00000000000E+00 -0.00000000000E+00 -0.80412310673E+03  0.80412310673E+03  0.00000000000E+00 0. -1.
        -24    2    1    2    0    0  0.44789872441E+02  0.43790229171E+02 -0.76220446918E+03  0.76895788627E+03  0.80105313080E+02 0.  0.
         25    2    1    2    0    0 -0.41096133877E+02  0.59775368484E+02  0.10969005567E+03  0.18149893211E+03  0.12509183486E+03 0.  0.
         24    2    1    2    0    0 -0.36937385637E+01 -0.10356559766E+03  0.17303982138E+04  0.17356731953E+04  0.86856122619E+02 0.  0.
        -11    1    5    5    0    0  0.37935775668E+02 -0.55727809694E+02  0.11091247842E+04  0.11111716784E+04  0.00000000000E+00 0.  1.
         12    1    5    5    0    0 -0.41629514231E+02 -0.47837787962E+02  0.62127342952E+03  0.62450151692E+03  0.00000000000E+00 0. -1.
         13    1    3    3    0    0  0.64705069201E+02  0.27637060269E+02 -0.65317024161E+03  0.65694894597E+03  0.00000000000E+00 0. -1.
        -14    1    3    3    0    0 -0.19915196760E+02  0.16153168902E+02 -0.10903422756E+03  0.11200894030E+03  0.00000000000E+00 0.  1.
          5    1    4    4  501    0  0.10212023425E+02  0.29946414193E+02  0.11725801052E+03  0.12152360501E+03  0.41800000000E+01 0.  1.
         -5    1    4    4    0  501 -0.51308157303E+02  0.29828954291E+02 -0.75679548497E+01  0.59975327098E+02  0.41800000000E+01 0.  1.
</event>
<event>
11    1  0.7105277E-009  0.2086905E+03  0.7561462E-02  0.1048543E+00
         22   -1    0    0    0    0  0.00000000000E+00  0.00000000000E+00  0.17302587001E+03  0.17302587001E+03  0.00000000000E+00 0. -1.
         22   -1    0    0    0    0 -0.00000000000E+00 -0.00000000000E+00 -0.18169500178E+04  0.18169500178E+04  0.00000000000E+00 0.  1.
        -24    2    1    2    0    0 -0.82674148291E+02  0.17717053660E+03 -0.13623234668E+04  0.13787519024E+04  0.82505552797E+02 0.  0.
         25    2    1    2    0    0  0.93170072025E+02 -0.70389692141E+02 -0.39818607048E+03  0.43339882114E+03  0.12508805046E+03 0.  0.
         24    2    1    2    0    0 -0.10495923734E+02 -0.10678084446E+03  0.11658538953E+03  0.17782516426E+03  0.80729937644E+02 0.  0.
        -11    1    5    5    0    0 -0.39544058552E+02 -0.42740741925E+02  0.27682986131E+02  0.64473648169E+02  0.00000000000E+00 0.  1.
         12    1    5    5    0    0  0.29048134818E+02 -0.64040102535E+02  0.88902403399E+02  0.11335151609E+03  0.00000000000E+00 0. -1.
         13    1    3    3    0    0  0.59240859237E+00  0.27751026232E+02 -0.72439607026E+02  0.77575557175E+02  0.00000000000E+00 0. -1.
        -14    1    3    3    0    0 -0.83266556884E+02  0.14941951037E+03 -0.12898838598E+04  0.13011763452E+04  0.00000000000E+00 0.  1.
          5    1    4    4  501    0  0.87809435188E+02 -0.67643046160E+02 -0.15770869066E+03  0.19280970440E+03  0.41800000000E+01 0.  1.
         -5    1    4    4    0  501  0.53606368370E+01 -0.27466459807E+01 -0.24047737982E+03  0.24058911674E+03  0.41800000000E+01 0.  1.
</event>
<event>
11    1  0.7105277E-009  0.2754032E+03  0.7561462E-02  0.1011174E+00
         22   -1    0    0    0    0  0.00000000000E+00  0.00000000000E+00  0.30400510356E+03  0.30400510356E+03  0.00000000000E+00 0. -1.
         22   -1    0    0    0    0 -0.00000000000E+00 -0.00000000000E+00 -0.10189958734E+04  0.10189958734E+04  0.00000000000E+00 0.  1.
         24    2    1    2    0    0 -0.18496727305E+02  0.33504099405E+02 -0.71417290226E+03  0.71971172399E+03  0.80482157814E+02 0.  0.
         25    2    1    2    0    0  0.12740621398E+03 -0.24221243258E+03 -0.12224653905E+03  0.32478770116E+03  0.12507449244E+03 0.  0.
        -24    2    1    2    0    0 -0.10890948668E+03  0.20870833318E+03  0.12142867146E+03  0.27850155181E+03  0.86010159175E+02 0.  0.
        -11    1    3    3    0    0 -0.22409182676E+02  0.56668604212E+02 -0.60374232015E+03  0.60680993014E+03  0.00000000000E+00 0.  1.
         12    1    3    3    0    0  0.39124553713E+01 -0.23164504807E+02 -0.11043058211E+03  0.11290179385E+03  0.00000000000E+00 0. -1.
         11    1    5    5    0    0 -0.40432627659E+02  0.16384255411E+03  0.83038424032E+02  0.18808125846E+03  0.00000000000E+00 0. -1.
        -12    1    5    5    0    0 -0.68476859020E+02  0.44865779068E+02  0.38390247432E+02  0.90420293356E+02  0.00000000000E+00 0.  1.
          5    1    4    4  501    0  0.41516966061E+02 -0.42487557047E+01 -0.41968004168E+02  0.59333769220E+02  0.41800000000E+01 0.  1.
         -5    1    4    4    0  501  0.85889247923E+02 -0.23796367688E+03 -0.80278534878E+02  0.26545393194E+03  0.41800000000E+01 0.  1.
</event>
<event>
11    1  0.7105277E-009  0.1456528E+03  0.7561462E-02  0.1101405E+00
         22   -1    0    0    0    0  0.00000000000E+00  0.00000000000E+00  0.25439258326E+03  0.25439258326E+03  0.00000000000E+00 0.  1.
         22   -1    0    0    0    0 -0.00000000000E+00 -0.00000000000E+00 -0.11963931670E+04  0.11963931670E+04  0.00000000000E+00 0.  1.
        -24    2    1    2    0    0 -0.89003720526E+02  0.69644984565E+01 -0.81665639071E+03  0.82551509082E+03  0.81100790226E+02 0.  0.
         25    2    1    2    0    0  0.33395824243E+02 -0.21280470420E+02 -0.35309115010E+03  0.37668063847E+03  0.12508718409E+03 0.  0.
         24    2    1    2    0    0  0.55607896283E+02  0.14315971964E+02  0.22774695710E+03  0.24859002093E+03  0.81431792669E+02 0.  0.
        -11    1    5    5    0    0  0.47793736203E+02  0.35816279474E+02  0.84197507915E+02  0.10322919856E+03  0.00000000000E+00 0.  1.
         12    1    5    5    0    0  0.78141600794E+01 -0.21500307510E+02  0.14354944918E+03  0.14536082238E+03  0.00000000000E+00 0. -1.
         13    1    3    3    0    0  0.61980601550E+01 -0.14463147085E+02 -0.44161152957E+02  0.46880763686E+02  0.00000000000E+00 0. -1.
        -14    1    3    3    0    0 -0.95201780681E+02  0.21427645541E+02 -0.77249523775E+03  0.77863432713E+03  0.00000000000E+00 0.  1.
          5    1    4    4  501    0 -0.30500923343E+02  0.39538324710E+01 -0.20864641864E+02  0.37399796739E+02  0.41800000000E+01 0. -1.
         -5    1    4    4    0  501  0.63896747586E+02 -0.25234302891E+02 -0.33222650823E+03  0.33928084173E+03  0.41800000000E+01 0. -1.
</event>
<event>
11    1  0.7105277E-009  0.1421603E+03  0.7561462E-02  0.1105170E+00
         22   -1    0    0    0    0  0.00000000000E+00  0.00000000000E+00  0.47521340469E+03  0.47521340469E+03  0.00000000000E+00 0.  1.
         22   -1    0    0    0    0 -0.00000000000E+00 -0.00000000000E+00 -0.53429542187E+03  0.53429542187E+03  0.00000000000E+00 0. -1.
        -24    2    1    2    0    0 -0.48382635848E+02  0.34504655612E+02 -0.49215774079E+03  0.50229142257E+03  0.80907234858E+02 0.  0.
         25    2    1    2    0    0  0.51468147301E+01 -0.85307349764E+02  0.19462431411E+03  0.24663628715E+03  0.12508797252E+03 0.  0.
         24    2    1    2    0    0  0.43235821118E+02  0.50802694152E+02  0.23845140950E+03  0.26058111684E+03  0.81198483993E+02 0.  0.
        -11    1    5    5    0    0  0.19867294094E+02  0.55098421587E+02  0.22656567041E+03  0.23401399199E+03  0.00000000000E+00 0.  1.
         12    1    5    5    0    0  0.23368527024E+02 -0.42957274352E+01  0.11885739083E+02  0.26567124854E+02  0.00000000000E+00 0. -1.
         11    1    3    3    0    0 -0.32080408071E+02 -0.20290619674E+02 -0.28019301503E+03  0.28275251988E+03  0.00000000000E+00 0. -1.
        -12    1    3    3    0    0 -0.16302227776E+02  0.54795275286E+02 -0.21196472576E+03  0.21953890268E+03  0.00000000000E+00 0.  1.
          5    1    4    4  501    0 -0.17744939682E+02  0.28421248104E+01  0.13818454080E+03  0.13941090443E+03  0.41800000000E+01 0. -1.
         -5    1    4    4    0  501  0.22891754412E+02 -0.88149474575E+02  0.56439773306E+02  0.10722538272E+03  0.41800000000E+01 0. -1.
</event>
<event>
11    1  0.7105277E-009  0.1898520E+03  0.7561462E-02  0.1061941E+00
         22   -1    0    0    0    0  0.00000000000E+00  0.00000000000E+00  0.49657504060E+03  0.49657504060E+03  0.00000000000E+00 0. -1.
         22   -1    0    0    0    0 -0.00000000000E+00 -0.00000000000E+00 -0.34776263273E+03  0.34776263273E+03  0.00000000000E+00 0.  1.
        -24    2    1    2    0    0 -0.58342565823E+02 -0.11695027329E+03 -0.12117663196E+03  0.19579983499E+03  0.81071436628E+02 0.  0.
         25    2    1    2    0    0  0.58928951241E+02  0.15038704641E+03 -0.12812422337E+03  0.24114937364E+03  0.12509324030E+03 0.  0.
         24    2    1    2    0    0 -0.58638541766E+00 -0.33436773119E+02  0.39811326321E+03  0.40738846471E+03  0.79704637187E+02 0.  0.
        -11    1    5    5    0    0 -0.19077357820E+02  0.20934870049E+02  0.15661552543E+03  0.15915601519E+03  0.00000000000E+00 0.  1.
         12    1    5    5    0    0  0.18490972402E+02 -0.54371643167E+02  0.24149773778E+03  0.24823244952E+03  0.00000000000E+00 0. -1.
         11    1    3    3    0    0  0.63130055486E+00 -0.24451557020E+02  0.85480874032E+01  0.25910364323E+02  0.00000000000E+00 0. -1.
        -12    1    3    3    0    0 -0.58973866378E+02 -0.92498716270E+02 -0.12972471937E+03  0.16988947066E+03  0.00000000000E+00 0.  1.
          5    1    4    4  501    0  0.32336021488E+01  0.14826617174E+03 -0.90812783643E+02  0.17394754364E+03  0.41800000000E+01 0.  1.
         -5    1    4    4    0  501  0.55695349092E+02  0.21208746641E+01 -0.37311439726E+02  0.67201829992E+02  0.41800000000E+01 0.  1.
</event>
<event>
11    1  0.7105277E-009  0.1290320E+03  0.7561462E-02  0.1120464E+00
         22   -1    0    0    0    0  0.00000000000E+00  0.00000000000E+00  0.17810068070E+03  0.17810068070E+03  0.00000000000E+00 0. -1.
         22   -1    0    0    0    0 -0.00000000000E+00 -0.00000000000E+00 -0.64602821574E+03  0.64602821574E+03  0.00000000000E+00 0.  1.
        -24    2    1    2    0    0 -0.76620214860E+01 -0.10528074161E+02 -0.39550799142E+03  0.40369088672E+03  0.79813619281E+02 0.  0.
         25    2    1    2    0    0 -0.13395000579E+02 -0.14060121030E+02 -0.21592098501E+03  0.25029025648E+03  0.12508488190E+03 0.  0.
         24    2    1    2    0    0  0.21057022065E+02  0.24588195191E+02  0.14350144140E+03  0.17014775323E+03  0.85496296560E+02 0.  0.
        -13    1    5    5    0    0 -0.22364949996E+02 -0.95407007768E+01  0.11178334356E+02  0.26761373631E+02  0.00000000000E+00 0.  1.
         14    1    5    5    0    0  0.43421972061E+02  0.34128895968E+02  0.13232310705E+03  0.14338637960E+03  0.00000000000E+00 0. -1.
         11    1    3    3    0    0 -0.22455034202E+02  0.15698370707E+02 -0.51209491614E+02  0.58078218251E+02  0.00000000000E+00 0. -1.
        -12    1    3    3    0    0  0.14793012716E+02 -0.26226444868E+02 -0.34429849981E+03  0.34561266847E+03  0.00000000000E+00 0.  1.
          5    1    4    4  501    0  0.13264527676E+02 -0.34502500825E+02 -0.21309595776E+03  0.21631858421E+03  0.41800000000E+01 0. -1.
         -5    1    4    4    0  501 -0.26659528254E+02  0.20442379795E+02 -0.28250272443E+01  0.33971672278E+02  0.41800000000E+01 0. -1.
</event>
<event>
11    1  0.7105277E-009  0.1447824E+03  0.7561462E-02  0.1102333E+00
         22   -1    0    0    0    0  0.00000000000E+00  0.00000000000E+00  0.68323612465E+03  0.68323612465E+03  0.00000000000E+00 0. -1.
         22   -1    0    0    0    0 -0.00000000000E+00 -0.00000000000E+00 -0.35713221895E+03  0.35713221895E+03  0.00000000000E+00 0.  1.
         24    2    1    2    0    0  0.27693116049E+02 -0.67590192004E+02 -0.27799638656E+03  0.29827465002E+03  0.79689605188E+02 0.  0.
         25    2    1    2    0    0 -0.11596179942E+02  0.72617387164E+02  0.12341019505E+02  0.14562652509E+03  0.12508807992E+03 0.  0.
        -24    2    1    2    0    0 -0.16096936106E+02 -0.50271951604E+01  0.59175927276E+03  0.59646716850E+03  0.72867428621E+02 0.  0.
        -13    1    3    3    0    0  0.11430985650E+02 -0.27458942780E+02 -0.23629057863E+03  0.23815519840E+03  0.00000000000E+00 0.  1.
         14    1    3    3    0    0  0.16262130398E+02 -0.40131249223E+02 -0.41705807924E+02  0.60119451627E+02  0.00000000000E+00 0. -1.
         13    1    5    5    0    0  0.16555026319E+02  0.60153143428E+01  0.45798553522E+03  0.45832412480E+03  0.00000000000E+00 0. -1.
        -14    1    5    5    0    0 -0.32651962425E+02 -0.11042509503E+02  0.13377373754E+03  0.13814304370E+03  0.00000000000E+00 0.  1.
          5    1    4    4  501    0 -0.16041429205E+02 -0.28292966325E+02  0.28256771639E+02  0.43286683147E+02  0.41800000000E+01 0. -1.
         -5    1    4    4    0  501  0.44452492621E+01  0.10091035349E+03 -0.15915752134E+02  0.10233984194E+03  0.41800000000E+01 0. -1.
</event>
<event>
11    1  0.7105277E-009  0.1937549E+03  0.7561462E-02  0.1059030E+00
         22   -1    0    0    0    0  0.00000000000E+00  0.00000000000E+00  0.24116333314E+03  0.24116333314E+03  0.00000000000E+00 0.  1.
         22   -1    0    0    0    0 -0.00000000000E+00 -0.00000000000E+00 -0.94893015869E+03  0.94893015869E+03  0.00000000000E+00 0. -1.
         24    2    1    2    0    0 -0.12499948641E+03 -0.58340901885E+02 -0.65342951762E+03  0.67271907455E+03  0.80946194050E+02 0.  0.
         25    2    1    2    0    0  0.17959169773E+03  0.89419964690E+02 -0.22515160317E+03  0.32648335105E+03  0.12509606758E+03 0.  0.
        -24    2    1    2    0    0 -0.54592211317E+02 -0.31079062805E+02  0.17081429524E+03  0.19089106624E+03  0.57581750849E+02 0.  0.
        -11    1    3    3    0    0 -0.72596451131E+02  0.58168309610E+01 -0.22974395246E+03  0.24101112823E+03  0.00000000000E+00 0.  1.
         12    1    3    3    0    0 -0.52403035281E+02 -0.64157732846E+02 -0.42368556516E+03  0.43170794632E+03  0.00000000000E+00 0. -1.
         13    1    5    5    0    0 -0.45661628877E+02 -0.47873983334E+02  0.13029245607E+03  0.14612674888E+03  0.00000000000E+00 0. -1.
        -14    1    5    5    0    0 -0.89305824403E+01  0.16794920529E+02  0.40521839170E+02  0.44764317352E+02  0.00000000000E+00 0.  1.
          5    1    4    4  501    0  0.19663246187E+03  0.91650509118E+02 -0.21745478270E+03  0.30719406863E+03  0.41800000000E+01 0.  1.
         -5    1    4    4    0  501 -0.17040764139E+02 -0.22305444278E+01 -0.76968204722E+01  0.19289282420E+02  0.41800000000E+01 0.  1.
</event>
<event>
11    1  0.7105277E-009  0.2246249E+03  0.7561462E-02  0.1038358E+00
         22   -1    0    0    0    0  0.00000000000E+00  0.00000000000E+00  0.18063726671E+03  0.18063726671E+03  0.00000000000E+00 0. -1.
         22   -1    0    0    0    0 -0.00000000000E+00 -0.00000000000E+00 -0.94715013410E+03  0.94715013410E+03  0.00000000000E+00 0.  1.
         24    2    1    2    0    0  0.53948990838E+01 -0.36772902518E+02 -0.54718251943E+03  0.55421384369E+03  0.79767936381E+02 0.  0.
         25    2    1    2    0    0 -0.11874374681E+03 -0.11763544924E+03 -0.28689649719E+03  0.35481844419E+03  0.12509337278E+03 0.  0.
        -24    2    1    2    0    0  0.11334884773E+03  0.15440835176E+03  0.67566149225E+02  0.21875511293E+03  0.81232472192E+02 0.  0.
        -13    1    3    3    0    0  0.29825512848E+02 -0.19740009154E+02 -0.47191389428E+03  0.47326731642E+03  0.00000000000E+00 0.  1.
         14    1    3    3    0    0 -0.24430613764E+02 -0.17032893364E+02 -0.75268625149E+02  0.80946527270E+02  0.00000000000E+00 0. -1.
         13    1    5    5    0    0  0.77404806711E+02  0.12639180466E+03  0.14670434475E+02  0.14893493222E+03  0.00000000000E+00 0. -1.
        -14    1    5    5    0    0  0.35944041020E+02  0.28016547101E+02  0.52895714751E+02  0.69820180716E+02  0.00000000000E+00 0.  1.
          5    1    4    4  501    0 -0.11574074132E+03 -0.14092791096E+03 -0.23324977503E+03  0.29610728671E+03  0.41800000000E+01 0.  1.
         -5    1    4    4    0  501 -0.30030054899E+01  0.23292461718E+02 -0.53646722160E+02  0.58711157486E+02  0.41800000000E+01 0.  1.
</event>
<event>
11    1  0.7105277E-009  0.1547090E+03  0.7561462E-02  0.1092162E+00
         22   -1    0    0    0    0  0.00000000000E+00  0.00000000000E+00  0.43171231357E+04  0.43171231357E+04  0.00000000000E+00 0.  1.
         22   -1    0    0    0    0 -0.00000000000E+00 -0.00000000000E+00 -0.54333437992E+02  0.54333437992E+02  0.00000000000E+00 0. -1.
         24    2    1    2    0    0  0.90004253798E+02 -0.62538766311E+01  0.28106992108E+02  0.12445687446E+03  0.80991566978E+02 0.  0.
         25    2    1    2    0    0 -0.10240082738E+03  0.22829510648E+02  0.11957742337E+04  0.12068682582E+04  0.12509140108E+03 0.  0.
        -24    2    1    2    0    0  0.12396573585E+02 -0.16575634017E+02  0.30389084719E+04  0.30401314411E+04  0.83702159878E+02 0.  0.
        -11    1    3    3    0    0  0.44334272846E+02 -0.13475204390E+02  0.54246040628E+02  0.71342426409E+02  0.00000000000E+00 0.  1.
         12    1    3    3    0    0  0.45669980952E+02  0.72213277592E+01 -0.26139048520E+02  0.53114448056E+02  0.00000000000E+00 0. -1.
         11    1    5    5    0    0 -0.29100940394E+02 -0.26105819474E+02  0.19482361977E+04  0.19486284049E+04  0.00000000000E+00 0. -1.
        -12    1    5    5    0    0  0.41497513979E+02  0.95301854564E+01  0.10906722742E+04  0.10915030361E+04  0.00000000000E+00 0.  1.
          5    1    4    4  501    0 -0.12633918875E+03  0.25557439463E+02  0.11160889719E+04  0.11235153932E+04  0.41800000000E+01 0.  1.
         -5    1    4    4    0  501  0.23938361370E+02 -0.27279288150E+01  0.79685261847E+02  0.83352864956E+02  0.41800000000E+01 0.  1.
</event>
<event>
11    1  0.7105277E-009  0.4358710E+03  0.7561462E-02  0.9549472E-01
         22   -1    0    0    0    0  0.00000000000E+00  0.00000000000E+00  0.12718518678E+04  0.12718518678E+04  0.00000000000E+00 0.  1.
         22   -1    0    0    0    0 -0.00000000000E+00 -0.00000000000E+00 -0.70538216849E+03  0.70538216849E+03  0.00000000000E+00 0. -1.
         24    2    1    2    0    0  0.42555569492E+03 -0.35452090599E+01 -0.54794822066E+03  0.69850170067E+03  0.80914493943E+02 0.  0.
         25    2    1    2    0    0 -0.36393510195E+03  0.62856702208E+02  0.41495534843E+03  0.56941520929E+03  0.12508403552E+03 0.  0.
        -24    2    1    2    0    0 -0.61620592974E+02 -0.59311493148E+02  0.69946257152E+03  0.70931712631E+03  0.81042865339E+02 0.  0.
        -13    1    3    3    0    0  0.43248689398E+02  0.96609793728E+01 -0.25987094441E+02  0.51372295399E+02  0.00000000000E+00 0.  1.
         14    1    3    3    0    0  0.38230700552E+03 -0.13206188433E+02 -0.52196112622E+03  0.64712940527E+03  0.00000000000E+00 0. -1.
         13    1    5    5    0    0 -0.44537343320E+02 -0.37050487595E+02  0.17991814434E+03  0.18901548149E+03  0.00000000000E+00 0. -1.
        -14    1    5    5    0    0 -0.17083249654E+02 -0.22261005552E+02  0.51954442718E+03  0.52030164481E+03  0.00000000000E+00 0.  1.
          5    1    4    4  501    0 -0.43006060225E+02  0.97118725573E+01  0.28558062495E+01  0.44378707890E+02  0.41800000000E+01 0. -1.
         -5    1    4    4    0  501 -0.32092904172E+03  0.53144829650E+02  0.41209954218E+03  0.52503650140E+03  0.41800000000E+01 0. -1.
</event>
<event>
11    1  0.7105277E-009  0.1381440E+03  0.7561462E-02  0.1109649E+00
         22   -1    0    0    0    0  0.00000000000E+00  0.00000000000E+00  0.15990726143E+04  0.15990726143E+04  0.00000000000E+00 0. -1.
         22   -1    0    0    0    0 -0.00000000000E+00 -0.00000000000E+00 -0.47748068203E+02  0.47748068203E+02  0.00000000000E+00 0.  1.
        -24    2    1    2    0    0 -0.54684986532E+02  0.33959435650E+00  0.68892572063E+02  0.11864908132E+03  0.79629485348E+02 0.  0.
         25    2    1    2    0    0  0.65953744126E+02 -0.35557948653E+02  0.22780405481E+03  0.27047428240E+03  0.12508951185E+03 0.  0.
         24    2    1    2    0    0 -0.11268757593E+02  0.35218354296E+02  0.12546279193E+04  0.12576973188E+04  0.79649310053E+02 0.  0.
        -13    1    5    5    0    0 -0.17991489319E+02  0.10018875725E+02  0.74849567480E+02  0.77630724012E+02  0.00000000000E+00 0.  1.
         14    1    5    5    0    0  0.67227317251E+01  0.25199478571E+02  0.11797783518E+04  0.11800665948E+04  0.00000000000E+00 0. -1.
         11    1    3    3    0    0 -0.13100374674E+02  0.29109750956E+02  0.59060565352E+02  0.67135294719E+02  0.00000000000E+00 0. -1.
        -12    1    3    3    0    0 -0.41584611858E+02 -0.28770156600E+02  0.98320067111E+01  0.51513786603E+02  0.00000000000E+00 0.  1.
          5    1    4    4  501    0  0.78018003631E+02 -0.25345171533E+02  0.59613800395E+02  0.10149120261E+03  0.41800000000E+01 0. -1.
         -5    1    4    4    0  501 -0.12064259505E+02 -0.10212777119E+02  0.16819025442E+03  0.16898307979E+03  0.41800000000E+01 0. -1.
</event>
<event>
11    1  0.7105277E-009  0.1598508E+03  0.7561462E-02  0.1087218E+00
         22   -1    0    0    0    0  0.00000000000E+00  0.00000000000E+00  0.10446593875E+04  0.10446593875E+04  0.00000000000E+00 0. -1.
         22   -1    0    0    0    0 -0.00000000000E+00 -0.00000000000E+00 -0.35771271702E+03  0.35771271702E+03  0.00000000000E+00 0. -1.
        -24    2    1    2    0    0 -0.60282562965E+02  0.80243832271E+02 -0.29980056125E+03  0.32615306791E+03  0.80139797642E+02 0.  0.
         25    2    1    2    0    0  0.15867274915E+02 -0.99276626659E+02  0.10995523064E+03  0.19453897423E+03  0.12509053017E+03 0.  0.
         24    2    1    2    0    0  0.44415288050E+02  0.19032794389E+02  0.87679200109E+03  0.88168006237E+03  0.79123663550E+02 0.  0.
        -13    1    5    5    0    0  0.79171105656E+01  0.30143130360E+02  0.12177655643E+03  0.12570130724E+03  0.00000000000E+00 0.  1.
         14    1    5    5    0    0  0.36498177484E+02 -0.11110335971E+02  0.75501544466E+03  0.75597875512E+03  0.00000000000E+00 0. -1.
         11    1    3    3    0    0 -0.52285257270E+02  0.73813285666E+02 -0.30234009563E+03  0.31558149929E+03  0.00000000000E+00 0. -1.
        -12    1    3    3    0    0 -0.79973056951E+01  0.64305466044E+01  0.25395343881E+01  0.10571568612E+02  0.00000000000E+00 0.  1.
          5    1    4    4  501    0 -0.37633432409E+02 -0.87930068127E+02  0.35598527024E+02  0.10214058763E+03  0.41800000000E+01 0. -1.
         -5    1    4    4    0  501  0.53500707324E+02 -0.11346558533E+02  0.74356703612E+02  0.92398386602E+02  0.41800000000E+01 0. -1.
</event>
<event>
11    1  0.7105277E-009  0.1333825E+03  0.7561462E-02  0.1115181E+00
         22   -1    0    0    0    0  0.00000000000E+00  0.00000000000E+00  0.52123156910E+03  0.52123156910E+03  0.00000000000E+00 0.  1.
         22   -1    0    0    0    0 -0.00000000000E+00 -0.00000000000E+00 -0.98955422095E+02  0.98955422095E+02  0.00000000000E+00 0.  1.
        -24    2    1    2    0    0 -0.23647856573E+02 -0.37106484372E+02 -0.42184455342E+02  0.10096381546E+03  0.80486343298E+02 0.  0.
         25    2    1    2    0    0  0.26747883519E+02  0.61096497279E+02  0.23166884032E+03  0.27159812447E+03  0.12508740298E+03 0.  0.
         24    2    1    2    0    0 -0.31000269454E+01 -0.23990012907E+02  0.23279176203E+03  0.24762505127E+03  0.80876638537E+02 0.  0.
        -13    1    5    5    0    0 -0.20279577609E+02  0.18679413722E+02  0.15350556733E+03  0.15596198564E+03  0.00000000000E+00 0.  1.
         14    1    5    5    0    0  0.17179550664E+02 -0.42669426628E+02  0.79286194700E+02  0.91663065625E+02  0.00000000000E+00 0. -1.
         11    1    3    3    0    0 -0.23068632186E+02 -0.12690237075E+02  0.20707376811E+02  0.33496258931E+02  0.00000000000E+00 0. -1.
        -12    1    3    3    0    0 -0.57922438769E+00 -0.24416247297E+02 -0.62891832154E+02  0.67467556534E+02  0.00000000000E+00 0.  1.
          5    1    4    4  501    0  0.29062685163E+02  0.83043263570E+02  0.82290352621E+02  0.12054044063E+03  0.41800000000E+01 0.  1.
         -5    1    4    4    0  501 -0.23148016442E+01 -0.21946766291E+02  0.14937848770E+03  0.15105768383E+03  0.41800000000E+01 0.  1.
</event>
<event>
11    1  0.7105277E-009  0.1667223E+03  0.7561462E-02  0.1080920E+00
         22   -1    0    0    0    0  0.00000000000E+00  0.00000000000E+00  0.80471889201E+03  0.80471889201E+03  0.00000000000E+00 0.  1.
         22   -1    0    0    0    0 -0.00000000000E+00 -0.00000000000E+00 -0.34884303439E+03  0.34884303439E+03  0.00000000000E+00 0.  1.
         24    2    1    2    0    0 -0.17395865973E+02 -0.10799289926E+03 -0.30036381560E+03  0.33052856420E+03  0.84057287533E+02 0.  0.
         25    2    1    2    0    0  0.63735587758E+02  0.11698723434E+03  0.25610698173E+03  0.31462074361E+03  0.12508872080E+03 0.  0.
        -24    2    1    2    0    0 -0.46339721785E+02 -0.89943350824E+01  0.50013269149E+03  0.50841261858E+03  0.78245854583E+02 0.  0.
        -13    1    3    3    0    0 -0.48487973783E+02 -0.87281814159E+02 -0.20252492630E+03  0.22579978844E+03  0.00000000000E+00 0.  1.
         14    1    3    3    0    0  0.31092107810E+02 -0.20711085104E+02 -0.97838889296E+02  0.10472877576E+03  0.00000000000E+00 0. -1.
         11    1    5    5    0    0  0.12454064331E+02 -0.26034204502E+02  0.20289581938E+03  0.20493803221E+03  0.00000000000E+00 0. -1.
        -12    1    5    5    0    0 -0.58793786116E+02  0.17039869419E+02  0.29723687211E+03  0.30347458638E+03  0.00000000000E+00 0.  1.
          5    1    4    4  501    0  0.48706391558E+02 -0.78997816338E+01  0.36545052524E+02  0.61544556156E+02  0.41800000000E+01 0. -1.
         -5    1    4    4    0  501  0.15029196200E+02  0.12488701598E+03  0.21956192921E+03  0.25307618746E+03  0.41800000000E+01 0. -1.
</event>
<event>
11    1  0.7105277E-009  0.1380368E+03  0.7561462E-02  0.1109771E+00
         22   -1    0    0    0    0  0.00000000000E+00  0.00000000000E+00  0.70464399823E+03  0.70464399823E+03  0.00000000000E+00 0. -1.
         22   -1    0    0    0    0 -0.00000000000E+00 -0.00000000000E+00 -0.17017454886E+03  0.17017454886E+03  0.00000000000E+00 0. -1.
        -24    2    1    2    0    0  0.55268140337E+02 -0.12268952306E+02 -0.59975490505E+02  0.11684600974E+03  0.82769777109E+02 0.  0.
         25    2    1    2    0    0 -0.15107660958E+01  0.40092229261E+02 -0.22069970010E+02  0.13320704705E+03  0.12508942620E+03 0.  0.
         24    2    1    2    0    0 -0.53757374241E+02 -0.27823276955E+02  0.61651490989E+03  0.62476549030E+03  0.81100516173E+02 0.  0.
        -11    1    5    5    0    0  0.67757947428E+01  0.16143719592E+02  0.43563854349E+02  0.46950404497E+02  0.00000000000E+00 0.  1.
         12    1    5    5    0    0 -0.60533168984E+02 -0.43966996547E+02  0.57295105555E+03  0.57781508580E+03  0.00000000000E+00 0. -1.
         11    1    3    3    0    0  0.50143798101E+01 -0.26376419126E+02 -0.58796209813E+02  0.64636319350E+02  0.00000000000E+00 0. -1.
        -12    1    3    3    0    0  0.50253760527E+02  0.14107466820E+02 -0.11792806922E+01  0.52209690385E+02  0.00000000000E+00 0.  1.
          5    1    4    4  501    0  0.16751755281E+02 -0.40509145587E+02 -0.24557127907E+02  0.50419610393E+02  0.41800000000E+01 0. -1.
         -5    1    4    4    0  501 -0.18262521376E+02  0.80601374848E+02  0.24871578962E+01  0.82787436661E+02  0.41800000000E+01 0. -1.
</event>
<event>
11    1  0.7105277E-009  0.1436611E+03  0.7561462E-02  0.1103538E+00
         22   -1    0    0    0    0  0.00000000000E+00  0.00000000000E+00  0.42879327385E+03  0.42879327385E+03  0.00000000000E+00 0.  1.
         22   -1    0    0    0    0 -0.00000000000E+00 -0.00000000000E+00 -0.17461227453E+03  0.17461227453E+03  0.00000000000E+00 0.  1.
        -24    2    1    2    0    0 -0.24804808978E+02  0.69188049765E+02 -0.98866290325E+02  0.14522414548E+03  0.76897622137E+02 0.  0.
         25    2    1    2    0    0  0.36016559053E+02 -0.48140647485E+02  0.56697455496E+02  0.14992745435E+03  0.12509566596E+03 0.  0.
         24    2    1    2    0    0 -0.11211750076E+02 -0.21047402280E+02  0.29634983415E+03  0.30825394854E+03  0.81416067870E+02 0.  0.
        -13    1    5    5    0    0 -0.17377127478E+02  0.18695446592E+02  0.22423022576E+03  0.22567826308E+03  0.00000000000E+00 0.  1.
         14    1    5    5    0    0  0.61653774022E+01 -0.39742848872E+02  0.72119608397E+02  0.82575685467E+02  0.00000000000E+00 0. -1.
         13    1    3    3    0    0  0.24324430725E+02  0.30848396841E+02 -0.18217327324E+02  0.43303262378E+02  0.00000000000E+00 0. -1.
        -14    1    3    3    0    0 -0.49129239703E+02  0.38339652924E+02 -0.80648963001E+02  0.10192088311E+03  0.00000000000E+00 0.  1.
          5    1    4    4  501    0  0.26987509506E+01 -0.44808930895E+02  0.91157694161E+02  0.10169720325E+03  0.41800000000E+01 0. -1.
         -5    1    4    4    0  501  0.33317808103E+02 -0.33317165902E+01 -0.34460238664E+02  0.48230251098E+02  0.41800000000E+01 0. -1.
</event>
<event>
11    1  0.7105277E-009  0.1320384E+03  0.7561462E-02  0.1116790E+00
         22   -1    0    0    0    0  0.00000000000E+00  0.00000000000E+00  0.41915636420E+03  0.41915636420E+03  0.00000000000E+00 0.  1.
         22   -1    0    0    0    0 -0.00000000000E+00 -0.00000000000E+00 -0.16899253060E+04  0.16899253060E+04  0.00000000000E+00 0.  1.
         24    2    1    2    0    0 -0.40802014573E+02 -0.10175380470E+02 -0.16433786427E+04  0.16458873506E+04  0.80519965527E+02 0.  0.
         25    2    1    2    0    0  0.58947541740E+02  0.29686368403E+02  0.88142022566E+02  0.16665088652E+03  0.12508960265E+03 0.  0.
        -24    2    1    2    0    0 -0.18145527167E+02 -0.19510987933E+02  0.28446767839E+03  0.29654343302E+03  0.79411641529E+02 0.  0.
        -13    1    3    3    0    0 -0.55930941199E+02 -0.29381694595E+02 -0.13558151174E+04  0.13572863319E+04  0.00000000000E+00 0.  1.
         14    1    3    3    0    0  0.15128926626E+02  0.19206314126E+02 -0.28756352533E+03  0.28860101875E+03  0.00000000000E+00 0. -1.
         11    1    5    5    0    0 -0.19557494249E+02 -0.45712843191E+02  0.11841072801E+03  0.12842608817E+03  0.00000000000E+00 0. -1.
        -12    1    5    5    0    0  0.14119670822E+01  0.26201855258E+02  0.16605695038E+03  0.16811734485E+03  0.00000000000E+00 0.  1.
          5    1    4    4  501    0  0.49686745179E+02 -0.44171131233E+02  0.36489057532E+02  0.75952519382E+02  0.41800000000E+01 0.  1.
         -5    1    4    4    0  501  0.92607965615E+01  0.73857499637E+02  0.51652965034E+02  0.90698367143E+02  0.41800000000E+01 0.  1.
</event>
<event>
11    1  0.7105277E-009  0.1404109E+03  0.7561462E-02  0.1107100E+00
         22   -1    0    0    0    0  0.00000000000E+00  0.00000000000E+00  0.15873355787E+03  0.15873355787E+03  0.00000000000E+00 0.  1.
         22   -1    0    0    0    0 -0.00000000000E+00 -0.00000000000E+00 -0.48087544255E+03  0.48087544255E+03  0.00000000000E+00 0. -1.
         24    2    1    2    0    0 -0.46646853512E+02  0.33006587156E+01 -0.31872371307E+03  0.33229064911E+03  0.81519610642E+02 0.  0.
         25    2    1    2    0    0  0.71237551206E+02  0.52494981337E+02 -0.86774091428E+02  0.17609389475E+03  0.12509518399E+03 0.  0.
        -24    2    1    2    0    0 -0.24590697694E+02 -0.55795640052E+02  0.83355919819E+02  0.13122445656E+03  0.80955498693E+02 0.  0.
        -13    1    3    3    0    0 -0.66144850395E+00 -0.33510183768E+02 -0.14604632250E+03  0.14984291189E+03  0.00000000000E+00 0.  1.
         14    1    3    3    0    0 -0.45985405008E+02  0.36810842483E+02 -0.17267739058E+03  0.18244773721E+03  0.00000000000E+00 0. -1.
         11    1    5    5    0    0  0.26790285782E+02 -0.36987558676E+02  0.29004527243E+02  0.54102324439E+02  0.00000000000E+00 0. -1.
        -12    1    5    5    0    0 -0.51380983476E+02 -0.18808081376E+02  0.54351392576E+02  0.77122132121E+02  0.00000000000E+00 0.  1.
          5    1    4    4  501    0  0.90074456145E+01  0.22893996036E+02 -0.10232659543E+03  0.10532556035E+03  0.41800000000E+01 0.  1.
         -5    1    4    4    0  501  0.62230105591E+02  0.29600985301E+02  0.15552504003E+02  0.70768334398E+02  0.41800000000E+01 0.  1.
</event>
<event>
11    1  0.7105277E-009  0.2337042E+03  0.7561462E-02  0.1032957E+00
         22   -1    0    0    0    0  0.00000000000E+00  0.00000000000E+00  0.14565163775E+03  0.14565163775E+03  0.00000000000E+00 0. -1.
         22   -1    0    0    0    0 -0.00000000000E+00 -0.00000000000E+00 -0.14453586446E+04  0.14453586446E+04  0.00000000000E+00 0.  1.
         24    2    1    2    0    0 -0.10835877146E+02 -0.66747844808E+02 -0.94732093596E+03  0.95306336692E+03  0.79624962386E+02 0.  0.
         25    2    1    2    0    0  0.20438593365E+03  0.76075807885E+02 -0.34506108340E+03  0.42693764297E+03  0.12508981290E+03 0.  0.
        -24    2    1    2    0    0 -0.19355005650E+03 -0.93279630771E+01 -0.73249875094E+01  0.21100927249E+03  0.83202297846E+02 0.  0.
        -11    1    3    3    0    0  0.12698588172E+02  0.13788814640E+02 -0.25246381309E+03  0.25315876930E+03  0.00000000000E+00 0.  1.
         12    1    3    3    0    0 -0.23534465318E+02 -0.80536659448E+02 -0.69485712287E+03  0.69990459762E+03  0.00000000000E+00 0. -1.
         13    1    5    5    0    0 -0.12843971432E+03 -0.40851120812E+02  0.14223412594E+02  0.13552815114E+03  0.00000000000E+00 0. -1.
        -14    1    5    5    0    0 -0.65110342184E+02  0.31523157735E+02 -0.21548400103E+02  0.75481121348E+02  0.00000000000E+00 0.  1.
          5    1    4    4  501    0  0.15096462707E+03  0.32880324406E+02 -0.13273198501E+03  0.20373189884E+03  0.41800000000E+01 0. -1.
         -5    1    4    4    0  501  0.53421306572E+02  0.43195483480E+02 -0.21232909840E+03  0.22320574413E+03  0.41800000000E+01 0. -1.
</event>
<event>
11    1  0.7105277E-009  0.1561293E+03  0.7561462E-02  0.1090775E+00
         22   -1    0    0    0    0  0.00000000000E+00  0.00000000000E+00  0.84825880306E+02  0.84825880306E+02  0.00000000000E+00 0. -1.
         22   -1    0    0    0    0 -0.00000000000E+00 -0.00000000000E+00 -0.47766169804E+03  0.47766169804E+03  0.00000000000E+00 0.  1.
        -24    2    1    2    0    0  0.33639764895E+02  0.12523138500E+03 -0.15582998663E+03  0.21788349050E+03  0.79847962574E+02 0.  0.
         25    2    1    2    0    0 -0.79084513920E+01 -0.63915827613E+02 -0.17133865094E+03  0.22170242561E+03  0.12508899070E+03 0.  0.
         24    2    1    2    0    0 -0.25731313503E+02 -0.61315557391E+02 -0.65667180162E+02  0.12290166223E+03  0.79818180612E+02 0.  0.
        -11    1    5    5    0    0  0.96425635333E+01  0.12266102901E+02 -0.29985713196E+02  0.33802060703E+02  0.00000000000E+00 0.  1.
         12    1    5    5    0    0 -0.35373877036E+02 -0.73581660291E+02 -0.35681466965E+02  0.89099601529E+02  0.00000000000E+00 0. -1.
         11    1    3    3    0    0  0.25141375995E+01  0.28383499468E+02  0.36440694987E+01  0.28726697903E+02  0.00000000000E+00 0. -1.
        -12    1    3    3    0    0  0.31125627295E+02  0.96847885536E+02 -0.15947405613E+03  0.18915679260E+03  0.00000000000E+00 0.  1.
          5    1    4    4  501    0 -0.59752430056E+02 -0.43944414294E+02 -0.13813359532E+03  0.15684331991E+03  0.41800000000E+01 0. -1.
         -5    1    4    4    0  501  0.51843978664E+02 -0.19971413319E+02 -0.33205055623E+02  0.64859105703E+02  0.41800000000E+01 0. -1.
</event>
<event>
11    1  0.7105277E-009  0.2035253E+03  0.7561462E-02  0.1052058E+00
         22   -1    0    0    0    0  0.00000000000E+00  0.00000000000E+00  0.52351368214E+03  0.52351368214E+03  0.00000000000E+00 0.  1.
         22   -1    0    0    0    0 -0.00000000000E+00 -0.00000000000E+00 -0.57827144534E+03  0.57827144534E+03  0.00000000000E+00 0.  1.
        -24    2    1    2    0    0  0.39794526009E+01  0.10646714606E+03 -0.47893630778E+03  0.49694729799E+03  0.78902096560E+02 0.  0.
         25    2    1    2    0    0 -0.20839152639E+02  0.82685025506E+02  0.22671317433E+02  0.15307777082E+03  0.12509089319E+03 0.  0.
         24    2    1    2    0    0  0.16859700039E+02 -0.18915217156E+03  0.40150722714E+03  0.45176005867E+03  0.82560908872E+02 0.  0.
        -13    1    5    5    0    0 -0.27576663417E+02 -0.12969290945E+03  0.24659881850E+03  0.27998517891E+03  0.00000000000E+00 0.  1.
         14    1    5    5    0    0  0.44436363456E+02 -0.59459262114E+02  0.15490840864E+03  0.17177487976E+03  0.00000000000E+00 0. -1.
         11    1    3    3    0    0 -0.77643259762E+01 -0.27525693680E+01 -0.34399834658E+01  0.89271990140E+01  0.00000000000E+00 0. -1.
        -12    1    3    3    0    0  0.11743778577E+02  0.10921971542E+03 -0.47549632431E+03  0.48802009898E+03  0.00000000000E+00 0.  1.
          5    1    4    4  501    0 -0.62353398177E+02  0.16288181916E+02 -0.14664215998E+02  0.66225091658E+02  0.41800000000E+01 0. -1.
         -5    1    4    4    0  501  0.41514245537E+02  0.66396843590E+02  0.37335533431E+02  0.86852679163E+02  0.41800000000E+01 0. -1.
</event>
<event>
11    1  0.7105277E-009  0.2061386E+03  0.7561462E-02  0.1050266E+00
         22   -1    0    0    0    0  0.00000000000E+00  0.00000000000E+00  0.15559594046E+04  0.15559594046E+04  0.00000000000E+00 0. -1.
         22   -1    0    0    0    0 -0.00000000000E+00 -0.00000000000E+00 -0.18585695930E+03  0.18585695930E+03  0.00000000000E+00 0. -1.
         24    2    1    2    0    0  0.71827762455E+02 -0.89551170552E+01 -0.12455072998E+03  0.16334364430E+03  0.76998962435E+02 0.  0.
         25    2    1    2    0    0  0.10407610072E+03 -0.19758855928E+01  0.15598177296E+03  0.22541771361E+03  0.12508834177E+03 0.  0.
        -24    2    1    2    0    0 -0.17590386318E+03  0.10931002648E+02  0.13386714024E+04  0.13530550060E+04  0.87493256621E+02 0.  0.
        -11    1    3    3    0    0 -0.10490654263E+02 -0.36733201398E+01 -0.52984019702E+02  0.54137357264E+02  0.00000000000E+00 0.  1.
         12    1    3    3    0    0  0.82318416718E+02 -0.52817969154E+01 -0.71566710275E+02  0.10920628704E+03  0.00000000000E+00 0. -1.
         11    1    5    5    0    0 -0.17317272029E+03  0.29175121914E+02  0.12638778849E+04  0.12760200965E+04  0.00000000000E+00 0. -1.
        -12    1    5    5    0    0 -0.27311428889E+01 -0.18244119266E+02  0.74793517493E+02  0.77034909542E+02  0.00000000000E+00 0.  1.
          5    1    4    4  501    0  0.17200856118E+02  0.37403704947E+01  0.13441324307E+03  0.13562541110E+03  0.41800000000E+01 0. -1.
         -5    1    4    4    0  501  0.86875244606E+02 -0.57162560875E+01  0.21568529893E+02  0.89792302514E+02  0.41800000000E+01 0. -1.
</event>
<event>
11    1  0.7105277E-009  0.2533284E+03  0.7561462E-02  0.1022141E+00
         22   -1    0    0    0    0  0.00000000000E+00  0.00000000000E+00  0.15930280671E+04  0.15930280671E+04  0.00000000000E+00 0. -1.
         22   -1    0    0    0    0 -0.00000000000E+00 -0.00000000000E+00 -0.36707968069E+03  0.36707968069E+03  0.00000000000E+00 0. -1.
        -24    2    1    2    0    0  0.14805399121E+03 -0.15898066727E+03 -0.25132956264E+03  0.34204007987E+03  0.81424998003E+02 0.  0.
         25    2    1    2    0    0 -0.88375321090E+02  0.24290658743E+03  0.24072406340E+03  0.37471242129E+03  0.12509003309E+03 0.  0.
         24    2    1    2    0    0 -0.59678670117E+02 -0.83925920164E+02  0.12365538856E+04  0.12433552466E+04  0.79130610191E+02 0.  0.
        -11    1    5    5    0    0 -0.17750258017E+02 -0.31522004637E+02  0.13513192446E+03  0.13989047661E+03  0.00000000000E+00 0.  1.
         12    1    5    5    0    0 -0.41928412099E+02 -0.52403915528E+02  0.11014219612E+04  0.11034647700E+04  0.00000000000E+00 0. -1.
         11    1    3    3    0    0  0.14862146638E+03 -0.12994101732E+03 -0.24024599249E+03  0.31095199816E+03  0.00000000000E+00 0. -1.
        -12    1    3    3    0    0 -0.56747517227E+00 -0.29039649946E+02 -0.11083570156E+02  0.31088081711E+02  0.00000000000E+00 0.  1.
          5    1    4    4  501    0 -0.45447229037E+02  0.83184988016E+02  0.17020983880E+03  0.19486932669E+03  0.41800000000E+01 0. -1.
         -5    1    4    4    0  501 -0.42928092054E+02  0.15972159942E+03  0.70514224592E+02  0.17984309461E+03  0.41800000000E+01 0. -1.
</event>
<event>
11    1  0.7105277E-009  0.1496879E+03  0.7561462E-02  0.1097198E+00
         22   -1    0    0    0    0  0.00000000000E+00  0.00000000000E+00  0.33479550552E+03  0.33479550552E+03  0.00000000000E+00 0.  1.
         22   -1    0    0    0    0 -0.00000000000E+00 -0.00000000000E+00 -0.39764832793E+03  0.39764832793E+03  0.00000000000E+00 0.  1.
         24    2    1    2    0    0 -0.29130378204E+01 -0.18389927790E+02 -0.31560360003E+03  0.32642993977E+03  0.81266216820E+02 0.  0.
         25    2    1    2    0    0 -0.60548541479E+01  0.96648638459E+02  0.39099605735E+02  0.16295058369E+03  0.12508594238E+03 0.  0.
        -24    2    1    2    0    0  0.89678919682E+01 -0.78258710670E+02  0.21365117188E+03  0.24306330998E+03  0.85018236460E+02 0.  0.
        -13    1    3    3    0    0  0.87044866726E+01 -0.34176387686E+02 -0.56618406472E+02  0.66704104183E+02  0.00000000000E+00 0.  1.
         14    1    3    3    0    0 -0.11617524493E+02  0.15786459897E+02 -0.25898519356E+03  0.25972583559E+03  0.00000000000E+00 0. -1.
         11    1    5    5    0    0 -0.35512686407E+02 -0.14961881308E+02  0.70376710071E+02  0.80236463709E+02  0.00000000000E+00 0. -1.
        -12    1    5    5    0    0  0.44480578376E+02 -0.63296829362E+02  0.14327446181E+03  0.16282684627E+03  0.00000000000E+00 0.  1.
          5    1    4    4  501    0 -0.33039365301E+02  0.70193177066E+01 -0.30919121026E+02  0.45981897803E+02  0.41800000000E+01 0.  1.
         -5    1    4    4    0  501  0.26984511153E+02  0.89629320753E+02  0.70018726761E+02  0.11696868589E+03  0.41800000000E+01 0.  1.
</event>
<event>
11    1  0.7105277E-009  0.1744632E+03  0.7561462E-02  0.1074212E+00
         22   -1    0    0    0    0  0.00000000000E+00  0.00000000000E+00  0.11527547857E+04  0.11527547857E+04  0.00000000000E+00 0. -1.
         22   -1    0    0    0    0 -0.00000000000E+00 -0.00000000000E+00 -0.10395274710E+04  0.10395274710E+04  0.00000000000E+00 0.  1.
        -24    2    1    2    0    0  0.86195341126E+02 -0.85689762893E+02 -0.10081603635E+04  0.10189484570E+04  0.84239344835E+02 0.  0.
         25    2    1    2    0    0 -0.13169533035E+03  0.45900037909E+02  0.36405770180E+03  0.40943709122E+03  0.12510095088E+03 0.  0.
         24    2    1    2    0    0  0.45499989220E+02  0.39789724984E+02  0.75732997635E+03  0.76389670843E+03  0.79599100726E+02 0.  0.
        -11    1    5    5    0    0  0.12025102787E+02  0.50462450855E+02  0.24859355495E+03  0.25394845463E+03  0.00000000000E+00 0.  1.
         12    1    5    5    0    0  0.33474886433E+02 -0.10672725871E+02  0.50873642140E+03  0.50994825380E+03  0.00000000000E+00 0. -1.
         13    1    3    3    0    0 -0.16370297834E+01 -0.69851691686E+01 -0.46898569678E+01  0.85713017217E+01  0.00000000000E+00 0. -1.
        -14    1    3    3    0    0  0.87832370909E+02 -0.78704593724E+02 -0.10034705065E+04  0.10103771552E+04  0.00000000000E+00 0.  1.
          5    1    4    4  501    0 -0.28886049421E+02 -0.73040834715E+01  0.29802566299E+01  0.30234215983E+02  0.41800000000E+01 0. -1.
         -5    1    4    4    0  501 -0.10280928092E+03  0.53204121380E+02  0.36107744517E+03  0.37920287524E+03  0.41800000000E+01 0. -1.
</event>
<event>
11    1  0.7105277E-009  0.1660551E+03  0.7561462E-02  0.1081517E+00
         22   -1    0    0    0    0  0.00000000000E+00  0.00000000000E+00  0.40041790192E+03  0.40041790192E+03  0.00000000000E+00 0. -1.
         22   -1    0    0    0    0 -0.00000000000E+00 -0.00000000000E+00 -0.53738631045E+03  0.53738631045E+03  0.00000000000E+00 0.  1.
         24    2    1    2    0    0  0.21504170598E+02 -0.10467685699E+03 -0.44216851165E+03  0.46244014949E+03  0.83175870435E+02 0.  0.
         25    2    1    2    0    0 -0.33019656672E+02  0.12906404168E+03  0.26331202584E+02  0.18465980911E+03  0.12513228316E+03 0.  0.
        -24    2    1    2    0    0  0.11515486074E+02 -0.24387184692E+02  0.27886890054E+03  0.29070425376E+03  0.77548425308E+02 0.  0.
        -11    1    3    3    0    0  0.22967368682E+02 -0.78728808885E+02 -0.42102100844E+03  0.42893404496E+03  0.00000000000E+00 0.  1.
         12    1    3    3    0    0 -0.14631980845E+01 -0.25948048106E+02 -0.21147503211E+02  0.33506104537E+02  0.00000000000E+00 0. -1.
         13    1    5    5    0    0  0.20786286447E+02 -0.44770898229E+02  0.24618689264E+03  0.25108661680E+03  0.00000000000E+00 0. -1.
        -14    1    5    5    0    0 -0.92708003731E+01  0.20383713537E+02  0.32682007904E+02  0.39617636954E+02  0.00000000000E+00 0.  1.
          5    1    4    4  501    0 -0.42279247901E+02  0.13670913238E+03  0.54951050366E+02  0.15334279251E+03  0.41800000000E+01 0.  1.
         -5    1    4    4    0  501  0.92595912291E+01 -0.76450906978E+01 -0.28619847782E+02  0.31317016597E+02  0.41800000000E+01 0.  1.
</event>
<event>
11    1  0.7105277E-009  0.1508164E+03  0.7561462E-02  0.1096047E+00
         22   -1    0    0    0    0  0.00000000000E+00  0.00000000000E+00  0.89443678855E+02  0.89443678855E+02  0.00000000000E+00 0. -1.
         22   -1    0    0    0    0 -0.00000000000E+00 -0.00000000000E+00 -0.12145990592E+04  0.12145990592E+04  0.00000000000E+00 0. -1.
        -24    2    1    2    0    0  0.87687827967E+02 -0.57715105099E+01 -0.96363519642E+03  0.97272809450E+03  0.99421771008E+02 0.  0.
         25    2    1    2    0    0 -0.65997580294E+02 -0.24365853726E+02 -0.18962201397E+03  0.23780946796E+03  0.12508980548E+03 0.  0.
         24    2    1    2    0    0 -0.21690247672E+02  0.30137364236E+02  0.28101830024E+02  0.93505175618E+02  0.81085001384E+02 0.  0.
        -13    1    5    5    0    0 -0.60030683495E+01  0.10597619593E+02 -0.28833101748E+02  0.31300065927E+02  0.00000000000E+00 0.  1.
         14    1    5    5    0    0 -0.15687179323E+02  0.19539744643E+02  0.56934931772E+02  0.62205109691E+02  0.00000000000E+00 0. -1.
         13    1    3    3    0    0  0.75278303439E+02 -0.47442406382E+02 -0.61976745939E+03  0.62612243899E+03  0.00000000000E+00 0. -1.
        -14    1    3    3    0    0  0.12409524527E+02  0.41670895872E+02 -0.34386773703E+03  0.34660565551E+03  0.00000000000E+00 0.  1.
          5    1    4    4  501    0  0.27835841437E+01 -0.31902776997E+02 -0.15861870675E+03  0.16187310478E+03  0.41800000000E+01 0. -1.
         -5    1    4    4    0  501 -0.68781164438E+02  0.75369232708E+01 -0.31003307226E+02  0.75936363179E+02  0.41800000000E+01 0. -1.
</event>
<event>
11    1  0.7105277E-009  0.1485266E+03  0.7561462E-02  0.1098394E+00
         22   -1    0    0    0    0  0.00000000000E+00  0.00000000000E+00  0.30691621837E+03  0.30691621837E+03  0.00000000000E+00 0. -1.
         22   -1    0    0    0    0 -0.00000000000E+00 -0.00000000000E+00 -0.58686179149E+03  0.58686179149E+03  0.00000000000E+00 0. -1.
         24    2    1    2    0    0 -0.15416071610E+02 -0.10750943289E+02 -0.44799939426E+03  0.45549263613E+03  0.80105219953E+02 0.  0.
         25    2    1    2    0    0  0.93431570713E+02  0.19302594119E+02 -0.71433629863E+02  0.17277978521E+03  0.12509213468E+03 0.  0.
        -24    2    1    2    0    0 -0.78015499103E+02 -0.85516508302E+01  0.23948745101E+03  0.26550558851E+03  0.83542979999E+02 0.  0.
        -13    1    3    3    0    0  0.22167780439E+02  0.41486878514E+01 -0.43695490239E+02  0.49172329289E+02  0.00000000000E+00 0.  1.
         14    1    3    3    0    0 -0.37583852049E+02 -0.14899631140E+02 -0.40430390402E+03  0.40632030684E+03  0.00000000000E+00 0. -1.
         13    1    5    5    0    0 -0.10701821529E+02  0.24603320394E+02  0.13021588521E+03  0.13295122835E+03  0.00000000000E+00 0. -1.
        -14    1    5    5    0    0 -0.67313677574E+02 -0.33154971224E+02  0.10927156579E+03  0.13255436016E+03  0.00000000000E+00 0.  1.
          5    1    4    4  501    0  0.39238251516E+02  0.26613251729E+02  0.30850657227E+02  0.56719846623E+02  0.41800000000E+01 0.  1.
         -5    1    4    4    0  501  0.54193319197E+02 -0.73106576095E+01 -0.10228428709E+03  0.11605993859E+03  0.41800000000E+01 0.  1.
</event>
<event>
11    1  0.7105277E-009  0.1451568E+03  0.7561462E-02  0.1101933E+00
         22   -1    0    0    0    0  0.00000000000E+00  0.00000000000E+00  0.45332026799E+03  0.45332026799E+03  0.00000000000E+00 0. -1.
         22   -1    0    0    0    0 -0.00000000000E+00 -0.00000000000E+00 -0.11722586433E+04  0.11722586433E+04  0.00000000000E+00 0. -1.
         24    2    1    2    0    0  0.59550686650E+02  0.43170026617E+02 -0.10338459364E+04  0.10396689283E+04  0.81634090629E+02 0.  0.
         25    2    1    2    0    0 -0.96731284639E+02  0.80965863209E+01 -0.80135593582E+02  0.17745956174E+03  0.12509071331E+03 0.  0.
        -24    2    1    2    0    0  0.37180597989E+02 -0.51266612938E+02  0.39504315469E+03  0.40845042125E+03  0.82231320592E+02 0.  0.
        -11    1    3    3    0    0  0.22397121499E+02  0.12580892893E+02 -0.69054027442E+02  0.73677463470E+02  0.00000000000E+00 0.  1.
         12    1    3    3    0    0  0.37153565151E+02  0.30589133724E+02 -0.96479190894E+03  0.96599146480E+03  0.00000000000E+00 0. -1.
         11    1    5    5    0    0  0.45884797596E+02 -0.28395964210E+02  0.11168363062E+03  0.12403619948E+03  0.00000000000E+00 0. -1.
        -12    1    5    5    0    0 -0.87041996078E+01 -0.22870648728E+02  0.28335952407E+03  0.28441422177E+03  0.00000000000E+00 0.  1.
          5    1    4    4  501    0 -0.95892865868E+02  0.55174593634E+02 -0.61511754187E+02  0.12665246073E+03  0.41800000000E+01 0. -1.
         -5    1    4    4    0  501 -0.83841877120E+00 -0.47078007313E+02 -0.18623839394E+02  0.50807101004E+02  0.41800000000E+01 0. -1.
</event>
<event>
11    1  0.7105277E-009  0.3322629E+03  0.7561462E-02  0.9873916E-01
         22   -1    0    0    0    0  0.00000000000E+00  0.00000000000E+00  0.44665924912E+03  0.44665924912E+03  0.00000000000E+00 0.  1.
         22   -1    0    0    0    0 -0.00000000000E+00 -0.00000000000E+00 -0.48455458896E+03  0.48455458896E+03  0.00000000000E+00 0.  1.
        -24    2    1    2    0    0  0.31533466234E+03  0.14173637374E+02 -0.25991310431E+03  0.41695883980E+03  0.81627268845E+02 0.  0.
         25    2    1    2    0    0 -0.30396025955E+03  0.42649004998E+02  0.24620850446E+03  0.41288925409E+03  0.12509249164E+03 0.  0.
         24    2    1    2    0    0 -0.11374402793E+02 -0.56822642372E+02 -0.24190739990E+02  0.10136574419E+03  0.79571555655E+02 0.  0.
        -13    1    5    5    0    0 -0.43629266578E+02 -0.32667034405E+02 -0.27281331258E+02  0.60950135965E+02  0.00000000000E+00 0.  1.
         14    1    5    5    0    0  0.32254863784E+02 -0.24155607967E+02  0.30905912679E+01  0.40415608227E+02  0.00000000000E+00 0. -1.
         11    1    3    3    0    0  0.32765481884E+02  0.20104519919E+02 -0.10093182956E+02  0.39744696080E+02  0.00000000000E+00 0. -1.
        -12    1    3    3    0    0  0.28256918046E+03 -0.59308825454E+01 -0.24981992136E+03  0.37721414372E+03  0.00000000000E+00 0.  1.
          5    1    4    4  501    0 -0.19190642407E+03 -0.33163102864E+02  0.16305771366E+03  0.25403377212E+03  0.41800000000E+01 0. -1.
         -5    1    4    4    0  501 -0.11205383548E+03  0.75812107862E+02  0.83150790792E+02  0.15885548197E+03  0.41800000000E+01 0. -1.
</event>
<event>
11    1  0.7105277E-009  0.2268700E+03  0.7561462E-02  0.1036997E+00
         22   -1    0    0    0    0  0.00000000000E+00  0.00000000000E+00  0.39017238423E+03  0.39017238423E+03  0.00000000000E+00 0. -1.
         22   -1    0    0    0    0 -0.00000000000E+00 -0.00000000000E+00 -0.28388126588E+03  0.28388126588E+03  0.00000000000E+00 0.  1.
        -24    2    1    2    0    0 -0.15735045709E+03  0.10492023921E+03 -0.13015917203E+03  0.24392454453E+03  0.82403582573E+02 0.  0.
         25    2    1    2    0    0  0.15246784163E+03 -0.11306566803E+03  0.57752454123E+02  0.23454797205E+03  0.12508843758E+03 0.  0.
         24    2    1    2    0    0  0.48826154579E+01  0.81454288268E+01  0.17869783626E+03  0.19558113353E+03  0.78923223223E+02 0.  0.
        -11    1    5    5    0    0  0.10514243674E+02 -0.22987257869E+02  0.16180443222E+02  0.30012832043E+02  0.00000000000E+00 0.  1.
         12    1    5    5    0    0 -0.56316282157E+01  0.31132686696E+02  0.16251739304E+03  0.16556830149E+03  0.00000000000E+00 0. -1.
         11    1    3    3    0    0 -0.77529424650E+02  0.58390595680E+01 -0.36233670208E+02  0.85777532955E+02  0.00000000000E+00 0. -1.
        -12    1    3    3    0    0 -0.79821032436E+02  0.99081179640E+02 -0.93925501819E+02  0.15814701157E+03  0.00000000000E+00 0.  1.
          5    1    4    4  501    0  0.69666943226E+02  0.10249445119E+02  0.48621286628E+02  0.85674010161E+02  0.41800000000E+01 0.  1.
         -5    1    4    4    0  501  0.82800898402E+02 -0.12331511315E+03  0.91311674950E+01  0.14887396189E+03  0.41800000000E+01 0.  1.
</event>
<event>
11    1  0.7105277E-009  0.1955760E+03  0.7561462E-02  0.1057697E+00
         22   -1    0    0    0    0  0.00000000000E+00  0.00000000000E+00  0.19831426166E+04  0.19831426166E+04  0.00000000000E+00 0. -1.
         22   -1    0    0    0    0 -0.00000000000E+00 -0.00000000000E+00 -0.92539965021E+03  0.92539965021E+03  0.00000000000E+00 0.  1.
         24    2    1    2    0    0  0.11203230550E+03  0.10949896672E+03 -0.87313243670E+03  0.89076191138E+03  0.80964619176E+02 0.  0.
         25    2    1    2    0    0 -0.56594815077E+02 -0.33733177314E+02  0.78947997503E+02  0.16192621201E+03  0.12508561660E+03 0.  0.
        -24    2    1    2    0    0 -0.55437490422E+02 -0.75765789403E+02  0.18519274056E+04  0.18558541435E+04  0.75800500734E+02 0.  0.
        -11    1    3    3    0    0  0.40405257786E+02  0.90814961192E+02 -0.41846384441E+03  0.43010688336E+03  0.00000000000E+00 0.  1.
         12    1    3    3    0    0  0.71627047713E+02  0.18684005525E+02 -0.45466859229E+03  0.46065502802E+03  0.00000000000E+00 0. -1.
         11    1    5    5    0    0 -0.54762324356E+02 -0.54378603994E+02  0.17501977477E+04  0.17518984276E+04  0.00000000000E+00 0. -1.
        -12    1    5    5    0    0 -0.67516606582E+00 -0.21387185409E+02  0.10172965794E+03  0.10395571583E+03  0.00000000000E+00 0.  1.
          5    1    4    4  501    0  0.31125647305E+02  0.15463325447E+02  0.17107800893E+01  0.35047389668E+02  0.41800000000E+01 0. -1.
         -5    1    4    4    0  501 -0.87720462382E+02 -0.49196502761E+02  0.77237217413E+02  0.12687882234E+03  0.41800000000E+01 0. -1.
</event>
<event>
11    1  0.7105277E-009  0.1710590E+03  0.7561462E-02  0.1077114E+00
         22   -1    0    0    0    0  0.00000000000E+00  0.00000000000E+00  0.28617906951E+03  0.28617906951E+03  0.00000000000E+00 0. -1.
         22   -1    0    0    0    0 -0.00000000000E+00 -0.00000000000E+00 -0.12759751493E+04  0.12759751493E+04  0.00000000000E+00 0. -1.
        -24    2    1    2    0    0  0.11348656118E+03  0.38991259019E+02 -0.11673572426E+04  0.11754909953E+04  0.68239507214E+02 0.  0.
         25    2    1    2    0    0 -0.78625712549E+02  0.46869813151E+02 -0.17929645135E+02  0.15603796252E+03  0.12509033342E+03 0.  0.
         24    2    1    2    0    0 -0.34860848632E+02 -0.85861072170E+02  0.19549080802E+03  0.23062526091E+03  0.79899639975E+02 0.  0.
        -11    1    5    5    0    0 -0.54170486979E+02 -0.69547679028E+02  0.10722505635E+03  0.13881114518E+03  0.00000000000E+00 0.  1.
         12    1    5    5    0    0  0.19309638347E+02 -0.16313393143E+02  0.88265751672E+02  0.91814115729E+02  0.00000000000E+00 0. -1.
         13    1    3    3    0    0  0.10902996990E+03  0.53274715924E+02 -0.96872247195E+03  0.97629347911E+03  0.00000000000E+00 0. -1.
        -14    1    3    3    0    0  0.44565912841E+01 -0.14283456905E+02 -0.19863477070E+03  0.19919751624E+03  0.00000000000E+00 0.  1.
          5    1    4    4  501    0  0.97621845249E+01 -0.21068036672E+02  0.26924817811E+02  0.35799170801E+02  0.41800000000E+01 0.  1.
         -5    1    4    4    0  501 -0.88387897074E+02  0.67937849824E+02 -0.44854462946E+02  0.12023879172E+03  0.41800000000E+01 0.  1.
</event>
<event>
11    1  0.7105277E-009  0.1343479E+03  0.7561462E-02  0.1114039E+00
         22   -1    0    0    0    0  0.00000000000E+00  0.00000000000E+00  0.30584521784E+03  0.30584521784E+03  0.00000000000E+00 0.  1.
         22   -1    0    0    0    0 -0.00000000000E+00 -0.00000000000E+00 -0.60162093352E+03  0.60162093352E+03  0.00000000000E+00 0. -1.
         24    2    1    2    0    0 -0.23918934506E+02 -0.36140743478E+02 -0.46269583627E+03  0.47155690239E+03  0.80001290755E+02 0.  0.
         25    2    1    2    0    0 -0.16511126785E+01  0.76239437425E+02 -0.81348211120E+02  0.16758582385E+03  0.12510914800E+03 0.  0.
        -24    2    1    2    0    0  0.25570047185E+02 -0.40098693946E+02  0.24826833172E+03  0.26832342512E+03  0.89992018346E+02 0.  0.
        -11    1    3    3    0    0  0.18308137858E+02  0.15648332348E+02 -0.13146360674E+03  0.13365155485E+03  0.00000000000E+00 0.  1.
         12    1    3    3    0    0 -0.42227072364E+02 -0.51789075827E+02 -0.33123222954E+03  0.33790534754E+03  0.00000000000E+00 0. -1.
         11    1    5    5    0    0  0.27329779642E+02 -0.65737405728E+02  0.14017999544E+03  0.15722199111E+03  0.00000000000E+00 0. -1.
        -12    1    5    5    0    0 -0.17597324572E+01  0.25638711781E+02  0.10808833628E+03  0.11110143401E+03  0.00000000000E+00 0.  1.
          5    1    4    4  501    0  0.13333656519E+02  0.51461676850E+02  0.23835025708E+02  0.58409514900E+02  0.41800000000E+01 0.  1.
         -5    1    4    4    0  501 -0.14984769197E+02  0.24777760575E+02 -0.10518323683E+03  0.10917630895E+03  0.41800000000E+01 0.  1.
</event>
<event>
11    1  0.7105277E-009  0.2271251E+03  0.7561462E-02  0.1036844E+00
         22   -1    0    0    0    0  0.00000000000E+00  0.00000000000E+00  0.30706508163E+03  0.30706508163E+03  0.00000000000E+00 0. -1.
         22   -1    0    0    0    0 -0.00000000000E+00 -0.00000000000E+00 -0.44743336690E+03  0.44743336690E+03  0.00000000000E+00 0.  1.
         24    2    1    2    0    0  0.17137479634E+03  0.89793538660E+02 -0.33746314321E+03  0.39640550038E+03  0.76313480465E+02 0.  0.
         25    2    1    2    0    0 -0.15150279156E+03 -0.56994015979E+02  0.16956864511E+03  0.26571120202E+03  0.12508998267E+03 0.  0.
        -24    2    1    2    0    0 -0.19872004782E+02 -0.32799522681E+02  0.27526212823E+02  0.92381746135E+02  0.79410259818E+02 0.  0.
        -13    1    3    3    0    0  0.52830091527E+02  0.67971395308E+02 -0.16325187911E+03  0.18455976047E+03  0.00000000000E+00 0.  1.
         14    1    3    3    0    0  0.11854470481E+03  0.21822143352E+02 -0.17421126410E+03  0.21184573991E+03  0.00000000000E+00 0. -1.
         11    1    5    5    0    0 -0.14046609297E+02  0.25476750925E+02  0.13940085299E+02  0.32259851961E+02  0.00000000000E+00 0. -1.
        -12    1    5    5    0    0 -0.58253954851E+01 -0.58276273606E+02  0.13586127524E+02  0.60121894174E+02  0.00000000000E+00 0.  1.
          5    1    4    4  501    0 -0.11885759456E+02  0.34368385292E+02  0.20650777933E+02  0.42028373924E+02  0.41800000000E+01 0. -1.
         -5    1    4    4    0  501 -0.13961703210E+03 -0.91362401271E+02  0.14891786718E+03  0.22368282809E+03  0.41800000000E+01 0. -1.
</event>
<event>
11    1  0.7105277E-009  0.2018353E+03  0.7561462E-02  0.1053233E+00
         22   -1    0    0    0    0  0.00000000000E+00  0.00000000000E+00  0.20931162603E+04  0.20931162603E+04  0.00000000000E+00 0.  1.
         22   -1    0    0    0    0 -0.00000000000E+00 -0.00000000000E+00 -0.34425437338E+03  0.34425437338E+03  0.00000000000E+00 0. -1.
        -24    2    1    2    0    0  0.14089907823E+02  0.10832840789E+02 -0.21558967850E+03  0.23020308133E+03  0.78731653332E+02 0.  0.
         25    2    1    2    0    0 -0.10581084076E+03 -0.13928486187E+03 -0.18845779755E+02  0.21586777667E+03  0.12509007483E+03 0.  0.
         24    2    1    2    0    0  0.91720932940E+02  0.12845202108E+03  0.19832973452E+04  0.19912997757E+04  0.83028826546E+02 0.  0.
        -11    1    5    5    0    0  0.44510913267E+02  0.26358805615E+02  0.10458446617E+04  0.10471232327E+04  0.00000000000E+00 0.  1.
         12    1    5    5    0    0  0.47210019673E+02  0.10209321547E+03  0.93745268345E+03  0.94417654298E+03  0.00000000000E+00 0. -1.
         11    1    3    3    0    0  0.43775497520E+02 -0.50803525263E+01 -0.15179550337E+03  0.15806321207E+03  0.00000000000E+00 0. -1.
        -12    1    3    3    0    0 -0.29685589697E+02  0.15913193315E+02 -0.63794175126E+02  0.72139869263E+02  0.00000000000E+00 0.  1.
          5    1    4    4  501    0  0.96878103400E+01 -0.87337892367E+02 -0.13858468465E+02  0.89057793934E+02  0.41800000000E+01 0.  1.
         -5    1    4    4    0  501 -0.11549865110E+03 -0.51946969506E+02 -0.49873112893E+01  0.12680998273E+03  0.41800000000E+01 0.  1.
</event>
<event>
11    1  0.7105277E-009  0.3843628E+03  0.7561462E-02  0.9697057E-01
         22   -1    0    0    0    0  0.00000000000E+00  0.00000000000E+00  0.10712462171E+04  0.10712462171E+04  0.00000000000E+00 0. -1.
         22   -1    0    0    0    0 -0.00000000000E+00 -0.00000000000E+00 -0.20529258526E+03  0.20529258526E+03  0.00000000000E+00 0.  1.
         24    2    1    2    0    0 -0.29363842274E+03  0.22977215956E+02 -0.24362510274E+02  0.30679781489E+03  0.82340096858E+02 0.  0.
         25    2    1    2    0    0  0.14653242345E+03 -0.69634143288E+02  0.40411939604E+03  0.45307771991E+03  0.12508504702E+03 0.  0.
        -24    2    1    2    0    0  0.14710599929E+03  0.46656927331E+02  0.48619674611E+03  0.51666326761E+03  0.82076868058E+02 0.  0.
        -11    1    3    3    0    0 -0.24163801520E+03  0.32110385414E+02 -0.48834245686E+02  0.24860569341E+03  0.00000000000E+00 0.  1.
         12    1    3    3    0    0 -0.52000407536E+02 -0.91331694579E+01  0.24471735411E+02  0.58192121480E+02  0.00000000000E+00 0. -1.
         13    1    5    5    0    0  0.33221317808E+02  0.44399521345E+00  0.23140334747E+03  0.23377630828E+03  0.00000000000E+00 0. -1.
        -14    1    5    5    0    0  0.11388468148E+03  0.46212932118E+02  0.25479339864E+03  0.28288695933E+03  0.00000000000E+00 0.  1.
          5    1    4    4  501    0  0.14158390825E+03 -0.51742676838E+02  0.40680969946E+03  0.43386047487E+03  0.41800000000E+01 0. -1.
         -5    1    4    4    0  501  0.49485152038E+01 -0.17891466449E+02 -0.26903034166E+01  0.19217245039E+02  0.41800000000E+01 0. -1.
</event>
<event>
11    1  0.7105277E-009  0.1707791E+03  0.7561462E-02  0.1077356E+00
         22   -1    0    0    0    0  0.00000000000E+00  0.00000000000E+00  0.90395849793E+03  0.90395849793E+03  0.00000000000E+00 0.  1.
         22   -1    0    0    0    0 -0.00000000000E+00 -0.00000000000E+00 -0.15696894161E+03  0.15696894161E+03  0.00000000000E+00 0. -1.
        -24    2    1    2    0    0  0.93603449450E+02  0.51556630260E+02  0.53539432251E+01  0.13626764284E+03  0.84383137565E+02 0.  0.
         25    2    1    2    0    0 -0.11835772974E+03 -0.50265374852E+02  0.10066872893E+01  0.17939808273E+03  0.12508996192E+03 0.  0.
         24    2    1    2    0    0  0.24754280286E+02 -0.12912554087E+01  0.74062892580E+03  0.74526171397E+03  0.79179383922E+02 0.  0.
        -11    1    5    5    0    0  0.15287968493E+02  0.35565132220E+02  0.23165357954E+03  0.23486587986E+03  0.00000000000E+00 0.  1.
         12    1    5    5    0    0  0.94663117932E+01 -0.36856387629E+02  0.50897534627E+03  0.51039583411E+03  0.00000000000E+00 0. -1.
         11    1    3    3    0    0  0.56463633731E+02 -0.10018967985E+02 -0.18897670943E+02  0.60379165452E+02  0.00000000000E+00 0. -1.
        -12    1    3    3    0    0  0.37139815719E+02  0.61575598246E+02  0.24251614169E+02  0.75888477391E+02  0.00000000000E+00 0.  1.
          5    1    4    4  501    0 -0.77611017058E+02 -0.79688282137E+02  0.37150099533E+02  0.11735115924E+03  0.41800000000E+01 0.  1.
         -5    1    4    4    0  501 -0.40746712677E+02  0.29422907285E+02 -0.36143412243E+02  0.62046923499E+02  0.41800000000E+01 0.  1.
</event>
<event>
11    1  0.7105277E-009  0.2004203E+03  0.7561462E-02  0.1054227E+00
         22   -1    0    0    0    0  0.00000000000E+00  0.00000000000E+00  0.27412145165E+03  0.27412145165E+03  0.00000000000E+00 0. -1.
         22   -1    0    0    0    0 -0.00000000000E+00 -0.00000000000E+00 -0.16957655455E+04  0.16957655455E+04  0.00000000000E+00 0. -1.
        -24    2    1    2    0    0  0.10604407701E+03 -0.11116203381E+03 -0.14135455037E+04  0.14241539499E+04  0.80630254999E+02 0.  0.
         25    2    1    2    0    0 -0.13892451356E+03  0.11900735746E+03 -0.22286137172E+03  0.31428837831E+03  0.12508885696E+03 0.  0.
         24    2    1    2    0    0  0.32880436552E+02 -0.78453236532E+01  0.21476278153E+03  0.23144466897E+03  0.79378273187E+02 0.  0.
        -13    1    5    5    0    0  0.24066675216E+00  0.28316058235E+01 -0.67300116630E+01  0.73054068339E+01  0.00000000000E+00 0.  1.
         14    1    5    5    0    0  0.32639769800E+02 -0.10676929477E+02  0.22149279319E+03  0.22413926214E+03  0.00000000000E+00 0. -1.
         11    1    3    3    0    0  0.10761840140E+03 -0.62351737895E+02 -0.10511396248E+04  0.10584724703E+04  0.00000000000E+00 0. -1.
        -12    1    3    3    0    0 -0.15743243923E+01 -0.48810295917E+02 -0.36240587888E+03  0.36568147961E+03  0.00000000000E+00 0.  1.
          5    1    4    4  501    0 -0.10393763132E+03  0.77289117942E+02 -0.60555048885E+02  0.14304204033E+03  0.41800000000E+01 0. -1.
         -5    1    4    4    0  501 -0.34986882241E+02  0.41718239523E+02 -0.16230632284E+03  0.17124633798E+03  0.41800000000E+01 0. -1.
</event>
<event>
11    1  0.7105277E-009  0.1723152E+03  0.7561462E-02  0.1076034E+00
         22   -1    0    0    0    0  0.00000000000E+00  0.00000000000E+00  0.20334928344E+04  0.20334928344E+04  0.00000000000E+00 0.  1.
         22   -1    0    0    0    0 -0.00000000000E+00 -0.00000000000E+00 -0.12521578635E+04  0.12521578635E+04  0.00000000000E+00 0.  1.
         24    2    1    2    0    0 -0.36557112350E+01  0.17167247362E+02 -0.12384544746E+04  0.12412028751E+04  0.80666058518E+02 0.  0.
         25    2    1    2    0    0  0.67708811292E+02 -0.10848300576E+03  0.11298639783E+04  0.11439375710E+04  0.12509001214E+03 0.  0.
        -24    2    1    2    0    0 -0.64053100057E+02  0.91315758401E+02  0.88992546721E+03  0.90051025183E+03  0.80684627384E+02 0.  0.
        -13    1    3    3    0    0 -0.31372155470E+02  0.88928893593E+01 -0.10531279376E+04  0.10536326440E+04  0.00000000000E+00 0.  1.
         14    1    3    3    0    0  0.27716444235E+02  0.82743580025E+01 -0.18532653697E+03  0.18757023108E+03  0.00000000000E+00 0. -1.
         11    1    5    5    0    0 -0.34263645862E+01 -0.12720109655E+01 -0.74609048616E-01  0.36556193298E+01  0.00000000000E+00 0. -1.
        -12    1    5    5    0    0 -0.60626735470E+02  0.92587769366E+02  0.89000007626E+03  0.89685463250E+03  0.00000000000E+00 0.  1.
          5    1    4    4  501    0  0.30352731787E+02 -0.47094312947E+02  0.92664294717E+03  0.92834464859E+03  0.41800000000E+01 0. -1.
         -5    1    4    4    0  501  0.37356079504E+02 -0.61388692816E+02  0.20322103114E+03  0.21559292238E+03  0.41800000000E+01 0. -1.
</event>
<event>
11    1  0.7105277E-009  0.1388204E+03  0.7561462E-02  0.1108883E+00
         22   -1    0    0    0    0  0.00000000000E+00  0.00000000000E+00  0.32886246598E+03  0.32886246598E+03  0.00000000000E+00 0. -1.
         22   -1    0    0    0    0 -0.00000000000E+00 -0.00000000000E+00 -0.40193364512E+03  0.40193364512E+03  0.00000000000E+00 0.  1.
         24    2    1    2    0    0 -0.24599421479E+02 -0.13507583229E+02 -0.32535386674E+03  0.33670215969E+03  0.82009873775E+02 0.  0.
         25    2    1    2    0    0 -0.39103617259E+02  0.18173326857E+02  0.13670936616E+02  0.13301960441E+03  0.12509179813E+03 0.  0.
        -24    2    1    2    0    0  0.63703038739E+02 -0.46657436275E+01  0.23861175098E+03  0.26107434699E+03  0.84524556455E+02 0.  0.
        -13    1    3    3    0    0 -0.54120703052E+02 -0.17517590950E+02 -0.21266508541E+03  0.22014167040E+03  0.00000000000E+00 0.  1.
         14    1    3    3    0    0  0.29521281573E+02  0.40100077211E+01 -0.11268878132E+03  0.11656048929E+03  0.00000000000E+00 0. -1.
         13    1    5    5    0    0  0.84661675329E+02 -0.45806169021E+01  0.18464362935E+03  0.20317935717E+03  0.00000000000E+00 0. -1.
        -14    1    5    5    0    0 -0.20958636590E+02 -0.85126725436E-01  0.53968121629E+02  0.57894989821E+02  0.00000000000E+00 0.  1.
          5    1    4    4  501    0  0.34263870112E+02  0.24319504967E+02  0.36510523802E+02  0.55820622221E+02  0.41800000000E+01 0.  1.
         -5    1    4    4    0  501 -0.73367487371E+02 -0.61461781106E+01 -0.22839587186E+02  0.77198982191E+02  0.41800000000E+01 0.  1.
</event>
<event>
11    1  0.7105277E-009  0.1293414E+03  0.7561462E-02  0.1120081E+00
         22   -1    0    0    0    0  0.00000000000E+00  0.00000000000E+00  0.45436344907E+03  0.45436344907E+03  0.00000000000E+00 0.  1.
         22   -1    0    0    0    0 -0.00000000000E+00 -0.00000000000E+00 -0.27014830144E+03  0.27014830144E+03  0.00000000000E+00 0. -1.
        -24    2    1    2    0    0  0.14828852931E+02  0.34827464649E+01 -0.17338400524E+03  0.19190703512E+03  0.80834846762E+02 0.  0.
         25    2    1    2    0    0 -0.15893146420E+02  0.29547391209E+02 -0.31738106221E+02  0.13334365771E+03  0.12509030032E+03 0.  0.
         24    2    1    2    0    0  0.10642934883E+01 -0.33030137674E+02  0.38933725910E+03  0.39926105769E+03  0.82059540254E+02 0.  0.
        -11    1    5    5    0    0  0.28036759359E+02 -0.16049427455E+02  0.33275464503E+03  0.33431915557E+03  0.00000000000E+00 0.  1.
         12    1    5    5    0    0 -0.26972465870E+02 -0.16980710220E+02  0.56582614072E+02  0.64941902112E+02  0.00000000000E+00 0. -1.
         13    1    3    3    0    0  0.15873287041E+02 -0.38973405577E+01 -0.18071483934E+03  0.18145248321E+03  0.00000000000E+00 0. -1.
        -14    1    3    3    0    0 -0.10444341099E+01  0.73800870226E+01  0.73308340961E+01  0.10454551909E+02  0.00000000000E+00 0.  1.
          5    1    4    4  501    0  0.10504548216E+01 -0.39184721413E+02 -0.46447426114E+02  0.60921109972E+02  0.41800000000E+01 0. -1.
         -5    1    4    4    0  501 -0.16943601241E+02  0.68732112622E+02  0.14709319893E+02  0.72422547734E+02  0.41800000000E+01 0. -1.
</event>
<event>
11    1  0.7105277E-009  0.1431960E+03  0.7561462E-02  0.1104041E+00
         22   -1    0    0    0    0  0.00000000000E+00  0.00000000000E+00  0.97962065859E+03  0.97962065859E+03  0.00000000000E+00 0.  1.
         22   -1    0    0    0    0 -0.00000000000E+00 -0.00000000000E+00 -0.10758512855E+03  0.10758512855E+03  0.00000000000E+00 0. -1.
        -24    2    1    2    0    0  0.68752426085E+02 -0.91345844699E+01 -0.63747927837E+02  0.12398802475E+03  0.80615725830E+02 0.  0.
         25    2    1    2    0    0 -0.74302662669E+02  0.19692272728E+02  0.57136484416E+03  0.58992686936E+03  0.12508898738E+03 0.  0.
         24    2    1    2    0    0  0.55502365843E+01 -0.10557688258E+02  0.36441861372E+03  0.37329089304E+03  0.80018091030E+02 0.  0.
        -13    1    5    5    0    0 -0.80013619103E+01 -0.20052743500E+02  0.35184996863E+03  0.35251175121E+03  0.00000000000E+00 0.  1.
         14    1    5    5    0    0  0.13551598495E+02  0.94950552417E+01  0.12568645089E+02  0.20779141829E+02  0.00000000000E+00 0. -1.
         13    1    3    3    0    0  0.43665016099E+02  0.13608873201E+02 -0.75391481992E+02  0.88179989894E+02  0.00000000000E+00 0. -1.
        -14    1    3    3    0    0  0.25087409985E+02 -0.22743457671E+02  0.11643554155E+02  0.35808034852E+02  0.00000000000E+00 0.  1.
          5    1    4    4  501    0 -0.75755824885E+02 -0.16363572947E+02  0.16952192404E+03  0.18644534495E+03  0.41800000000E+01 0.  1.
         -5    1    4    4    0  501  0.14531622161E+01  0.36055845675E+02  0.40184292012E+03  0.40348152441E+03  0.41800000000E+01 0.  1.
</event>
<event>
11    1  0.7105277E-009  0.1391266E+03  0.7561462E-02  0.1108538E+00
         22   -1    0    0    0    0  0.00000000000E+00  0.00000000000E+00  0.79430227244E+03  0.79430227244E+03  0.00000000000E+00 0.  1.
         22   -1    0    0    0    0 -0.00000000000E+00 -0.00000000000E+00 -0.14453032234E+04  0.14453032234E+04  0.00000000000E+00 0.  1.
         24    2    1    2    0    0 -0.26109938007E+02  0.54470142713E+02 -0.13871973924E+04  0.13909120388E+04  0.81676000048E+02 0.  0.
         25    2    1    2    0    0  0.40926916773E+02 -0.81097237985E+02  0.58320787899E+02  0.16522791372E+03  0.12508866713E+03 0.  0.
        -24    2    1    2    0    0 -0.14816978766E+02  0.26627095272E+02  0.67787565353E+03  0.68346554330E+03  0.81738621009E+02 0.  0.
        -11    1    3    3    0    0  0.28401556608E+02  0.14363517944E+02 -0.32275777881E+03  0.32432320738E+03  0.00000000000E+00 0.  1.
         12    1    3    3    0    0 -0.54511494615E+02  0.40106624769E+02 -0.10644396136E+04  0.10665888314E+04  0.00000000000E+00 0. -1.
         13    1    5    5    0    0 -0.11924280227E+02 -0.28737382339E+02  0.20423673806E+03  0.20659300756E+03  0.00000000000E+00 0. -1.
        -14    1    5    5    0    0 -0.28926985386E+01  0.55364477610E+02  0.47363891547E+03  0.47687253573E+03  0.00000000000E+00 0.  1.
          5    1    4    4  501    0 -0.39257562793E+02  0.27651109708E+00  0.77995163355E+01  0.40243478353E+02  0.41800000000E+01 0. -1.
         -5    1    4    4    0  501  0.80184479567E+02 -0.81373749082E+02  0.50521271563E+02  0.12498443536E+03  0.41800000000E+01 0. -1.
</event>
<event>
11    1  0.7105277E-009  0.1280137E+03  0.7561462E-02  0.1121734E+00
         22   -1    0    0    0    0  0.00000000000E+00  0.00000000000E+00  0.21080389753E+03  0.21080389753E+03  0.00000000000E+00 0. -1.
         22   -1    0    0    0    0 -0.00000000000E+00 -0.00000000000E+00 -0.70287693987E+03  0.70287693987E+03  0.00000000000E+00 0.  1.
         24    2    1    2    0    0 -0.40923807204E+02  0.16593663384E+02 -0.55848348215E+03  0.56551543922E+03  0.77160900111E+02 0.  0.
         25    2    1    2    0    0  0.18133659731E+02  0.37240399365E+01 -0.98680454158E+02  0.16039823059E+03  0.12508821789E+03 0.  0.
        -24    2    1    2    0    0  0.22790147474E+02 -0.20317703320E+02  0.16509089396E+03  0.18776716759E+03  0.84079165482E+02 0.  0.
        -13    1    3    3    0    0 -0.26302308849E+02  0.41686609736E+02 -0.20506744904E+03  0.21090814004E+03  0.00000000000E+00 0.  1.
         14    1    3    3    0    0 -0.14621498355E+02 -0.25092946353E+02 -0.35341603311E+03  0.35460729918E+03  0.00000000000E+00 0. -1.
         13    1    5    5    0    0  0.25729905235E+02  0.17734743272E+02  0.13662903990E+03  0.14015721061E+03  0.00000000000E+00 0. -1.
        -14    1    5    5    0    0 -0.29397577609E+01 -0.38052446592E+02  0.28461854054E+02  0.47609956979E+02  0.00000000000E+00 0.  1.
          5    1    4    4  501    0 -0.32449203952E+02 -0.29550510653E+02  0.53781670777E+00  0.44090193510E+02  0.41800000000E+01 0.  1.
         -5    1    4    4    0  501  0.50582863683E+02  0.33274550589E+02 -0.99218270866E+02  0.11630803708E+03  0.41800000000E+01 0.  1.
</event>
<event>
11    1  0.7105277E-009  0.1361794E+03  0.7561462E-02  0.1111901E+00
         22   -1    0    0    0    0  0.00000000000E+00  0.00000000000E+00  0.61429655001E+03  0.61429655001E+03  0.00000000000E+00 0. -1.
         22   -1    0    0    0    0 -0.00000000000E+00 -0.00000000000E+00 -0.57977195618E+03  0.57977195618E+03  0.00000000000E+00 0. -1.
        -24    2    1    2    0    0 -0.18937053886E+02  0.19128143017E+02 -0.39619291009E+03  0.40533307118E+03  0.81250099847E+02 0.  0.
         25    2    1    2    0    0  0.66848175817E+02 -0.42139632011E+02 -0.14348762879E+03  0.20612935115E+03  0.12512466821E+03 0.  0.
         24    2    1    2    0    0 -0.47911121931E+02  0.23011488995E+02  0.57420513270E+03  0.58260608386E+03  0.83025961586E+02 0.  0.
        -13    1    5    5    0    0 -0.65236350302E+02 -0.44495203821E+01  0.41548629713E+03  0.42060009836E+03  0.00000000000E+00 0.  1.
         14    1    5    5    0    0  0.17325228371E+02  0.27461009377E+02  0.15871883557E+03  0.16200598550E+03  0.00000000000E+00 0. -1.
         13    1    3    3    0    0 -0.26052248074E+02  0.25894878098E+02 -0.39341845297E+03  0.39512952747E+03  0.00000000000E+00 0. -1.
        -14    1    3    3    0    0  0.71151941886E+01 -0.67667350806E+01 -0.27744571180E+01  0.10203543712E+02  0.00000000000E+00 0.  1.
          5    1    4    4  501    0  0.59328628508E+01  0.32026010201E+02  0.72882999021E+00  0.32846122818E+02  0.41800000000E+01 0. -1.
         -5    1    4    4    0  501  0.60915312966E+02 -0.74165642212E+02 -0.14421645878E+03  0.17328322833E+03  0.41800000000E+01 0. -1.
</event>
<event>
11    1  0.7105277E-009  0.1467959E+03  0.7561462E-02  0.1100198E+00
         22   -1    0    0    0    0  0.00000000000E+00  0.00000000000E+00  0.45166369729E+03  0.45166369729E+03  0.00000000000E+00 0. -1.
         22   -1    0    0    0    0 -0.00000000000E+00 -0.00000000000E+00 -0.64240964162E+03  0.64240964162E+03  0.00000000000E+00 0. -1.
        -24    2    1    2    0    0 -0.15516232705E+02 -0.48497951596E+02 -0.33031649068E+03  0.34387152914E+03  0.80906364102E+02 0.  0.
         25    2    1    2    0    0  0.32400669483E+02 -0.27522491789E+02 -0.28336138922E+03  0.31264733435E+03  0.12508951931E+03 0.  0.
         24    2    1    2    0    0 -0.16884436778E+02  0.76020443384E+02  0.42293193557E+03  0.43755447541E+03  0.80736019255E+02 0.  0.
        -13    1    5    5    0    0  0.11267417578E+02  0.44687392559E+02  0.82274952732E+02  0.94303157951E+02  0.00000000000E+00 0.  1.
         14    1    5    5    0    0 -0.28151854356E+02  0.31333050825E+02  0.34065698284E+03  0.34325131746E+03  0.00000000000E+00 0. -1.
         13    1    3    3    0    0 -0.25983464789E+02 -0.68367063296E+02 -0.25227214945E+03  0.26266029996E+03  0.00000000000E+00 0. -1.
        -14    1    3    3    0    0  0.10467232084E+02  0.19869111701E+02 -0.78044341235E+02  0.81211229187E+02  0.00000000000E+00 0.  1.
          5    1    4    4  501    0 -0.52264564101E+01  0.46473074043E+02 -0.77141947722E+02  0.90307336114E+02  0.41800000000E+01 0. -1.
         -5    1    4    4    0  501  0.37627125893E+02 -0.73995565832E+02 -0.20621944150E+03  0.22233999824E+03  0.41800000000E+01 0. -1.
</event>
<event>
11    1  0.7105277E-009  0.2851946E+03  0.7561462E-02  0.1006659E+00
         22   -1    0    0    0    0  0.00000000000E+00  0.00000000000E+00  0.16773685288E+04  0.16773685288E+04  0.00000000000E+00 0. -1.
         22   -1    0    0    0    0 -0.00000000000E+00 -0.00000000000E+00 -0.70638500026E+03  0.70638500026E+03  0.00000000000E+00 0.  1.
         24    2    1    2    0    0  0.22214139631E+02  0.25920054217E+02 -0.57621000214E+03  0.58279417949E+03  0.80410023438E+02 0.  0.
         25    2    1    2    0    0 -0.13785295595E+03  0.20419644309E+03  0.51524626657E+02  0.28107290399E+03  0.12509022892E+03 0.  0.
        -24    2    1    2    0    0  0.11563881632E+03 -0.23011649731E+03  0.14956689040E+04  0.15198864455E+04  0.81874286637E+02 0.  0.
        -11    1    3    3    0    0  0.44451008646E+02 -0.94619596089E+01 -0.31538465165E+03  0.31864227488E+03  0.00000000000E+00 0.  1.
         12    1    3    3    0    0 -0.22236869014E+02  0.35382013826E+02 -0.26082535049E+03  0.26415190461E+03  0.00000000000E+00 0. -1.
         13    1    5    5    0    0  0.81319180349E+02 -0.19368029008E+03  0.13400985684E+04  0.13564619556E+04  0.00000000000E+00 0. -1.
        -14    1    5    5    0    0  0.34319635973E+02 -0.36436207231E+02  0.15557033560E+03  0.16342448999E+03  0.00000000000E+00 0.  1.
          5    1    4    4  501    0 -0.68975999900E+02  0.99015628802E+01  0.72064186563E+01  0.70179301646E+02  0.41800000000E+01 0.  1.
         -5    1    4    4    0  501 -0.68876956053E+02  0.19429488021E+03  0.44318208001E+02  0.21089360235E+03  0.41800000000E+01 0.  1.
</event>
<event>
11    1  0.7105277E-009  0.1434489E+03  0.7561462E-02  0.1103767E+00
         22   -1    0    0    0    0  0.00000000000E+00  0.00000000000E+00  0.14673756615E+04  0.14673756615E+04  0.00000000000E+00 0. -1.
         22   -1    0    0    0    0 -0.00000000000E+00 -0.00000000000E+00 -0.16029510106E+03  0.16029510106E+03  0.00000000000E+00 0.  1.
        -24    2    1    2    0    0  0.41679879624E+01 -0.15022194401E+02 -0.13633776146E+03  0.15869815324E+03  0.79712484556E+02 0.  0.
         25    2    1    2    0    0 -0.68188337602E+02 -0.15078422028E+02  0.51825087898E+03  0.53768830672E+03  0.12509090067E+03 0.  0.
         24    2    1    2    0    0  0.64020349640E+02  0.30100616429E+02  0.92516744292E+03  0.93128430260E+03  0.79693177626E+02 0.  0.
        -13    1    5    5    0    0  0.25954906881E+02  0.54282863990E+01  0.69056853716E+02  0.73972782356E+02  0.00000000000E+00 0.  1.
         14    1    5    5    0    0  0.38065442759E+02  0.24672330030E+02  0.85611058920E+03  0.85731152025E+03  0.00000000000E+00 0. -1.
         13    1    3    3    0    0 -0.11222539811E+02  0.11325823688E+02  0.28568926366E+01  0.16198194886E+02  0.00000000000E+00 0. -1.
        -14    1    3    3    0    0  0.15390527774E+02 -0.26348018089E+02 -0.13919465409E+03  0.14249995835E+03  0.00000000000E+00 0.  1.
          5    1    4    4  501    0 -0.68908004730E+02 -0.64005799088E+02  0.33716602425E+03  0.35006207413E+03  0.41800000000E+01 0.  1.
         -5    1    4    4    0  501  0.71966712827E+00  0.48927377060E+02  0.18108485473E+03  0.18762623260E+03  0.41800000000E+01 0.  1.
</event>
<event>
11    1  0.7105277E-009  0.1410980E+03  0.7561462E-02  0.1106338E+00
         22   -1    0    0    0    0  0.00000000000E+00  0.00000000000E+00  0.24196705782E+03  0.24196705782E+03  0.00000000000E+00 0. -1.
         22   -1    0    0    0    0 -0.00000000000E+00 -0.00000000000E+00 -0.82432555440E+03  0.82432555440E+03  0.00000000000E+00 0.  1.
         24    2    1    2    0    0 -0.57991060071E+02 -0.81695844087E+01 -0.72516293590E+03  0.73205378373E+03  0.81312689809E+02 0.  0.
         25    2    1    2    0    0  0.14998817733E+02  0.63080085812E+02 -0.16579500745E+02  0.14186913294E+03  0.12509160354E+03 0.  0.
        -24    2    1    2    0    0  0.42992242338E+02 -0.54910501404E+02  0.15938394006E+03  0.19236969554E+03  0.82093625501E+02 0.  0.
        -13    1    3    3    0    0 -0.76814739327E+01 -0.37917280329E+02 -0.20509312630E+03  0.20871012348E+03  0.00000000000E+00 0.  1.
         14    1    3    3    0    0 -0.50309586138E+02  0.29747695921E+02 -0.52006980960E+03  0.52334366025E+03  0.00000000000E+00 0. -1.
         11    1    5    5    0    0  0.19265672762E+02 -0.54626054737E+02  0.15835807940E+03  0.16861925547E+03  0.00000000000E+00 0. -1.
        -12    1    5    5    0    0  0.23726569576E+02 -0.28444666695E+00  0.10258606638E+01  0.23750440077E+02  0.00000000000E+00 0.  1.
          5    1    4    4  501    0 -0.37654184209E+02  0.59306684370E+02  0.24851699303E+02  0.74633770893E+02  0.41800000000E+01 0. -1.
         -5    1    4    4    0  501  0.52653001942E+02  0.37734014427E+01 -0.41431200048E+02  0.67235362046E+02  0.41800000000E+01 0. -1.
</event>
<event>
11    1  0.7105277E-009  0.1325067E+03  0.7561462E-02  0.1116227E+00
         22   -1    0    0    0    0  0.00000000000E+00  0.00000000000E+00  0.15296784546E+04  0.15296784546E+04  0.00000000000E+00 0.  1.
         22   -1    0    0    0    0 -0.00000000000E+00 -0.00000000000E+00 -0.53549585224E+02  0.53549585224E+02  0.00000000000E+00 0.  1.
        -24    2    1    2    0    0  0.35021115340E+02  0.28585579823E+02  0.63240964848E+01  0.91694883706E+02  0.79525741794E+02 0.  0.
         25    2    1    2    0    0 -0.85787094145E+01 -0.35776126018E+02  0.45458304060E+03  0.47291070705E+03  0.12508105608E+03 0.  0.
         24    2    1    2    0    0 -0.26442405926E+02  0.71905461950E+01  0.10152217323E+04  0.10186224491E+04  0.78521482712E+02 0.  0.
        -13    1    5    5    0    0 -0.40299836528E+02  0.17093658828E+02  0.95595760803E+03  0.95695936086E+03  0.00000000000E+00 0.  1.
         14    1    5    5    0    0  0.13857430602E+02 -0.99031126331E+01  0.59264124295E+02  0.61663088239E+02  0.00000000000E+00 0. -1.
         13    1    3    3    0    0  0.16200817018E+02  0.21062271859E+02  0.42560921998E+02  0.50174872688E+02  0.00000000000E+00 0. -1.
        -14    1    3    3    0    0  0.18820298322E+02  0.75233079639E+01 -0.36236825513E+02  0.41520011018E+02  0.00000000000E+00 0.  1.
          5    1    4    4  501    0 -0.44170189992E+01 -0.30199920174E+02  0.16870843247E+02  0.35123254224E+02  0.41800000000E+01 0.  1.
         -5    1    4    4    0  501 -0.41616904153E+01 -0.55762058435E+01  0.43771219736E+03  0.43778745283E+03  0.41800000000E+01 0.  1.
</event>
<event>
11    1  0.7105277E-009  0.1338124E+03  0.7561462E-02  0.1114672E+00
         22   -1    0    0    0    0  0.00000000000E+00  0.00000000000E+00  0.13492984234E+04  0.13492984234E+04  0.00000000000E+00 0.  1.
         22   -1    0    0    0    0 -0.00000000000E+00 -0.00000000000E+00 -0.21061799820E+03  0.21061799820E+03  0.00000000000E+00 0. -1.
         24    2    1    2    0    0 -0.88060755355E+01  0.47807976972E+02 -0.15558612268E+03  0.18171321505E+03  0.80308787354E+02 0.  0.
         25    2    1    2    0    0 -0.30957707760E+02 -0.42749669073E+02  0.73398449752E+02  0.15433951669E+03  0.12508972823E+03 0.  0.
        -24    2    1    2    0    0  0.39763783295E+02 -0.50583078986E+01  0.12208680981E+04  0.12238636898E+04  0.75608685766E+02 0.  0.
        -11    1    3    3    0    0 -0.12154021181E+02 -0.87764540350E+01  0.11565270227E+01  0.15036087625E+02  0.00000000000E+00 0.  1.
         12    1    3    3    0    0  0.33479456456E+01  0.56584431007E+02 -0.15674264970E+03  0.16667712743E+03  0.00000000000E+00 0. -1.
         11    1    5    5    0    0  0.39049564222E+02  0.18962620163E+01  0.25580876426E+03  0.25877903344E+03  0.00000000000E+00 0. -1.
        -12    1    5    5    0    0  0.71421907388E+00 -0.69545699149E+01  0.96505933387E+03  0.96508465641E+03  0.00000000000E+00 0.  1.
          5    1    4    4  501    0 -0.23476345554E+02  0.38697985426E+02  0.53226956516E+02  0.69994672487E+02  0.41800000000E+01 0. -1.
         -5    1    4    4    0  501 -0.74813622056E+01 -0.81447654499E+02  0.20171493236E+02  0.84344844200E+02  0.41800000000E+01 0. -1.
</event>
<event>
11    1  0.7105277E-009  0.1307236E+03  0.7561462E-02  0.1118383E+00
         22   -1    0    0    0    0  0.00000000000E+00  0.00000000000E+00  0.29671384747E+03  0.29671384747E+03  0.00000000000E+00 0.  1.
         22   -1    0    0    0    0 -0.00000000000E+00 -0.00000000000E+00 -0.70829145670E+03  0.70829145670E+03  0.00000000000E+00 0.  1.
        -24    2    1    2    0    0  0.24189234892E+02 -0.20568553473E+02 -0.58866353626E+03  0.59478258665E+03  0.78951770009E+02 0.  0.
         25    2    1    2    0    0 -0.28901360229E+02  0.56607363947E+02 -0.63409368170E+02  0.15397370133E+03  0.12508984952E+03 0.  0.
         24    2    1    2    0    0  0.47121253368E+01 -0.36038810474E+02  0.24049529519E+03  0.25624901619E+03  0.80650922510E+02 0.  0.
        -11    1    5    5    0    0 -0.87079939935E+01 -0.30196585225E+02  0.23952752529E+03  0.24158041785E+03  0.00000000000E+00 0.  1.
         12    1    5    5    0    0  0.13420119330E+02 -0.58422252490E+01  0.96776990983E+00  0.14668598341E+02  0.00000000000E+00 0. -1.
         13    1    3    3    0    0  0.18248359821E+02  0.28913377477E+02 -0.19469009386E+03  0.19766946826E+03  0.00000000000E+00 0. -1.
        -14    1    3    3    0    0  0.59408750704E+01 -0.49481930950E+02 -0.39397344239E+03  0.39711311839E+03  0.00000000000E+00 0.  1.
          5    1    4    4  501    0 -0.46635563773E+02  0.88349674174E+02 -0.29936032015E+02  0.10437518454E+03  0.41800000000E+01 0.  1.
         -5    1    4    4    0  501  0.17734203544E+02 -0.31742310227E+02 -0.33473336155E+02  0.49598516785E+02  0.41800000000E+01 0.  1.
</event>
<event>
11    1  0.7105277E-009  0.1786874E+03  0.7561462E-02  0.1070710E+00
         22   -1    0    0    0    0  0.00000000000E+00  0.00000000000E+00  0.11557092828E+04  0.11557092828E+04  0.00000000000E+00 0.  1.
         22   -1    0    0    0    0 -0.00000000000E+00 -0.00000000000E+00 -0.14296048707E+03  0.14296048707E+03  0.00000000000E+00 0. -1.
         24    2    1    2    0    0 -0.71488458971E+01 -0.11654326626E+01 -0.10430015374E+03  0.13163137127E+03  0.79973943260E+02 0.  0.
         25    2    1    2    0    0  0.12771520647E+03 -0.27807576238E+02  0.69700421392E+03  0.72010182453E+03  0.12508928099E+03 0.  0.
        -24    2    1    2    0    0 -0.12056636057E+03  0.28973008901E+02  0.42004473551E+03  0.44693657402E+03  0.89101284057E+02 0.  0.
        -11    1    3    3    0    0 -0.21730180649E+01 -0.20699616604E+02  0.42352469588E+01  0.21239902351E+02  0.00000000000E+00 0.  1.
         12    1    3    3    0    0 -0.49758278322E+01  0.19534183941E+02 -0.10853540070E+03  0.11039146892E+03  0.00000000000E+00 0. -1.
         13    1    5    5    0    0 -0.58208932359E+02 -0.16731778266E+02  0.93786195560E+02  0.11164265622E+03  0.00000000000E+00 0. -1.
        -14    1    5    5    0    0 -0.62357428216E+02  0.45704787167E+02  0.32625853995E+03  0.33529391780E+03  0.00000000000E+00 0.  1.
          5    1    4    4  501    0 -0.10109210131E+02 -0.40809114578E+02  0.15006110778E+03  0.15589544070E+03  0.41800000000E+01 0. -1.
         -5    1    4    4    0  501  0.13782441660E+03  0.13001538339E+02  0.54694310614E+03  0.56420638384E+03  0.41800000000E+01 0. -1.
</event>
<event>
11    1  0.7105277E-009  0.2341385E+03  0.7561462E-02  0.1032705E+00
         22   -1    0    0    0    0  0.00000000000E+00  0.00000000000E+00  0.12192808748E+04  0.12192808748E+04  0.00000000000E+00 0.  1.
         22   -1    0    0    0    0 -0.00000000000E+00 -0.00000000000E+00 -0.10482962649E+04  0.10482962649E+04  0.00000000000E+00 0. -1.
         24    2    1    2    0    0  0.13634277419E+02  0.46454626810E+02 -0.45486790168E+03  0.46448349808E+03  0.80598921456E+02 0.  0.
         25    2    1    2    0    0 -0.20308245867E+03 -0.10225667381E+03 -0.54994108753E+03  0.60809621836E+03  0.12508756401E+03 0.  0.
        -24    2    1    2    0    0  0.18944818125E+03  0.55802046996E+02  0.11757935991E+04  0.11949974233E+04  0.80769871684E+02 0.  0.
        -11    1    3    3    0    0 -0.26213076465E+02  0.47397576093E+02 -0.26241724417E+03  0.26794862500E+03  0.00000000000E+00 0.  1.
         12    1    3    3    0    0  0.39847353884E+02 -0.94294928265E+00 -0.19245065750E+03  0.19653487308E+03  0.00000000000E+00 0. -1.
         13    1    5    5    0    0  0.13540257435E+03  0.11611813711E+02  0.61257006285E+03  0.62746376251E+03  0.00000000000E+00 0. -1.
        -14    1    5    5    0    0  0.54045606895E+02  0.44190233285E+02  0.56322353628E+03  0.56753366082E+03  0.00000000000E+00 0.  1.
          5    1    4    4  501    0 -0.21864032371E+03 -0.10193402201E+03 -0.49227008435E+03  0.54821660349E+03  0.41800000000E+01 0.  1.
         -5    1    4    4    0  501  0.15557865042E+02 -0.32265179533E+00 -0.57671003186E+02  0.59879614873E+02  0.41800000000E+01 0.  1.
</event>
<event>
11    1  0.7105277E-009  0.1460342E+03  0.7561462E-02  0.1101001E+00
         22   -1    0    0    0    0  0.00000000000E+00  0.00000000000E+00  0.53036184881E+03  0.53036184881E+03  0.00000000000E+00 0.  1.
         22   -1    0    0    0    0 -0.00000000000E+00 -0.00000000000E+00 -0.86875932114E+03  0.86875932114E+03  0.00000000000E+00 0.  1.
         24    2    1    2    0    0 -0.37393485093E+02 -0.66207186464E+02 -0.82549554932E+03  0.83452619583E+03  0.95965646591E+02 0.  0.
         25    2    1    2    0    0  0.60367319753E+02  0.25478297711E+02  0.11837216719E+03  0.18426690986E+03  0.12509583189E+03 0.  0.
        -24    2    1    2    0    0 -0.22973834660E+02  0.40728888753E+02  0.36872590980E+03  0.38032806426E+03  0.80647383398E+02 0.  0.
        -13    1    3    3    0    0  0.24990818249E+02  0.16182079049E+01 -0.29723306690E+03  0.29828619756E+03  0.00000000000E+00 0.  1.
         14    1    3    3    0    0 -0.62384303342E+02 -0.67825394369E+02 -0.52826248241E+03  0.53623999827E+03  0.00000000000E+00 0. -1.
         13    1    5    5    0    0  0.20554361286E+02 -0.11755477849E+02  0.69197792387E+02  0.73136909277E+02  0.00000000000E+00 0. -1.
        -14    1    5    5    0    0 -0.43528195946E+02  0.52484366601E+02  0.29952811741E+03  0.30719115498E+03  0.00000000000E+00 0.  1.
          5    1    4    4  501    0  0.81374549165E+01 -0.19016496282E+02  0.11340035954E+03  0.11534712501E+03  0.41800000000E+01 0. -1.
         -5    1    4    4    0  501  0.52229864837E+02  0.44494793994E+02  0.49718076479E+01  0.68919784857E+02  0.41800000000E+01 0. -1.
</event>
<event>
11    1  0.7105277E-009  0.1463372E+03  0.7561462E-02  0.1100681E+00
         22   -1    0    0    0    0  0.00000000000E+00  0.00000000000E+00  0.48380734361E+03  0.48380734361E+03  0.00000000000E+00 0.  1.
         22   -1    0    0    0    0 -0.00000000000E+00 -0.00000000000E+00 -0.11352486669E+04  0.11352486669E+04  0.00000000000E+00 0.  1.
         24    2    1    2    0    0 -0.37044932988E+02 -0.67479068433E+02 -0.97670794890E+03  0.98296249159E+03  0.79568151324E+02 0.  0.
         25    2    1    2    0    0  0.39600688387E+02  0.52313619322E+02 -0.11867043003E+03  0.18448801645E+03  0.12509287735E+03 0.  0.
        -24    2    1    2    0    0 -0.25557553988E+01  0.15165449111E+02  0.44393705567E+03  0.45160550244E+03  0.81430324209E+02 0.  0.
        -13    1    3    3    0    0  0.23817874837E+02 -0.31062616347E+02 -0.39959898228E+03  0.40151154894E+03  0.00000000000E+00 0.  1.
         14    1    3    3    0    0 -0.60862807825E+02 -0.36416452086E+02 -0.57710896662E+03  0.58145094265E+03  0.00000000000E+00 0. -1.
         13    1    5    5    0    0  0.29195877630E+02  0.18459138788E+01  0.67114985785E+02  0.73213577877E+02  0.00000000000E+00 0. -1.
        -14    1    5    5    0    0 -0.31751633029E+02  0.13319535232E+02  0.37682206988E+03  0.37839192456E+03  0.00000000000E+00 0.  1.
          5    1    4    4  501    0  0.80798147926E+02  0.35911371795E+02 -0.10616597573E+03  0.13822682133E+03  0.41800000000E+01 0. -1.
         -5    1    4    4    0  501 -0.41197459539E+02  0.16402247527E+02 -0.12504454297E+02  0.46261195117E+02  0.41800000000E+01 0. -1.
</event>
<event>
11    1  0.7105277E-009  0.1379180E+03  0.7561462E-02  0.1109906E+00
         22   -1    0    0    0    0  0.00000000000E+00  0.00000000000E+00  0.67577107302E+03  0.67577107302E+03  0.00000000000E+00 0.  1.
         22   -1    0    0    0    0 -0.00000000000E+00 -0.00000000000E+00 -0.13444987121E+03  0.13444987121E+03  0.00000000000E+00 0. -1.
        -24    2    1    2    0    0  0.18876273395E+02 -0.53452243664E+02 -0.59632080998E+02  0.11495755661E+03  0.80285731537E+02 0.  0.
         25    2    1    2    0    0 -0.17250352387E+01  0.66368452885E+02  0.70558375334E+02  0.15822094684E+03  0.12509051285E+03 0.  0.
         24    2    1    2    0    0 -0.17151238156E+02 -0.12916209221E+02  0.53039490747E+03  0.53704244078E+03  0.81454477434E+02 0.  0.
        -11    1    5    5    0    0 -0.49599609800E+02 -0.13175896000E+02  0.29674432926E+03  0.30114933584E+03  0.00000000000E+00 0.  1.
         12    1    5    5    0    0  0.32448371644E+02  0.25968677942E+00  0.23365057821E+03  0.23589310494E+03  0.00000000000E+00 0. -1.
         13    1    3    3    0    0  0.15835356969E+02 -0.51681621528E+02 -0.78751366379E+02  0.95517151552E+02  0.00000000000E+00 0. -1.
        -14    1    3    3    0    0  0.30409164260E+01 -0.17706221361E+01  0.19119285381E+02  0.19440405061E+02  0.00000000000E+00 0.  1.
          5    1    4    4  501    0  0.18058297858E+02  0.25648893969E+02 -0.32633753710E+02  0.45457696428E+02  0.41800000000E+01 0.  1.
         -5    1    4    4    0  501 -0.19783333097E+02  0.40719558916E+02  0.10319212904E+03  0.11276325041E+03  0.41800000000E+01 0.  1.
</event>
<event>
11    1  0.7105277E-009  0.1332855E+03  0.7561462E-02  0.1115297E+00
         22   -1    0    0    0    0  0.00000000000E+00  0.00000000000E+00  0.77958403113E+03  0.77958403113E+03  0.00000000000E+00 0.  1.
         22   -1    0    0    0    0 -0.00000000000E+00 -0.00000000000E+00 -0.84974368767E+02  0.84974368767E+02  0.00000000000E+00 0. -1.
         24    2    1    2    0    0  0.20723763713E+02  0.27916933724E+02 -0.30852045438E+01  0.87145364435E+02  0.79849649244E+02 0.  0.
         25    2    1    2    0    0  0.23481344670E+02 -0.76881543426E+01  0.75133178930E+02  0.14799641149E+03  0.12508981563E+03 0.  0.
        -24    2    1    2    0    0 -0.44205108383E+02 -0.20228779381E+02  0.62256168797E+03  0.62941662396E+03  0.78860231225E+02 0.  0.
        -13    1    3    3    0    0  0.47430015150E+02  0.12460401733E+02  0.15121400515E+02  0.51317878970E+02  0.00000000000E+00 0.  1.
         14    1    3    3    0    0 -0.26706251436E+02  0.15456531991E+02 -0.18206605059E+02  0.35827485465E+02  0.00000000000E+00 0. -1.
         11    1    5    5    0    0  0.19341959774E+02  0.10540411742E+02  0.15169636495E+03  0.15328730811E+03  0.00000000000E+00 0. -1.
        -12    1    5    5    0    0 -0.63547068157E+02 -0.30769191124E+02  0.47086532302E+03  0.47612931586E+03  0.00000000000E+00 0.  1.
          5    1    4    4  501    0 -0.36438008572E+02  0.10401815459E+02 -0.12593105842E+02  0.40149532354E+02  0.41800000000E+01 0. -1.
         -5    1    4    4    0  501  0.59919353242E+02 -0.18089969801E+02  0.87726284772E+02  0.10784687914E+03  0.41800000000E+01 0. -1.
</event>
<event>
11    1  0.7105277E-009  0.1962778E+03  0.7561462E-02  0.1057187E+00
         22   -1    0    0    0    0  0.00000000000E+00  0.00000000000E+00  0.67626165270E+02  0.67626165270E+02  0.00000000000E+00 0. -1.
         22   -1    0    0    0    0 -0.00000000000E+00 -0.00000000000E+00 -0.24349483637E+04  0.24349483637E+04  0.00000000000E+00 0. -1.
         24    2    1    2    0    0  0.41508678435E+02 -0.42691575206E+02 -0.12632172097E+04  0.12671254464E+04  0.79646951191E+02 0.  0.
         25    2    1    2    0    0 -0.18257041127E+03 -0.25624100760E+01 -0.10258747050E+04  0.10494783133E+04  0.12508916343E+03 0.  0.
        -24    2    1    2    0    0  0.14106173283E+03  0.45253985282E+02 -0.78230283687E+02  0.18597076927E+03  0.80739173160E+02 0.  0.
        -11    1    3    3    0    0 -0.92875803181E+01 -0.46839215396E+02 -0.68781981047E+03  0.68947535338E+03  0.00000000000E+00 0.  1.
         12    1    3    3    0    0  0.50796258753E+02  0.41476401898E+01 -0.57539739927E+03  0.57765009297E+03  0.00000000000E+00 0. -1.
         11    1    5    5    0    0  0.10749237278E+03 -0.25863839708E+00 -0.29885758471E+02  0.11156986896E+03  0.00000000000E+00 0. -1.
        -12    1    5    5    0    0  0.33569360051E+02  0.45512623680E+02 -0.48344525215E+02  0.74400900308E+02  0.00000000000E+00 0.  1.
          5    1    4    4  501    0 -0.17247550655E+03 -0.22114285311E+02 -0.64793768094E+03  0.67087819517E+03  0.41800000000E+01 0.  1.
         -5    1    4    4    0  501 -0.10094904719E+02  0.19551875235E+02 -0.37793702403E+03  0.37860011815E+03  0.41800000000E+01 0.  1.
</event>
<event>
11    1  0.7105277E-009  0.1574465E+03  0.7561462E-02  0.1089504E+00
         22   -1    0    0    0    0  0.00000000000E+00  0.00000000000E+00  0.26683192167E+03  0.26683192167E+03  0.00000000000E+00 0.  1.
         22   -1    0    0    0    0 -0.00000000000E+00 -0.00000000000E+00 -0.68143782255E+03  0.68143782255E+03  0.00000000000E+00 0. -1.
        -24    2    1    2    0    0  0.27556968512E+02  0.12286036402E+02 -0.46713595252E+03  0.47461424040E+03  0.78309296061E+02 0.  0.
         25    2    1    2    0    0 -0.93649940508E+02 -0.78213762788E+02 -0.15426677795E+03  0.23309396275E+03  0.12508738003E+03 0.  0.
         24    2    1    2    0    0  0.66092971996E+02  0.65927726386E+02  0.20679682959E+03  0.24056154108E+03  0.79938603079E+02 0.  0.
        -11    1    5    5    0    0  0.73626898598E+02  0.24359718987E+02  0.15808473373E+03  0.17608264862E+03  0.00000000000E+00 0.  1.
         12    1    5    5    0    0 -0.75339266025E+01  0.41568007399E+02  0.48712095857E+02  0.64478892453E+02  0.00000000000E+00 0. -1.
         11    1    3    3    0    0  0.44320906673E+01  0.39749586245E+02 -0.34500139161E+03  0.34731201138E+03  0.00000000000E+00 0. -1.
        -12    1    3    3    0    0  0.23124877845E+02 -0.27463549844E+02 -0.12213456091E+03  0.12730222902E+03  0.00000000000E+00 0.  1.
          5    1    4    4  501    0 -0.34894576449E+02 -0.10163078139E+03 -0.72751703139E+02  0.12983346988E+03  0.41800000000E+01 0. -1.
         -5    1    4    4    0  501 -0.58755364059E+02  0.23417018601E+02 -0.81515074811E+02  0.10326049287E+03  0.41800000000E+01 0. -1.
</event>
<event>
11    1  0.7105277E-009  0.1424901E+03  0.7561462E-02  0.1104809E+00
         22   -1    0    0    0    0  0.00000000000E+00  0.00000000000E+00  0.78909642534E+03  0.78909642534E+03  0.00000000000E+00 0. -1.
         22   -1    0    0    0    0 -0.00000000000E+00 -0.00000000000E+00 -0.44854678790E+03  0.44854678790E+03  0.00000000000E+00 0. -1.
         24    2    1    2    0    0 -0.20488099195E+02  0.32664738102E+02 -0.40302229326E+03  0.41303406810E+03  0.81752218432E+02 0.  0.
         25    2    1    2    0    0 -0.32502325711E+02 -0.74694105520E+02  0.11833621517E+03  0.19049209361E+03  0.12509263501E+03 0.  0.
        -24    2    1    2    0    0  0.52990424905E+02  0.42029367418E+02  0.62523571553E+03  0.63411705153E+03  0.81303642027E+02 0.  0.
        -11    1    3    3    0    0 -0.31347199244E+02  0.41037425713E+02 -0.13314484585E+03  0.14280849830E+03  0.00000000000E+00 0.  1.
         12    1    3    3    0    0  0.10859100049E+02 -0.83726876104E+01 -0.26987744741E+03  0.27022556980E+03  0.00000000000E+00 0. -1.
         13    1    5    5    0    0  0.10082034607E+02  0.34665486312E+02  0.50417952843E+03  0.50547041481E+03  0.00000000000E+00 0. -1.
        -14    1    5    5    0    0  0.42908390298E+02  0.73638811059E+01  0.12105618710E+03  0.12864663671E+03  0.00000000000E+00 0.  1.
          5    1    4    4  501    0  0.62433790694E+01 -0.69005239690E+02  0.13172512943E+03  0.14889487906E+03  0.41800000000E+01 0. -1.
         -5    1    4    4    0  501 -0.38745704780E+02 -0.56888658304E+01 -0.13388914264E+02  0.41597214552E+02  0.41800000000E+01 0. -1.
</event>
<event>
11    1  0.7105277E-009  0.1392876E+03  0.7561462E-02  0.1108357E+00
         22   -1    0    0    0    0  0.00000000000E+00  0.00000000000E+00  0.45481719038E+03  0.45481719038E+03  0.00000000000E+00 0. -1.
         22   -1    0    0    0    0 -0.00000000000E+00 -0.00000000000E+00 -0.44593206230E+03  0.44593206230E+03  0.00000000000E+00 0.  1.
         24    2    1    2    0    0 -0.36669538846E+02  0.27234172871E+02 -0.25142734750E+03  0.26780887193E+03  0.80121941829E+02 0.  0.
         25    2    1    2    0    0 -0.11740198556E+02  0.12715174789E+02 -0.15810879568E+03  0.20234700678E+03  0.12508561847E+03 0.  0.
        -24    2    1    2    0    0  0.48409737403E+02 -0.39949347660E+02  0.41842127126E+03  0.43059337397E+03  0.79967746057E+02 0.  0.
        -11    1    3    3    0    0  0.25455071208E+02  0.52496580490E+01 -0.61206201764E+02  0.66496005100E+02  0.00000000000E+00 0.  1.
         12    1    3    3    0    0 -0.62124610054E+02  0.21984514822E+02 -0.19022114573E+03  0.20131286683E+03  0.00000000000E+00 0. -1.
         13    1    5    5    0    0  0.10064820073E+02  0.92816555915E+01  0.25948162717E+03  0.25984257652E+03  0.00000000000E+00 0. -1.
        -14    1    5    5    0    0  0.38344917330E+02 -0.49231003251E+02  0.15893964409E+03  0.17075079745E+03  0.00000000000E+00 0.  1.
          5    1    4    4  501    0  0.23177646151E+02  0.39036617654E+01  0.13175905032E+02  0.27267539854E+02  0.41800000000E+01 0. -1.
         -5    1    4    4    0  501 -0.34917844707E+02  0.88115130233E+01 -0.17128470071E+03  0.17507946692E+03  0.41800000000E+01 0. -1.
</event>
<event>
11    1  0.7105277E-009  0.1660521E+03  0.7561462E-02  0.1081519E+00
         22   -1    0    0    0    0  0.00000000000E+00  0.00000000000E+00  0.13628180500E+03  0.13628180500E+03  0.00000000000E+00 0.  1.
         22   -1    0    0    0    0 -0.00000000000E+00 -0.00000000000E+00 -0.88637680998E+03  0.88637680998E+03  0.00000000000E+00 0. -1.
        -24    2    1    2    0    0 -0.31965167737E+02  0.16176216751E+02 -0.69617261539E+03  0.70184785609E+03  0.81551583297E+02 0.  0.
         25    2    1    2    0    0  0.12641351164E+03  0.20292816902E+02 -0.65068761489E+02  0.19045618660E+03  0.12508973160E+03 0.  0.
         24    2    1    2    0    0 -0.94448343903E+02 -0.36469033654E+02  0.11146371898E+02  0.13035457229E+03  0.81348588361E+02 0.  0.
        -11    1    5    5    0    0 -0.72257862213E+02 -0.15413115568E+02  0.43573665327E+02  0.85775445747E+02  0.00000000000E+00 0.  1.
         12    1    5    5    0    0 -0.22190481690E+02 -0.21055918086E+02 -0.32427293429E+02  0.44579126541E+02  0.00000000000E+00 0. -1.
         11    1    3    3    0    0  0.12902120324E+02  0.18142657750E+02 -0.50423011728E+03  0.50472134085E+03  0.00000000000E+00 0. -1.
        -12    1    3    3    0    0 -0.44867288061E+02 -0.19664409989E+01 -0.19194249812E+03  0.19712651524E+03  0.00000000000E+00 0.  1.
          5    1    4    4  501    0  0.51480322530E+01  0.33584667295E+02 -0.59036616151E+02  0.68243875622E+02  0.41800000000E+01 0. -1.
         -5    1    4    4    0  501  0.12126547939E+03 -0.13291850392E+02 -0.60321453374E+01  0.12221231098E+03  0.41800000000E+01 0. -1.
</event>
<event>
11    1  0.7105277E-009  0.1402619E+03  0.7561462E-02  0.1107266E+00
         22   -1    0    0    0    0  0.00000000000E+00  0.00000000000E+00  0.34989812540E+03  0.34989812540E+03  0.00000000000E+00 0. -1.
         22   -1    0    0    0    0 -0.00000000000E+00 -0.00000000000E+00 -0.19357656325E+03  0.19357656325E+03  0.00000000000E+00 0. -1.
         24    2    1    2    0    0  0.99958424611E+01 -0.63155278327E+02 -0.11567175325E+03  0.15540998513E+03  0.81754528515E+02 0.  0.
         25    2    1    2    0    0 -0.36695838241E+02  0.54992043304E+02  0.49183421698E+02  0.14978583337E+03  0.12508428174E+03 0.  0.
        -24    2    1    2    0    0  0.26699995780E+02  0.81632350227E+01  0.22280989369E+03  0.23827887014E+03  0.79705978734E+02 0.  0.
        -13    1    3    3    0    0 -0.14963346048E+02  0.72157473295E+01  0.12736286538E+01  0.16661058323E+02  0.00000000000E+00 0.  1.
         14    1    3    3    0    0  0.24959188509E+02 -0.70371025657E+02 -0.11694538190E+03  0.13874892681E+03  0.00000000000E+00 0. -1.
         13    1    5    5    0    0  0.36347911754E+02  0.21237095230E+02  0.21696490922E+03  0.22101121405E+03  0.00000000000E+00 0. -1.
        -14    1    5    5    0    0 -0.96479159745E+01 -0.13073860208E+02  0.58449844771E+01  0.17267656092E+02  0.00000000000E+00 0.  1.
          5    1    4    4  501    0 -0.44931810223E+02  0.88497517683E+02  0.56481126788E+02  0.11427278018E+03  0.41800000000E+01 0. -1.
         -5    1    4    4    0  501  0.82359719821E+01 -0.33505474379E+02 -0.72977050894E+01  0.35513053197E+02  0.41800000000E+01 0. -1.
</event>
<event>
11    1  0.7105277E-009  0.1418090E+03  0.7561462E-02  0.1105555E+00
         22   -1    0    0    0    0  0.00000000000E+00  0.00000000000E+00  0.16213278773E+03  0.16213278773E+03  0.00000000000E+00 0. -1.
         22   -1    0    0    0    0 -0.00000000000E+00 -0.00000000000E+00 -0.66288044001E+03  0.66288044001E+03  0.00000000000E+00 0.  1.
         24    2    1    2    0    0  0.62242762750E+02 -0.24750852641E+02 -0.49513504932E+03  0.50591980032E+03  0.79431486672E+02 0.  0.
         25    2    1    2    0    0 -0.78031205482E+02 -0.23412893053E+02 -0.10362516736E+03  0.18168991361E+03  0.12504405946E+03 0.  0.
        -24    2    1    2    0    0  0.15788442732E+02  0.48163745694E+02  0.98012564402E+02  0.13740351381E+03  0.81879432727E+02 0.  0.
        -13    1    3    3    0    0  0.47735308269E+02 -0.53253648757E+02 -0.36204246221E+03  0.36903841968E+03  0.00000000000E+00 0.  1.
         14    1    3    3    0    0  0.14507454482E+02  0.28502796117E+02 -0.13309258711E+03  0.13688138064E+03  0.00000000000E+00 0. -1.
         11    1    5    5    0    0  0.24901904550E+02  0.19707172238E+02  0.10239240869E+03  0.10720393111E+03  0.00000000000E+00 0. -1.
        -12    1    5    5    0    0 -0.91134618179E+01  0.28456573455E+02 -0.43798442918E+01  0.30199582698E+02  0.00000000000E+00 0.  1.
          5    1    4    4  501    0 -0.11240584758E+03 -0.21795265586E+02 -0.79710808411E+02  0.13957576276E+03  0.41800000000E+01 0. -1.
         -5    1    4    4    0  501  0.34374642098E+02 -0.16176274672E+01 -0.23914358946E+02  0.42114150849E+02  0.41800000000E+01 0. -1.
</event>
<event>
11    1  0.7105277E-009  0.1517941E+03  0.7561462E-02  0.1095060E+00
         22   -1    0    0    0    0  0.00000000000E+00  0.00000000000E+00  0.77919916385E+03  0.77919916385E+03  0.00000000000E+00 0.  1.
         22   -1    0    0    0    0 -0.00000000000E+00 -0.00000000000E+00 -0.33776816909E+04  0.33776816909E+04  0.00000000000E+00 0.  1.
        -24    2    1    2    0    0  0.18335573977E+01  0.86700023076E+02 -0.26067593795E+04  0.26094948222E+04  0.82149306194E+02 0.  0.
         25    2    1    2    0    0 -0.56959377875E+02 -0.77912007384E+02 -0.75819545177E+03  0.77448164903E+03  0.12508728943E+03 0.  0.
         24    2    1    2    0    0  0.55125820477E+02 -0.87880156920E+01  0.76647230422E+03  0.77290438352E+03  0.82372978751E+02 0.  0.
        -13    1    5    5    0    0  0.75840951194E+02 -0.13903378441E+02  0.64239247319E+03  0.64700327930E+03  0.00000000000E+00 0.  1.
         14    1    5    5    0    0 -0.20715130717E+02  0.51153627488E+01  0.12407983103E+03  0.12590110422E+03  0.00000000000E+00 0. -1.
         13    1    3    3    0    0 -0.39579352981E+02  0.32351720311E+02 -0.11044163659E+04  0.11055987827E+04  0.00000000000E+00 0. -1.
        -14    1    3    3    0    0  0.41412910379E+02  0.54348302765E+02 -0.15023430136E+04  0.15038960395E+04  0.00000000000E+00 0.  1.
          5    1    4    4  501    0 -0.33676941127E+01 -0.55758863503E+02 -0.64309868518E+03  0.64553371988E+03  0.41800000000E+01 0.  1.
         -5    1    4    4    0  501 -0.53591683762E+02 -0.22153143881E+02 -0.11509676658E+03  0.12894792914E+03  0.41800000000E+01 0.  1.
</event>
<event>
11    1  0.7105277E-009  0.1637938E+03  0.7561462E-02  0.1083562E+00
         22   -1    0    0    0    0  0.00000000000E+00  0.00000000000E+00  0.65899530325E+03  0.65899530325E+03  0.00000000000E+00 0. -1.
         22   -1    0    0    0    0 -0.00000000000E+00 -0.00000000000E+00 -0.20894790862E+04  0.20894790862E+04  0.00000000000E+00 0. -1.
         24    2    1    2    0    0 -0.29932995905E+01 -0.10530295879E+03 -0.20169663317E+04  0.20213040090E+04  0.80118916061E+02 0.  0.
         25    2    1    2    0    0 -0.68555182758E+02  0.13510114274E+03  0.85475008532E+02  0.21425265544E+03  0.12508433727E+03 0.  0.
        -24    2    1    2    0    0  0.71548482349E+02 -0.29798183951E+02  0.50100754017E+03  0.51291772503E+03  0.77903274929E+02 0.  0.
        -13    1    3    3    0    0  0.77781632111E+01 -0.38996683561E+02 -0.25718175811E+03  0.26023777177E+03  0.00000000000E+00 0.  1.
         14    1    3    3    0    0 -0.10771462802E+02 -0.66306275225E+02 -0.17597845736E+04  0.17610662373E+04  0.00000000000E+00 0. -1.
         11    1    5    5    0    0  0.63333672388E+02 -0.20869340872E+02  0.49482954866E+03  0.49930247914E+03  0.00000000000E+00 0. -1.
        -12    1    5    5    0    0  0.82148099601E+01 -0.89288430791E+01  0.61779915066E+01  0.13615245883E+02  0.00000000000E+00 0.  1.
          5    1    4    4  501    0  0.16384161997E+02  0.42153523440E+02  0.75201383139E+02  0.87852607979E+02  0.41800000000E+01 0.  1.
         -5    1    4    4    0  501 -0.84939344755E+02  0.92947619297E+02  0.10273625393E+02  0.12640004746E+03  0.41800000000E+01 0.  1.
</event>
<event>
11    1  0.7105277E-009  0.1532165E+03  0.7561462E-02  0.1093637E+00
         22   -1    0    0    0    0  0.00000000000E+00  0.00000000000E+00  0.84994728860E+03  0.84994728860E+03  0.00000000000E+00 0.  1.
         22   -1    0    0    0    0 -0.00000000000E+00 -0.00000000000E+00 -0.19436865641E+03  0.19436865641E+03  0.00000000000E+00 0.  1.
        -24    2    1    2    0    0 -0.73471028398E+02  0.77692124893E+02 -0.48988921806E+02  0.14849587469E+03  0.90647956717E+02 0.  0.
         25    2    1    2    0    0  0.59090756542E+02 -0.36580379850E+02 -0.37779626535E+02  0.14800258275E+03  0.12509045776E+03 0.  0.
         24    2    1    2    0    0  0.14380271856E+02 -0.41111745043E+02  0.74234718053E+03  0.74781748757E+03  0.79086601090E+02 0.  0.
        -13    1    5    5    0    0  0.10078213886E+02 -0.53025862609E+02  0.72083493363E+03  0.72285289931E+03  0.00000000000E+00 0.  1.
         14    1    5    5    0    0  0.43020579697E+01  0.11914117566E+02  0.21512246901E+02  0.24964588257E+02  0.00000000000E+00 0. -1.
         11    1    3    3    0    0 -0.20228199558E+02  0.76827574164E+02 -0.52345303384E+02  0.95140354191E+02  0.00000000000E+00 0. -1.
        -12    1    3    3    0    0 -0.53242828839E+02  0.86455072973E+00  0.33563815782E+01  0.53355520502E+02  0.00000000000E+00 0.  1.
          5    1    4    4  501    0 -0.34125513593E+02 -0.35969150893E+02 -0.14587484391E+02  0.51851688447E+02  0.41800000000E+01 0.  1.
         -5    1    4    4    0  501  0.93216270135E+02 -0.61122895688E+00 -0.23192142144E+02  0.96150894307E+02  0.41800000000E+01 0.  1.
</event>
<event>
11    1  0.7105277E-009  0.2404125E+03  0.7561462E-02  0.1029134E+00
         22   -1    0    0    0    0  0.00000000000E+00  0.00000000000E+00  0.13103040505E+04  0.13103040505E+04  0.00000000000E+00 0.  1.
         22   -1    0    0    0    0 -0.00000000000E+00 -0.00000000000E+00 -0.28293609127E+03  0.28293609127E+03  0.00000000000E+00 0. -1.
         24    2    1    2    0    0 -0.99966791424E+02  0.20610352052E+03 -0.69094216550E+02  0.25273875344E+03  0.81430007808E+02 0.  0.
         25    2    1    2    0    0  0.28311825416E+02 -0.18116967250E+03 -0.16071333283E+02  0.22252105203E+03  0.12503328018E+03 0.  0.
        -24    2    1    2    0    0  0.71654966007E+02 -0.24933848021E+02  0.11125335090E+04  0.11179803363E+04  0.79956817259E+02 0.  0.
        -11    1    3    3    0    0 -0.78101686161E+01  0.82364648580E+02 -0.51498471040E+02  0.97452688978E+02  0.00000000000E+00 0.  1.
         12    1    3    3    0    0 -0.92156622807E+02  0.12373887194E+03 -0.17595745511E+02  0.15528606446E+03  0.00000000000E+00 0. -1.
         13    1    5    5    0    0  0.14113456194E+02  0.16986762991E+02  0.79911165710E+02  0.82906779987E+02  0.00000000000E+00 0. -1.
        -14    1    5    5    0    0  0.57541509813E+02 -0.41920611012E+02  0.10326223433E+04  0.10350735563E+04  0.00000000000E+00 0.  1.
          5    1    4    4  501    0  0.29341165802E+02 -0.47064311021E+02  0.48337384599E+02  0.73688048776E+02  0.41800000000E+01 0.  1.
         -5    1    4    4    0  501 -0.10293403858E+01 -0.13410536148E+03 -0.64408717882E+02  0.14883300326E+03  0.41800000000E+01 0.  1.
</event>
<event>
11    1  0.7105277E-009  0.1745355E+03  0.7561462E-02  0.1074151E+00
         22   -1    0    0    0    0  0.00000000000E+00  0.00000000000E+00  0.89380253488E+03  0.89380253488E+03  0.00000000000E+00 0.  1.
         22   -1    0    0    0    0 -0.00000000000E+00 -0.00000000000E+00 -0.10183906462E+04  0.10183906462E+04  0.00000000000E+00 0.  1.
         24    2    1    2    0    0 -0.69589694932E+02 -0.40512862425E+01 -0.97822569702E+03  0.98391831928E+03  0.79439323653E+02 0.  0.
         25    2    1    2    0    0  0.16122408330E+03 -0.51863493549E+02  0.36464380389E+03  0.42106528793E+03  0.12509135056E+03 0.  0.
        -24    2    1    2    0    0 -0.91634388370E+02  0.55914779792E+02  0.48899378176E+03  0.50720957391E+03  0.81383717845E+02 0.  0.
        -13    1    3    3    0    0 -0.73051375327E+02 -0.28193739201E+02 -0.63154358525E+03  0.63637936048E+03  0.00000000000E+00 0.  1.
         14    1    3    3    0    0  0.34616803952E+01  0.24142452958E+02 -0.34668211177E+03  0.34753895881E+03  0.00000000000E+00 0. -1.
         11    1    5    5    0    0 -0.56391032629E+01 -0.15937760568E+02  0.13099595730E+03  0.13208237023E+03  0.00000000000E+00 0. -1.
        -12    1    5    5    0    0 -0.85995285107E+02  0.71852540359E+02  0.35799782446E+03  0.37512720367E+03  0.00000000000E+00 0.  1.
          5    1    4    4  501    0  0.14479851281E+03  0.11082732248E+02  0.25697290340E+03  0.29519820756E+03  0.41800000000E+01 0.  1.
         -5    1    4    4    0  501  0.16425570494E+02 -0.62946225797E+02  0.10767090050E+03  0.12586708037E+03  0.41800000000E+01 0.  1.
</event>
<event>
11    1  0.7105277E-009  0.1438305E+03  0.7561462E-02  0.1103355E+00
         22   -1    0    0    0    0  0.00000000000E+00  0.00000000000E+00  0.72034075598E+03  0.72034075598E+03  0.00000000000E+00 0.  1.
         22   -1    0    0    0    0 -0.00000000000E+00 -0.00000000000E+00 -0.12410035888E+03  0.12410035888E+03  0.00000000000E+00 0. -1.
        -24    2    1    2    0    0  0.51398824089E+01  0.71505261339E+02 -0.65669492065E+02  0.12530707448E+03  0.79056688113E+02 0.  0.
         25    2    1    2    0    0 -0.28350641565E+02 -0.63846878527E+02  0.18066736879E+03  0.23058097770E+03  0.12508679530E+03 0.  0.
         24    2    1    2    0    0  0.23210759156E+02 -0.76583828124E+01  0.48124252038E+03  0.48855306268E+03  0.80575067275E+02 0.  0.
        -11    1    5    5    0    0  0.44115024302E+02  0.95549255896E+01  0.40756318808E+03  0.41005509904E+03  0.00000000000E+00 0.  1.
         12    1    5    5    0    0 -0.20904265146E+02 -0.17213308402E+02  0.73679332296E+02  0.78497963636E+02  0.00000000000E+00 0. -1.
         13    1    3    3    0    0 -0.18404017495E+02  0.16584566187E+02 -0.60444579438E+02  0.65324596279E+02  0.00000000000E+00 0. -1.
        -14    1    3    3    0    0  0.23543899904E+02  0.54920695152E+02 -0.52249126269E+01  0.59982478197E+02  0.00000000000E+00 0.  1.
          5    1    4    4  501    0  0.20647246696E+02 -0.81294938918E+02  0.14436802113E+03  0.16701728597E+03  0.41800000000E+01 0.  1.
         -5    1    4    4    0  501 -0.48997888261E+02  0.17448060391E+02  0.36299347663E+02  0.63563691729E+02  0.41800000000E+01 0.  1.
</event>
<event>
11    1  0.7105277E-009  0.1351523E+03  0.7561462E-02  0.1113096E+00
         22   -1    0    0    0    0  0.00000000000E+00  0.00000000000E+00  0.80189206598E+03  0.80189206598E+03  0.00000000000E+00 0. -1.
         22   -1    0    0    0    0 -0.00000000000E+00 -0.00000000000E+00 -0.10116051623E+04  0.10116051623E+04  0.00000000000E+00 0. -1.
         24    2    1    2    0    0 -0.14271790851E+02 -0.45345526159E+02 -0.93083595607E+03  0.93561413641E+03  0.81598617492E+02 0.  0.
         25    2    1    2    0    0 -0.31825081494E+02  0.20090336943E+02 -0.18418390650E+02  0.13192052692E+03  0.12508929155E+03 0.  0.
        -24    2    1    2    0    0  0.46096872345E+02  0.25255189216E+02  0.73954125036E+03  0.74596256499E+03  0.82317319923E+02 0.  0.
        -13    1    3    3    0    0  0.91284940606E+01 -0.29443377392E+02 -0.10856390425E+03  0.11285549690E+03  0.00000000000E+00 0.  1.
         14    1    3    3    0    0 -0.23400284912E+02 -0.15902148767E+02 -0.82227205182E+03  0.82275863950E+03  0.00000000000E+00 0. -1.
         13    1    5    5    0    0  0.67557340096E+02  0.24361124236E+02  0.64638138114E+03  0.65035863065E+03  0.00000000000E+00 0. -1.
        -14    1    5    5    0    0 -0.21460467752E+02  0.89406498053E+00  0.93159869218E+02  0.95603934339E+02  0.00000000000E+00 0.  1.
          5    1    4    4  501    0 -0.31694665703E+02 -0.49259736442E+02 -0.21080802545E+02  0.62393478059E+02  0.41800000000E+01 0.  1.
         -5    1    4    4    0  501 -0.13041579100E+00  0.69350073385E+02  0.26624118949E+01  0.69527048865E+02  0.41800000000E+01 0.  1.
</event>
<event>
11    1  0.7105277E-009  0.1381829E+03  0.7561462E-02  0.1109605E+00
         22   -1    0    0    0    0  0.00000000000E+00  0.00000000000E+00  0.12035274373E+03  0.12035274373E+03  0.00000000000E+00 0.  1.
         22   -1    0    0    0    0 -0.00000000000E+00 -0.00000000000E+00 -0.11173201916E+04  0.11173201916E+04  0.00000000000E+00 0. -1.
        -24    2    1    2    0    0 -0.14034977221E+02 -0.42722865975E+01 -0.81451123635E+03  0.81858206160E+03  0.80204765584E+02 0.  0.
         25    2    1    2    0    0  0.46649377042E+02 -0.44119539651E+02 -0.25866246973E+03  0.29440817234E+03  0.12508877063E+03 0.  0.
         24    2    1    2    0    0 -0.32614399821E+02  0.48391826248E+02  0.76206258226E+02  0.12468270136E+03  0.79579609838E+02 0.  0.
        -11    1    5    5    0    0  0.81962048096E+01 -0.36023602355E+01  0.54324335093E+02  0.55057135376E+02  0.00000000000E+00 0.  1.
         12    1    5    5    0    0 -0.40810604631E+02  0.51994186484E+02  0.21881923134E+02  0.69625565983E+02  0.00000000000E+00 0. -1.
         11    1    3    3    0    0 -0.29309278323E+01 -0.27837308523E+02 -0.72007210346E+03  0.72061594505E+03  0.00000000000E+00 0. -1.
        -12    1    3    3    0    0 -0.11104049388E+02  0.23565021926E+02 -0.94439132893E+02  0.97966116554E+02  0.00000000000E+00 0.  1.
          5    1    4    4  501    0  0.23791129413E+02 -0.82258492583E+02 -0.11168901894E+03  0.14079910082E+03  0.41800000000E+01 0.  1.
         -5    1    4    4    0  501  0.22858247629E+02  0.38138952932E+02 -0.14697345079E+03  0.15360907152E+03  0.41800000000E+01 0.  1.
</event>
<event>
11    1  0.7105277E-009  0.2027683E+03  0.7561462E-02  0.1052583E+00
         22   -1    0    0    0    0  0.00000000000E+00  0.00000000000E+00  0.20911252147E+04  0.20911252147E+04  0.00000000000E+00 0. -1.
         22   -1    0    0    0    0 -0.00000000000E+00 -0.00000000000E+00 -0.19115684534E+04  0.19115684534E+04  0.00000000000E+00 0. -1.
        -24    2    1    2    0    0  0.80207432105E+01 -0.15493420135E+03 -0.16194849366E+04  0.16290062432E+04  0.82830801094E+02 0.  0.
         25    2    1    2    0    0  0.43470773364E+02  0.21263130915E+03 -0.23089695068E+03  0.34067907288E+03  0.12508815729E+03 0.  0.
         24    2    1    2    0    0 -0.51491516574E+02 -0.57697107802E+02  0.20299386486E+04  0.20330083520E+04  0.80571146964E+02 0.  0.
        -13    1    5    5    0    0  0.91748525365E+01  0.63138111306E+01  0.55793051980E+02  0.56893820220E+02  0.00000000000E+00 0.  1.
         14    1    5    5    0    0 -0.60666369111E+02 -0.64010918933E+02  0.19741455966E+04  0.19761145318E+04  0.00000000000E+00 0. -1.
         13    1    3    3    0    0  0.40251349840E+02 -0.62391478324E+02 -0.86568828449E+03  0.86886654535E+03  0.00000000000E+00 0. -1.
        -14    1    3    3    0    0 -0.32230606629E+02 -0.92542723026E+02 -0.75379665209E+03  0.76013969788E+03  0.00000000000E+00 0.  1.
          5    1    4    4  501    0 -0.65256196898E+01  0.17564933103E+03 -0.21226653411E+03  0.27562624169E+03  0.41800000000E+01 0. -1.
         -5    1    4    4    0  501  0.49996393053E+02  0.36981978119E+02 -0.18630416570E+02  0.65052831187E+02  0.41800000000E+01 0. -1.
</event>
<event>
11    1  0.7105277E-009  0.1689416E+03  0.7561462E-02  0.1078956E+00
         22   -1    0    0    0    0  0.00000000000E+00  0.00000000000E+00  0.18608959460E+03  0.18608959460E+03  0.00000000000E+00 0.  1.
         22   -1    0    0    0    0 -0.00000000000E+00 -0.00000000000E+00 -0.19082349856E+04  0.19082349856E+04  0.00000000000E+00 0.  1.
         24    2    1    2    0    0  0.25635973284E+02 -0.11373582542E+03 -0.16972450281E+04  0.17031126673E+04  0.79743531653E+02 0.  0.
         25    2    1    2    0    0 -0.50314903062E+02  0.72675819134E+02 -0.16491967733E+03  0.22507676723E+03  0.12509071516E+03 0.  0.
        -24    2    1    2    0    0  0.24678929778E+02  0.41060006284E+02  0.14001931441E+03  0.16613514573E+03  0.75501685747E+02 0.  0.
        -13    1    3    3    0    0 -0.51554559217E+01 -0.10997260263E+03 -0.12920478329E+04  0.12967297924E+04  0.00000000000E+00 0.  1.
         14    1    3    3    0    0  0.30791429206E+02 -0.37632227923E+01 -0.40519719525E+03  0.40638287488E+03  0.00000000000E+00 0. -1.
         13    1    5    5    0    0 -0.14076761212E+02  0.13414982451E+02  0.13159094974E+01  0.19489704415E+02  0.00000000000E+00 0. -1.
        -14    1    5    5    0    0  0.38755690990E+02  0.27645023833E+02  0.13870340491E+03  0.14664544132E+03  0.00000000000E+00 0.  1.
          5    1    4    4  501    0 -0.44013234262E+02  0.36902290357E+02 -0.14908435724E+01  0.57607628300E+02  0.41800000000E+01 0. -1.
         -5    1    4    4    0  501 -0.63016688007E+01  0.35773528776E+02 -0.16342883376E+03  0.16746913893E+03  0.41800000000E+01 0. -1.
</event>
<event>
11    1  0.7105277E-009  0.1873452E+03  0.7561462E-02  0.1063852E+00
         22   -1    0    0    0    0  0.00000000000E+00  0.00000000000E+00  0.85551735016E+03  0.85551735016E+03  0.00000000000E+00 0.  1.
         22   -1    0    0    0    0 -0.00000000000E+00 -0.00000000000E+00 -0.38356295215E+03  0.38356295215E+03  0.00000000000E+00 0.  1.
        -24    2    1    2    0    0 -0.14089821918E+03 -0.37798614402E+02 -0.32373061517E+03  0.36396891204E+03  0.79942568856E+02 0.  0.
         25    2    1    2    0    0  0.33535526611E+02  0.10851153287E+03  0.20984957637E+03  0.26941342240E+03  0.12508942065E+03 0.  0.
         24    2    1    2    0    0  0.10736269257E+03 -0.70712918470E+02  0.58583543682E+03  0.60569796787E+03  0.84497364729E+02 0.  0.
        -11    1    5    5    0    0  0.83411902792E+02 -0.26477992467E+02  0.48697161604E+03  0.49477265935E+03  0.00000000000E+00 0.  1.
         12    1    5    5    0    0  0.23950789773E+02 -0.44234926004E+02  0.98863820779E+02  0.11092530851E+03  0.00000000000E+00 0. -1.
         11    1    3    3    0    0 -0.94438078086E+01 -0.14139789985E+02 -0.40094703535E+01  0.17469831689E+02  0.00000000000E+00 0. -1.
        -12    1    3    3    0    0 -0.13145441137E+03 -0.23658824417E+02 -0.31972114482E+03  0.34649908035E+03  0.00000000000E+00 0.  1.
          5    1    4    4  501    0  0.24265138288E+02  0.12259720993E+03  0.10543402863E+03  0.16356246395E+03  0.41800000000E+01 0. -1.
         -5    1    4    4    0  501  0.92703883227E+01 -0.14085677056E+02  0.10441554773E+03  0.10585095846E+03  0.41800000000E+01 0. -1.
</event>
<event>
11    1  0.7105277E-009  0.1713576E+03  0.7561462E-02  0.1076856E+00
         22   -1    0    0    0    0  0.00000000000E+00  0.00000000000E+00  0.72646935454E+03  0.72646935454E+03  0.00000000000E+00 0. -1.
         22   -1    0    0    0    0 -0.00000000000E+00 -0.00000000000E+00 -0.37354037102E+04  0.37354037102E+04  0.00000000000E+00 0. -1.
        -24    2    1    2    0    0 -0.93727763534E+02 -0.10892517380E+01 -0.35085573716E+04  0.35107143595E+04  0.79714518682E+02 0.  0.
         25    2    1    2    0    0 -0.88122130056E+01  0.62979730451E+02 -0.19566055261E+03  0.24077800539E+03  0.12508754729E+03 0.  0.
         24    2    1    2    0    0  0.10253997654E+03 -0.61890478713E+02  0.69528356858E+03  0.71038069977E+03  0.82925386480E+02 0.  0.
        -11    1    5    5    0    0  0.13433131307E+01 -0.14525034620E+02  0.14782674605E+02  0.20767970275E+02  0.00000000000E+00 0.  1.
         12    1    5    5    0    0  0.10119666341E+03 -0.47365444094E+02  0.68050089397E+03  0.68961272949E+03  0.00000000000E+00 0. -1.
         13    1    3    3    0    0 -0.80810518419E+02 -0.33979250755E+02 -0.24559826775E+04  0.24575467119E+04  0.00000000000E+00 0. -1.
        -14    1    3    3    0    0 -0.12917245115E+02  0.32889999017E+02 -0.10525746941E+04  0.10531676476E+04  0.00000000000E+00 0.  1.
          5    1    4    4  501    0 -0.31779041415E+02  0.73695032524E+02 -0.19924652334E+03  0.21484300025E+03  0.41800000000E+01 0. -1.
         -5    1    4    4    0  501  0.22966828409E+02 -0.10715302073E+02  0.35859707340E+01  0.25935005144E+02  0.41800000000E+01 0. -1.
</event>
<event>
11    1  0.7105277E-009  0.1504882E+03  0.7561462E-02  0.1096381E+00
         22   -1    0    0    0    0  0.00000000000E+00  0.00000000000E+00  0.76083416887E+03  0.76083416887E+03  0.00000000000E+00 0. -1.
         22   -1    0    0    0    0 -0.00000000000E+00 -0.00000000000E+00 -0.11603604165E+04  0.11603604165E+04  0.00000000000E+00 0.  1.
        -24    2    1    2    0    0  0.55994857421E+02  0.58365444207E+02 -0.10268021399E+04  0.10331690999E+04  0.81079007406E+02 0.  0.
         25    2    1    2    0    0 -0.96372641320E+02 -0.11450823121E+03 -0.51019661186E+02  0.20161960686E+03  0.12509052336E+03 0.  0.
         24    2    1    2    0    0  0.40377783899E+02  0.56142787001E+02  0.67829555343E+03  0.68640587858E+03  0.79283001839E+02 0.  0.
        -11    1    5    5    0    0 -0.19485331603E+02  0.33970999526E+02  0.19331428965E+03  0.19724127747E+03  0.00000000000E+00 0.  1.
         12    1    5    5    0    0  0.59863115502E+02  0.22171787474E+02  0.48498126379E+03  0.48916460111E+03  0.00000000000E+00 0. -1.
         13    1    3    3    0    0  0.38793583909E+01 -0.50009192627E+01 -0.49669133120E+01  0.80454237207E+01  0.00000000000E+00 0. -1.
        -14    1    3    3    0    0  0.52115499030E+02  0.63366363469E+02 -0.10218352266E+04  0.10251236762E+04  0.00000000000E+00 0.  1.
          5    1    4    4  501    0  0.25864214897E+02 -0.30256615770E+02 -0.33267164449E+02  0.52044183542E+02  0.41800000000E+01 0.  1.
         -5    1    4    4    0  501 -0.12223685622E+03 -0.84251615437E+02 -0.17752496737E+02  0.14957542332E+03  0.41800000000E+01 0.  1.
</event>
<event>
11    1  0.7105277E-009  0.1305625E+03  0.7561462E-02  0.1118580E+00
         22   -1    0    0    0    0  0.00000000000E+00  0.00000000000E+00  0.81244124878E+03  0.81244124878E+03  0.00000000000E+00 0. -1.
         22   -1    0    0    0    0 -0.00000000000E+00 -0.00000000000E+00 -0.86107297303E+02  0.86107297303E+02  0.00000000000E+00 0.  1.
         24    2    1    2    0    0  0.22117057195E+00  0.38465557061E+02 -0.40427478878E+02  0.10076520232E+03  0.83902306009E+02 0.  0.
         25    2    1    2    0    0 -0.31603012926E+02 -0.19160930548E+02  0.48079045465E+03  0.49816976905E+03  0.12509103017E+03 0.  0.
        -24    2    1    2    0    0  0.31381842354E+02 -0.19304626513E+02  0.28597097570E+03  0.29961357471E+03  0.81433448726E+02 0.  0.
        -13    1    3    3    0    0  0.31896875300E+02  0.24327314600E+01 -0.41961448392E+02  0.52764495520E+02  0.00000000000E+00 0.  1.
         14    1    3    3    0    0 -0.31675704728E+02  0.36032825601E+02  0.15339695143E+01  0.48000706800E+02  0.00000000000E+00 0. -1.
         13    1    5    5    0    0  0.55330050496E+01  0.30024248709E+02  0.14204010992E+03  0.14528407511E+03  0.00000000000E+00 0. -1.
        -14    1    5    5    0    0  0.25848837304E+02 -0.49328875222E+02  0.14393086578E+03  0.15432949959E+03  0.00000000000E+00 0.  1.
          5    1    4    4  501    0  0.22019033633E+02 -0.47190428865E+02  0.35149377834E+03  0.35535492543E+03  0.41800000000E+01 0. -1.
         -5    1    4    4    0  501 -0.53622046558E+02  0.28029498318E+02  0.12929667631E+03  0.14281484362E+03  0.41800000000E+01 0. -1.
</event>
<event>
11    1  0.7105277E-009  0.1565207E+03  0.7561462E-02  0.1090396E+00
         22   -1    0    0    0    0  0.00000000000E+00  0.00000000000E+00  0.98836718069E+03  0.98836718069E+03  0.00000000000E+00 0.  1.
         22   -1    0    0    0    0 -0.00000000000E+00 -0.00000000000E+00 -0.13116755099E+03  0.13116755099E+03  0.00000000000E+00 0. -1.
        -24    2    1    2    0    0 -0.72912984862E+00  0.83607096596E+02 -0.37671881421E+01  0.11571778461E+03  0.79910798630E+02 0.  0.
         25    2    1    2    0    0 -0.44360577735E+02 -0.11125293820E+03  0.40615118573E+02  0.17786991050E+03  0.12507213954E+03 0.  0.
         24    2    1    2    0    0  0.45089707583E+02  0.27645841607E+02  0.82035169928E+03  0.82594703657E+03  0.80088840822E+02 0.  0.
        -13    1    5    5    0    0  0.40591593449E+02  0.21627965962E+02  0.81593807117E+03  0.81723337080E+03  0.00000000000E+00 0.  1.
         14    1    5    5    0    0  0.44981141342E+01  0.60178756453E+01  0.44136281096E+01  0.87136657691E+01  0.00000000000E+00 0. -1.
         13    1    3    3    0    0  0.17673902944E+02  0.76884770640E+02 -0.28752905886E+02  0.83966448052E+02  0.00000000000E+00 0. -1.
        -14    1    3    3    0    0 -0.18403032793E+02  0.67223259559E+01  0.24985717744E+02  0.31751336561E+02  0.00000000000E+00 0.  1.
          5    1    4    4  501    0 -0.23112028622E+02  0.18135177953E+02  0.35928883654E+02  0.46598365069E+02  0.41800000000E+01 0. -1.
         -5    1    4    4    0  501 -0.21248549112E+02 -0.12938811616E+03  0.46862349193E+01  0.13127154543E+03  0.41800000000E+01 0. -1.
</event>
<event>
11    1  0.7105277E-009  0.1800709E+03  0.7561462E-02  0.1069586E+00
         22   -1    0    0    0    0  0.00000000000E+00  0.00000000000E+00  0.98876815667E+03  0.98876815667E+03  0.00000000000E+00 0. -1.
         22   -1    0    0    0    0 -0.00000000000E+00 -0.00000000000E+00 -0.65699465288E+03  0.65699465288E+03  0.00000000000E+00 0. -1.
         24    2    1    2    0    0 -0.97530235275E+02  0.85004514631E+02 -0.62701287956E+03  0.64506182560E+03  0.78877711687E+02 0.  0.
         25    2    1    2    0    0  0.11321228267E+03 -0.80345939676E+02  0.48096527004E+03  0.51599156013E+03  0.12508880113E+03 0.  0.
        -24    2    1    2    0    0 -0.15682047400E+02 -0.46585749553E+01  0.47782111331E+03  0.48470942382E+03  0.79765783928E+02 0.  0.
        -13    1    3    3    0    0 -0.47245452605E+02  0.37808040273E+02 -0.13127545497E+03  0.14455042642E+03  0.00000000000E+00 0.  1.
         14    1    3    3    0    0 -0.50284782671E+02  0.47196474358E+02 -0.49573742459E+03  0.50051139917E+03  0.00000000000E+00 0. -1.
         11    1    5    5    0    0 -0.11987052403E+02 -0.35782830018E+01  0.48008198679E+03  0.48024494539E+03  0.00000000000E+00 0. -1.
        -12    1    5    5    0    0 -0.36949949971E+01 -0.10802919535E+01 -0.22608734818E+01  0.44644784280E+01  0.00000000000E+00 0.  1.
          5    1    4    4  501    0  0.46908471993E+02  0.10601074835E+02  0.29234748845E+03  0.29630611525E+03  0.41800000000E+01 0.  1.
         -5    1    4    4    0  501  0.66303810682E+02 -0.90947014510E+02  0.18861778160E+03  0.21968544489E+03  0.41800000000E+01 0.  1.
</event>
<event>
11    1  0.7105277E-009  0.1302350E+03  0.7561462E-02  0.1118981E+00
         22   -1    0    0    0    0  0.00000000000E+00  0.00000000000E+00  0.58857740870E+03  0.58857740870E+03  0.00000000000E+00 0.  1.
         22   -1    0    0    0    0 -0.00000000000E+00 -0.00000000000E+00 -0.14746672877E+04  0.14746672877E+04  0.00000000000E+00 0. -1.
         24    2    1    2    0    0 -0.17456437131E+02 -0.31747463483E+02 -0.14504954568E+04  0.14531731184E+04  0.80389135792E+02 0.  0.
         25    2    1    2    0    0  0.31372797068E+02  0.28760613458E+02  0.22402514239E+03  0.26008763294E+03  0.12508751778E+03 0.  0.
        -24    2    1    2    0    0 -0.13916359937E+02  0.29868500243E+01  0.34038043538E+03  0.34998394511E+03  0.80170659863E+02 0.  0.
        -11    1    3    3    0    0  0.15363687985E+01  0.26018863214E+02 -0.32929906095E+03  0.33032894698E+03  0.00000000000E+00 0.  1.
         12    1    3    3    0    0 -0.18992805930E+02 -0.57766326696E+02 -0.11211963958E+04  0.11228441714E+04  0.00000000000E+00 0. -1.
         11    1    5    5    0    0  0.12478412233E+02 -0.88679398292E+01  0.98812957991E+01  0.18220623901E+02  0.00000000000E+00 0. -1.
        -12    1    5    5    0    0 -0.26394772170E+02  0.11854789853E+02  0.33049913958E+03  0.33176332121E+03  0.00000000000E+00 0.  1.
          5    1    4    4  501    0  0.46210181847E+02 -0.19507720933E+02  0.27952991821E+02  0.57574076059E+02  0.41800000000E+01 0. -1.
         -5    1    4    4    0  501 -0.14837384778E+02  0.48268334391E+02  0.19607215057E+03  0.20251355689E+03  0.41800000000E+01 0. -1.
</event>
<event>
11    1  0.7105277E-009  0.3375414E+03  0.7561462E-02  0.9854462E-01
         22   -1    0    0    0    0  0.00000000000E+00  0.00000000000E+00  0.18624931467E+04  0.18624931467E+04  0.00000000000E+00 0.  1.
         22   -1    0    0    0    0 -0.00000000000E+00 -0.00000000000E+00 -0.65954058712E+03  0.65954058712E+03  0.00000000000E+00 0. -1.
         24    2    1    2    0    0 -0.64791029424E+01  0.30094794633E+02 -0.56299169840E+03  0.56968093211E+03  0.81418895208E+02 0.  0.
         25    2    1    2    0    0  0.64082886780E+02  0.28356976119E+03  0.25627770799E+03  0.40723626183E+03  0.12507870922E+03 0.  0.
        -24    2    1    2    0    0 -0.57603783838E+02 -0.31366455582E+03  0.15096665500E+04  0.15451165399E+04  0.81168837463E+02 0.  0.
        -13    1    3    3    0    0  0.13326343975E+02 -0.24494281130E+02 -0.14297478042E+03  0.14566862768E+03  0.00000000000E+00 0.  1.
         14    1    3    3    0    0 -0.19805446917E+02  0.54589075762E+02 -0.42001691798E+03  0.42401230443E+03  0.00000000000E+00 0. -1.
         13    1    5    5    0    0 -0.60827718645E+02 -0.12481076320E+03  0.70967392369E+03  0.72312849199E+03  0.00000000000E+00 0. -1.
        -14    1    5    5    0    0  0.32239348068E+01 -0.18885379262E+03  0.79999262632E+03  0.82198804791E+03  0.00000000000E+00 0.  1.
          5    1    4    4  501    0  0.75671406526E+02  0.93169099014E+02  0.13714564232E+03  0.18229932085E+03  0.41800000000E+01 0. -1.
         -5    1    4    4    0  501 -0.11588519745E+02  0.19040066217E+03  0.11913206568E+03  0.22493694098E+03  0.41800000000E+01 0. -1.
</event>
<event>
11    1  0.7105277E-009  0.5216345E+03  0.7561462E-02  0.9346436E-01
         22   -1    0    0    0    0  0.00000000000E+00  0.00000000000E+00  0.23681203526E+04  0.23681203526E+04  0.00000000000E+00 0.  1.
         22   -1    0    0    0    0 -0.00000000000E+00 -0.00000000000E+00 -0.26607694854E+03  0.26607694854E+03  0.00000000000E+00 0. -1.
         24    2    1    2    0    0 -0.56594420612E+02 -0.21471357345E+03  0.62572611977E+02  0.24457638273E+03  0.81224553857E+02 0.  0.
         25    2    1    2    0    0 -0.36108600841E+03  0.47000108204E+03  0.54414252180E+03  0.81426195951E+03  0.12508929647E+03 0.  0.
        -24    2    1    2    0    0  0.41768042902E+03 -0.25528750859E+03  0.14953282703E+04  0.15753589589E+04  0.78234011870E+02 0.  0.
        -11    1    3    3    0    0 -0.50832952796E+02 -0.79204461144E+02  0.54386863862E+02  0.10869805295E+03  0.00000000000E+00 0.  1.
         12    1    3    3    0    0 -0.57614678165E+01 -0.13550911231E+03  0.81857481150E+01  0.13587832978E+03  0.00000000000E+00 0. -1.
         11    1    5    5    0    0  0.85204748657E+02 -0.64799133916E+02  0.23859199947E+03  0.26150510351E+03  0.00000000000E+00 0. -1.
        -12    1    5    5    0    0  0.33247568036E+03 -0.19048837467E+03  0.12567362708E+04  0.13138538554E+04  0.00000000000E+00 0.  1.
          5    1    4    4  501    0 -0.10362364847E+03  0.23163420171E+03  0.20467336588E+03  0.32603822326E+03  0.41800000000E+01 0.  1.
         -5    1    4    4    0  501 -0.25746235993E+03  0.23836688033E+03  0.33946915591E+03  0.48822373625E+03  0.41800000000E+01 0.  1.
</event>
<event>
11    1  0.7105277E-009  0.1405981E+03  0.7561462E-02  0.1106892E+00
         22   -1    0    0    0    0  0.00000000000E+00  0.00000000000E+00  0.25403769649E+03  0.25403769649E+03  0.00000000000E+00 0.  1.
         22   -1    0    0    0    0 -0.00000000000E+00 -0.00000000000E+00 -0.22581546909E+04  0.22581546909E+04  0.00000000000E+00 0.  1.
        -24    2    1    2    0    0 -0.21747571165E+02 -0.64578995226E+02 -0.17813879288E+04  0.17847707530E+04  0.86141071844E+02 0.  0.
         25    2    1    2    0    0 -0.28221798627E+01  0.45023658691E+02 -0.45848741970E+03  0.47738171789E+03  0.12508995166E+03 0.  0.
         24    2    1    2    0    0  0.24569751028E+02  0.19555336535E+02  0.23575835415E+03  0.25003991650E+03  0.77148392319E+02 0.  0.
        -11    1    5    5    0    0  0.40738726478E+02  0.16976109835E+02  0.22742511514E+03  0.23166789838E+03  0.00000000000E+00 0.  1.
         12    1    5    5    0    0 -0.16168975450E+02  0.25792266999E+01  0.83332390071E+01  0.18372018120E+02  0.00000000000E+00 0. -1.
         11    1    3    3    0    0  0.13058039333E+02 -0.61978859176E+02 -0.14823946756E+04  0.14837472377E+04  0.00000000000E+00 0. -1.
        -12    1    3    3    0    0 -0.34805610498E+02 -0.26001360501E+01 -0.29899325328E+03  0.30102351525E+03  0.00000000000E+00 0.  1.
          5    1    4    4  501    0  0.27276448781E+02  0.59780099933E+02 -0.42408887038E+03  0.42916955552E+03  0.41800000000E+01 0. -1.
         -5    1    4    4    0  501 -0.30098628644E+02 -0.14756441243E+02 -0.34398549322E+02  0.48212162364E+02  0.41800000000E+01 0. -1.
</event>
<event>
11    1  0.7105277E-009  0.1363306E+03  0.7561462E-02  0.1111726E+00
         22   -1    0    0    0    0  0.00000000000E+00  0.00000000000E+00  0.29242879432E+03  0.29242879432E+03  0.00000000000E+00 0.  1.
         22   -1    0    0    0    0 -0.00000000000E+00 -0.00000000000E+00 -0.15096830225E+04  0.15096830225E+04  0.00000000000E+00 0. -1.
         24    2    1    2    0    0  0.54439584967E+02  0.54269602549E+01 -0.14513114352E+04  0.14544963527E+04  0.79130510806E+02 0.  0.
         25    2    1    2    0    0 -0.24994385308E+02 -0.20504498582E+02  0.38824290794E+02  0.13490664964E+03  0.12508926734E+03 0.  0.
        -24    2    1    2    0    0 -0.29445199658E+02  0.15077538327E+02  0.19523291623E+03  0.21270881448E+03  0.77683950940E+02 0.  0.
        -11    1    3    3    0    0  0.18623739851E+02  0.91397251671E+01 -0.77962598165E+02  0.80675553762E+02  0.00000000000E+00 0.  1.
         12    1    3    3    0    0  0.35815845116E+02 -0.37127649122E+01 -0.13733488371E+04  0.13738207989E+04  0.00000000000E+00 0. -1.
         13    1    5    5    0    0 -0.97619298960E+00 -0.39343936566E+00 -0.74137998390E+01  0.74881356385E+01  0.00000000000E+00 0. -1.
        -14    1    5    5    0    0 -0.28469006669E+02  0.15470977693E+02  0.20264671607E+03  0.20522067884E+03  0.00000000000E+00 0.  1.
          5    1    4    4  501    0  0.49724097501E+02  0.49471510404E+01  0.14241356681E+02  0.52127236795E+02  0.41800000000E+01 0.  1.
         -5    1    4    4    0  501 -0.74718482810E+02 -0.25451649623E+02  0.24582934112E+02  0.82779412848E+02  0.41800000000E+01 0.  1.
</event>
<event>
11    1  0.7105277E-009  0.1279869E+03  0.7561462E-02  0.1121767E+00
         22   -1    0    0    0    0  0.00000000000E+00  0.00000000000E+00  0.17770728534E+03  0.17770728534E+03  0.00000000000E+00 0. -1.
         22   -1    0    0    0    0 -0.00000000000E+00 -0.00000000000E+00 -0.62726298773E+03  0.62726298773E+03  0.00000000000E+00 0.  1.
        -24    2    1    2    0    0  0.42855535074E+02  0.42722081253E+00 -0.51260190667E+03  0.51965064281E+03  0.73751586096E+02 0.  0.
         25    2    1    2    0    0 -0.33023675739E+02 -0.27099807970E+02 -0.51986927612E+02  0.14203767867E+03  0.12508836384E+03 0.  0.
         24    2    1    2    0    0 -0.98318593350E+01  0.26672587157E+02  0.11503313189E+03  0.14328195158E+03  0.80554353404E+02 0.  0.
        -11    1    5    5    0    0 -0.17180499879E+02  0.25200094493E+02  0.26117637696E+01  0.30611038018E+02  0.00000000000E+00 0.  1.
         12    1    5    5    0    0  0.73486405440E+01  0.14724926641E+01  0.11242136812E+03  0.11267091356E+03  0.00000000000E+00 0. -1.
         11    1    3    3    0    0  0.47008034364E+02 -0.28800438102E+02 -0.30213009331E+03  0.30711856638E+03  0.00000000000E+00 0. -1.
        -12    1    3    3    0    0 -0.41524992906E+01  0.29227658914E+02 -0.21047181336E+03  0.21253207644E+03  0.00000000000E+00 0.  1.
          5    1    4    4  501    0 -0.41593758128E+02 -0.72314628789E+02 -0.20153978039E+02  0.85924975897E+02  0.41800000000E+01 0. -1.
         -5    1    4    4    0  501  0.85700823889E+01  0.45214820820E+02 -0.31832949573E+02  0.56112702772E+02  0.41800000000E+01 0. -1.
</event>
<event>
11    1  0.7105277E-009  0.3156215E+03  0.7561462E-02  0.9937883E-01
         22   -1    0    0    0    0  0.00000000000E+00  0.00000000000E+00  0.47309871871E+03  0.47309871871E+03  0.00000000000E+00 0.  1.
         22   -1    0    0    0    0 -0.00000000000E+00 -0.00000000000E+00 -0.16270899627E+04  0.16270899627E+04  0.00000000000E+00 0.  1.
         24    2    1    2    0    0  0.45599412374E+01 -0.59149309411E+02 -0.14116669370E+04  0.14151608205E+04  0.79731881671E+02 0.  0.
         25    2    1    2    0    0  0.23383825575E+03 -0.12996167183E+03  0.27952317132E+02  0.29664736438E+03  0.12509180932E+03 0.  0.
        -24    2    1    2    0    0 -0.23839819699E+03  0.18911098124E+03  0.22972337594E+03  0.38838049649E+03  0.73958887539E+02 0.  0.
        -11    1    3    3    0    0 -0.18907383451E+02 -0.70510925599E+02 -0.98918554792E+03  0.99187566155E+03  0.00000000000E+00 0.  1.
         12    1    3    3    0    0  0.23467324688E+02  0.11361616188E+02 -0.42248138912E+03  0.42328515897E+03  0.00000000000E+00 0. -1.
         13    1    5    5    0    0 -0.87034064841E+01  0.35507901280E+02  0.32233740902E+02  0.48739864487E+02  0.00000000000E+00 0. -1.
        -14    1    5    5    0    0 -0.22969479051E+03  0.15360307996E+03  0.19748963504E+03  0.33964063200E+03  0.00000000000E+00 0.  1.
          5    1    4    4  501    0  0.78626828380E+02 -0.25409606591E+02  0.65751586907E+02  0.10568145452E+03  0.41800000000E+01 0.  1.
         -5    1    4    4    0  501  0.15521142737E+03 -0.10455206524E+03 -0.37799269774E+02  0.19096590986E+03  0.41800000000E+01 0.  1.
</event>
<event>
11    1  0.7105277E-009  0.1586731E+03  0.7561462E-02  0.1088332E+00
         22   -1    0    0    0    0  0.00000000000E+00  0.00000000000E+00  0.35158304305E+03  0.35158304305E+03  0.00000000000E+00 0.  1.
         22   -1    0    0    0    0 -0.00000000000E+00 -0.00000000000E+00 -0.41729464547E+03  0.41729464547E+03  0.00000000000E+00 0. -1.
        -24    2    1    2    0    0 -0.89927750525E+02  0.36801152711E+02 -0.35218592385E+03  0.37419562221E+03  0.80908056239E+02 0.  0.
         25    2    1    2    0    0  0.89214607845E+02 -0.68994874737E+02  0.24881788196E+03  0.30046265257E+03  0.12509167923E+03 0.  0.
         24    2    1    2    0    0  0.71314267974E+00  0.32193722026E+02  0.37656439466E+02  0.94219413743E+02  0.80139541941E+02 0.  0.
        -13    1    5    5    0    0  0.14299259936E+02  0.55857358693E+02  0.33310449162E+02  0.66589033468E+02  0.00000000000E+00 0.  1.
         14    1    5    5    0    0 -0.13586117256E+02 -0.23663636667E+02  0.43459903039E+01  0.27630380275E+02  0.00000000000E+00 0. -1.
         11    1    3    3    0    0 -0.78245666524E+02 -0.92779459659E+01 -0.21199938392E+03  0.22616852875E+03  0.00000000000E+00 0. -1.
        -12    1    3    3    0    0 -0.11682084001E+02  0.46079098677E+02 -0.14018653993E+03  0.14802709346E+03  0.00000000000E+00 0.  1.
          5    1    4    4  501    0  0.86197009123E+02 -0.83883877508E+02  0.25620289999E+03  0.28306152626E+03  0.41800000000E+01 0. -1.
         -5    1    4    4    0  501  0.30175987228E+01  0.14889002771E+02 -0.73850180261E+01  0.17401126308E+02  0.41800000000E+01 0. -1.
</event>
<event>
11    1  0.7105277E-009  0.1614552E+03  0.7561462E-02  0.1085717E+00
         22   -1    0    0    0    0  0.00000000000E+00  0.00000000000E+00  0.13899413110E+03  0.13899413110E+03  0.00000000000E+00 0. -1.
         22   -1    0    0    0    0 -0.00000000000E+00 -0.00000000000E+00 -0.84172285086E+03  0.84172285086E+03  0.00000000000E+00 0.  1.
         24    2    1    2    0    0  0.55920990510E+01  0.10114363105E+03 -0.67305618520E+03  0.68546669312E+03  0.81232095034E+02 0.  0.
         25    2    1    2    0    0 -0.64889326100E+02 -0.10468474333E+03 -0.65210966898E+02  0.18727280473E+03  0.12509641506E+03 0.  0.
        -24    2    1    2    0    0  0.59297227049E+02  0.35411122831E+01  0.35538432337E+02  0.10797748412E+03  0.82870117002E+02 0.  0.
        -11    1    3    3    0    0 -0.40003912438E+01  0.86427798893E+02 -0.65340652838E+03  0.65910989894E+03  0.00000000000E+00 0.  1.
         12    1    3    3    0    0  0.95924902948E+01  0.14715832155E+02 -0.19649656815E+02  0.26356794172E+02  0.00000000000E+00 0. -1.
         11    1    5    5    0    0  0.51230232650E+02  0.12215663739E+02  0.60581680441E+02  0.80273901008E+02  0.00000000000E+00 0. -1.
        -12    1    5    5    0    0  0.80669943990E+01 -0.86745514560E+01 -0.25043248104E+02  0.27703583111E+02  0.00000000000E+00 0.  1.
          5    1    4    4  501    0 -0.30952082780E+02 -0.12384711138E+03 -0.73280656689E+02  0.14725374519E+03  0.41800000000E+01 0. -1.
         -5    1    4    4    0  501 -0.33937243320E+02  0.19162368053E+02  0.80696897913E+01  0.40019059546E+02  0.41800000000E+01 0. -1.
</event>
<event>
11    1  0.1416211E-008  0.1978683E+03  0.7561462E-02  0.1056041E+00
         22   -1    0    0    0    0  0.00000000000E+00  0.00000000000E+00  0.18728704350E+03  0.18728704350E+03  0.00000000000E+00 0.  1.
         22   -1    0    0    0    0 -0.00000000000E+00 -0.00000000000E+00 -0.29526352199E+04  0.29526352199E+04  0.00000000000E+00 0. -1.
         24    2    1    2    0    0  0.38898446764E+02 -0.64750519534E+02 -0.15694313262E+04  0.15732890711E+04  0.80113012371E+02 0.  0.
         25    2    1    2    0    0  0.27573727975E+02  0.20147953831E+03 -0.13281528995E+04  0.13494413862E+04  0.12509043025E+03 0.  0.
        -24    2    1    2    0    0 -0.66472174739E+02 -0.13672901877E+03  0.13223604922E+03  0.21719180606E+03  0.81071162050E+02 0.  0.
        -11    1    3    3    0    0  0.32062982711E+02 -0.12947944305E+02 -0.20794093723E+03  0.21079638872E+03  0.00000000000E+00 0.  1.
         12    1    3    3    0    0  0.68354640526E+01 -0.51802575229E+02 -0.13614903889E+04  0.13624926824E+04  0.00000000000E+00 0. -1.
         11    1    5    5    0    0 -0.36906610617E+02 -0.75377362328E+02  0.20594843638E+02  0.86417545922E+02  0.00000000000E+00 0. -1.
        -12    1    5    5    0    0 -0.29565564121E+02 -0.61351656444E+02  0.11164120558E+03  0.13077426013E+03  0.00000000000E+00 0.  1.
          5    1    4    4  501    0 -0.47520370953E+02  0.50030765729E+02 -0.42731430399E+03  0.43286978408E+03  0.41800000000E+01 0. -1.
         -5    1    4    4    0  501  0.75094098928E+02  0.15144877258E+03 -0.90083859546E+03  0.91657160216E+03  0.41800000000E+01 0. -1.
</event>
<event>
11    1  0.7105277E-009  0.1329877E+03  0.7561462E-02  0.1115652E+00
         22   -1    0    0    0    0  0.00000000000E+00  0.00000000000E+00  0.53342365976E+02  0.53342365976E+02  0.00000000000E+00 0. -1.
         22   -1    0    0    0    0 -0.00000000000E+00 -0.00000000000E+00 -0.35913644549E+04  0.35913644549E+04  0.00000000000E+00 0. -1.
        -24    2    1    2    0    0  0.16408365187E+01  0.44517829382E+02 -0.31209588629E+04  0.31223052317E+04  0.80132428730E+02 0.  0.
         25    2    1    2    0    0 -0.68142063448E+01 -0.54698020694E+02 -0.41469669299E+03  0.43664523271E+03  0.12508958868E+03 0.  0.
         24    2    1    2    0    0  0.51733698261E+01  0.10180191312E+02 -0.23665330391E+01  0.85756356532E+02  0.84959709019E+02 0.  0.
        -11    1    5    5    0    0  0.87936129512E+01 -0.34874979423E+02 -0.14776012530E+02  0.38883445896E+02  0.00000000000E+00 0.  1.
         12    1    5    5    0    0 -0.36202431250E+01  0.45055170735E+02  0.12409479491E+02  0.46872910636E+02  0.00000000000E+00 0. -1.
         11    1    3    3    0    0 -0.15459019787E+02  0.63879589872E+02 -0.23125975883E+04  0.23135313244E+04  0.00000000000E+00 0. -1.
        -12    1    3    3    0    0  0.17099856306E+02 -0.19361760489E+02 -0.80836127460E+03  0.80877390730E+03  0.00000000000E+00 0.  1.
          5    1    4    4  501    0 -0.21018502153E+02 -0.18409277928E+02 -0.38844856812E+03  0.38947457096E+03  0.41800000000E+01 0.  1.
         -5    1    4    4    0  501  0.14204295808E+02 -0.36288742766E+02 -0.26248124866E+02  0.47170661750E+02  0.41800000000E+01 0.  1.
</event>
<event>
11    1  0.7105277E-009  0.2020024E+03  0.7561462E-02  0.1053117E+00
         22   -1    0    0    0    0  0.00000000000E+00  0.00000000000E+00  0.16177244347E+03  0.16177244347E+03  0.00000000000E+00 0. -1.
         22   -1    0    0    0    0 -0.00000000000E+00 -0.00000000000E+00 -0.73054384356E+03  0.73054384356E+03  0.00000000000E+00 0. -1.
         24    2    1    2    0    0 -0.14586172840E+03 -0.58980136490E+02 -0.56825176017E+03  0.59394594398E+03  0.71466223683E+02 0.  0.
         25    2    1    2    0    0  0.15147073977E+03  0.78060079786E+02  0.11673578105E+02  0.21170388829E+03  0.12508198443E+03 0.  0.
        -24    2    1    2    0    0 -0.56090113769E+01 -0.19079943296E+02 -0.12193218027E+02  0.86666454758E+02  0.83467925395E+02 0.  0.
        -13    1    3    3    0    0 -0.69616094570E+02 -0.59862145256E+02 -0.24021319460E+03  0.25716192549E+03  0.00000000000E+00 0.  1.
         14    1    3    3    0    0 -0.76245633825E+02  0.88200876585E+00 -0.32803856556E+03  0.33678401850E+03  0.00000000000E+00 0. -1.
         13    1    5    5    0    0  0.96613239259E+01 -0.48389174733E+02  0.46689139738E+01  0.49564626187E+02  0.00000000000E+00 0. -1.
        -14    1    5    5    0    0 -0.15270335303E+02  0.29309231438E+02 -0.16862132000E+02  0.37101828571E+02  0.00000000000E+00 0.  1.
          5    1    4    4  501    0  0.54311016333E+02  0.22066394159E+02 -0.55568562543E+02  0.80882320623E+02  0.41800000000E+01 0.  1.
         -5    1    4    4    0  501  0.97159723439E+02  0.55993685627E+02  0.67242140648E+02  0.13082156767E+03  0.41800000000E+01 0.  1.
</event>
<event>
11    1  0.7105277E-009  0.1922100E+03  0.7561462E-02  0.1060173E+00
         22   -1    0    0    0    0  0.00000000000E+00  0.00000000000E+00  0.13700362131E+04  0.13700362131E+04  0.00000000000E+00 0. -1.
         22   -1    0    0    0    0 -0.00000000000E+00 -0.00000000000E+00 -0.41944829671E+03  0.41944829671E+03  0.00000000000E+00 0. -1.
        -24    2    1    2    0    0  0.16682822459E+02  0.14638612397E+03 -0.37812962871E+03  0.41356168788E+03  0.79649480333E+02 0.  0.
         25    2    1    2    0    0 -0.59554675225E+02 -0.10939229266E+03  0.34742290273E+03  0.38971520141E+03  0.12514724063E+03 0.  0.
         24    2    1    2    0    0  0.42871852766E+02 -0.36993831316E+02  0.98129464240E+03  0.98620762056E+03  0.80372609318E+02 0.  0.
        -11    1    5    5    0    0  0.54746839846E+02 -0.47806655801E+02  0.57217246238E+03  0.57677033515E+03  0.00000000000E+00 0.  1.
         12    1    5    5    0    0 -0.11874987080E+02  0.10812824485E+02  0.40912218003E+03  0.40943728541E+03  0.00000000000E+00 0. -1.
         11    1    3    3    0    0  0.11381031790E+02  0.83740928245E+02 -0.30797010007E+03  0.31935505865E+03  0.00000000000E+00 0. -1.
        -12    1    3    3    0    0  0.53017906697E+01  0.62645195728E+02 -0.70159528639E+02  0.94206629231E+02  0.00000000000E+00 0.  1.
          5    1    4    4  501    0 -0.57339828822E+01 -0.11872143569E+03  0.20332628429E+03  0.23555616768E+03  0.41800000000E+01 0.  1.
         -5    1    4    4    0  501 -0.53820692343E+02  0.93291430319E+01  0.14409661844E+03  0.15415903373E+03  0.41800000000E+01 0.  1.
</event>
<event>
11    1  0.7105277E-009  0.1393935E+03  0.7561462E-02  0.1108238E+00
         22   -1    0    0    0    0  0.00000000000E+00  0.00000000000E+00  0.36406983025E+03  0.36406983025E+03  0.00000000000E+00 0.  1.
         22   -1    0    0    0    0 -0.00000000000E+00 -0.00000000000E+00 -0.32442478703E+03  0.32442478703E+03  0.00000000000E+00 0. -1.
         24    2    1    2    0    0 -0.27167843436E+02  0.54282578975E+02 -0.22210174820E+03  0.24511801961E+03  0.84077148422E+02 0.  0.
         25    2    1    2    0    0 -0.36129644137E+02 -0.59657086764E+02 -0.18483803135E+02  0.14441732103E+03  0.12510152856E+03 0.  0.
        -24    2    1    2    0    0  0.63297487573E+02  0.53745077888E+01  0.28023059455E+03  0.29895927665E+03  0.82534875675E+02 0.  0.
        -11    1    3    3    0    0  0.18587775882E+01  0.25460650273E+02 -0.74355279015E+01  0.26589224163E+02  0.00000000000E+00 0.  1.
         12    1    3    3    0    0 -0.29026621024E+02  0.28821928703E+02 -0.21466622030E+03  0.21852879545E+03  0.00000000000E+00 0. -1.
         11    1    5    5    0    0 -0.14753158008E+02  0.13908066802E+02  0.26553259444E+02  0.33409064346E+02  0.00000000000E+00 0. -1.
        -12    1    5    5    0    0  0.78050645581E+02 -0.85335590130E+01  0.25367733511E+03  0.26555021230E+03  0.00000000000E+00 0.  1.
          5    1    4    4  501    0  0.62980590267E+01 -0.85281208295E+02 -0.34287327155E+02  0.92226044257E+02  0.41800000000E+01 0.  1.
         -5    1    4    4    0  501 -0.42427703164E+02  0.25624121531E+02  0.15803524020E+02  0.52191276776E+02  0.41800000000E+01 0.  1.
</event>
<event>
11    1  0.7105277E-009  0.1362438E+03  0.7561462E-02  0.1111827E+00
         22   -1    0    0    0    0  0.00000000000E+00  0.00000000000E+00  0.13363011710E+03  0.13363011710E+03  0.00000000000E+00 0.  1.
         22   -1    0    0    0    0 -0.00000000000E+00 -0.00000000000E+00 -0.14766386294E+04  0.14766386294E+04  0.00000000000E+00 0.  1.
         24    2    1    2    0    0 -0.30343710474E+02 -0.26924188153E+02 -0.13177058613E+04  0.13209360611E+04  0.82931827985E+02 0.  0.
         25    2    1    2    0    0  0.77002667875E+02  0.62756398579E+01 -0.91759242539E+02  0.17330822344E+03  0.12508871733E+03 0.  0.
        -24    2    1    2    0    0 -0.46658957401E+02  0.20648548295E+02  0.66456591513E+02  0.11602446192E+03  0.80260677527E+02 0.  0.
        -13    1    3    3    0    0 -0.57962345116E+02 -0.19341492914E+02 -0.10291272638E+04  0.10309396936E+04  0.00000000000E+00 0.  1.
         14    1    3    3    0    0  0.27618634642E+02 -0.75826952387E+01 -0.28857859747E+03  0.28999636750E+03  0.00000000000E+00 0. -1.
         13    1    5    5    0    0  0.40378334512E+01 -0.11820380846E+02 -0.11872086904E+02  0.17232874101E+02  0.00000000000E+00 0. -1.
        -14    1    5    5    0    0 -0.50696790852E+02  0.32468929141E+02  0.78328678417E+02  0.98791587824E+02  0.00000000000E+00 0.  1.
          5    1    4    4  501    0  0.39286123603E+02 -0.21933616832E+02 -0.11282961951E+03  0.12154208527E+03  0.41800000000E+01 0. -1.
         -5    1    4    4    0  501  0.37716544272E+02  0.28209256690E+02  0.21070376966E+02  0.51766138163E+02  0.41800000000E+01 0. -1.
</event>
<event>
11    1  0.7105277E-009  0.1304312E+03  0.7561462E-02  0.1118740E+00
         22   -1    0    0    0    0  0.00000000000E+00  0.00000000000E+00  0.15064735094E+04  0.15064735094E+04  0.00000000000E+00 0.  1.
         22   -1    0    0    0    0 -0.00000000000E+00 -0.00000000000E+00 -0.77359560907E+02  0.77359560907E+02  0.00000000000E+00 0. -1.
         24    2    1    2    0    0 -0.38607958968E+00 -0.22074100642E+02 -0.40625181869E+02  0.91286166288E+02  0.78710506141E+02 0.  0.
         25    2    1    2    0    0 -0.31635794689E+02 -0.36054196497E+01  0.52936832024E+03  0.54487874037E+03  0.12509276827E+03 0.  0.
        -24    2    1    2    0    0  0.32021874279E+02  0.25679520292E+02  0.94037081013E+03  0.94766816366E+03  0.10996749372E+03 0.  0.
        -13    1    3    3    0    0  0.67184070568E+01  0.92052263336E+01  0.19816965273E+02  0.22860124625E+02  0.00000000000E+00 0.  1.
         14    1    3    3    0    0 -0.71044866465E+01 -0.31279326976E+02 -0.60442147141E+02  0.68426041663E+02  0.00000000000E+00 0. -1.
         13    1    5    5    0    0 -0.84233989215E+01  0.51072146387E+02  0.23268510991E+03  0.23837298119E+03  0.00000000000E+00 0. -1.
        -14    1    5    5    0    0  0.40445273200E+02 -0.25392626095E+02  0.70768570022E+03  0.70929518248E+03  0.00000000000E+00 0.  1.
          5    1    4    4  501    0 -0.38783111080E+02  0.16113260105E+02  0.51969563252E+03  0.52140654936E+03  0.41800000000E+01 0.  1.
         -5    1    4    4    0  501  0.71473163911E+01 -0.19718679755E+02  0.96726877177E+01  0.23472191004E+02  0.41800000000E+01 0.  1.
</event>
<event>
11    1  0.7105277E-009  0.1991236E+03  0.7561462E-02  0.1055145E+00
         22   -1    0    0    0    0  0.00000000000E+00  0.00000000000E+00  0.78243405846E+03  0.78243405846E+03  0.00000000000E+00 0.  1.
         22   -1    0    0    0    0 -0.00000000000E+00 -0.00000000000E+00 -0.38845421357E+03  0.38845421357E+03  0.00000000000E+00 0.  1.
        -24    2    1    2    0    0 -0.50745090434E+01 -0.64013973363E+01 -0.32332519387E+03  0.33304865241E+03  0.79470090912E+02 0.  0.
         25    2    1    2    0    0 -0.14944855920E+03 -0.16904075077E+02  0.15835668423E+03  0.25168448152E+03  0.12509044407E+03 0.  0.
         24    2    1    2    0    0  0.15452306824E+03  0.23305472413E+02  0.55894835452E+03  0.58615513810E+03  0.82061313857E+02 0.  0.
        -13    1    5    5    0    0  0.15569990145E+03  0.68339362653E+01  0.53366778796E+03  0.55595905416E+03  0.00000000000E+00 0.  1.
         14    1    5    5    0    0 -0.11768332070E+01  0.16471536148E+02  0.25280566560E+02  0.30196083936E+02  0.00000000000E+00 0. -1.
         13    1    3    3    0    0 -0.97356454053E+01 -0.34565434868E+02 -0.75725707488E+02  0.83808918700E+02  0.00000000000E+00 0. -1.
        -14    1    3    3    0    0  0.46611363618E+01  0.28164037531E+02 -0.24759948638E+03  0.24923973371E+03  0.00000000000E+00 0.  1.
          5    1    4    4  501    0 -0.37945994228E+02  0.48953695357E+02  0.76113121210E+02  0.98219358516E+02  0.41800000000E+01 0.  1.
         -5    1    4    4    0  501 -0.11150256497E+03 -0.65857770434E+02  0.82243563025E+02  0.15346512301E+03  0.41800000000E+01 0.  1.
</event>
<event>
11    1  0.7105277E-009  0.1472661E+03  0.7561462E-02  0.1099705E+00
         22   -1    0    0    0    0  0.00000000000E+00  0.00000000000E+00  0.84161039442E+03  0.84161039442E+03  0.00000000000E+00 0. -1.
         22   -1    0    0    0    0 -0.00000000000E+00 -0.00000000000E+00 -0.11476054835E+03  0.11476054835E+03  0.00000000000E+00 0. -1.
         24    2    1    2    0    0 -0.28437929162E+02 -0.76765242918E+01 -0.41318887220E+02  0.93859776699E+02  0.78960511654E+02 0.  0.
         25    2    1    2    0    0  0.57019852484E+02 -0.64128197943E+02  0.94819719937E+02  0.17889014629E+03  0.12508883165E+03 0.  0.
        -24    2    1    2    0    0 -0.28581923322E+02  0.71804722234E+02  0.67334901336E+03  0.68362101977E+03  0.89252229146E+02 0.  0.
        -11    1    3    3    0    0 -0.36213393598E+01  0.34825732779E+02 -0.18696913984E+02  0.39692824980E+02  0.00000000000E+00 0.  1.
         12    1    3    3    0    0 -0.24816589803E+02 -0.42502257071E+02 -0.22621973236E+02  0.54166951720E+02  0.00000000000E+00 0. -1.
         13    1    5    5    0    0  0.67589634533E+01  0.61541131610E+02  0.21332456611E+03  0.22212691186E+03  0.00000000000E+00 0. -1.
        -14    1    5    5    0    0 -0.35340886775E+02  0.10263590625E+02  0.46002444725E+03  0.46149410791E+03  0.00000000000E+00 0.  1.
          5    1    4    4  501    0  0.54348985956E+02 -0.10077752082E+03  0.74881827705E+02  0.13687469268E+03  0.41800000000E+01 0. -1.
         -5    1    4    4    0  501  0.26708665281E+01  0.36649322877E+02  0.19937892232E+02  0.42015453610E+02  0.41800000000E+01 0. -1.
</event>
<event>
11    1  0.7105277E-009  0.1375735E+03  0.7561462E-02  0.1110299E+00
         22   -1    0    0    0    0  0.00000000000E+00  0.00000000000E+00  0.31593356938E+03  0.31593356938E+03  0.00000000000E+00 0. -1.
         22   -1    0    0    0    0 -0.00000000000E+00 -0.00000000000E+00 -0.17354374070E+04  0.17354374070E+04  0.00000000000E+00 0.  1.
         24    2    1    2    0    0 -0.92959942521E+01 -0.18200737763E+02 -0.11237091505E+04  0.11267679994E+04  0.80412604650E+02 0.  0.
         25    2    1    2    0    0 -0.18522242448E+02 -0.32139070488E+02 -0.59508325024E+03  0.60922040681E+03  0.12509770598E+03 0.  0.
        -24    2    1    2    0    0  0.27818236700E+02  0.50339808251E+02  0.29928856317E+03  0.31538257021E+03  0.81145369316E+02 0.  0.
        -13    1    3    3    0    0 -0.34697992752E+02  0.15215591251E+02 -0.68774181901E+03  0.68878463582E+03  0.00000000000E+00 0.  1.
         14    1    3    3    0    0  0.25401998500E+02 -0.33416329014E+02 -0.43596733154E+03  0.43798336354E+03  0.00000000000E+00 0. -1.
         13    1    5    5    0    0 -0.13832957168E+02  0.27386233411E+02  0.22562317449E+03  0.22769974386E+03  0.00000000000E+00 0. -1.
        -14    1    5    5    0    0  0.41651193869E+02  0.22953574840E+02  0.73665388678E+02  0.87682826356E+02  0.00000000000E+00 0.  1.
          5    1    4    4  501    0 -0.58984266460E+02 -0.43472825551E+02 -0.22341683785E+03  0.23516289267E+03  0.41800000000E+01 0. -1.
         -5    1    4    4    0  501  0.40462024011E+02  0.11333755063E+02 -0.37166641239E+03  0.37405751415E+03  0.41800000000E+01 0. -1.
</event>
<event>
11    1  0.7105277E-009  0.1484833E+03  0.7561462E-02  0.1098439E+00
         22   -1    0    0    0    0  0.00000000000E+00  0.00000000000E+00  0.21728228823E+03  0.21728228823E+03  0.00000000000E+00 0.  1.
         22   -1    0    0    0    0 -0.00000000000E+00 -0.00000000000E+00 -0.18416995118E+04  0.18416995118E+04  0.00000000000E+00 0. -1.
        -24    2    1    2    0    0 -0.55934050949E+02 -0.57731518671E+02 -0.17799811596E+04  0.17835924076E+04  0.80046247931E+02 0.  0.
         25    2    1    2    0    0  0.41812388755E+02  0.38697419417E+02  0.64917080342E+02  0.15201132348E+03  0.12508976386E+03 0.  0.
         24    2    1    2    0    0  0.14121662194E+02  0.19034099254E+02  0.90646855684E+02  0.12337806891E+03  0.80271895240E+02 0.  0.
        -11    1    5    5    0    0  0.69511381972E+01  0.46181165416E+01  0.10284202375E+03  0.10318007158E+03  0.00000000000E+00 0.  1.
         12    1    5    5    0    0  0.71705239966E+01  0.14415982712E+02 -0.12195168066E+02  0.20197997329E+02  0.00000000000E+00 0. -1.
         13    1    3    3    0    0 -0.56200271960E+02 -0.66371859390E+02 -0.17550796473E+04  0.17572331270E+04  0.00000000000E+00 0. -1.
        -14    1    3    3    0    0  0.26622101153E+00  0.86403407191E+01 -0.24901512298E+02  0.26359280645E+02  0.00000000000E+00 0.  1.
          5    1    4    4  501    0  0.71595217028E+02 -0.15110032432E+02  0.49591425606E+02  0.88492768491E+02  0.41800000000E+01 0. -1.
         -5    1    4    4    0  501 -0.29782828273E+02  0.53807451849E+02  0.15325654736E+02  0.63518554986E+02  0.41800000000E+01 0. -1.
</event>
<event>
11    1  0.7105277E-009  0.3233413E+03  0.7561462E-02  0.9907695E-01
         22   -1    0    0    0    0  0.00000000000E+00  0.00000000000E+00  0.69859938902E+03  0.69859938902E+03  0.00000000000E+00 0.  1.
         22   -1    0    0    0    0 -0.00000000000E+00 -0.00000000000E+00 -0.36044115488E+03  0.36044115488E+03  0.00000000000E+00 0. -1.
         24    2    1    2    0    0 -0.26517990102E+02  0.14442549094E+03 -0.15233156637E+03  0.22618234099E+03  0.79947601760E+02 0.  0.
         25    2    1    2    0    0 -0.27679151397E+03 -0.14339573064E+03  0.14400687767E+03  0.36546220371E+03  0.12509501892E+03 0.  0.
        -24    2    1    2    0    0  0.30330950407E+03 -0.10297603012E+01  0.34648292285E+03  0.46739599920E+03  0.80068024684E+02 0.  0.
        -11    1    3    3    0    0 -0.13301348936E+02  0.11953727754E+02  0.64170389684E+01  0.18999891575E+02  0.00000000000E+00 0.  1.
         12    1    3    3    0    0 -0.13216641165E+02  0.13247176319E+03 -0.15874860534E+03  0.20718244941E+03  0.00000000000E+00 0. -1.
         11    1    5    5    0    0  0.29258325542E+03 -0.17895948694E+02  0.31679731178E+03  0.43160834455E+03  0.00000000000E+00 0. -1.
        -12    1    5    5    0    0  0.10726248651E+02  0.16866188393E+02  0.29685611070E+02  0.35787654654E+02  0.00000000000E+00 0.  1.
          5    1    4    4  501    0 -0.88384489441E+02 -0.65213327668E+02  0.11551566199E+03  0.15945512423E+03  0.41800000000E+01 0. -1.
         -5    1    4    4    0  501 -0.18840702453E+03 -0.78182402971E+02  0.28491215679E+02  0.20600707948E+03  0.41800000000E+01 0. -1.
</event>
<event>
11    1  0.7105277E-009  0.1473637E+03  0.7561462E-02  0.1099603E+00
         22   -1    0    0    0    0  0.00000000000E+00  0.00000000000E+00  0.57004408727E+02  0.57004408727E+02  0.00000000000E+00 0. -1.
         22   -1    0    0    0    0 -0.00000000000E+00 -0.00000000000E+00 -0.24097687508E+04  0.24097687508E+04  0.00000000000E+00 0. -1.
         24    2    1    2    0    0  0.34352296006E+01 -0.43376875440E+02 -0.18821550232E+04  0.18843583727E+04  0.80034938918E+02 0.  0.
         25    2    1    2    0    0 -0.55732178562E+02 -0.19735644927E+02 -0.44563279714E+03  0.46661778093E+03  0.12509193493E+03 0.  0.
        -24    2    1    2    0    0  0.52296948961E+02  0.63112520367E+02 -0.24976521800E+02  0.11579700592E+03  0.77890685201E+02 0.  0.
        -13    1    3    3    0    0 -0.13327246414E+02  0.90043865436E+01 -0.94605983456E+02  0.95963464817E+02  0.00000000000E+00 0.  1.
         14    1    3    3    0    0  0.16762476015E+02 -0.52381261984E+02 -0.17875490397E+04  0.17883949079E+04  0.00000000000E+00 0. -1.
         11    1    5    5    0    0  0.51789208764E+02  0.38004803062E+01 -0.13372429655E+01  0.51945683302E+02  0.00000000000E+00 0. -1.
        -12    1    5    5    0    0  0.50774019729E+00  0.59312040061E+02 -0.23639278835E+02  0.63851322618E+02  0.00000000000E+00 0.  1.
          5    1    4    4  501    0 -0.34628217886E+02 -0.62863915078E+02 -0.37010180801E+03  0.37701963608E+03  0.41800000000E+01 0. -1.
         -5    1    4    4    0  501 -0.21103960676E+02  0.43128270151E+02 -0.75530989123E+02  0.89598144849E+02  0.41800000000E+01 0. -1.
</event>
<event>
11    1  0.7105277E-009  0.1349440E+03  0.7561462E-02  0.1113339E+00
         22   -1    0    0    0    0  0.00000000000E+00  0.00000000000E+00  0.24397394607E+03  0.24397394607E+03  0.00000000000E+00 0. -1.
         22   -1    0    0    0    0 -0.00000000000E+00 -0.00000000000E+00 -0.28314708841E+04  0.28314708841E+04  0.00000000000E+00 0. -1.
        -24    2    1    2    0    0 -0.19752906389E+02 -0.46245376602E+02 -0.27287095463E+04  0.27304317839E+04  0.82904317314E+02 0.  0.
         25    2    1    2    0    0  0.60327038336E+00  0.81012471994E+02 -0.29679121565E+02  0.15195674918E+03  0.12508644535E+03 0.  0.
         24    2    1    2    0    0  0.19149636006E+02 -0.34767095393E+02  0.17089172987E+03  0.19305629714E+03  0.80568548748E+02 0.  0.
        -13    1    5    5    0    0  0.50912425048E+01  0.17210105296E+02  0.49794274501E+01  0.18625336836E+02  0.00000000000E+00 0.  1.
         14    1    5    5    0    0  0.14058393501E+02 -0.51977200688E+02  0.16591230242E+03  0.17443096030E+03  0.00000000000E+00 0. -1.
         11    1    3    3    0    0  0.11652995175E+02  0.62074904343E+01 -0.16091988924E+04  0.16092530567E+04  0.00000000000E+00 0. -1.
        -12    1    3    3    0    0 -0.31405901564E+02 -0.52452867036E+02 -0.11195106540E+04  0.11211787272E+04  0.00000000000E+00 0.  1.
          5    1    4    4  501    0  0.62121914273E+02  0.48169671791E+02 -0.21594889714E+02  0.81628801137E+02  0.41800000000E+01 0.  1.
         -5    1    4    4    0  501 -0.61518643890E+02  0.32842800204E+02 -0.80842318513E+01  0.70327948042E+02  0.41800000000E+01 0.  1.
</event>
<event>
11    1  0.7105277E-009  0.1305053E+03  0.7561462E-02  0.1118650E+00
         22   -1    0    0    0    0  0.00000000000E+00  0.00000000000E+00  0.85851041324E+02  0.85851041324E+02  0.00000000000E+00 0.  1.
         22   -1    0    0    0    0 -0.00000000000E+00 -0.00000000000E+00 -0.12615739793E+04  0.12615739793E+04  0.00000000000E+00 0.  1.
         24    2    1    2    0    0  0.34442122923E+02  0.24229825900E+02 -0.88561703019E+03  0.89038147973E+03  0.81782094569E+02 0.  0.
         25    2    1    2    0    0 -0.23529126863E+02  0.13620819944E+02 -0.33384484711E+03  0.35754605315E+03  0.12509057372E+03 0.  0.
        -24    2    1    2    0    0 -0.10912996060E+02 -0.37850645844E+02  0.43738939341E+02  0.99497487725E+02  0.80217768450E+02 0.  0.
        -11    1    3    3    0    0  0.50101428493E+02  0.43855335477E+02 -0.60998156845E+03  0.61360488707E+03  0.00000000000E+00 0.  1.
         12    1    3    3    0    0 -0.15659305570E+02 -0.19625509577E+02 -0.27563546174E+03  0.27677659266E+03  0.00000000000E+00 0. -1.
         11    1    5    5    0    0  0.84101898069E+01  0.14553581882E+02  0.40152881003E+02  0.43529207333E+02  0.00000000000E+00 0. -1.
        -12    1    5    5    0    0 -0.19323185866E+02 -0.52404227726E+02  0.35860583378E+01  0.55968280392E+02  0.00000000000E+00 0.  1.
          5    1    4    4  501    0 -0.44196513720E+02  0.39050506632E+02 -0.69943505117E+02  0.91585152734E+02  0.41800000000E+01 0. -1.
         -5    1    4    4    0  501  0.20667386857E+02 -0.25429686688E+02 -0.26390134199E+03  0.26596090042E+03  0.41800000000E+01 0. -1.
</event>
<event>
11    1  0.7105277E-009  0.1563520E+03  0.7561462E-02  0.1090559E+00
         22   -1    0    0    0    0  0.00000000000E+00  0.00000000000E+00  0.97359920356E+02  0.97359920356E+02  0.00000000000E+00 0. -1.
         22   -1    0    0    0    0 -0.00000000000E+00 -0.00000000000E+00 -0.19554442719E+04  0.19554442719E+04  0.00000000000E+00 0.  1.
        -24    2    1    2    0    0 -0.20866347755E+02 -0.31927588852E+01 -0.15607099357E+04  0.15628562755E+04  0.79111543891E+02 0.  0.
         25    2    1    2    0    0  0.23631948093E+02 -0.90863107798E+02 -0.32435810901E+03  0.36009766250E+03  0.12509024875E+03 0.  0.
         24    2    1    2    0    0 -0.27656003376E+01  0.94055866683E+02  0.26983693094E+02  0.12985025429E+03  0.85315967115E+02 0.  0.
        -11    1    5    5    0    0  0.27495343695E+01  0.37064710212E+02 -0.30972649439E+02  0.48380344104E+02  0.00000000000E+00 0.  1.
         12    1    5    5    0    0 -0.55151347071E+01  0.56991156471E+02  0.57956342533E+02  0.81469910191E+02  0.00000000000E+00 0. -1.
         13    1    3    3    0    0  0.44343926217E+00  0.17639394931E+02 -0.83416217150E+02  0.85262008981E+02  0.00000000000E+00 0. -1.
        -14    1    3    3    0    0 -0.21309787017E+02 -0.20832153816E+02 -0.14772937185E+04  0.14775942665E+04  0.00000000000E+00 0.  1.
          5    1    4    4  501    0 -0.27541220180E+02 -0.45078708472E+01 -0.19130347491E+03  0.19337355461E+03  0.41800000000E+01 0. -1.
         -5    1    4    4    0  501  0.51173168272E+02 -0.86355236950E+02 -0.13305463410E+03  0.16672410790E+03  0.41800000000E+01 0. -1.
</event>
<event>
11    1  0.7105277E-009  0.1349960E+03  0.7561462E-02  0.1113278E+00
         22   -1    0    0    0    0  0.00000000000E+00  0.00000000000E+00  0.97718584269E+02  0.97718584269E+02  0.00000000000E+00 0.  1.
         22   -1    0    0    0    0 -0.00000000000E+00 -0.00000000000E+00 -0.85798546020E+03  0.85798546020E+03  0.00000000000E+00 0.  1.
         24    2    1    2    0    0  0.13356085812E+02  0.40118042245E+02 -0.64592241587E+03  0.65233067890E+03  0.80818964196E+02 0.  0.
         25    2    1    2    0    0 -0.10634122694E+02  0.17206356552E+02 -0.15168922885E+03  0.19765143097E+03  0.12508925912E+03 0.  0.
        -24    2    1    2    0    0 -0.27219631182E+01 -0.57324398797E+02  0.37344768790E+02  0.10572193459E+03  0.80554328973E+02 0.  0.
        -13    1    3    3    0    0  0.23214170600E+02  0.49572329576E+02 -0.62469400376E+03  0.62708764293E+03  0.00000000000E+00 0.  1.
         14    1    3    3    0    0 -0.98580847884E+01 -0.94542873312E+01 -0.21228412105E+02  0.25243035973E+02  0.00000000000E+00 0. -1.
         11    1    5    5    0    0 -0.16504222501E+02 -0.18453820040E+02 -0.22224414016E+02  0.33269466674E+02  0.00000000000E+00 0. -1.
        -12    1    5    5    0    0  0.13782259383E+02 -0.38870578757E+02  0.59569182806E+02  0.72452467913E+02  0.00000000000E+00 0.  1.
          5    1    4    4  501    0 -0.54820679954E+02  0.38958390525E+02 -0.12366612447E+03  0.14083268756E+03  0.41800000000E+01 0. -1.
         -5    1    4    4    0  501  0.44186557260E+02 -0.21752033973E+02 -0.28023104376E+02  0.56818743416E+02  0.41800000000E+01 0. -1.
</event>
<event>
11    1  0.7105277E-009  0.1478288E+03  0.7561462E-02  0.1099118E+00
         22   -1    0    0    0    0  0.00000000000E+00  0.00000000000E+00  0.54923969267E+03  0.54923969267E+03  0.00000000000E+00 0.  1.
         22   -1    0    0    0    0 -0.00000000000E+00 -0.00000000000E+00 -0.26344655183E+03  0.26344655183E+03  0.00000000000E+00 0.  1.
         24    2    1    2    0    0  0.14477881394E+02 -0.42828024618E+02 -0.16338191271E+03  0.18518126019E+03  0.74529195511E+02 0.  0.
         25    2    1    2    0    0  0.37604568848E+02  0.99667874813E+02 -0.67705956200E+00  0.16430218929E+03  0.12508781766E+03 0.  0.
        -24    2    1    2    0    0 -0.52082450242E+02 -0.56839850195E+02  0.44985211311E+03  0.46320279502E+03  0.79035153242E+02 0.  0.
        -11    1    3    3    0    0  0.63377419262E+01 -0.53834802550E+02 -0.16268004246E+03  0.17147346486E+03  0.00000000000E+00 0.  1.
         12    1    3    3    0    0  0.81401394678E+01  0.11006777932E+02 -0.70187025423E+00  0.13707795331E+02  0.00000000000E+00 0. -1.
         13    1    5    5    0    0 -0.55561443042E+02 -0.92099440268E+01  0.16430057068E+03  0.17368527441E+03  0.00000000000E+00 0. -1.
        -14    1    5    5    0    0  0.34789928002E+01 -0.47629906168E+02  0.28555154243E+03  0.28951752061E+03  0.00000000000E+00 0.  1.
          5    1    4    4  501    0  0.11452365782E+02  0.35712552817E+02  0.60907697525E+02  0.71650283520E+02  0.41800000000E+01 0. -1.
         -5    1    4    4    0  501  0.26152203066E+02  0.63955321996E+02 -0.61584757087E+02  0.92651905767E+02  0.41800000000E+01 0. -1.
</event>
<event>
11    1  0.7105277E-009  0.1260316E+03  0.7561462E-02  0.1124243E+00
         22   -1    0    0    0    0  0.00000000000E+00  0.00000000000E+00  0.11033827954E+03  0.11033827954E+03  0.00000000000E+00 0.  1.
         22   -1    0    0    0    0 -0.00000000000E+00 -0.00000000000E+00 -0.55575521453E+03  0.55575521453E+03  0.00000000000E+00 0. -1.
        -24    2    1    2    0    0  0.34422440786E+01 -0.10826331327E+02 -0.43278605037E+03  0.44038211550E+03  0.80644799984E+02 0.  0.
         25    2    1    2    0    0 -0.15621154750E+02  0.15263628509E+02 -0.32947926786E+02  0.13118686008E+03  0.12508967802E+03 0.  0.
         24    2    1    2    0    0  0.12178910671E+02 -0.44372971817E+01  0.20317042178E+02  0.94524518488E+02  0.91400694314E+02 0.  0.
        -13    1    5    5    0    0  0.28081274224E+02 -0.15586632963E+01  0.51909332108E+02  0.59038683532E+02  0.00000000000E+00 0.  1.
         14    1    5    5    0    0 -0.15902363552E+02 -0.28786338854E+01 -0.31592289929E+02  0.35485834957E+02  0.00000000000E+00 0. -1.
         13    1    3    3    0    0 -0.19968460169E+02 -0.35839092229E+01 -0.39387748943E+03  0.39439962029E+03  0.00000000000E+00 0. -1.
        -14    1    3    3    0    0  0.23410704247E+02 -0.72424221039E+01 -0.38908560941E+02  0.45982495211E+02  0.00000000000E+00 0.  1.
          5    1    4    4  501    0 -0.18185277556E+02  0.48750160910E+02  0.29645270849E+02  0.60029967451E+02  0.41800000000E+01 0. -1.
         -5    1    4    4    0  501  0.25641228057E+01 -0.33486532401E+02 -0.62593197635E+02  0.71156892626E+02  0.41800000000E+01 0. -1.
</event>
<event>
11    1  0.7105277E-009  0.1459336E+03  0.7561462E-02  0.1101108E+00
         22   -1    0    0    0    0  0.00000000000E+00  0.00000000000E+00  0.16351160636E+04  0.16351160636E+04  0.00000000000E+00 0. -1.
         22   -1    0    0    0    0 -0.00000000000E+00 -0.00000000000E+00 -0.32000746242E+03  0.32000746242E+03  0.00000000000E+00 0.  1.
        -24    2    1    2    0    0 -0.69870352991E+02 -0.21111808553E+02 -0.24188451233E+03  0.26414072668E+03  0.77036559489E+02 0.  0.
         25    2    1    2    0    0  0.86797414981E+02  0.34880754476E+02  0.26727966792E+02  0.15846852307E+03  0.12508968908E+03 0.  0.
         24    2    1    2    0    0 -0.16927061990E+02 -0.13768945922E+02  0.15302651468E+04  0.15325142763E+04  0.80077952227E+02 0.  0.
        -11    1    5    5    0    0 -0.14381896968E+02  0.51537935696E+01  0.53837403619E+02  0.55963082268E+02  0.00000000000E+00 0.  1.
         12    1    5    5    0    0 -0.25451650226E+01 -0.18922739492E+02  0.14764277431E+04  0.14765511940E+04  0.00000000000E+00 0. -1.
         13    1    3    3    0    0 -0.73262906798E+02 -0.14971567240E+02 -0.11569765977E+03  0.13775902807E+03  0.00000000000E+00 0. -1.
        -14    1    3    3    0    0  0.33925538075E+01 -0.61402413131E+01 -0.12618685256E+03  0.12638169861E+03  0.00000000000E+00 0.  1.
          5    1    4    4  501    0 -0.13448395906E+01 -0.38481796910E+02  0.19815227523E+02  0.43506010260E+02  0.41800000000E+01 0. -1.
         -5    1    4    4    0  501  0.88142254572E+02  0.73362551386E+02  0.69127392691E+01  0.11496251281E+03  0.41800000000E+01 0. -1.
</event>
<event>
11    1  0.7105277E-009  0.1670739E+03  0.7561462E-02  0.1080606E+00
         22   -1    0    0    0    0  0.00000000000E+00  0.00000000000E+00  0.26798183855E+04  0.26798183855E+04  0.00000000000E+00 0.  1.
         22   -1    0    0    0    0 -0.00000000000E+00 -0.00000000000E+00 -0.32087513060E+03  0.32087513060E+03  0.00000000000E+00 0.  1.
         24    2    1    2    0    0  0.85628273891E+02  0.57315723964E+02 -0.25247933098E+03  0.28396687453E+03  0.79209088860E+02 0.  0.
         25    2    1    2    0    0 -0.18358473824E+03 -0.98303456145E+01  0.19265847670E+03  0.29421805009E+03  0.12508789130E+03 0.  0.
        -24    2    1    2    0    0  0.97956464346E+02 -0.47485378349E+02  0.24187641092E+04  0.24225085915E+04  0.79232126354E+02 0.  0.
        -11    1    3    3    0    0  0.40003530823E+02 -0.41914612126E+01 -0.15427597498E+03  0.15943314361E+03  0.00000000000E+00 0.  1.
         12    1    3    3    0    0  0.45624743068E+02  0.61507185176E+02 -0.98203355998E+02  0.12453373092E+03  0.00000000000E+00 0. -1.
         11    1    5    5    0    0  0.82164024475E+02 -0.38461327537E+01  0.11730360092E+04  0.11759163229E+04  0.00000000000E+00 0. -1.
        -12    1    5    5    0    0  0.15792439871E+02 -0.43639245596E+02  0.12457281000E+04  0.12465922686E+04  0.00000000000E+00 0.  1.
          5    1    4    4  501    0  0.22640327816E+01  0.18498942062E+02 -0.66306303193E+01  0.20218169064E+02  0.41800000000E+01 0. -1.
         -5    1    4    4    0  501 -0.18584877102E+03 -0.28329287677E+02  0.19928910702E+03  0.27399988103E+03  0.41800000000E+01 0. -1.
</event>
<event>
11    1  0.7105277E-009  0.1529501E+03  0.7561462E-02  0.1093902E+00
         22   -1    0    0    0    0  0.00000000000E+00  0.00000000000E+00  0.50736901502E+03  0.50736901502E+03  0.00000000000E+00 0.  1.
         22   -1    0    0    0    0 -0.00000000000E+00 -0.00000000000E+00 -0.25676687091E+03  0.25676687091E+03  0.00000000000E+00 0.  1.
        -24    2    1    2    0    0 -0.27734665383E+02 -0.26781348915E+02 -0.18967528316E+03  0.21013611969E+03  0.81817011926E+02 0.  0.
         25    2    1    2    0    0 -0.46102241219E+02 -0.32166791867E+02  0.52317001393E+02  0.14679559181E+03  0.12510698620E+03 0.  0.
         24    2    1    2    0    0  0.73836906601E+02  0.58948140782E+02  0.38796042588E+03  0.40720417444E+03  0.79844696430E+02 0.  0.
        -13    1    5    5    0    0  0.43413247815E+02  0.60414710775E+02  0.35336247951E+03  0.36110897149E+03  0.00000000000E+00 0.  1.
         14    1    5    5    0    0  0.30423658786E+02 -0.14665699929E+01  0.34597946373E+02  0.46095202947E+02  0.00000000000E+00 0. -1.
         11    1    3    3    0    0 -0.12883320380E+00  0.27426542166E+02 -0.81997445701E+02  0.86462783408E+02  0.00000000000E+00 0. -1.
        -12    1    3    3    0    0 -0.27605832179E+02 -0.54207891081E+02 -0.10767783746E+03  0.12367333628E+03  0.00000000000E+00 0.  1.
          5    1    4    4  501    0 -0.34326216375E+02 -0.72208767644E+02  0.41547692098E+00  0.80062727135E+02  0.41800000000E+01 0.  1.
         -5    1    4    4    0  501 -0.11776024843E+02  0.40041975777E+02  0.51901524472E+02  0.66732864675E+02  0.41800000000E+01 0.  1.
</event>
<event>
11    1  0.7105277E-009  0.1297126E+03  0.7561462E-02  0.1119623E+00
         22   -1    0    0    0    0  0.00000000000E+00  0.00000000000E+00  0.44584433935E+03  0.44584433935E+03  0.00000000000E+00 0.  1.
         22   -1    0    0    0    0 -0.00000000000E+00 -0.00000000000E+00 -0.66160498448E+03  0.66160498448E+03  0.00000000000E+00 0.  1.
         24    2    1    2    0    0  0.34264407453E+02 -0.55160789332E+01 -0.62622779098E+03  0.63230856191E+03  0.80301896156E+02 0.  0.
         25    2    1    2    0    0 -0.15800348538E+02  0.22402603560E+01  0.12387924896E+03  0.17676902275E+03  0.12508616750E+03 0.  0.
        -24    2    1    2    0    0 -0.18464058915E+02  0.32758185772E+01  0.28658789688E+03  0.29837173917E+03  0.80879043274E+02 0.  0.
        -13    1    3    3    0    0  0.45100840080E+01 -0.85792516616E+01 -0.55461858095E+03  0.55470326730E+03  0.00000000000E+00 0.  1.
         14    1    3    3    0    0  0.29754323445E+02  0.30631727284E+01 -0.71609210029E+02  0.77605294612E+02  0.00000000000E+00 0. -1.
         11    1    5    5    0    0  0.31164954950E+02 -0.60555152149E+01  0.13108476874E+03  0.13487453532E+03  0.00000000000E+00 0. -1.
        -12    1    5    5    0    0 -0.49629013865E+02  0.93313337921E+01  0.15550312813E+03  0.16349720385E+03  0.00000000000E+00 0.  1.
          5    1    4    4  501    0 -0.14767156311E+02 -0.60746382160E+02  0.55498880245E+02  0.83700597128E+02  0.41800000000E+01 0.  1.
         -5    1    4    4    0  501 -0.10331922269E+01  0.62986642516E+02  0.68380368719E+02  0.93068425622E+02  0.41800000000E+01 0.  1.
</event>
<event>
11    1  0.7105277E-009  0.1678199E+03  0.7561462E-02  0.1079945E+00
         22   -1    0    0    0    0  0.00000000000E+00  0.00000000000E+00  0.11424546075E+04  0.11424546075E+04  0.00000000000E+00 0. -1.
         22   -1    0    0    0    0 -0.00000000000E+00 -0.00000000000E+00 -0.27618654694E+03  0.27618654694E+03  0.00000000000E+00 0. -1.
         24    2    1    2    0    0 -0.84657748797E+02  0.67687145814E+02 -0.19064828731E+03  0.23312970547E+03  0.79083537952E+02 0.  0.
         25    2    1    2    0    0  0.80004507183E+02 -0.11494921433E+03  0.79952044612E+02  0.20409151013E+03  0.12508785722E+03 0.  0.
        -24    2    1    2    0    0  0.46532416139E+01  0.47262068521E+02  0.97696430323E+03  0.98141993880E+03  0.80439360493E+02 0.  0.
        -11    1    3    3    0    0 -0.36493029578E+02 -0.12711709638E+02 -0.39328439861E+02  0.55136693332E+02  0.00000000000E+00 0.  1.
         12    1    3    3    0    0 -0.48164719219E+02  0.80398855451E+02 -0.15131984745E+03  0.17799301213E+03  0.00000000000E+00 0. -1.
         11    1    5    5    0    0 -0.20306928316E+02  0.37770219290E+02  0.87392553101E+03  0.87497702516E+03  0.00000000000E+00 0. -1.
        -12    1    5    5    0    0  0.24960169930E+02  0.94918492309E+01  0.10303877222E+03  0.10644291365E+03  0.00000000000E+00 0.  1.
          5    1    4    4  501    0 -0.17498191434E+02 -0.76753821781E+02  0.13453294796E+02  0.79973741955E+02  0.41800000000E+01 0. -1.
         -5    1    4    4    0  501  0.97502698617E+02 -0.38195392553E+02  0.66498749816E+02  0.12411776818E+03  0.41800000000E+01 0. -1.
</event>
<event>
11    1  0.7105277E-009  0.1524650E+03  0.7561462E-02  0.1094386E+00
         22   -1    0    0    0    0  0.00000000000E+00  0.00000000000E+00  0.25848944974E+04  0.25848944974E+04  0.00000000000E+00 0. -1.
         22   -1    0    0    0    0 -0.00000000000E+00 -0.00000000000E+00 -0.48829146768E+02  0.48829146768E+02  0.00000000000E+00 0.  1.
         24    2    1    2    0    0 -0.48735652339E+02  0.37267869610E+02  0.52513391785E+02  0.11470270239E+03  0.81455482956E+02 0.  0.
         25    2    1    2    0    0  0.46530112549E+01  0.43979251935E+02  0.25803153733E+03  0.29014368556E+03  0.12508900391E+03 0.  0.
        -24    2    1    2    0    0  0.44082641084E+02 -0.81247121544E+02  0.22255204215E+04  0.22288772562E+04  0.80051875102E+02 0.  0.
        -11    1    3    3    0    0 -0.24676767568E+02  0.43337773554E+02 -0.68718907078E+01  0.50342113147E+02  0.00000000000E+00 0.  1.
         12    1    3    3    0    0 -0.24058884771E+02 -0.60699039443E+01  0.59385282493E+02  0.64360589238E+02  0.00000000000E+00 0. -1.
         11    1    5    5    0    0  0.62595633601E+01 -0.81675060042E+02  0.17164439516E+04  0.17183974617E+04  0.00000000000E+00 0. -1.
        -12    1    5    5    0    0  0.37823077724E+02  0.42793849723E+00  0.50907646992E+03  0.51047979447E+03  0.00000000000E+00 0.  1.
          5    1    4    4  501    0 -0.29897350719E+02  0.14715709626E+02  0.23816769631E+03  0.24052386088E+03  0.41800000000E+01 0. -1.
         -5    1    4    4    0  501  0.34550361974E+02  0.29263542309E+02  0.19863841024E+02  0.49619824679E+02  0.41800000000E+01 0. -1.
</event>
<event>
11    1  0.7105277E-009  0.1453135E+03  0.7561462E-02  0.1101766E+00
         22   -1    0    0    0    0  0.00000000000E+00  0.00000000000E+00  0.90796573995E+03  0.90796573995E+03  0.00000000000E+00 0. -1.
         22   -1    0    0    0    0 -0.00000000000E+00 -0.00000000000E+00 -0.38147440039E+03  0.38147440039E+03  0.00000000000E+00 0.  1.
         24    2    1    2    0    0  0.21347825931E+02 -0.24416256812E+02 -0.31926539342E+03  0.33079336913E+03  0.80261935891E+02 0.  0.
         25    2    1    2    0    0  0.30495845951E+02 -0.31250854012E+02  0.30605353920E+02  0.13599852139E+03  0.12510914289E+03 0.  0.
        -24    2    1    2    0    0 -0.51843671882E+02  0.55667110824E+02  0.81515137905E+03  0.82264824983E+03  0.80571574579E+02 0.  0.
        -11    1    3    3    0    0  0.10879803128E+02  0.61697848714E+01 -0.27842914440E+03  0.27870992952E+03  0.00000000000E+00 0.  1.
         12    1    3    3    0    0  0.10468022803E+02 -0.30586041683E+02 -0.40836249025E+02  0.52083439611E+02  0.00000000000E+00 0. -1.
         11    1    5    5    0    0 -0.71555315112E+01  0.57675454888E+01  0.51629995001E+03  0.51638174309E+03  0.00000000000E+00 0. -1.
        -12    1    5    5    0    0 -0.44688140371E+02  0.49899565336E+02  0.29885142904E+03  0.30626650674E+03  0.00000000000E+00 0.  1.
          5    1    4    4  501    0  0.37556347383E+02  0.21681372405E+02  0.60579018318E+02  0.74618034003E+02  0.41800000000E+01 0.  1.
         -5    1    4    4    0  501 -0.70605014325E+01 -0.52932226418E+02 -0.29973664398E+02  0.61380487383E+02  0.41800000000E+01 0.  1.
</event>
<event>
11    1  0.7105277E-009  0.1429029E+03  0.7561462E-02  0.1104359E+00
         22   -1    0    0    0    0  0.00000000000E+00  0.00000000000E+00  0.50605147693E+02  0.50605147693E+02  0.00000000000E+00 0. -1.
         22   -1    0    0    0    0 -0.00000000000E+00 -0.00000000000E+00 -0.14110617516E+04  0.14110617516E+04  0.00000000000E+00 0.  1.
        -24    2    1    2    0    0 -0.30901092664E+02  0.28578629297E+02 -0.93508167245E+03  0.93885682640E+03  0.72820263352E+02 0.  0.
         25    2    1    2    0    0 -0.13013685438E+02 -0.80991439075E+02 -0.38008597616E+03  0.40846333824E+03  0.12509188704E+03 0.  0.
         24    2    1    2    0    0  0.43914778102E+02  0.52412809778E+02 -0.45288955329E+02  0.11434673468E+03  0.79677323573E+02 0.  0.
        -13    1    5    5    0    0  0.30441784628E+02 -0.30477175620E+01 -0.48321913201E+02  0.57192640515E+02  0.00000000000E+00 0.  1.
         14    1    5    5    0    0  0.13472993474E+02  0.55460527340E+02  0.30329578717E+01  0.57154094161E+02  0.00000000000E+00 0. -1.
         13    1    3    3    0    0  0.73875854881E+00  0.30038650702E+01 -0.21016123855E+00  0.31005059747E+01  0.00000000000E+00 0. -1.
        -14    1    3    3    0    0 -0.31639851213E+02  0.25574764227E+02 -0.93487151121E+03  0.93575632043E+03  0.00000000000E+00 0.  1.
          5    1    4    4  501    0 -0.67573235946E+02 -0.32783676686E+02 -0.22120832059E+03  0.23364825095E+03  0.41800000000E+01 0. -1.
         -5    1    4    4    0  501  0.54559550509E+02 -0.48207762388E+02 -0.15887765557E+03  0.17481508729E+03  0.41800000000E+01 0. -1.
</event>
<event>
11    1  0.7105277E-009  0.1590515E+03  0.7561462E-02  0.1087973E+00
         22   -1    0    0    0    0  0.00000000000E+00  0.00000000000E+00  0.21283502448E+04  0.21283502448E+04  0.00000000000E+00 0.  1.
         22   -1    0    0    0    0 -0.00000000000E+00 -0.00000000000E+00 -0.34144894656E+03  0.34144894656E+03  0.00000000000E+00 0. -1.
         24    2    1    2    0    0 -0.43649077813E+02  0.87983152095E+02 -0.31135542250E+03  0.33619168795E+03  0.80227020920E+02 0.  0.
         25    2    1    2    0    0  0.12925560359E+03 -0.45219609225E+02  0.55294840927E+03  0.58322533684E+03  0.12509207048E+03 0.  0.
        -24    2    1    2    0    0 -0.85606525777E+02 -0.42763542870E+02  0.15453083114E+04  0.15503821666E+04  0.80931372809E+02 0.  0.
        -11    1    3    3    0    0  0.76742754284E+00  0.79852436023E+02 -0.17047546380E+03  0.18825218257E+03  0.00000000000E+00 0.  1.
         12    1    3    3    0    0 -0.44416505356E+02  0.81307160721E+01 -0.14087995869E+03  0.14793950538E+03  0.00000000000E+00 0. -1.
         11    1    5    5    0    0 -0.24367142864E+02  0.20758788044E+01  0.95268635066E+02  0.98357408218E+02  0.00000000000E+00 0. -1.
        -12    1    5    5    0    0 -0.61239382913E+02 -0.44839421674E+02  0.14500396764E+04  0.14520247583E+04  0.00000000000E+00 0.  1.
          5    1    4    4  501    0  0.36012011928E+02 -0.48397155895E+02  0.75510789154E+02  0.96739347633E+02  0.41800000000E+01 0. -1.
         -5    1    4    4    0  501  0.93243591663E+02  0.31775466699E+01  0.47743762012E+03  0.48648598921E+03  0.41800000000E+01 0. -1.
</event>
<event>
11    1  0.7105277E-009  0.1411176E+03  0.7561462E-02  0.1106317E+00
         22   -1    0    0    0    0  0.00000000000E+00  0.00000000000E+00  0.28146598448E+03  0.28146598448E+03  0.00000000000E+00 0. -1.
         22   -1    0    0    0    0 -0.00000000000E+00 -0.00000000000E+00 -0.15758356014E+04  0.15758356014E+04  0.00000000000E+00 0. -1.
         24    2    1    2    0    0  0.10211173130E+02 -0.10721484413E+02 -0.15098662213E+04  0.15120942760E+04  0.80708580593E+02 0.  0.
         25    2    1    2    0    0 -0.61076762763E+02  0.47086789095E+02  0.50448403896E+02  0.15537551337E+03  0.12509585141E+03 0.  0.
        -24    2    1    2    0    0  0.50865589633E+02 -0.36365304682E+02  0.16504820046E+03  0.18983179654E+03  0.69896057898E+02 0.  0.
        -13    1    3    3    0    0  0.22881530364E+02 -0.13674517299E+02 -0.16300145774E+03  0.16516667969E+03  0.00000000000E+00 0.  1.
         14    1    3    3    0    0 -0.12670357234E+02  0.29530328852E+01 -0.13468647636E+04  0.13469275963E+04  0.00000000000E+00 0. -1.
         13    1    5    5    0    0  0.50981350643E+02 -0.54744066309E+02  0.14040273292E+03  0.15908783209E+03  0.00000000000E+00 0. -1.
        -14    1    5    5    0    0 -0.11576100937E+00  0.18378761628E+02  0.24645467542E+02  0.30743964448E+02  0.00000000000E+00 0.  1.
          5    1    4    4  501    0 -0.69338441330E+02  0.68403127374E+01 -0.20964972088E+02  0.72880805285E+02  0.41800000000E+01 0. -1.
         -5    1    4    4    0  501  0.82616785667E+01  0.40246476358E+02  0.71413375984E+02  0.82494708081E+02  0.41800000000E+01 0. -1.
</event>
<event>
11    1  0.7105277E-009  0.1570705E+03  0.7561462E-02  0.1089865E+00
         22   -1    0    0    0    0  0.00000000000E+00  0.00000000000E+00  0.24280053204E+03  0.24280053204E+03  0.00000000000E+00 0.  1.
         22   -1    0    0    0    0 -0.00000000000E+00 -0.00000000000E+00 -0.57961165478E+03  0.57961165478E+03  0.00000000000E+00 0. -1.
         24    2    1    2    0    0  0.27116775038E+01 -0.91535588901E+02 -0.42928602767E+03  0.44604469809E+03  0.79267029123E+02 0.  0.
         25    2    1    2    0    0 -0.67543654724E+02  0.11868926966E+03 -0.56210312464E+02  0.19353698810E+03  0.12509068115E+03 0.  0.
        -24    2    1    2    0    0  0.64831977221E+02 -0.27153680763E+02  0.14868521740E+03  0.18283050063E+03  0.79869834343E+02 0.  0.
        -13    1    3    3    0    0  0.32934293215E+02 -0.10870451647E+02 -0.10960311020E+03  0.11495945439E+03  0.00000000000E+00 0.  1.
         14    1    3    3    0    0 -0.30222615711E+02 -0.80665137254E+02 -0.31968291747E+03  0.33108524370E+03  0.00000000000E+00 0. -1.
         13    1    5    5    0    0 -0.58678486423E+01 -0.15775269952E+02  0.86088920800E+02  0.87718829645E+02  0.00000000000E+00 0. -1.
        -14    1    5    5    0    0  0.70699825863E+02 -0.11378410811E+02  0.62596296603E+02  0.95111670987E+02  0.00000000000E+00 0.  1.
          5    1    4    4  501    0  0.21670315873E+02  0.88005359893E+02 -0.29231260900E+02  0.95323055835E+02  0.41800000000E+01 0. -1.
         -5    1    4    4    0  501 -0.89213970597E+02  0.30683909771E+02 -0.26979051564E+02  0.98213932269E+02  0.41800000000E+01 0. -1.
</event>
<event>
11    1  0.7105277E-009  0.1706083E+03  0.7561462E-02  0.1077504E+00
         22   -1    0    0    0    0  0.00000000000E+00  0.00000000000E+00  0.43805337652E+03  0.43805337652E+03  0.00000000000E+00 0.  1.
         22   -1    0    0    0    0 -0.00000000000E+00 -0.00000000000E+00 -0.22528868924E+03  0.22528868924E+03  0.00000000000E+00 0. -1.
         24    2    1    2    0    0  0.10981964078E+03 -0.42457076934E+02 -0.13997738565E+03  0.19983929098E+03  0.80492961448E+02 0.  0.
         25    2    1    2    0    0 -0.11032182293E+03  0.11667310776E+02  0.95087447381E+02  0.19234436655E+03  0.12509077479E+03 0.  0.
        -24    2    1    2    0    0  0.50218214166E+00  0.30789766158E+02  0.25765462555E+03  0.27115840824E+03  0.78693801564E+02 0.  0.
        -11    1    3    3    0    0  0.54596452266E+02 -0.51127509988E+02 -0.38838981909E+02  0.84280848319E+02  0.00000000000E+00 0.  1.
         12    1    3    3    0    0  0.55223188518E+02  0.86704330536E+01 -0.10113840374E+03  0.11555844266E+03  0.00000000000E+00 0. -1.
         11    1    5    5    0    0  0.25323411601E+01  0.27251630469E+02  0.21073448649E+02  0.34542066425E+02  0.00000000000E+00 0. -1.
        -12    1    5    5    0    0 -0.20301590184E+01  0.35381356896E+01  0.23658117690E+03  0.23661634181E+03  0.00000000000E+00 0.  1.
          5    1    4    4  501    0  0.21167085187E+02  0.17722003517E+02  0.41821605385E+02  0.50285524567E+02  0.41800000000E+01 0.  1.
         -5    1    4    4    0  501 -0.13148890811E+03 -0.60546927413E+01  0.53265841996E+02  0.14205884198E+03  0.41800000000E+01 0.  1.
</event>
<event>
11    1  0.7105277E-009  0.2081786E+03  0.7561462E-02  0.1048886E+00
         22   -1    0    0    0    0  0.00000000000E+00  0.00000000000E+00  0.16333734252E+04  0.16333734252E+04  0.00000000000E+00 0. -1.
         22   -1    0    0    0    0 -0.00000000000E+00 -0.00000000000E+00 -0.87613871159E+03  0.87613871159E+03  0.00000000000E+00 0.  1.
         24    2    1    2    0    0 -0.81860589981E+02 -0.14596572851E+03 -0.75871137603E+03  0.78093865804E+03  0.78835812967E+02 0.  0.
         25    2    1    2    0    0 -0.63304415580E+02  0.20564910034E+03  0.52280797088E+02  0.25432201655E+03  0.12508958733E+03 0.  0.
        -24    2    1    2    0    0  0.14516500556E+03 -0.59683371827E+02  0.14636652926E+04  0.14742514622E+04  0.80413316493E+02 0.  0.
        -11    1    3    3    0    0 -0.51344538298E+02 -0.32862249874E+02 -0.36896582740E+03  0.37396787411E+03  0.00000000000E+00 0.  1.
         12    1    3    3    0    0 -0.30516051684E+02 -0.11310347863E+03 -0.38974554863E+03  0.40697078393E+03  0.00000000000E+00 0. -1.
         13    1    5    5    0    0  0.52823135310E+02 -0.57415197207E+02  0.86379905029E+03  0.86731516058E+03  0.00000000000E+00 0. -1.
        -14    1    5    5    0    0  0.92341870252E+02 -0.22681746208E+01  0.59986624231E+03  0.60693630167E+03  0.00000000000E+00 0.  1.
          5    1    4    4  501    0 -0.79119690880E+02  0.20583390344E+03  0.68835030083E+02  0.23104816610E+03  0.41800000000E+01 0. -1.
         -5    1    4    4    0  501  0.15815275300E+02 -0.18480310535E+00 -0.16554232994E+02  0.23273850456E+02  0.41800000000E+01 0. -1.
</event>
<event>
11    1  0.7105277E-009  0.1324137E+03  0.7561462E-02  0.1116338E+00
         22   -1    0    0    0    0  0.00000000000E+00  0.00000000000E+00  0.15069481544E+03  0.15069481544E+03  0.00000000000E+00 0. -1.
         22   -1    0    0    0    0 -0.00000000000E+00 -0.00000000000E+00 -0.43846495774E+03  0.43846495774E+03  0.00000000000E+00 0. -1.
        -24    2    1    2    0    0  0.20827901644E+02  0.36908823674E+01 -0.33278432938E+03  0.34198734025E+03  0.75911177775E+02 0.  0.
         25    2    1    2    0    0 -0.57160769591E+02 -0.16631757535E+02 -0.15603825456E+02  0.13940472976E+03  0.12508489266E+03 0.  0.
         24    2    1    2    0    0  0.36332867946E+02  0.12940875168E+02  0.60618012536E+02  0.10776770317E+03  0.80323040656E+02 0.  0.
        -13    1    5    5    0    0  0.89433772615E+01  0.16056760059E+02 -0.17224085001E+02  0.25188740432E+02  0.00000000000E+00 0.  1.
         14    1    5    5    0    0  0.27389490685E+02 -0.31158848910E+01  0.77842097537E+02  0.82578962742E+02  0.00000000000E+00 0. -1.
         11    1    3    3    0    0  0.43388205925E+02 -0.10239436229E+02 -0.27260134596E+03  0.27622251228E+03  0.00000000000E+00 0. -1.
        -12    1    3    3    0    0 -0.22560304280E+02  0.13930318596E+02 -0.60182983414E+02  0.65764827971E+02  0.00000000000E+00 0.  1.
          5    1    4    4  501    0 -0.81039321845E+02 -0.96564203534E+01  0.30194116692E+02  0.87119316009E+02  0.41800000000E+01 0. -1.
         -5    1    4    4    0  501  0.23878552254E+02 -0.69753371818E+01 -0.45797942147E+02  0.52285413754E+02  0.41800000000E+01 0. -1.
</event>
<event>
11    1  0.7105277E-009  0.1560358E+03  0.7561462E-02  0.1090866E+00
         22   -1    0    0    0    0  0.00000000000E+00  0.00000000000E+00  0.10694357715E+04  0.10694357715E+04  0.00000000000E+00 0.  1.
         22   -1    0    0    0    0 -0.00000000000E+00 -0.00000000000E+00 -0.38894736793E+03  0.38894736793E+03  0.00000000000E+00 0. -1.
        -24    2    1    2    0    0 -0.38965096362E+02  0.80834529410E+02 -0.27852007502E+03  0.30356948760E+03  0.80799144384E+02 0.  0.
         25    2    1    2    0    0  0.71045724216E+02 -0.92726185632E+02 -0.19661720093E+02  0.17227911955E+03  0.12509145200E+03 0.  0.
         24    2    1    2    0    0 -0.32080627854E+02  0.11891656222E+02  0.97867019865E+03  0.98253453225E+03  0.80051053506E+02 0.  0.
        -13    1    5    5    0    0  0.18966031382E+02  0.15751708081E+02  0.58903882060E+03  0.58955454271E+03  0.00000000000E+00 0.  1.
         14    1    5    5    0    0 -0.51046659236E+02 -0.38600518584E+01  0.38963137805E+03  0.39297998954E+03  0.00000000000E+00 0. -1.
         13    1    3    3    0    0 -0.33244812189E+02  0.89760512631E+02 -0.17465366716E+03  0.19916342691E+03  0.00000000000E+00 0. -1.
        -14    1    3    3    0    0 -0.57202841731E+01 -0.89259832210E+01 -0.10386640786E+03  0.10440606069E+03  0.00000000000E+00 0.  1.
          5    1    4    4  501    0  0.34251515750E+02  0.26826967312E+02  0.71347896513E+01  0.44285777962E+02  0.41800000000E+01 0.  1.
         -5    1    4    4    0  501  0.36794208466E+02 -0.11955315294E+03 -0.26796509744E+02  0.12799334158E+03  0.41800000000E+01 0.  1.
</event>
<event>
11    1  0.7105277E-009  0.1866787E+03  0.7561462E-02  0.1064365E+00
         22   -1    0    0    0    0  0.00000000000E+00  0.00000000000E+00  0.37096408613E+03  0.37096408613E+03  0.00000000000E+00 0.  1.
         22   -1    0    0    0    0 -0.00000000000E+00 -0.00000000000E+00 -0.18528596450E+04  0.18528596450E+04  0.00000000000E+00 0.  1.
         24    2    1    2    0    0 -0.41334274735E+02 -0.14918504301E+02 -0.17229062347E+04  0.17253167403E+04  0.79880390367E+02 0.  0.
         25    2    1    2    0    0 -0.97644720190E+02 -0.30480120573E+02 -0.44999750095E+02  0.16773644220E+03  0.12508799864E+03 0.  0.
        -24    2    1    2    0    0  0.13897899492E+03  0.45398624873E+02  0.28601042589E+03  0.33077054866E+03  0.78936657942E+02 0.  0.
        -11    1    3    3    0    0 -0.43227042006E+02  0.35023857533E+01 -0.16303243312E+04  0.16309010604E+04  0.00000000000E+00 0.  1.
         12    1    3    3    0    0  0.18927672710E+01 -0.18420890054E+02 -0.92581903434E+02  0.94415679851E+02  0.00000000000E+00 0. -1.
         11    1    5    5    0    0 -0.13390486501E+01  0.11088162579E+02  0.70165158998E+02  0.71048504122E+02  0.00000000000E+00 0. -1.
        -12    1    5    5    0    0  0.14031804358E+03  0.34310462294E+02  0.21584526690E+03  0.25972204453E+03  0.00000000000E+00 0.  1.
          5    1    4    4  501    0 -0.11254422303E+03  0.13110580524E+02 -0.19920256013E+02  0.11511897523E+03  0.41800000000E+01 0.  1.
         -5    1    4    4    0  501  0.14899502839E+02 -0.43590701097E+02 -0.25079494081E+02  0.52617466970E+02  0.41800000000E+01 0.  1.
</event>
<event>
11    1  0.7105277E-009  0.2702409E+03  0.7561462E-02  0.1013637E+00
         22   -1    0    0    0    0  0.00000000000E+00  0.00000000000E+00  0.10849692398E+04  0.10849692398E+04  0.00000000000E+00 0. -1.
         22   -1    0    0    0    0 -0.00000000000E+00 -0.00000000000E+00 -0.62919739142E+03  0.62919739142E+03  0.00000000000E+00 0.  1.
         24    2    1    2    0    0 -0.21896393073E+03 -0.38067651469E+02 -0.32099614229E+03  0.39863787615E+03  0.80493999070E+02 0.  0.
         25    2    1    2    0    0  0.28790211499E+03 -0.39491543932E+02 -0.17039305818E+03  0.35934792469E+03  0.12509966765E+03 0.  0.
        -24    2    1    2    0    0 -0.68938184259E+02  0.77559195401E+02  0.94716104880E+03  0.95618083033E+03  0.79998911797E+02 0.  0.
        -11    1    3    3    0    0 -0.15326272655E+03 -0.30660066864E+02 -0.28049205226E+03  0.32110013147E+03  0.00000000000E+00 0.  1.
         12    1    3    3    0    0 -0.65701204185E+02 -0.74075846045E+01 -0.40504090031E+02  0.77537744681E+02  0.00000000000E+00 0. -1.
         13    1    5    5    0    0 -0.47184509682E+02  0.65871925022E+02  0.89285095876E+03  0.89652011858E+03  0.00000000000E+00 0. -1.
        -14    1    5    5    0    0 -0.21753674577E+02  0.11687270379E+02  0.54310090040E+02  0.59660711752E+02  0.00000000000E+00 0.  1.
          5    1    4    4  501    0 -0.27854871640E+01 -0.17323037014E+02  0.54778568907E+01  0.18850089290E+02  0.41800000000E+01 0. -1.
         -5    1    4    4    0  501  0.29068760215E+03 -0.22168506918E+02 -0.17587091507E+03  0.34049783540E+03  0.41800000000E+01 0. -1.
</event>
<event>
11    1  0.7105277E-009  0.1467866E+03  0.7561462E-02  0.1100208E+00
         22   -1    0    0    0    0  0.00000000000E+00  0.00000000000E+00  0.72266010850E+03  0.72266010850E+03  0.00000000000E+00 0. -1.
         22   -1    0    0    0    0 -0.00000000000E+00 -0.00000000000E+00 -0.16051250520E+03  0.16051250520E+03  0.00000000000E+00 0. -1.
         24    2    1    2    0    0  0.46317615620E+01 -0.33816105161E+02 -0.95412104829E+02  0.12891295922E+03  0.79687509202E+02 0.  0.
         25    2    1    2    0    0 -0.42909068215E+02  0.96255570021E+02  0.11322926979E+03  0.19893216712E+03  0.12508723628E+03 0.  0.
        -24    2    1    2    0    0  0.38277306653E+02 -0.62439464860E+02  0.54433043834E+03  0.55532748737E+03  0.82031415614E+02 0.  0.
        -13    1    3    3    0    0 -0.72178172635E+01 -0.41366442751E+02 -0.11094026678E+02  0.43432210396E+02  0.00000000000E+00 0.  1.
         14    1    3    3    0    0  0.11849578826E+02  0.75503375901E+01 -0.84318078151E+02  0.85480748822E+02  0.00000000000E+00 0. -1.
         11    1    5    5    0    0  0.23117052340E+02  0.65292873247E+01  0.30102055187E+03  0.30197748649E+03  0.00000000000E+00 0. -1.
        -12    1    5    5    0    0  0.15160254313E+02 -0.68968752185E+02  0.24330988647E+03  0.25335000088E+03  0.00000000000E+00 0.  1.
          5    1    4    4  501    0 -0.78349769485E+02  0.34973974054E+02  0.33436799695E+02  0.92181110936E+02  0.41800000000E+01 0.  1.
         -5    1    4    4    0  501  0.35440701271E+02  0.61281595967E+02  0.79792470100E+02  0.10675105618E+03  0.41800000000E+01 0.  1.
</event>
<event>
11    1  0.7105277E-009  0.1621626E+03  0.7561462E-02  0.1085061E+00
         22   -1    0    0    0    0  0.00000000000E+00  0.00000000000E+00  0.80443055155E+03  0.80443055155E+03  0.00000000000E+00 0. -1.
         22   -1    0    0    0    0 -0.00000000000E+00 -0.00000000000E+00 -0.66824047791E+03  0.66824047791E+03  0.00000000000E+00 0. -1.
         24    2    1    2    0    0  0.38551307022E+02 -0.13453643902E+02 -0.53187810579E+03  0.53955260422E+03  0.80965977341E+02 0.  0.
         25    2    1    2    0    0  0.43137352716E+02  0.78054138996E+02 -0.80095327221E+02  0.17325429771E+03  0.12509400633E+03 0.  0.
        -24    2    1    2    0    0 -0.81688659738E+02 -0.64600495094E+02  0.74816350665E+03  0.75986412753E+03  0.82453614462E+02 0.  0.
        -11    1    3    3    0    0 -0.29063511835E+01  0.24467638637E+02 -0.68811419722E+02  0.73089833095E+02  0.00000000000E+00 0.  1.
         12    1    3    3    0    0  0.41457658206E+02 -0.37921282539E+02 -0.46306668607E+03  0.46646277112E+03  0.00000000000E+00 0. -1.
         11    1    5    5    0    0 -0.33135354161E+02 -0.36863479788E+02  0.59053011557E+03  0.59260668679E+03  0.00000000000E+00 0. -1.
        -12    1    5    5    0    0 -0.48553305576E+02 -0.27737015305E+02  0.15763339108E+03  0.16725744074E+03  0.00000000000E+00 0.  1.
          5    1    4    4  501    0  0.33677639831E+02  0.10111694324E+03 -0.20624880665E+02  0.10863552705E+03  0.41800000000E+01 0.  1.
         -5    1    4    4    0  501  0.94597128843E+01 -0.23062804248E+02 -0.59470446556E+02  0.64618770657E+02  0.41800000000E+01 0.  1.
</event>
<event>
11    1  0.7105277E-009  0.1291680E+03  0.7561462E-02  0.1120295E+00
         22   -1    0    0    0    0  0.00000000000E+00  0.00000000000E+00  0.44065344816E+03  0.44065344816E+03  0.00000000000E+00 0. -1.
         22   -1    0    0    0    0 -0.00000000000E+00 -0.00000000000E+00 -0.17329666386E+03  0.17329666386E+03  0.00000000000E+00 0. -1.
         24    2    1    2    0    0 -0.31569929333E+02  0.52150515367E+01 -0.13161815269E+03  0.15712288808E+03  0.79626670410E+02 0.  0.
         25    2    1    2    0    0  0.50575486084E+02  0.84366417655E+01  0.22270344380E+03  0.26052595464E+03  0.12509153627E+03 0.  0.
        -24    2    1    2    0    0 -0.19005556751E+02 -0.13651693302E+02  0.17627149320E+03  0.19630126929E+03  0.83156293173E+02 0.  0.
        -13    1    3    3    0    0  0.46361150397E+01  0.37606560337E+01  0.96139324699E+01  0.11316527471E+02  0.00000000000E+00 0.  1.
         14    1    3    3    0    0 -0.36206044373E+02  0.14543955031E+01 -0.14123208516E+03  0.14580636061E+03  0.00000000000E+00 0. -1.
         11    1    5    5    0    0 -0.42030570355E+02  0.11444639430E+02  0.13966751787E+03  0.14630298755E+03  0.00000000000E+00 0. -1.
        -12    1    5    5    0    0  0.23025013604E+02 -0.25096332732E+02  0.36603975325E+02  0.49998281747E+02  0.00000000000E+00 0.  1.
          5    1    4    4  501    0  0.37419142242E+02  0.53537320931E+02  0.52492595438E+02  0.83901024513E+02  0.41800000000E+01 0.  1.
         -5    1    4    4    0  501  0.13156343842E+02 -0.45100679165E+02  0.17021084836E+03  0.17662493013E+03  0.41800000000E+01 0.  1.
</event>
<event>
11    1  0.7105277E-009  0.1590759E+03  0.7561462E-02  0.1087950E+00
         22   -1    0    0    0    0  0.00000000000E+00  0.00000000000E+00  0.10874546398E+03  0.10874546398E+03  0.00000000000E+00 0.  1.
         22   -1    0    0    0    0 -0.00000000000E+00 -0.00000000000E+00 -0.16040705866E+04  0.16040705866E+04  0.00000000000E+00 0. -1.
         24    2    1    2    0    0 -0.28579862580E+02 -0.46648643455E+02 -0.11438501450E+04  0.11480127426E+04  0.80914760123E+02 0.  0.
         25    2    1    2    0    0 -0.22284152056E+02 -0.43688548021E+02 -0.40193181092E+03  0.42379552930E+03  0.12509275503E+03 0.  0.
        -24    2    1    2    0    0  0.50864014635E+02  0.90337191476E+02  0.50456833334E+02  0.14100777869E+03  0.81174783472E+02 0.  0.
        -11    1    3    3    0    0  0.89693781891E+00 -0.49179474576E+02 -0.33202240311E+03  0.33564609544E+03  0.00000000000E+00 0.  1.
         12    1    3    3    0    0 -0.29476800399E+02  0.25308311206E+01 -0.81182774187E+03  0.81236664711E+03  0.00000000000E+00 0. -1.
         11    1    5    5    0    0 -0.20751455858E+02  0.33420341258E+02  0.22664504730E+02  0.45400681765E+02  0.00000000000E+00 0. -1.
        -12    1    5    5    0    0  0.71615470494E+02  0.56916850217E+02  0.27792328604E+02  0.95607096923E+02  0.00000000000E+00 0.  1.
          5    1    4    4  501    0  0.49592441511E-01 -0.70369193253E+02 -0.11611371438E+03  0.13583700853E+03  0.41800000000E+01 0. -1.
         -5    1    4    4    0  501 -0.22333744497E+02  0.26680645232E+02 -0.28581809655E+03  0.28795852077E+03  0.41800000000E+01 0. -1.
</event>
<event>
11    1  0.7105277E-009  0.3280524E+03  0.7561462E-02  0.9889714E-01
         22   -1    0    0    0    0  0.00000000000E+00  0.00000000000E+00  0.16800139376E+03  0.16800139376E+03  0.00000000000E+00 0. -1.
         22   -1    0    0    0    0 -0.00000000000E+00 -0.00000000000E+00 -0.22466339783E+04  0.22466339783E+04  0.00000000000E+00 0.  1.
        -24    2    1    2    0    0 -0.60003656437E+02  0.27289794430E+03 -0.14305070135E+04  0.14597681948E+04  0.80617244806E+02 0.  0.
         25    2    1    2    0    0  0.13872156164E+03 -0.38158654970E+03 -0.67332882462E+03  0.79616035926E+03  0.12509054728E+03 0.  0.
         24    2    1    2    0    0 -0.78717905202E+02  0.10868860540E+03  0.25203253542E+02  0.15870681801E+03  0.80888370912E+02 0.  0.
        -13    1    5    5    0    0 -0.40422392129E+02  0.12827003953E+02 -0.18928236270E+02  0.46441144949E+02  0.00000000000E+00 0.  1.
         14    1    5    5    0    0 -0.38295513073E+02  0.95861601450E+02  0.44131489812E+02  0.11226567306E+03  0.00000000000E+00 0. -1.
         11    1    3    3    0    0  0.46401047246E+00  0.60470316135E+02 -0.17946806498E+03  0.18938231382E+03  0.00000000000E+00 0. -1.
        -12    1    3    3    0    0 -0.60467666909E+02  0.21242762816E+03 -0.12510389485E+04  0.12703858810E+04  0.00000000000E+00 0.  1.
          5    1    4    4  501    0  0.23498954736E+02 -0.39579349274E+01 -0.79077490846E+02  0.82695756125E+02  0.41800000000E+01 0. -1.
         -5    1    4    4    0  501  0.11522260690E+03 -0.37762861477E+03 -0.59425133378E+03  0.71346460314E+03  0.41800000000E+01 0. -1.
</event>
<event>
11    1  0.2008319E-008  0.1673686E+03  0.7561462E-02  0.1080345E+00
         22   -1    0    0    0    0  0.00000000000E+00  0.00000000000E+00  0.23771492510E+04  0.23771492510E+04  0.00000000000E+00 0. -1.
         22   -1    0    0    0    0 -0.00000000000E+00 -0.00000000000E+00 -0.18979710124E+03  0.18979710124E+03  0.00000000000E+00 0. -1.
        -24    2    1    2    0    0  0.38265723061E+02 -0.39369459011E+02 -0.10342453232E+03  0.14414254141E+03  0.84060802365E+02 0.  0.
         25    2    1    2    0    0  0.35588109263E+02  0.12231494390E+03  0.60636788145E+02  0.18855213018E+03  0.12509047405E+03 0.  0.
         24    2    1    2    0    0 -0.73853832324E+02 -0.82945484893E+02  0.22301398939E+04  0.22342516806E+04  0.77603375952E+02 0.  0.
        -11    1    5    5    0    0 -0.24382524184E+02  0.11535765805E+02  0.31901013881E+03  0.32014848125E+03  0.00000000000E+00 0.  1.
         12    1    5    5    0    0 -0.49471308140E+02 -0.94481250698E+02  0.19111297551E+04  0.19141031994E+04  0.00000000000E+00 0. -1.
         11    1    3    3    0    0 -0.80983093455E+01 -0.46377778610E+02 -0.77182729850E+02  0.90408267045E+02  0.00000000000E+00 0. -1.
        -12    1    3    3    0    0  0.46364032406E+02  0.70083195983E+01 -0.26241802468E+02  0.53734274363E+02  0.00000000000E+00 0.  1.
          5    1    4    4  501    0  0.39032369053E+02  0.11007191233E+03  0.95682569690E+02  0.15103634748E+03  0.41800000000E+01 0. -1.
         -5    1    4    4    0  501 -0.34442597905E+01  0.12243031573E+02 -0.35045781545E+02  0.37515782702E+02  0.41800000000E+01 0. -1.
</event>
<event>
11    1  0.7105277E-009  0.1393624E+03  0.7561462E-02  0.1108272E+00
         22   -1    0    0    0    0  0.00000000000E+00  0.00000000000E+00  0.12301361100E+04  0.12301361100E+04  0.00000000000E+00 0.  1.
         22   -1    0    0    0    0 -0.00000000000E+00 -0.00000000000E+00 -0.25672557813E+03  0.25672557813E+03  0.00000000000E+00 0.  1.
        -24    2    1    2    0    0  0.39079769584E+02  0.85072851443E+01 -0.17521329825E+03  0.19706353775E+03  0.80837712326E+02 0.  0.
         25    2    1    2    0    0 -0.99163354616E+02 -0.11017230440E+02  0.25341119220E+02  0.16201814038E+03  0.12511177092E+03 0.  0.
         24    2    1    2    0    0  0.60083585032E+02  0.25099452955E+01  0.11232827109E+04  0.11277800100E+04  0.80668242504E+02 0.  0.
        -11    1    5    5    0    0  0.71466910235E+02 -0.64563325365E+01  0.10744289662E+04  0.10768225513E+04  0.00000000000E+00 0.  1.
         12    1    5    5    0    0 -0.11383325203E+02  0.89662778319E+01  0.48853744678E+02  0.50957458726E+02  0.00000000000E+00 0. -1.
         13    1    3    3    0    0  0.17637419968E+02 -0.17302108193E+02 -0.72035055570E+01  0.25735812079E+02  0.00000000000E+00 0. -1.
        -14    1    3    3    0    0  0.21442349616E+02  0.25809393337E+02 -0.16800979269E+03  0.17132772567E+03  0.00000000000E+00 0.  1.
          5    1    4    4  501    0 -0.31862093762E+02  0.56199253364E+02  0.12705602501E+02  0.65973129625E+02  0.41800000000E+01 0. -1.
         -5    1    4    4    0  501 -0.67301260854E+02 -0.67216483804E+02  0.12635516718E+02  0.96045010752E+02  0.41800000000E+01 0. -1.
</event>
<event>
11    1  0.7105277E-009  0.1483870E+03  0.7561462E-02  0.1098538E+00
         22   -1    0    0    0    0  0.00000000000E+00  0.00000000000E+00  0.19188270434E+03  0.19188270434E+03  0.00000000000E+00 0.  1.
         22   -1    0    0    0    0 -0.00000000000E+00 -0.00000000000E+00 -0.38888290295E+03  0.38888290295E+03  0.00000000000E+00 0. -1.
         24    2    1    2    0    0  0.30891901200E+01 -0.16825600112E+02 -0.15107314093E+03  0.17220426280E+03  0.80861426517E+02 0.  0.
         25    2    1    2    0    0 -0.66995030889E+02  0.62658384650E+02 -0.17653097651E+03  0.23500213334E+03  0.12509360366E+03 0.  0.
        -24    2    1    2    0    0  0.63905840769E+02 -0.45832784539E+02  0.13060391884E+03  0.17355921114E+03  0.82950681331E+02 0.  0.
        -13    1    3    3    0    0 -0.21891966482E+02 -0.11938219789E+02 -0.69995399035E+01  0.25899282751E+02  0.00000000000E+00 0.  1.
         14    1    3    3    0    0  0.24981156602E+02 -0.48873803225E+01 -0.14407360103E+03  0.14630498004E+03  0.00000000000E+00 0. -1.
         13    1    5    5    0    0  0.19053465715E+02  0.16480103160E+02  0.40186316632E+01  0.25510346065E+02  0.00000000000E+00 0. -1.
        -14    1    5    5    0    0  0.44852375054E+02 -0.62312887698E+02  0.12658528718E+03  0.14804886508E+03  0.00000000000E+00 0.  1.
          5    1    4    4  501    0 -0.63028219733E+02  0.95995085241E+02 -0.16093245539E+03  0.19774817438E+03  0.41800000000E+01 0.  1.
         -5    1    4    4    0  501 -0.39668111557E+01 -0.33336700591E+02 -0.15598521121E+02  0.37253958960E+02  0.41800000000E+01 0.  1.
</event>
<event>
11    1  0.7105277E-009  0.2407625E+03  0.7561462E-02  0.1028939E+00
         22   -1    0    0    0    0  0.00000000000E+00  0.00000000000E+00  0.57694640425E+03  0.57694640425E+03  0.00000000000E+00 0. -1.
         22   -1    0    0    0    0 -0.00000000000E+00 -0.00000000000E+00 -0.41016529964E+03  0.41016529964E+03  0.00000000000E+00 0. -1.
         24    2    1    2    0    0 -0.15053869507E+03  0.14894316980E+03 -0.31244105834E+03  0.38583149458E+03  0.80003504462E+02 0.  0.
         25    2    1    2    0    0  0.17303583843E+03 -0.31077309303E+02  0.32232362663E+03  0.38787636325E+03  0.12509337452E+03 0.  0.
        -24    2    1    2    0    0 -0.22497143354E+02 -0.11786586050E+03  0.15689853632E+03  0.21340384606E+03  0.80780989626E+02 0.  0.
        -13    1    3    3    0    0 -0.18603196949E+02 -0.12065659668E+01 -0.53038990392E+01  0.19382107294E+02  0.00000000000E+00 0.  1.
         14    1    3    3    0    0 -0.13193549812E+03  0.15014973577E+03 -0.30713715930E+03  0.36644938728E+03  0.00000000000E+00 0. -1.
         13    1    5    5    0    0  0.31041976329E+00 -0.53253905325E+02  0.14212519178E+02  0.55118694598E+02  0.00000000000E+00 0. -1.
        -14    1    5    5    0    0 -0.22807563117E+02 -0.64611955177E+02  0.14268601714E+03  0.15828515147E+03  0.00000000000E+00 0.  1.
          5    1    4    4  501    0  0.17719904648E+03 -0.43358005878E+02  0.32614959631E+03  0.37372509993E+03  0.41800000000E+01 0. -1.
         -5    1    4    4    0  501 -0.41632080519E+01  0.12280696576E+02 -0.38259696718E+01  0.14151263321E+02  0.41800000000E+01 0. -1.
</event>
<event>
11    1  0.7105277E-009  0.2131100E+03  0.7561462E-02  0.1045621E+00
         22   -1    0    0    0    0  0.00000000000E+00  0.00000000000E+00  0.94910671617E+03  0.94910671617E+03  0.00000000000E+00 0. -1.
         22   -1    0    0    0    0 -0.00000000000E+00 -0.00000000000E+00 -0.11637295357E+04  0.11637295357E+04  0.00000000000E+00 0. -1.
        -24    2    1    2    0    0 -0.16410629406E+03 -0.44178534248E+02 -0.10599854159E+04  0.10765348174E+04  0.80470568949E+02 0.  0.
         25    2    1    2    0    0  0.22492149438E+03  0.53899579137E+02  0.95425133980E+02  0.27972783226E+03  0.12508741216E+03 0.  0.
         24    2    1    2    0    0 -0.60815200318E+02 -0.97210448888E+01  0.74993746238E+03  0.75657360224E+03  0.78768209500E+02 0.  0.
        -13    1    5    5    0    0 -0.40307184213E+02 -0.13746590893E+02  0.14131870631E+03  0.14759611991E+03  0.00000000000E+00 0.  1.
         14    1    5    5    0    0 -0.20508016104E+02  0.40255460039E+01  0.60861875607E+03  0.60897748233E+03  0.00000000000E+00 0. -1.
         11    1    3    3    0    0 -0.77282746850E+02 -0.48263818086E+02 -0.36801502599E+03  0.37912673139E+03  0.00000000000E+00 0. -1.
        -12    1    3    3    0    0 -0.86823547210E+02  0.40852838375E+01 -0.69197038994E+03  0.69740808603E+03  0.00000000000E+00 0.  1.
          5    1    4    4  501    0  0.22216159247E+03  0.68998718454E+02  0.11071220105E+03  0.25766501544E+03  0.41800000000E+01 0. -1.
         -5    1    4    4    0  501  0.27599019059E+01 -0.15099139317E+02 -0.15287067069E+02  0.22062816824E+02  0.41800000000E+01 0. -1.
</event>
<event>
11    1  0.7105277E-009  0.2028030E+03  0.7561462E-02  0.1052559E+00
         22   -1    0    0    0    0  0.00000000000E+00  0.00000000000E+00  0.32983560700E+04  0.32983560700E+04  0.00000000000E+00 0. -1.
         22   -1    0    0    0    0 -0.00000000000E+00 -0.00000000000E+00 -0.30791405581E+03  0.30791405581E+03  0.00000000000E+00 0.  1.
        -24    2    1    2    0    0 -0.17228840590E+03  0.77984958069E+01 -0.22221823303E+03  0.29353011406E+03  0.83874152311E+02 0.  0.
         25    2    1    2    0    0  0.89854291290E+02 -0.95276233383E+02  0.12125325827E+03  0.21794495579E+03  0.12508515820E+03 0.  0.
         24    2    1    2    0    0  0.82434114607E+02  0.87477737576E+02  0.30914069890E+04  0.30947950560E+04  0.80694047066E+02 0.  0.
        -11    1    5    5    0    0  0.21763290780E+02  0.31486701186E+02  0.33965544364E+03  0.34180531531E+03  0.00000000000E+00 0.  1.
         12    1    5    5    0    0  0.60670823827E+02  0.55991036390E+02  0.27517515453E+04  0.27529897407E+04  0.00000000000E+00 0. -1.
         11    1    3    3    0    0  0.62138604580E+01 -0.10144342557E+02 -0.19361612781E+02  0.22724255702E+02  0.00000000000E+00 0. -1.
        -12    1    3    3    0    0 -0.17850226636E+03  0.17942838364E+02 -0.20285662025E+03  0.27080585836E+03  0.00000000000E+00 0.  1.
          5    1    4    4  501    0  0.29467514604E+01  0.28047160973E+02  0.30883996753E+02  0.42031181737E+02  0.41800000000E+01 0.  1.
         -5    1    4    4    0  501  0.86907539830E+02 -0.12332339436E+03  0.90369261513E+02  0.17591377405E+03  0.41800000000E+01 0.  1.
</event>
<event>
11    1  0.7105277E-009  0.2677727E+03  0.7561462E-02  0.1014835E+00
         22   -1    0    0    0    0  0.00000000000E+00  0.00000000000E+00  0.10399521453E+04  0.10399521453E+04  0.00000000000E+00 0. -1.
         22   -1    0    0    0    0 -0.00000000000E+00 -0.00000000000E+00 -0.11787407324E+04  0.11787407324E+04  0.00000000000E+00 0. -1.
         24    2    1    2    0    0 -0.41003322554E+02 -0.23805481492E+02 -0.10258312874E+04  0.10301088752E+04  0.80910390317E+02 0.  0.
         25    2    1    2    0    0  0.15546253944E+03 -0.18350972521E+03  0.42662291842E+01  0.27112779201E+03  0.12509060106E+03 0.  0.
        -24    2    1    2    0    0 -0.11445921689E+03  0.20731520670E+03  0.88277647108E+03  0.91745621048E+03  0.79693745091E+02 0.  0.
        -11    1    3    3    0    0 -0.37209835960E+02 -0.32956952139E+02 -0.29127582381E+03  0.29548661243E+03  0.00000000000E+00 0.  1.
         12    1    3    3    0    0 -0.37934865946E+01  0.91514706473E+01 -0.73455546355E+03  0.73462226279E+03  0.00000000000E+00 0. -1.
         11    1    5    5    0    0 -0.11859429529E+03  0.14675663018E+03  0.69141151588E+03  0.71669519300E+03  0.00000000000E+00 0. -1.
        -12    1    5    5    0    0  0.41350783992E+01  0.60558576522E+02  0.19136495520E+03  0.20076101748E+03  0.00000000000E+00 0.  1.
          5    1    4    4  501    0  0.65972476173E+02 -0.28117895705E+02 -0.45439110383E+02  0.85000993074E+02  0.41800000000E+01 0. -1.
         -5    1    4    4    0  501  0.89490063271E+02 -0.15539182950E+03  0.49705339567E+02  0.18612679893E+03  0.41800000000E+01 0. -1.
</event>
<event>
11    1  0.7105277E-009  0.1556230E+03  0.7561462E-02  0.1091268E+00
         22   -1    0    0    0    0  0.00000000000E+00  0.00000000000E+00  0.48310096094E+03  0.48310096094E+03  0.00000000000E+00 0.  1.
         22   -1    0    0    0    0 -0.00000000000E+00 -0.00000000000E+00 -0.58973681938E+03  0.58973681938E+03  0.00000000000E+00 0.  1.
         24    2    1    2    0    0  0.58308525537E+02  0.44868066582E+02 -0.47616812135E+03  0.48832022672E+03  0.79420000525E+02 0.  0.
         25    2    1    2    0    0 -0.27807619927E+02 -0.13001791300E+03 -0.13449901440E+02  0.18304433816E+03  0.12508560452E+03 0.  0.
        -24    2    1    2    0    0 -0.30500905610E+02  0.85149846415E+02  0.38298216436E+03  0.40147321544E+03  0.79527372097E+02 0.  0.
        -13    1    3    3    0    0  0.17040724978E+02  0.21631146292E+02 -0.38124551649E+03  0.38223871683E+03  0.00000000000E+00 0.  1.
         14    1    3    3    0    0  0.41267800558E+02  0.23236920290E+02 -0.94922604859E+02  0.10608150989E+03  0.00000000000E+00 0. -1.
         13    1    5    5    0    0  0.76740469042E+00  0.60752458876E+02  0.11034206359E+03  0.12596357079E+03  0.00000000000E+00 0. -1.
        -14    1    5    5    0    0 -0.31268310300E+02  0.24397387538E+02  0.27264010076E+03  0.27550964465E+03  0.00000000000E+00 0.  1.
          5    1    4    4  501    0 -0.75457938485E+00 -0.11280510278E+02  0.45936198664E+02  0.47491326049E+02  0.41800000000E+01 0.  1.
         -5    1    4    4    0  501 -0.27053040542E+02 -0.11873740272E+03 -0.59386100104E+02  0.13555301211E+03  0.41800000000E+01 0.  1.
</event>
<event>
11    1  0.7105277E-009  0.1331007E+03  0.7561462E-02  0.1115517E+00
         22   -1    0    0    0    0  0.00000000000E+00  0.00000000000E+00  0.24928941039E+03  0.24928941039E+03  0.00000000000E+00 0.  1.
         22   -1    0    0    0    0 -0.00000000000E+00 -0.00000000000E+00 -0.16178607193E+04  0.16178607193E+04  0.00000000000E+00 0. -1.
        -24    2    1    2    0    0  0.29825360875E+02 -0.32483575547E+02 -0.14153903636E+04  0.14182035490E+04  0.77631759884E+02 0.  0.
         25    2    1    2    0    0 -0.34790791053E+02  0.66427679281E+02 -0.16460985803E+03  0.21992427255E+03  0.12508894667E+03 0.  0.
         24    2    1    2    0    0  0.49654301788E+01 -0.33944103735E+02  0.21142891267E+03  0.22902230820E+03  0.81068951294E+02 0.  0.
        -11    1    5    5    0    0  0.33296025116E+02 -0.19381297304E+02  0.18070278514E+03  0.18476405639E+03  0.00000000000E+00 0.  1.
         12    1    5    5    0    0 -0.28330594937E+02 -0.14562806430E+02  0.30726127528E+02  0.44258251813E+02  0.00000000000E+00 0. -1.
         13    1    3    3    0    0  0.31212836119E+02 -0.55647124093E+02 -0.11629432768E+04  0.11646921948E+04  0.00000000000E+00 0. -1.
        -14    1    3    3    0    0 -0.13874752447E+01  0.23163548547E+02 -0.25244708677E+03  0.25351135416E+03  0.00000000000E+00 0.  1.
          5    1    4    4  501    0  0.19576030244E+02 -0.36037715006E+01  0.11026413709E+02  0.23135737041E+02  0.41800000000E+01 0. -1.
         -5    1    4    4    0  501 -0.54366821298E+02  0.70031450782E+02 -0.17563627174E+03  0.19678853551E+03  0.41800000000E+01 0. -1.
</event>
<event>
11    1  0.7105277E-009  0.1326740E+03  0.7561462E-02  0.1116027E+00
         22   -1    0    0    0    0  0.00000000000E+00  0.00000000000E+00  0.20350164005E+03  0.20350164005E+03  0.00000000000E+00 0.  1.
         22   -1    0    0    0    0 -0.00000000000E+00 -0.00000000000E+00 -0.17089653511E+04  0.17089653511E+04  0.00000000000E+00 0.  1.
         24    2    1    2    0    0 -0.36678141059E+02  0.40343019397E+01 -0.83446840197E+03  0.83891127884E+03  0.77929829074E+02 0.  0.
         25    2    1    2    0    0  0.51494016055E+02 -0.45476025983E+02 -0.85540252168E+03  0.86722578059E+03  0.12508947919E+03 0.  0.
        -24    2    1    2    0    0 -0.14815874996E+02  0.41441724043E+02  0.18440721260E+03  0.20632993171E+03  0.81419248446E+02 0.  0.
        -13    1    3    3    0    0 -0.21103498538E+02  0.67199617408E+01 -0.80636196618E+03  0.80666606228E+03  0.00000000000E+00 0.  1.
         14    1    3    3    0    0 -0.15574642521E+02 -0.26856598012E+01 -0.28106435792E+02  0.32245216563E+02  0.00000000000E+00 0. -1.
         11    1    5    5    0    0 -0.23850083154E+02 -0.13205596906E+02  0.22949250016E+02  0.35635408408E+02  0.00000000000E+00 0. -1.
        -12    1    5    5    0    0  0.90342081585E+01  0.54647320949E+02  0.16145796258E+03  0.17069452330E+03  0.00000000000E+00 0.  1.
          5    1    4    4  501    0  0.37670034551E+02 -0.82289544697E+01 -0.78741859002E+03  0.78837317020E+03  0.41800000000E+01 0.  1.
         -5    1    4    4    0  501  0.13823981505E+02 -0.37247071513E+02 -0.67983931660E+02  0.78852610387E+02  0.41800000000E+01 0.  1.
</event>
<event>
11    1  0.7105277E-009  0.1672908E+03  0.7561462E-02  0.1080414E+00
         22   -1    0    0    0    0  0.00000000000E+00  0.00000000000E+00  0.95541795162E+03  0.95541795162E+03  0.00000000000E+00 0. -1.
         22   -1    0    0    0    0 -0.00000000000E+00 -0.00000000000E+00 -0.18272529258E+03  0.18272529258E+03  0.00000000000E+00 0. -1.
        -24    2    1    2    0    0  0.45290792375E+01 -0.47309644495E+02 -0.13382796315E+03  0.16438948944E+03  0.82796530705E+02 0.  0.
         25    2    1    2    0    0 -0.50426343902E+01 -0.74131441295E+02  0.17539346100E+03  0.22788509447E+03  0.12509137209E+03 0.  0.
         24    2    1    2    0    0  0.51355515276E+00  0.12144108579E+03  0.73112716119E+03  0.74586866029E+03  0.83814864489E+02 0.  0.
        -13    1    5    5    0    0  0.24548610250E+02  0.15836849274E+02  0.29709240937E+03  0.29852527492E+03  0.00000000000E+00 0.  1.
         14    1    5    5    0    0 -0.24035055097E+02  0.10560423652E+03  0.43403475182E+03  0.44734338537E+03  0.00000000000E+00 0. -1.
         13    1    3    3    0    0  0.27847395001E+02 -0.52902897884E+02 -0.12548676270E+03  0.13900043750E+03  0.00000000000E+00 0. -1.
        -14    1    3    3    0    0 -0.23318315763E+02  0.55932533895E+01 -0.83412004549E+01  0.25389051943E+02  0.00000000000E+00 0.  1.
          5    1    4    4  501    0  0.23337055420E+02  0.16003031682E+02  0.10804995623E+03  0.11177200284E+03  0.41800000000E+01 0. -1.
         -5    1    4    4    0  501 -0.28379689810E+02 -0.90134472977E+02  0.67343504769E+02  0.11611309163E+03  0.41800000000E+01 0. -1.
</event>
<event>
11    1  0.7105277E-009  0.1310611E+03  0.7561462E-02  0.1117972E+00
         22   -1    0    0    0    0  0.00000000000E+00  0.00000000000E+00  0.18440544641E+04  0.18440544641E+04  0.00000000000E+00 0. -1.
         22   -1    0    0    0    0 -0.00000000000E+00 -0.00000000000E+00 -0.13217260042E+03  0.13217260042E+03  0.00000000000E+00 0. -1.
         24    2    1    2    0    0  0.19496242053E+02 -0.10021674097E+00 -0.76332168815E+02  0.11680449469E+03  0.86235587119E+02 0.  0.
         25    2    1    2    0    0 -0.24930752908E+02  0.38754168850E+02  0.94545414147E+02  0.16342588635E+03  0.12508300024E+03 0.  0.
        -24    2    1    2    0    0  0.54345108548E+01 -0.38653952109E+02  0.16936686184E+04  0.16959966835E+04  0.79797867857E+02 0.  0.
        -13    1    3    3    0    0  0.27800449319E+02 -0.68309562211E-01  0.10395198606E+02  0.29680461630E+02  0.00000000000E+00 0.  1.
         14    1    3    3    0    0 -0.83042072659E+01 -0.31907178759E-01 -0.86727367422E+02  0.87124033058E+02  0.00000000000E+00 0. -1.
         13    1    5    5    0    0 -0.26157598535E+02 -0.45332623674E+02  0.12800603245E+04  0.12811298533E+04  0.00000000000E+00 0. -1.
        -14    1    5    5    0    0  0.31592109390E+02  0.66786715646E+01  0.41360829389E+03  0.41486683020E+03  0.00000000000E+00 0.  1.
          5    1    4    4  501    0  0.41781308566E+01 -0.43444444491E+02  0.45947775095E+02  0.63510211547E+02  0.41800000000E+01 0.  1.
         -5    1    4    4    0  501 -0.29108883764E+02  0.82198613341E+02  0.48597639053E+02  0.99915674800E+02  0.41800000000E+01 0.  1.
</event>
<event>
11    1  0.7105277E-009  0.1350751E+03  0.7561462E-02  0.1113186E+00
         22   -1    0    0    0    0  0.00000000000E+00  0.00000000000E+00  0.78354006200E+03  0.78354006200E+03  0.00000000000E+00 0.  1.
         22   -1    0    0    0    0 -0.00000000000E+00 -0.00000000000E+00 -0.10705758639E+04  0.10705758639E+04  0.00000000000E+00 0.  1.
         24    2    1    2    0    0 -0.14167575935E+02  0.48884260835E+02 -0.10366416974E+04  0.10410178528E+04  0.80633552599E+02 0.  0.
         25    2    1    2    0    0  0.81030519244E+01 -0.58783188631E+02  0.13802414556E+03  0.19549003527E+03  0.12507824118E+03 0.  0.
        -24    2    1    2    0    0  0.60645240106E+01  0.98989277953E+01  0.61158175000E+03  0.61760803781E+03  0.85280034090E+02 0.  0.
        -13    1    3    3    0    0 -0.44877653113E+02  0.39340939186E+02 -0.79645406033E+03  0.79868691204E+03  0.00000000000E+00 0.  1.
         14    1    3    3    0    0  0.30710077178E+02  0.95433216493E+01 -0.24018763711E+03  0.24233094076E+03  0.00000000000E+00 0. -1.
         13    1    5    5    0    0 -0.44903921141E+01 -0.31535273271E+02  0.11951120083E+03  0.12368332226E+03  0.00000000000E+00 0. -1.
        -14    1    5    5    0    0  0.10554916125E+02  0.41434201066E+02  0.49207054916E+03  0.49392471555E+03  0.00000000000E+00 0.  1.
          5    1    4    4  501    0  0.57923742544E+02 -0.18876727329E+02  0.25753024321E+02  0.66273535040E+02  0.41800000000E+01 0. -1.
         -5    1    4    4    0  501 -0.49820690620E+02 -0.39906461302E+02  0.11227112124E+03  0.12921650023E+03  0.41800000000E+01 0. -1.
</event>
<event>
11    1  0.7105277E-009  0.1440451E+03  0.7561462E-02  0.1103124E+00
         22   -1    0    0    0    0  0.00000000000E+00  0.00000000000E+00  0.87078345765E+03  0.87078345765E+03  0.00000000000E+00 0.  1.
         22   -1    0    0    0    0 -0.00000000000E+00 -0.00000000000E+00 -0.19052644453E+03  0.19052644453E+03  0.00000000000E+00 0.  1.
         24    2    1    2    0    0 -0.77162722464E+00  0.79466140414E+02 -0.14113408313E+03  0.18138281653E+03  0.81642108194E+02 0.  0.
         25    2    1    2    0    0  0.23288171743E+01 -0.87153833921E+01  0.13162613637E+03  0.18180987272E+03  0.12509200112E+03 0.  0.
        -24    2    1    2    0    0 -0.15571899497E+01 -0.70750757021E+02  0.68976495988E+03  0.69811721294E+03  0.81140918546E+02 0.  0.
        -11    1    3    3    0    0 -0.18547117675E+02  0.63827546174E+02 -0.14294027604E+03  0.15763842723E+03  0.00000000000E+00 0.  1.
         12    1    3    3    0    0  0.17775490450E+02  0.15638594239E+02  0.18061929088E+01  0.23744389302E+02  0.00000000000E+00 0. -1.
         13    1    5    5    0    0 -0.28487939798E+02  0.18801606781E+01  0.13632672365E+03  0.13928414590E+03  0.00000000000E+00 0. -1.
        -14    1    5    5    0    0  0.26930749848E+02 -0.72630917700E+02  0.55343823623E+03  0.55883306703E+03  0.00000000000E+00 0.  1.
          5    1    4    4  501    0 -0.14636439632E+02 -0.18137336469E+02 -0.18704145907E+02  0.30174588869E+02  0.41800000000E+01 0. -1.
         -5    1    4    4    0  501  0.16965256806E+02  0.94219530772E+01  0.15033028228E+03  0.15163528385E+03  0.41800000000E+01 0. -1.
</event>
<event>
11    1  0.7105277E-009  0.2073954E+03  0.7561462E-02  0.1049414E+00
         22   -1    0    0    0    0  0.00000000000E+00  0.00000000000E+00  0.32525893320E+03  0.32525893320E+03  0.00000000000E+00 0.  1.
         22   -1    0    0    0    0 -0.00000000000E+00 -0.00000000000E+00 -0.16116586238E+04  0.16116586238E+04  0.00000000000E+00 0.  1.
         24    2    1    2    0    0 -0.46108085393E+02  0.16296689618E+03 -0.14921818089E+04  0.15041818179E+04  0.85277344609E+02 0.  0.
         25    2    1    2    0    0  0.18285651926E+02 -0.11794251439E+03 -0.32459973121E+02  0.17590175276E+03  0.12507187934E+03 0.  0.
        -24    2    1    2    0    0  0.27822433467E+02 -0.45024381793E+02  0.23824209150E+03  0.25683398633E+03  0.80019495194E+02 0.  0.
        -13    1    3    3    0    0 -0.59730137492E+02  0.15352107804E+03 -0.11659974897E+04  0.11775765609E+04  0.00000000000E+00 0.  1.
         14    1    3    3    0    0  0.13622052099E+02  0.94458181369E+01 -0.32618431922E+03  0.32660525699E+03  0.00000000000E+00 0. -1.
         13    1    5    5    0    0  0.37904906307E+00 -0.39680171159E+02  0.38996123567E+02  0.55635935462E+02  0.00000000000E+00 0. -1.
        -14    1    5    5    0    0  0.27443384404E+02 -0.53442106332E+01  0.19924596794E+03  0.20119805087E+03  0.00000000000E+00 0.  1.
          5    1    4    4  501    0  0.24858485482E+02 -0.10411035515E+03  0.30174097433E+02  0.11128728097E+03  0.41800000000E+01 0. -1.
         -5    1    4    4    0  501 -0.65728335562E+01 -0.13832159239E+02 -0.62634070554E+02  0.64614471787E+02  0.41800000000E+01 0. -1.
</event>
<event>
11    1  0.7105277E-009  0.2107882E+03  0.7561462E-02  0.1047146E+00
         22   -1    0    0    0    0  0.00000000000E+00  0.00000000000E+00  0.53215477673E+03  0.53215477673E+03  0.00000000000E+00 0. -1.
         22   -1    0    0    0    0 -0.00000000000E+00 -0.00000000000E+00 -0.16315944091E+04  0.16315944091E+04  0.00000000000E+00 0.  1.
        -24    2    1    2    0    0  0.14953311213E+03 -0.70327232458E+01 -0.10224920042E+04  0.10366457947E+04  0.82067009654E+02 0.  0.
         25    2    1    2    0    0 -0.28869988348E+03 -0.51419245304E+01 -0.54653310451E+03  0.63065038964E+03  0.12508963797E+03 0.  0.
         24    2    1    2    0    0  0.13916677135E+03  0.12174647776E+02  0.46958547630E+03  0.49645300157E+03  0.80246189435E+02 0.  0.
        -13    1    5    5    0    0  0.59297447887E+02  0.24319279033E+02  0.32089686553E+03  0.32723449233E+03  0.00000000000E+00 0.  1.
         14    1    5    5    0    0  0.79869323465E+02 -0.12144631257E+02  0.14868861077E+03  0.16921850925E+03  0.00000000000E+00 0. -1.
         13    1    3    3    0    0  0.71373352478E+01  0.22238681401E+02 -0.94927237134E+02  0.97758277679E+02  0.00000000000E+00 0. -1.
        -14    1    3    3    0    0  0.14239577688E+03 -0.29271404647E+02 -0.92756476708E+03  0.93888751698E+03  0.00000000000E+00 0.  1.
          5    1    4    4  501    0 -0.35663714150E+02  0.40252459223E+02 -0.13531641502E+03  0.14567143012E+03  0.41800000000E+01 0. -1.
         -5    1    4    4    0  501 -0.25303616933E+03 -0.45394383753E+02 -0.41121668949E+03  0.48497895952E+03  0.41800000000E+01 0. -1.
</event>
<event>
11    1  0.7105277E-009  0.3272234E+03  0.7561462E-02  0.9892855E-01
         22   -1    0    0    0    0  0.00000000000E+00  0.00000000000E+00  0.67277494523E+03  0.67277494523E+03  0.00000000000E+00 0. -1.
         22   -1    0    0    0    0 -0.00000000000E+00 -0.00000000000E+00 -0.45547428244E+03  0.45547428244E+03  0.00000000000E+00 0.  1.
        -24    2    1    2    0    0  0.20373672383E+03  0.23364358228E+03 -0.29955844638E+03  0.43868386236E+03  0.81303702998E+02 0.  0.
         25    2    1    2    0    0 -0.11950253516E+03 -0.24969027037E+03  0.23548282544E+03  0.38435092827E+03  0.12508951980E+03 0.  0.
         24    2    1    2    0    0 -0.84234188675E+02  0.16046688089E+02  0.28137628373E+03  0.30521443703E+03  0.81426929136E+02 0.  0.
        -11    1    5    5    0    0 -0.89181167744E+02  0.26534812929E+02  0.17490888781E+03  0.19811737938E+03  0.00000000000E+00 0.  1.
         12    1    5    5    0    0  0.49469790686E+01 -0.10488124840E+02  0.10646739591E+03  0.10709705765E+03  0.00000000000E+00 0. -1.
         11    1    3    3    0    0  0.13757572305E+01  0.30406806446E+02 -0.49852073841E+02  0.58409723955E+02  0.00000000000E+00 0. -1.
        -12    1    3    3    0    0  0.20236096660E+03  0.20323677583E+03 -0.24970637254E+03  0.38027413841E+03  0.00000000000E+00 0.  1.
          5    1    4    4  501    0 -0.70530997584E+02 -0.13428992918E+03  0.48710994534E+02  0.15936950802E+03  0.41800000000E+01 0. -1.
         -5    1    4    4    0  501 -0.48971537574E+02 -0.11540034119E+03  0.18677183091E+03  0.22498142025E+03  0.41800000000E+01 0. -1.
</event>
<event>
11    1  0.7105277E-009  0.1594664E+03  0.7561462E-02  0.1087580E+00
         22   -1    0    0    0    0  0.00000000000E+00  0.00000000000E+00  0.43517340116E+02  0.43517340116E+02  0.00000000000E+00 0.  1.
         22   -1    0    0    0    0 -0.00000000000E+00 -0.00000000000E+00 -0.10530580983E+04  0.10530580983E+04  0.00000000000E+00 0. -1.
         24    2    1    2    0    0  0.13564184711E+03 -0.12873971483E+02 -0.50371550929E+03  0.52813685981E+03  0.81454150032E+02 0.  0.
         25    2    1    2    0    0 -0.58311287301E+02 -0.41589282613E+01 -0.34192126940E+03  0.36874770722E+03  0.12508882526E+03 0.  0.
        -24    2    1    2    0    0 -0.77330559812E+02  0.17032899745E+02 -0.16390397947E+03  0.19969087136E+03  0.82108431140E+02 0.  0.
        -11    1    3    3    0    0 -0.10744821913E+02 -0.87634892559E+00 -0.21541772776E+02  0.24088735121E+02  0.00000000000E+00 0.  1.
         12    1    3    3    0    0  0.14638666903E+03 -0.11997622558E+02 -0.48217373651E+03  0.50404812469E+03  0.00000000000E+00 0. -1.
         13    1    5    5    0    0 -0.28980124907E+01  0.85228320791E+01 -0.10230660887E+03  0.10270189561E+03  0.00000000000E+00 0. -1.
        -14    1    5    5    0    0 -0.74432547321E+02  0.85100676654E+01 -0.61597370594E+02  0.96988975747E+02  0.00000000000E+00 0.  1.
          5    1    4    4  501    0 -0.54340383491E+02 -0.55886605208E+02 -0.26192306671E+03  0.27330816892E+03  0.41800000000E+01 0.  1.
         -5    1    4    4    0  501 -0.39709038093E+01  0.51727676946E+02 -0.79998202683E+02  0.95439538305E+02  0.41800000000E+01 0.  1.
</event>
<event>
11    1  0.7105277E-009  0.1390260E+03  0.7561462E-02  0.1108651E+00
         22   -1    0    0    0    0  0.00000000000E+00  0.00000000000E+00  0.44471720909E+03  0.44471720909E+03  0.00000000000E+00 0. -1.
         22   -1    0    0    0    0 -0.00000000000E+00 -0.00000000000E+00 -0.23629723108E+03  0.23629723108E+03  0.00000000000E+00 0. -1.
         24    2    1    2    0    0  0.43060431067E+02  0.14715821678E+02 -0.12281249670E+03  0.15405028282E+03  0.81103786349E+02 0.  0.
         25    2    1    2    0    0 -0.75352458309E+02  0.35645910122E+02 -0.28898421411E+02  0.15307301652E+03  0.12509039030E+03 0.  0.
        -24    2    1    2    0    0  0.32292027242E+02 -0.50361731800E+02  0.36013089612E+03  0.37389114082E+03  0.80754218442E+02 0.  0.
        -11    1    3    3    0    0  0.33464067958E+02 -0.16275818336E+02 -0.12797547505E+02  0.39351281160E+02  0.00000000000E+00 0.  1.
         12    1    3    3    0    0  0.95963631085E+01  0.30991640013E+02 -0.11001494920E+03  0.11469900166E+03  0.00000000000E+00 0. -1.
         11    1    5    5    0    0  0.27076885760E+02 -0.59920233518E+02  0.35634851101E+03  0.36236425517E+03  0.00000000000E+00 0. -1.
        -12    1    5    5    0    0  0.52151414825E+01  0.95585017187E+01  0.37823851088E+01  0.11526885655E+02  0.00000000000E+00 0.  1.
          5    1    4    4  501    0 -0.68334741405E+02  0.44339484183E+02 -0.71724684723E+02  0.10861643310E+03  0.41800000000E+01 0. -1.
         -5    1    4    4    0  501 -0.70177169031E+01 -0.86935740610E+01  0.42826263312E+02  0.44456583425E+02  0.41800000000E+01 0. -1.
</event>
<event>
11    1  0.7105277E-009  0.1431357E+03  0.7561462E-02  0.1104107E+00
         22   -1    0    0    0    0  0.00000000000E+00  0.00000000000E+00  0.38283031551E+03  0.38283031551E+03  0.00000000000E+00 0. -1.
         22   -1    0    0    0    0 -0.00000000000E+00 -0.00000000000E+00 -0.24827196938E+03  0.24827196938E+03  0.00000000000E+00 0. -1.
        -24    2    1    2    0    0 -0.23301219852E+02 -0.58527283320E+02 -0.14866609089E+03  0.18069093024E+03  0.81112366219E+02 0.  0.
         25    2    1    2    0    0  0.68326111223E+02  0.87734446149E+02  0.17785553956E+02  0.16831355183E+03  0.12508930923E+03 0.  0.
         24    2    1    2    0    0 -0.45024891371E+02 -0.29207162829E+02  0.26543888306E+03  0.28209780281E+03  0.79000446239E+02 0.  0.
        -13    1    5    5    0    0 -0.18842808293E+01  0.39306462484E+01 -0.47733790122E+01  0.64641814152E+01  0.00000000000E+00 0.  1.
         14    1    5    5    0    0 -0.43140610541E+02 -0.33137809077E+02  0.27021226208E+03  0.27563362140E+03  0.00000000000E+00 0. -1.
         13    1    3    3    0    0 -0.49686460524E+02 -0.38274129653E+02 -0.63463724760E+02  0.89226104479E+02  0.00000000000E+00 0. -1.
        -14    1    3    3    0    0  0.26385240672E+02 -0.20253153667E+02 -0.85202366126E+02  0.91464825765E+02  0.00000000000E+00 0.  1.
          5    1    4    4  501    0  0.10029136769E+03  0.40546625477E+02 -0.66565069553E+00  0.10826034714E+03  0.41800000000E+01 0. -1.
         -5    1    4    4    0  501 -0.31965256470E+02  0.47187820672E+02  0.18451204651E+02  0.60053204694E+02  0.41800000000E+01 0. -1.
</event>
<event>
11    1  0.7105277E-009  0.1624400E+03  0.7561462E-02  0.1084805E+00
         22   -1    0    0    0    0  0.00000000000E+00  0.00000000000E+00  0.73394713269E+03  0.73394713269E+03  0.00000000000E+00 0. -1.
         22   -1    0    0    0    0 -0.00000000000E+00 -0.00000000000E+00 -0.19445483186E+03  0.19445483186E+03  0.00000000000E+00 0.  1.
         24    2    1    2    0    0 -0.29252051770E+02 -0.66600639388E+02 -0.11705834101E+03  0.16267354862E+03  0.86421643816E+02 0.  0.
         25    2    1    2    0    0 -0.54454515893E+02  0.12395182310E+03  0.13115710414E+03  0.22622940858E+03  0.12509280790E+03 0.  0.
        -24    2    1    2    0    0  0.83706567663E+02 -0.57351183712E+02  0.52539353770E+03  0.53949900736E+03  0.68737629768E+02 0.  0.
        -13    1    3    3    0    0  0.23425855567E+02  0.33627856046E+01 -0.37565060621E+02  0.44398342486E+02  0.00000000000E+00 0.  1.
         14    1    3    3    0    0 -0.52677907337E+02 -0.69963424992E+02 -0.79493280389E+02  0.11827520613E+03  0.00000000000E+00 0. -1.
         11    1    5    5    0    0  0.77637008737E+02 -0.66231735259E+02  0.51316150214E+03  0.52321016348E+03  0.00000000000E+00 0. -1.
        -12    1    5    5    0    0  0.60695589257E+01  0.88805515475E+01  0.12232035552E+02  0.16288843884E+02  0.00000000000E+00 0.  1.
          5    1    4    4  501    0 -0.60830263036E+02  0.38318467453E+01  0.63663170220E+02  0.88235342085E+02  0.41800000000E+01 0. -1.
         -5    1    4    4    0  501  0.63757471430E+01  0.12011997635E+03  0.67493933921E+02  0.13799406649E+03  0.41800000000E+01 0. -1.
</event>
<event>
11    1  0.7105277E-009  0.1409988E+03  0.7561462E-02  0.1106448E+00
         22   -1    0    0    0    0  0.00000000000E+00  0.00000000000E+00  0.50097931833E+03  0.50097931833E+03  0.00000000000E+00 0. -1.
         22   -1    0    0    0    0 -0.00000000000E+00 -0.00000000000E+00 -0.61096039677E+03  0.61096039677E+03  0.00000000000E+00 0. -1.
        -24    2    1    2    0    0  0.61287144971E+02  0.16385876505E+02 -0.54820429673E+03  0.55795008899E+03  0.82193307266E+02 0.  0.
         25    2    1    2    0    0 -0.10418304991E+03 -0.31978968256E+02  0.80110579495E+02  0.18423562657E+03  0.12509316068E+03 0.  0.
         24    2    1    2    0    0  0.42895904943E+02  0.15593091751E+02  0.35811263880E+03  0.36975399954E+03  0.79938444685E+02 0.  0.
        -13    1    5    5    0    0  0.37770337415E+01 -0.28145236306E+02  0.17994403692E+03  0.18217100958E+03  0.00000000000E+00 0.  1.
         14    1    5    5    0    0  0.39118871202E+02  0.43738328057E+02  0.17816860188E+03  0.18758298996E+03  0.00000000000E+00 0. -1.
         11    1    3    3    0    0  0.67118735915E+02  0.50934290953E+01 -0.53639238730E+03  0.54059935339E+03  0.00000000000E+00 0. -1.
        -12    1    3    3    0    0 -0.58315909440E+01  0.11292447410E+02 -0.11811909433E+02  0.17350735601E+02  0.00000000000E+00 0.  1.
          5    1    4    4  501    0 -0.80124305067E+02  0.32962453267E+02  0.74997053043E+02  0.11466672557E+03  0.41800000000E+01 0.  1.
         -5    1    4    4    0  501 -0.24058744847E+02 -0.64941421522E+02  0.51135264528E+01  0.69568900996E+02  0.41800000000E+01 0.  1.
</event>
<event>
11    1  0.7105277E-009  0.1857536E+03  0.7561462E-02  0.1065082E+00
         22   -1    0    0    0    0  0.00000000000E+00  0.00000000000E+00  0.18066775477E+03  0.18066775477E+03  0.00000000000E+00 0. -1.
         22   -1    0    0    0    0 -0.00000000000E+00 -0.00000000000E+00 -0.41304103537E+03  0.41304103537E+03  0.00000000000E+00 0. -1.
        -24    2    1    2    0    0  0.52736174030E+02  0.17266073502E+02 -0.21461263051E+03  0.23544112990E+03  0.79339291180E+02 0.  0.
         25    2    1    2    0    0 -0.97173193942E+02  0.11075632989E+03 -0.42821272021E+02  0.19796280564E+03  0.12508403914E+03 0.  0.
         24    2    1    2    0    0  0.44437019912E+02 -0.12802240339E+03  0.25060621929E+02  0.16030485461E+03  0.81885451277E+02 0.  0.
        -11    1    5    5    0    0  0.17274988291E+02 -0.41166990108E+02  0.48916314273E+02  0.66226521101E+02  0.00000000000E+00 0.  1.
         12    1    5    5    0    0  0.27162031621E+02 -0.86855413283E+02 -0.23855692344E+02  0.94078333508E+02  0.00000000000E+00 0. -1.
         11    1    3    3    0    0  0.54569541304E+02 -0.20001129576E+02 -0.11064383093E+03  0.12497974774E+03  0.00000000000E+00 0. -1.
        -12    1    3    3    0    0 -0.18333672730E+01  0.37267203078E+02 -0.10396879958E+03  0.11046138215E+03  0.00000000000E+00 0.  1.
          5    1    4    4  501    0 -0.77149782239E+02  0.14100545816E+02  0.19794255207E+02  0.80995056831E+02  0.41800000000E+01 0.  1.
         -5    1    4    4    0  501 -0.20023411703E+02  0.96655784074E+02 -0.62615527228E+02  0.11696774881E+03  0.41800000000E+01 0.  1.
</event>
<event>
11    1  0.7105277E-009  0.1285365E+03  0.7561462E-02  0.1121080E+00
         22   -1    0    0    0    0  0.00000000000E+00  0.00000000000E+00  0.34292152065E+03  0.34292152065E+03  0.00000000000E+00 0.  1.
         22   -1    0    0    0    0 -0.00000000000E+00 -0.00000000000E+00 -0.47731327601E+03  0.47731327601E+03  0.00000000000E+00 0. -1.
        -24    2    1    2    0    0  0.33157825255E+02  0.34911831420E+01 -0.42315482532E+03  0.43194992131E+03  0.80056846047E+02 0.  0.
         25    2    1    2    0    0  0.10667841469E+01  0.31217628424E+01  0.51794670568E+02  0.13543071300E+03  0.12509159321E+03 0.  0.
         24    2    1    2    0    0 -0.34224609402E+02 -0.66129459843E+01  0.23696839940E+03  0.25285416235E+03  0.81031784881E+02 0.  0.
        -11    1    5    5    0    0 -0.52367527969E+02 -0.20073305014E+02  0.21150409691E+03  0.21881334185E+03  0.00000000000E+00 0.  1.
         12    1    5    5    0    0  0.18142918567E+02  0.13460359030E+02  0.25464302485E+02  0.34040820501E+02  0.00000000000E+00 0. -1.
         13    1    3    3    0    0  0.11285520428E+02  0.23009596050E+02 -0.37282728207E+03  0.37370708682E+03  0.00000000000E+00 0. -1.
        -14    1    3    3    0    0  0.21872304827E+02 -0.19518412908E+02 -0.50327543241E+02  0.58242834491E+02  0.00000000000E+00 0.  1.
          5    1    4    4  501    0  0.37084195714E+02 -0.17464471689E+02  0.76553926273E+02  0.86938031787E+02  0.41800000000E+01 0.  1.
         -5    1    4    4    0  501 -0.36017411568E+02  0.20586234531E+02 -0.24759255705E+02  0.48492681213E+02  0.41800000000E+01 0.  1.
</event>
<event>
11    1  0.1537319E-008  0.2060487E+03  0.7561462E-02  0.1050327E+00
         22   -1    0    0    0    0  0.00000000000E+00  0.00000000000E+00  0.86783189069E+03  0.86783189069E+03  0.00000000000E+00 0.  1.
         22   -1    0    0    0    0 -0.00000000000E+00 -0.00000000000E+00 -0.25755231177E+04  0.25755231177E+04  0.00000000000E+00 0.  1.
        -24    2    1    2    0    0  0.74531670448E+02 -0.68706580783E+02 -0.21202114084E+04  0.21241987505E+04  0.81537422892E+02 0.  0.
         25    2    1    2    0    0  0.21566728975E+02 -0.66533036604E+02 -0.43179864497E+03  0.45496126086E+03  0.12509160774E+03 0.  0.
         24    2    1    2    0    0 -0.96098399423E+02  0.13523961739E+03  0.84431882635E+03  0.86419499701E+03  0.80212566594E+02 0.  0.
        -11    1    5    5    0    0  0.87775880255E+01  0.17955472302E+02  0.19779495114E+03  0.19880213212E+03  0.00000000000E+00 0.  1.
         12    1    5    5    0    0 -0.10487598745E+03  0.11728414509E+03  0.64652387521E+03  0.66539286489E+03  0.00000000000E+00 0. -1.
         11    1    3    3    0    0  0.43843937128E+02 -0.70270603133E+02 -0.95581643653E+03  0.95939840986E+03  0.00000000000E+00 0. -1.
        -12    1    3    3    0    0  0.30687733320E+02  0.15640223491E+01 -0.11643949719E+04  0.11648003407E+04  0.00000000000E+00 0.  1.
          5    1    4    4  501    0  0.71074552516E+02 -0.54883240273E+02 -0.23365366674E+03  0.25035029551E+03  0.41800000000E+01 0.  1.
         -5    1    4    4    0  501 -0.49507823541E+02 -0.11649796331E+02 -0.19814497823E+03  0.20461096536E+03  0.41800000000E+01 0.  1.
</event>
<event>
11    1  0.7105277E-009  0.2362428E+03  0.7561462E-02  0.1031494E+00
         22   -1    0    0    0    0  0.00000000000E+00  0.00000000000E+00  0.92079317038E+03  0.92079317038E+03  0.00000000000E+00 0.  1.
         22   -1    0    0    0    0 -0.00000000000E+00 -0.00000000000E+00 -0.23494257911E+03  0.23494257911E+03  0.00000000000E+00 0.  1.
        -24    2    1    2    0    0 -0.19744960055E+03  0.33284840239E+02 -0.13131185653E+03  0.25174336139E+03  0.77702580365E+02 0.  0.
         25    2    1    2    0    0  0.19211944664E+03 -0.69270894412E+02  0.32335671125E+03  0.40238806974E+03  0.12509299490E+03 0.  0.
         24    2    1    2    0    0  0.53301539092E+01  0.35986054173E+02  0.49380573654E+03  0.50160431835E+03  0.80245748232E+02 0.  0.
        -13    1    5    5    0    0  0.10050334660E+02 -0.21043466460E+02  0.25387463427E+03  0.25494345772E+03  0.00000000000E+00 0.  1.
         14    1    5    5    0    0 -0.47201807508E+01  0.57029520633E+02  0.23993110227E+03  0.24666086063E+03  0.00000000000E+00 0. -1.
         11    1    3    3    0    0 -0.86220351330E+02 -0.20366689950E+02 -0.74744145723E+02  0.11591133837E+03  0.00000000000E+00 0. -1.
        -12    1    3    3    0    0 -0.11122924922E+03  0.53651530189E+02 -0.56567710806E+02  0.13583202302E+03  0.00000000000E+00 0.  1.
          5    1    4    4  501    0  0.20647651114E+03 -0.47416488129E+02  0.27396282898E+03  0.34634372675E+03  0.41800000000E+01 0. -1.
         -5    1    4    4    0  501 -0.14357064507E+02 -0.21854406283E+02  0.49393882274E+02  0.56044342991E+02  0.41800000000E+01 0. -1.
</event>
<event>
11    1  0.8511686E-009  0.1571180E+03  0.7561462E-02  0.1089820E+00
         22   -1    0    0    0    0  0.00000000000E+00  0.00000000000E+00  0.96127182957E+03  0.96127182957E+03  0.00000000000E+00 0.  1.
         22   -1    0    0    0    0 -0.00000000000E+00 -0.00000000000E+00 -0.11337602242E+04  0.11337602242E+04  0.00000000000E+00 0.  1.
         24    2    1    2    0    0 -0.14276229140E+02  0.63296012242E+01 -0.10943674879E+04  0.10974345112E+04  0.80488716119E+02 0.  0.
         25    2    1    2    0    0  0.63029746802E+02  0.74968036455E+02  0.15917428794E+03  0.22489354321E+03  0.12509075252E+03 0.  0.
        -24    2    1    2    0    0 -0.48753517661E+02 -0.81297637680E+02  0.76270480527E+03  0.77270399933E+03  0.79791222739E+02 0.  0.
        -13    1    3    3    0    0  0.12752738769E+02 -0.17561196204E+02 -0.86289521429E+03  0.86316810576E+03  0.00000000000E+00 0.  1.
         14    1    3    3    0    0 -0.27028967910E+02  0.23890797429E+02 -0.23147227356E+03  0.23426640548E+03  0.00000000000E+00 0. -1.
         11    1    5    5    0    0  0.11919145501E+02 -0.41888057880E+02  0.43134316824E+03  0.43353616252E+03  0.00000000000E+00 0. -1.
        -12    1    5    5    0    0 -0.60672663162E+02 -0.39409579800E+02  0.33136163703E+03  0.33916783681E+03  0.00000000000E+00 0.  1.
          5    1    4    4  501    0  0.63827575087E+02  0.12720577056E+01  0.19450345456E+02  0.66868272077E+02  0.41800000000E+01 0.  1.
         -5    1    4    4    0  501 -0.79782828499E+00  0.73695978750E+02  0.13972394249E+03  0.15802527114E+03  0.41800000000E+01 0.  1.
</event>
<event>
11    1  0.7105277E-009  0.1391812E+03  0.7561462E-02  0.1108476E+00
         22   -1    0    0    0    0  0.00000000000E+00  0.00000000000E+00  0.12039236103E+04  0.12039236103E+04  0.00000000000E+00 0.  1.
         22   -1    0    0    0    0 -0.00000000000E+00 -0.00000000000E+00 -0.11674476606E+03  0.11674476606E+03  0.00000000000E+00 0.  1.
         24    2    1    2    0    0 -0.44556202794E+02  0.41842630892E+02 -0.74928435516E+02  0.12572281969E+03  0.80348590373E+02 0.  0.
         25    2    1    2    0    0  0.21461656038E+02  0.26549495051E+02  0.31227121750E+03  0.33812139229E+03  0.12508910537E+03 0.  0.
        -24    2    1    2    0    0  0.23094546756E+02 -0.68392125943E+02  0.84983606225E+03  0.85682416437E+03  0.81948001647E+02 0.  0.
        -13    1    3    3    0    0 -0.58214331494E+02  0.25200511517E+02 -0.81440383573E+02  0.10323037464E+03  0.00000000000E+00 0.  1.
         14    1    3    3    0    0  0.13658128700E+02  0.16642119375E+02  0.65119480568E+01  0.22492445051E+02  0.00000000000E+00 0. -1.
         11    1    5    5    0    0  0.38168608200E+02 -0.80914037472E+02  0.67935815908E+03  0.68522363679E+03  0.00000000000E+00 0. -1.
        -12    1    5    5    0    0 -0.15074061444E+02  0.12521911528E+02  0.17047790317E+03  0.17160052758E+03  0.00000000000E+00 0.  1.
          5    1    4    4  501    0  0.86656080885E+01 -0.11539856765E+02 -0.68080353302E+01  0.16494932639E+02  0.41800000000E+01 0.  1.
         -5    1    4    4    0  501  0.12796047949E+02  0.38089351816E+02  0.31907925283E+03  0.32162645965E+03  0.41800000000E+01 0.  1.
</event>
<event>
11    1  0.7105277E-009  0.1753495E+03  0.7561462E-02  0.1073468E+00
         22   -1    0    0    0    0  0.00000000000E+00  0.00000000000E+00  0.26771674373E+04  0.26771674373E+04  0.00000000000E+00 0.  1.
         22   -1    0    0    0    0 -0.00000000000E+00 -0.00000000000E+00 -0.74740341795E+03  0.74740341795E+03  0.00000000000E+00 0.  1.
         24    2    1    2    0    0  0.13730360371E+02 -0.98541310957E+02 -0.68029127734E+03  0.69215557962E+03  0.79901261631E+02 0.  0.
         25    2    1    2    0    0 -0.69946205411E+02 -0.13997663058E+02  0.28891569875E+02  0.14687170685E+03  0.12509264263E+03 0.  0.
        -24    2    1    2    0    0  0.56215845040E+02  0.11253897401E+03  0.25811637268E+04  0.25855435687E+04  0.82487087004E+02 0.  0.
        -13    1    3    3    0    0  0.29716982506E+01 -0.70905249444E+02 -0.62834446411E+03  0.63233942703E+03  0.00000000000E+00 0.  1.
         14    1    3    3    0    0  0.10758662121E+02 -0.27636061513E+02 -0.51946813230E+02  0.59816152595E+02  0.00000000000E+00 0. -1.
         13    1    5    5    0    0  0.20832253751E+02  0.30854533466E+02  0.25770818601E+03  0.26038336001E+03  0.00000000000E+00 0. -1.
        -14    1    5    5    0    0  0.35383591288E+02  0.81684440548E+02  0.23234555408E+04  0.23251602087E+04  0.00000000000E+00 0.  1.
          5    1    4    4  501    0  0.24851638707E+01 -0.28132791167E+02  0.60178014492E+02  0.66607025204E+02  0.41800000000E+01 0.  1.
         -5    1    4    4    0  501 -0.72431369282E+02  0.14135128109E+02 -0.31286444617E+02  0.80264681644E+02  0.41800000000E+01 0.  1.
</event>
<event>
11    1  0.7105277E-009  0.1844719E+03  0.7561462E-02  0.1066082E+00
         22   -1    0    0    0    0  0.00000000000E+00  0.00000000000E+00  0.12769142567E+04  0.12769142567E+04  0.00000000000E+00 0.  1.
         22   -1    0    0    0    0 -0.00000000000E+00 -0.00000000000E+00 -0.30396346608E+03  0.30396346608E+03  0.00000000000E+00 0. -1.
        -24    2    1    2    0    0 -0.10356235982E+02  0.14839720634E+02 -0.26897869287E+03  0.28344797329E+03  0.87554254104E+02 0.  0.
         25    2    1    2    0    0 -0.12692159793E+03 -0.27621326954E+02  0.37680612874E+03  0.41773273010E+03  0.12508295414E+03 0.  0.
         24    2    1    2    0    0  0.13727783391E+03  0.12781606321E+02  0.86512335474E+03  0.87969701936E+03  0.80123990316E+02 0.  0.
        -11    1    5    5    0    0  0.13019961597E+03  0.70768725681E+00  0.84621168794E+03  0.85616976216E+03  0.00000000000E+00 0.  1.
         12    1    5    5    0    0  0.70782179438E+01  0.12073919064E+02  0.18911666794E+02  0.23527257208E+02  0.00000000000E+00 0. -1.
         11    1    3    3    0    0  0.18576099712E+01 -0.99746528395E+01 -0.24929471492E+03  0.24950110080E+03  0.00000000000E+00 0. -1.
        -12    1    3    3    0    0 -0.12213845953E+02  0.24814373473E+02 -0.19683977952E+02  0.33946872490E+02  0.00000000000E+00 0.  1.
          5    1    4    4  501    0 -0.94818704284E+02 -0.51461078892E+02  0.35689529075E+03  0.37286800652E+03  0.41800000000E+01 0.  1.
         -5    1    4    4    0  501 -0.32102893646E+02  0.23839751937E+02  0.19910837989E+02  0.44864723584E+02  0.41800000000E+01 0.  1.
</event>
<event>
11    1  0.7105277E-009  0.2146985E+03  0.7561462E-02  0.1044590E+00
         22   -1    0    0    0    0  0.00000000000E+00  0.00000000000E+00  0.97217455604E+03  0.97217455604E+03  0.00000000000E+00 0.  1.
         22   -1    0    0    0    0 -0.00000000000E+00 -0.00000000000E+00 -0.45289692849E+03  0.45289692849E+03  0.00000000000E+00 0.  1.
        -24    2    1    2    0    0  0.35295016028E+01  0.13620963837E+02 -0.35315278666E+03  0.36234833545E+03  0.79883899744E+02 0.  0.
         25    2    1    2    0    0  0.13528475431E+03  0.94238474557E+02  0.43392717821E+02  0.21145495540E+03  0.12508962934E+03 0.  0.
         24    2    1    2    0    0 -0.13881425592E+03 -0.10785943839E+03  0.82903769639E+03  0.85126819368E+03  0.80317989554E+02 0.  0.
        -11    1    5    5    0    0 -0.25627477792E+02 -0.54564884282E+02  0.39450664788E+03  0.39908594242E+03  0.00000000000E+00 0.  1.
         12    1    5    5    0    0 -0.11318677812E+03 -0.53294554113E+02  0.43453104851E+03  0.45218225126E+03  0.00000000000E+00 0. -1.
         13    1    3    3    0    0 -0.82363436219E+01  0.24671263802E+02 -0.34098906127E+02  0.42886408254E+02  0.00000000000E+00 0. -1.
        -14    1    3    3    0    0  0.11765845225E+02 -0.11050299965E+02 -0.31905388053E+03  0.31946192719E+03  0.00000000000E+00 0.  1.
          5    1    4    4  501    0  0.57360245826E+02  0.10756448313E+03  0.17116435872E+01  0.12198654826E+03  0.41800000000E+01 0. -1.
         -5    1    4    4    0  501  0.77924508487E+02 -0.13326008576E+02  0.41681074233E+02  0.89468407143E+02  0.41800000000E+01 0. -1.
</event>
<event>
11    1  0.7105277E-009  0.1826366E+03  0.7561462E-02  0.1067530E+00
         22   -1    0    0    0    0  0.00000000000E+00  0.00000000000E+00  0.68224887727E+03  0.68224887727E+03  0.00000000000E+00 0. -1.
         22   -1    0    0    0    0 -0.00000000000E+00 -0.00000000000E+00 -0.12515236244E+03  0.12515236244E+03  0.00000000000E+00 0. -1.
        -24    2    1    2    0    0 -0.14624852589E+02  0.10719502191E+02 -0.50959620076E+02  0.97278738685E+02  0.80854660233E+02 0.  0.
         25    2    1    2    0    0  0.13331039264E+03  0.43708688506E+02  0.20187115297E+03  0.27582947711E+03  0.12509127790E+03 0.  0.
         24    2    1    2    0    0 -0.11868554005E+03 -0.54428190697E+02  0.40618498193E+03  0.43429302391E+03  0.81089491998E+02 0.  0.
        -11    1    5    5    0    0 -0.87681453265E+02 -0.69618242920E+02  0.24379748341E+03  0.26827588395E+03  0.00000000000E+00 0.  1.
         12    1    5    5    0    0 -0.31004086785E+02  0.15190052223E+02  0.16238749853E+03  0.16601713996E+03  0.00000000000E+00 0. -1.
         13    1    3    3    0    0  0.64919800917E+01 -0.18796896980E+02 -0.57106014925E+02  0.60469546733E+02  0.00000000000E+00 0. -1.
        -14    1    3    3    0    0 -0.21116832681E+02  0.29516399171E+02  0.61463948489E+01  0.36809191952E+02  0.00000000000E+00 0.  1.
          5    1    4    4  501    0  0.13471368912E+03  0.88183435113E+00  0.18652030481E+03  0.23012138574E+03  0.41800000000E+01 0.  1.
         -5    1    4    4    0  501 -0.14032964762E+01  0.42826854154E+02  0.15350848158E+02  0.45708091373E+02  0.41800000000E+01 0.  1.
</event>
<event>
11    1  0.7105277E-009  0.2420690E+03  0.7561462E-02  0.1028211E+00
         22   -1    0    0    0    0  0.00000000000E+00  0.00000000000E+00  0.14741989466E+04  0.14741989466E+04  0.00000000000E+00 0.  1.
         22   -1    0    0    0    0 -0.00000000000E+00 -0.00000000000E+00 -0.38729896587E+03  0.38729896587E+03  0.00000000000E+00 0. -1.
        -24    2    1    2    0    0  0.25623911594E+02 -0.10553839453E+03 -0.17060616873E+03  0.21825404229E+03  0.82057446972E+02 0.  0.
         25    2    1    2    0    0 -0.12311963605E+03  0.28278434277E+03 -0.33065367757E+02  0.33446448366E+03  0.12509093887E+03 0.  0.
         24    2    1    2    0    0  0.97495724454E+02 -0.17724594824E+03  0.12905715172E+04  0.13087793865E+04  0.80044356958E+02 0.  0.
        -13    1    5    5    0    0  0.32532139405E+02 -0.10185451804E+03  0.45981383978E+03  0.47208203757E+03  0.00000000000E+00 0.  1.
         14    1    5    5    0    0  0.64963585049E+02 -0.75391430196E+02  0.83075767741E+03  0.83669734893E+03  0.00000000000E+00 0. -1.
         11    1    3    3    0    0  0.91982064551E+01 -0.10502060910E+03 -0.17202546419E+03  0.20175900393E+03  0.00000000000E+00 0. -1.
        -12    1    3    3    0    0  0.16425705139E+02 -0.51778542868E+00  0.14192954560E+01  0.16495038365E+02  0.00000000000E+00 0.  1.
          5    1    4    4  501    0 -0.42686119257E+02  0.11773062437E+03  0.47384448957E+02  0.13396030417E+03  0.41800000000E+01 0. -1.
         -5    1    4    4    0  501 -0.80433516792E+02  0.16505371840E+03 -0.80449816714E+02  0.20050417949E+03  0.41800000000E+01 0. -1.
</event>
<event>
11    1  0.7105277E-009  0.1603181E+03  0.7561462E-02  0.1086778E+00
         22   -1    0    0    0    0  0.00000000000E+00  0.00000000000E+00  0.35413282295E+04  0.35413282295E+04  0.00000000000E+00 0.  1.
         22   -1    0    0    0    0 -0.00000000000E+00 -0.00000000000E+00 -0.10017637286E+03  0.10017637286E+03  0.00000000000E+00 0. -1.
        -24    2    1    2    0    0 -0.24459065825E+02  0.97467022225E+02 -0.38091154223E+02  0.13386214742E+03  0.79812731804E+02 0.  0.
         25    2    1    2    0    0  0.10237689988E+03 -0.72364443858E+02  0.59035946053E+03  0.61635142997E+03  0.12508856949E+03 0.  0.
         24    2    1    2    0    0 -0.77917834057E+02 -0.25102578368E+02  0.28888835504E+04  0.28912910250E+04  0.84937009036E+02 0.  0.
        -11    1    5    5    0    0 -0.66840602891E+02  0.31333214665E+01  0.25916999969E+04  0.25925636651E+04  0.00000000000E+00 0.  1.
         12    1    5    5    0    0 -0.11077231167E+02 -0.28235899834E+02  0.29718355351E+03  0.29872735992E+03  0.00000000000E+00 0. -1.
         11    1    3    3    0    0 -0.39167980299E+02  0.59033864319E+02 -0.54679487416E+02  0.89492872125E+02  0.00000000000E+00 0. -1.
        -12    1    3    3    0    0  0.14708914474E+02  0.38433157906E+02  0.16588333192E+02  0.44369275290E+02  0.00000000000E+00 0.  1.
          5    1    4    4  501    0  0.19945389617E+01 -0.73987323194E+02  0.30276418115E+03  0.31170775410E+03  0.41800000000E+01 0. -1.
         -5    1    4    4    0  501  0.10038236092E+03  0.16228793359E+01  0.28759527938E+03  0.30464367586E+03  0.41800000000E+01 0. -1.
</event>
<event>
11    1  0.7105277E-009  0.1722322E+03  0.7561462E-02  0.1076105E+00
         22   -1    0    0    0    0  0.00000000000E+00  0.00000000000E+00  0.33304123889E+03  0.33304123889E+03  0.00000000000E+00 0.  1.
         22   -1    0    0    0    0 -0.00000000000E+00 -0.00000000000E+00 -0.13399297933E+04  0.13399297933E+04  0.00000000000E+00 0. -1.
        -24    2    1    2    0    0  0.10973916367E+02 -0.44934454546E+02 -0.12539996075E+04  0.12573142532E+04  0.78642124355E+02 0.  0.
         25    2    1    2    0    0 -0.13829263074E+02  0.14943297810E+03  0.10456347466E+03  0.22158745012E+03  0.12508402917E+03 0.  0.
         24    2    1    2    0    0  0.28553467076E+01 -0.10449852356E+03  0.14254757838E+03  0.19406932890E+03  0.80093681941E+02 0.  0.
        -13    1    5    5    0    0  0.99251223476E+01 -0.71450513206E+01  0.73490518452E+02  0.74501114853E+02  0.00000000000E+00 0.  1.
         14    1    5    5    0    0 -0.70697756400E+01 -0.97353472237E+02  0.69057059925E+02  0.11956821404E+03  0.00000000000E+00 0. -1.
         11    1    3    3    0    0 -0.22986341625E+02 -0.42560531732E+02 -0.98229344204E+03  0.98348369434E+03  0.00000000000E+00 0. -1.
        -12    1    3    3    0    0  0.33960257992E+02 -0.23739228138E+01 -0.27170616543E+03  0.27383055886E+03  0.00000000000E+00 0.  1.
          5    1    4    4  501    0 -0.21098829994E+02  0.17038753917E+03  0.84560023345E+02  0.19142869190E+03  0.41800000000E+01 0.  1.
         -5    1    4    4    0  501  0.72695669200E+01 -0.20954561070E+02  0.20003451316E+02  0.30158758220E+02  0.41800000000E+01 0.  1.
</event>
<event>
11    1  0.7105277E-009  0.1369979E+03  0.7561462E-02  0.1110958E+00
         22   -1    0    0    0    0  0.00000000000E+00  0.00000000000E+00  0.23273909848E+04  0.23273909848E+04  0.00000000000E+00 0. -1.
         22   -1    0    0    0    0 -0.00000000000E+00 -0.00000000000E+00 -0.40714546055E+03  0.40714546055E+03  0.00000000000E+00 0.  1.
        -24    2    1    2    0    0 -0.54969650586E+02  0.16201215494E+02 -0.35658792079E+03  0.37001388490E+03  0.80443693906E+02 0.  0.
         25    2    1    2    0    0  0.33902923082E+02 -0.75202082536E+01  0.54716823381E+02  0.14088601752E+03  0.12509587301E+03 0.  0.
         24    2    1    2    0    0  0.21066727504E+02 -0.86810072400E+01  0.22221166217E+04  0.22236365430E+04  0.78981187134E+02 0.  0.
        -13    1    5    5    0    0 -0.22125906731E+02  0.18839440530E+02  0.58814704244E+03  0.58886452075E+03  0.00000000000E+00 0.  1.
         14    1    5    5    0    0  0.43192634235E+02 -0.27520447770E+02  0.16339695793E+04  0.16347720222E+04  0.00000000000E+00 0. -1.
         11    1    3    3    0    0 -0.57088333666E+02  0.39558886815E+02 -0.20085092998E+03  0.21252077414E+03  0.00000000000E+00 0. -1.
        -12    1    3    3    0    0  0.21186830799E+01 -0.23357671321E+02 -0.15573699082E+03  0.15749311076E+03  0.00000000000E+00 0.  1.
          5    1    4    4  501    0  0.57603094268E+02  0.41460405568E+02  0.48269161068E+02  0.85932915750E+02  0.41800000000E+01 0.  1.
         -5    1    4    4    0  501 -0.23700171186E+02 -0.48980613821E+02  0.64476623131E+01  0.54953101767E+02  0.41800000000E+01 0.  1.
</event>
<event>
11    1  0.7105277E-009  0.1350454E+03  0.7561462E-02  0.1113221E+00
         22   -1    0    0    0    0  0.00000000000E+00  0.00000000000E+00  0.14440831263E+04  0.14440831263E+04  0.00000000000E+00 0.  1.
         22   -1    0    0    0    0 -0.00000000000E+00 -0.00000000000E+00 -0.51344082747E+02  0.51344082747E+02  0.00000000000E+00 0. -1.
        -24    2    1    2    0    0 -0.37039813872E+02  0.33972538779E+02  0.20221408624E+02  0.96578734695E+02  0.79952895043E+02 0.  0.
         25    2    1    2    0    0  0.61865453304E+02 -0.13314565608E+02  0.43738022303E+03  0.45929644399E+03  0.12508857659E+03 0.  0.
         24    2    1    2    0    0 -0.24825639431E+02 -0.20657973172E+02  0.93513741186E+03  0.93955203032E+03  0.85046895269E+02 0.  0.
        -11    1    5    5    0    0 -0.43154295169E+02 -0.12023487391E+02  0.24156494201E+03  0.24568369635E+03  0.00000000000E+00 0.  1.
         12    1    5    5    0    0  0.18328655738E+02 -0.86344857811E+01  0.69357246985E+03  0.69386833398E+03  0.00000000000E+00 0. -1.
         13    1    3    3    0    0  0.16595369800E+02 -0.12188476930E+02 -0.54541492020E+01  0.21300540186E+02  0.00000000000E+00 0. -1.
        -14    1    3    3    0    0 -0.53635183673E+02  0.46161015710E+02  0.25675557826E+02  0.75278194510E+02  0.00000000000E+00 0.  1.
          5    1    4    4  501    0  0.88150376777E+02  0.26483531649E+02  0.27693725093E+03  0.29186226157E+03  0.41800000000E+01 0.  1.
         -5    1    4    4    0  501 -0.26284923473E+02 -0.39798097256E+02  0.16044297209E+03  0.16743418241E+03  0.41800000000E+01 0.  1.
</event>
<event>
11    1  0.7105277E-009  0.1735006E+03  0.7561462E-02  0.1075025E+00
         22   -1    0    0    0    0  0.00000000000E+00  0.00000000000E+00  0.14065129357E+03  0.14065129357E+03  0.00000000000E+00 0.  1.
         22   -1    0    0    0    0 -0.00000000000E+00 -0.00000000000E+00 -0.15090904162E+04  0.15090904162E+04  0.00000000000E+00 0. -1.
        -24    2    1    2    0    0 -0.17164001546E+02  0.11878822039E+03 -0.13753129642E+04  0.13829015393E+04  0.80781641340E+02 0.  0.
         25    2    1    2    0    0 -0.11509274129E+00 -0.12564156420E+03 -0.23058311997E+02  0.17879006118E+03  0.12509350232E+03 0.  0.
         24    2    1    2    0    0  0.17279094287E+02  0.68533438171E+01  0.29932153562E+02  0.88050109317E+02  0.80692952065E+02 0.  0.
        -13    1    5    5    0    0  0.44456963823E+02 -0.14333884547E+02  0.25746162423E+02  0.53336167448E+02  0.00000000000E+00 0.  1.
         14    1    5    5    0    0 -0.27177869536E+02  0.21187228364E+02  0.41859911396E+01  0.34713941869E+02  0.00000000000E+00 0. -1.
         11    1    3    3    0    0 -0.29684688062E+02  0.11795817289E+03 -0.13383630726E+04  0.13438790963E+04  0.00000000000E+00 0. -1.
        -12    1    3    3    0    0  0.12520686516E+02  0.83004750008E+00 -0.36949891577E+02  0.39022442995E+02  0.00000000000E+00 0.  1.
          5    1    4    4  501    0 -0.18360141760E+01 -0.14419675390E+03 -0.43628120864E+02  0.15072146534E+03  0.41800000000E+01 0. -1.
         -5    1    4    4    0  501  0.17209214347E+01  0.18555189700E+02  0.20569808867E+02  0.28068595836E+02  0.41800000000E+01 0. -1.
</event>
<event>
11    1  0.7105277E-009  0.1569265E+03  0.7561462E-02  0.1090004E+00
         22   -1    0    0    0    0  0.00000000000E+00  0.00000000000E+00  0.76799336419E+03  0.76799336419E+03  0.00000000000E+00 0. -1.
         22   -1    0    0    0    0 -0.00000000000E+00 -0.00000000000E+00 -0.90635682210E+03  0.90635682210E+03  0.00000000000E+00 0. -1.
        -24    2    1    2    0    0  0.74682392250E+01  0.91019978853E+01 -0.52818154320E+03  0.53439179615E+03  0.80375545126E+02 0.  0.
         25    2    1    2    0    0 -0.68620684131E+02  0.63323570592E+02 -0.35329576564E+03  0.38624227630E+03  0.12508607075E+03 0.  0.
         24    2    1    2    0    0  0.61152444906E+02 -0.72425568477E+02  0.74311385094E+03  0.75371611384E+03  0.82974094284E+02 0.  0.
        -11    1    5    5    0    0 -0.45627689242E+01 -0.51034728063E+01  0.32815004003E+03  0.32822143907E+03  0.00000000000E+00 0.  1.
         12    1    5    5    0    0  0.65715213830E+02 -0.67322095671E+02  0.41496381091E+03  0.42549467477E+03  0.00000000000E+00 0. -1.
         11    1    3    3    0    0  0.27501216650E+02  0.91437164442E+00 -0.48781016504E+03  0.48858562209E+03  0.00000000000E+00 0. -1.
        -12    1    3    3    0    0 -0.20032977425E+02  0.81876262409E+01 -0.40371378158E+02  0.45806174063E+02  0.00000000000E+00 0.  1.
          5    1    4    4  501    0 -0.88345887695E+02  0.77502639033E+02 -0.33638869021E+03  0.35635162162E+03  0.41800000000E+01 0.  1.
         -5    1    4    4    0  501  0.19725203564E+02 -0.14179068441E+02 -0.16907075437E+02  0.29890654682E+02  0.41800000000E+01 0.  1.
</event>
<event>
11    1  0.7105277E-009  0.1621628E+03  0.7561462E-02  0.1085061E+00
         22   -1    0    0    0    0  0.00000000000E+00  0.00000000000E+00  0.19677631256E+04  0.19677631256E+04  0.00000000000E+00 0. -1.
         22   -1    0    0    0    0 -0.00000000000E+00 -0.00000000000E+00 -0.23461434408E+03  0.23461434408E+03  0.00000000000E+00 0. -1.
         24    2    1    2    0    0 -0.71552693785E+02  0.71580642640E+02 -0.19426746350E+03  0.23337403700E+03  0.80498555156E+02 0.  0.
         25    2    1    2    0    0  0.88545312803E+02 -0.14112666311E+03  0.57374566527E+03  0.61040399261E+03  0.12510770688E+03 0.  0.
        -24    2    1    2    0    0 -0.16992619018E+02  0.69546020467E+02  0.13536705797E+04  0.13585994400E+04  0.90790979591E+02 0.  0.
        -11    1    3    3    0    0 -0.18831197152E+01  0.91622697996E+01  0.68324472781E+01  0.11583421928E+02  0.00000000000E+00 0.  1.
         12    1    3    3    0    0 -0.69669574070E+02  0.62418372841E+02 -0.20109991078E+03  0.22179061508E+03  0.00000000000E+00 0. -1.
         11    1    5    5    0    0 -0.19786428868E+02  0.15524154230E+02  0.10396204143E+04  0.10399245684E+04  0.00000000000E+00 0. -1.
        -12    1    5    5    0    0  0.27938098506E+01  0.54021866237E+02  0.31405016537E+03  0.31867487158E+03  0.00000000000E+00 0.  1.
          5    1    4    4  501    0  0.75154600529E+02 -0.14358293587E+03  0.34473985577E+03  0.38095579010E+03  0.41800000000E+01 0. -1.
         -5    1    4    4    0  501  0.13390712274E+02  0.24562727651E+01  0.22900580950E+03  0.22944820251E+03  0.41800000000E+01 0. -1.
</event>
<event>
11    1  0.7105277E-009  0.1308045E+03  0.7561462E-02  0.1118284E+00
         22   -1    0    0    0    0  0.00000000000E+00  0.00000000000E+00  0.30943966679E+03  0.30943966679E+03  0.00000000000E+00 0.  1.
         22   -1    0    0    0    0 -0.00000000000E+00 -0.00000000000E+00 -0.11036053948E+04  0.11036053948E+04  0.00000000000E+00 0.  1.
         24    2    1    2    0    0  0.19666139435E+02  0.24144735373E+02 -0.92720830679E+03  0.93124993597E+03  0.80879377962E+02 0.  0.
         25    2    1    2    0    0  0.96690220001E+01 -0.48618908956E+02 -0.14013752283E+03  0.19427637874E+03  0.12508995858E+03 0.  0.
        -24    2    1    2    0    0 -0.29335161435E+02  0.24474173583E+02  0.27318010164E+03  0.28751874686E+03  0.81117969614E+02 0.  0.
        -11    1    3    3    0    0  0.34925255424E+02  0.47314313758E+02 -0.65203443368E+03  0.65468108302E+03  0.00000000000E+00 0.  1.
         12    1    3    3    0    0 -0.15259115989E+02 -0.23169578385E+02 -0.27517387311E+03  0.27656885295E+03  0.00000000000E+00 0. -1.
         11    1    5    5    0    0 -0.24210056634E+02 -0.22115812392E+02  0.52369575363E+02  0.61788416582E+02  0.00000000000E+00 0. -1.
        -12    1    5    5    0    0 -0.51251048010E+01  0.46589985975E+02  0.22081052627E+03  0.22573033027E+03  0.00000000000E+00 0.  1.
          5    1    4    4  501    0 -0.15506021750E+02  0.53252719324E+00  0.19522008211E+02  0.25284412200E+02  0.41800000000E+01 0. -1.
         -5    1    4    4    0  501  0.25175043750E+02 -0.49151436149E+02 -0.15965953104E+03  0.16899196654E+03  0.41800000000E+01 0. -1.
</event>
<event>
11    1  0.7105277E-009  0.3069147E+03  0.7561462E-02  0.9973065E-01
         22   -1    0    0    0    0  0.00000000000E+00  0.00000000000E+00  0.10896202137E+04  0.10896202137E+04  0.00000000000E+00 0.  1.
         22   -1    0    0    0    0 -0.00000000000E+00 -0.00000000000E+00 -0.11035771984E+04  0.11035771984E+04  0.00000000000E+00 0.  1.
         24    2    1    2    0    0  0.40863352679E+01  0.10394944228E+03 -0.90022901951E+03  0.90972444674E+03  0.79775289024E+02 0.  0.
         25    2    1    2    0    0  0.18874715092E+03 -0.29591087144E+03  0.21341664036E+02  0.37321820451E+03  0.12509049018E+03 0.  0.
        -24    2    1    2    0    0 -0.19283348619E+03  0.19196142916E+03  0.86493037078E+03  0.91025476092E+03  0.80157593468E+02 0.  0.
        -11    1    3    3    0    0  0.86582298914E+01  0.10159319128E+03 -0.54485387061E+03  0.55431207977E+03  0.00000000000E+00 0.  1.
         12    1    3    3    0    0 -0.45718946236E+01  0.23562510024E+01 -0.35537514890E+03  0.35541236696E+03  0.00000000000E+00 0. -1.
         11    1    5    5    0    0 -0.42131789022E+02  0.36365804264E+01  0.14044998450E+03  0.14667825507E+03  0.00000000000E+00 0. -1.
        -12    1    5    5    0    0 -0.15070169717E+03  0.18832484874E+03  0.72448038628E+03  0.76357650585E+03  0.00000000000E+00 0.  1.
          5    1    4    4  501    0  0.14465904194E+03 -0.16187569035E+03 -0.37381879812E+02  0.22032896968E+03  0.41800000000E+01 0. -1.
         -5    1    4    4    0  501  0.44088108978E+02 -0.13403518109E+03  0.58723543848E+02  0.15288923483E+03  0.41800000000E+01 0. -1.
</event>
<event>
11    1  0.7105277E-009  0.1467249E+03  0.7561462E-02  0.1100273E+00
         22   -1    0    0    0    0  0.00000000000E+00  0.00000000000E+00  0.38407784374E+03  0.38407784374E+03  0.00000000000E+00 0.  1.
         22   -1    0    0    0    0 -0.00000000000E+00 -0.00000000000E+00 -0.12888897266E+04  0.12888897266E+04  0.00000000000E+00 0. -1.
        -24    2    1    2    0    0  0.71703562651E+02 -0.29876014511E+02 -0.12119173983E+04  0.12168004418E+04  0.76325341768E+02 0.  0.
         25    2    1    2    0    0 -0.86390354311E+02 -0.46945828859E+02  0.36425885805E+02  0.16322187479E+03  0.12508929246E+03 0.  0.
         24    2    1    2    0    0  0.14686791659E+02  0.76821843371E+02  0.27067962966E+03  0.29294525369E+03  0.80200762335E+02 0.  0.
        -13    1    5    5    0    0 -0.11351699522E+02  0.55569111970E+01  0.14909076904E+03  0.14962552509E+03  0.00000000000E+00 0.  1.
         14    1    5    5    0    0  0.26038491181E+02  0.71264932174E+02  0.12158886062E+03  0.14331972860E+03  0.00000000000E+00 0. -1.
         13    1    3    3    0    0  0.59487448832E+02 -0.54756864338E+02 -0.94210515179E+03  0.94556818252E+03  0.00000000000E+00 0. -1.
        -14    1    3    3    0    0  0.12216113819E+02  0.24880849827E+02 -0.26981224652E+03  0.27123225932E+03  0.00000000000E+00 0.  1.
          5    1    4    4  501    0  0.25009760335E+02 -0.34835779738E+02 -0.56447881481E+01  0.43455214822E+02  0.41800000000E+01 0.  1.
         -5    1    4    4    0  501 -0.11140011465E+03 -0.12110049121E+02  0.42070673953E+02  0.11976665997E+03  0.41800000000E+01 0.  1.
</event>
<event>
11    1  0.7105277E-009  0.1349876E+03  0.7561462E-02  0.1113288E+00
         22   -1    0    0    0    0  0.00000000000E+00  0.00000000000E+00  0.10341335146E+04  0.10341335146E+04  0.00000000000E+00 0. -1.
         22   -1    0    0    0    0 -0.00000000000E+00 -0.00000000000E+00 -0.41216517198E+03  0.41216517198E+03  0.00000000000E+00 0.  1.
        -24    2    1    2    0    0  0.44631769515E+02  0.23585282808E+01 -0.22237704013E+03  0.24087819679E+03  0.81075274931E+02 0.  0.
         25    2    1    2    0    0 -0.94688506863E+02  0.14862956376E+01 -0.14383568939E+03  0.21284638681E+03  0.12508699545E+03 0.  0.
         24    2    1    2    0    0  0.50056737348E+02 -0.38448239185E+01  0.98818107218E+03  0.99257410301E+03  0.78619710762E+02 0.  0.
        -11    1    5    5    0    0  0.32712908616E+02  0.35659954566E+02  0.42595069963E+03  0.42869075715E+03  0.00000000000E+00 0.  1.
         12    1    5    5    0    0  0.17343828732E+02 -0.39504778484E+02  0.56223037255E+03  0.56388334586E+03  0.00000000000E+00 0. -1.
         11    1    3    3    0    0  0.68327793354E+02  0.37579331694E+01 -0.17454471078E+03  0.18747977349E+03  0.00000000000E+00 0. -1.
        -12    1    3    3    0    0 -0.23696023838E+02 -0.13994048885E+01 -0.47832329357E+02  0.53398423305E+02  0.00000000000E+00 0.  1.
          5    1    4    4  501    0 -0.73910136655E+02  0.50128499303E+02 -0.43678791580E+02  0.99503185761E+02  0.41800000000E+01 0. -1.
         -5    1    4    4    0  501 -0.20778370208E+02 -0.48642203666E+02 -0.10015689781E+03  0.11334320105E+03  0.41800000000E+01 0. -1.
</event>
<event>
11    1  0.7105277E-009  0.1384223E+03  0.7561462E-02  0.1109333E+00
         22   -1    0    0    0    0  0.00000000000E+00  0.00000000000E+00  0.33394967247E+03  0.33394967247E+03  0.00000000000E+00 0. -1.
         22   -1    0    0    0    0 -0.00000000000E+00 -0.00000000000E+00 -0.14048843973E+04  0.14048843973E+04  0.00000000000E+00 0. -1.
         24    2    1    2    0    0  0.56292811725E+02 -0.16638468595E+02 -0.12414033441E+04  0.12453575939E+04  0.79922178798E+02 0.  0.
         25    2    1    2    0    0 -0.71574544494E+02 -0.67639260865E+00 -0.12221748256E+03  0.18897044706E+03  0.12509733767E+03 0.  0.
        -24    2    1    2    0    0  0.15281732769E+02  0.17314861204E+02  0.29268610186E+03  0.30450602878E+03  0.80780143377E+02 0.  0.
        -13    1    3    3    0    0 -0.11621931075E+02 -0.12495647539E+02 -0.72727894417E+02  0.74703126545E+02  0.00000000000E+00 0.  1.
         14    1    3    3    0    0  0.67914742801E+02 -0.41428210564E+01 -0.11686754497E+04  0.11706544674E+04  0.00000000000E+00 0. -1.
         11    1    5    5    0    0  0.57403032280E+01  0.28962334674E+02  0.28683788858E+03  0.28835350221E+03  0.00000000000E+00 0. -1.
        -12    1    5    5    0    0  0.95414295407E+01 -0.11647473470E+02  0.58482132790E+01  0.16152526566E+02  0.00000000000E+00 0.  1.
          5    1    4    4  501    0 -0.87687122744E+02 -0.78361978574E+01 -0.27195507271E+02  0.92236139922E+02  0.41800000000E+01 0.  1.
         -5    1    4    4    0  501  0.16112578249E+02  0.71598052488E+01 -0.95021975293E+02  0.96734307139E+02  0.41800000000E+01 0.  1.
</event>
<event>
11    1  0.7941291E-009  0.1402038E+03  0.7561462E-02  0.1107331E+00
         22   -1    0    0    0    0  0.00000000000E+00  0.00000000000E+00  0.20251345911E+04  0.20251345911E+04  0.00000000000E+00 0.  1.
         22   -1    0    0    0    0 -0.00000000000E+00 -0.00000000000E+00 -0.10118744922E+04  0.10118744922E+04  0.00000000000E+00 0. -1.
         24    2    1    2    0    0  0.25432598261E+02  0.91039498340E+01 -0.72438405131E+03  0.72920604125E+03  0.79243282618E+02 0.  0.
         25    2    1    2    0    0 -0.38611770641E+02  0.52849539345E+02 -0.26619457948E+03  0.30131510878E+03  0.12508916017E+03 0.  0.
        -24    2    1    2    0    0  0.13179172380E+02 -0.61953489179E+02  0.20038387296E+04  0.20064879333E+04  0.81315722628E+02 0.  0.
        -11    1    3    3    0    0  0.18864062831E+02 -0.51175935701E+01 -0.38819930056E+02  0.43462968146E+02  0.00000000000E+00 0.  1.
         12    1    3    3    0    0  0.65685354300E+01  0.14221543404E+02 -0.68556412126E+03  0.68574307310E+03  0.00000000000E+00 0. -1.
         11    1    5    5    0    0  0.26789304798E+02 -0.19351302211E+02  0.26211572668E+03  0.26419082861E+03  0.00000000000E+00 0. -1.
        -12    1    5    5    0    0 -0.13610132418E+02 -0.42602186968E+02  0.17417230029E+04  0.17422971047E+04  0.00000000000E+00 0.  1.
          5    1    4    4  501    0  0.42891808248E+02  0.12546987401E+02 -0.52673307649E+02  0.69203206908E+02  0.41800000000E+01 0.  1.
         -5    1    4    4    0  501 -0.81503578890E+02  0.40302551944E+02 -0.21352127183E+03  0.23211190187E+03  0.41800000000E+01 0.  1.
</event>
<event>
11    1  0.7105277E-009  0.1308197E+03  0.7561462E-02  0.1118266E+00
         22   -1    0    0    0    0  0.00000000000E+00  0.00000000000E+00  0.69151358399E+03  0.69151358399E+03  0.00000000000E+00 0.  1.
         22   -1    0    0    0    0 -0.00000000000E+00 -0.00000000000E+00 -0.78504164547E+03  0.78504164547E+03  0.00000000000E+00 0. -1.
        -24    2    1    2    0    0  0.26185003604E+02 -0.62203755924E+00 -0.48820293116E+03  0.49633031345E+03  0.85531495412E+02 0.  0.
         25    2    1    2    0    0 -0.18429118107E+02  0.38179468837E+02 -0.27338759052E+03  0.30362190211E+03  0.12509268786E+03 0.  0.
         24    2    1    2    0    0 -0.77558854975E+01 -0.37557431277E+02  0.66806246019E+03  0.67660301390E+03  0.10006734382E+03 0.  0.
        -13    1    5    5    0    0  0.18086241585E+02 -0.65816094349E+02  0.39213503194E+03  0.39803109638E+03  0.00000000000E+00 0.  1.
         14    1    5    5    0    0 -0.25842127083E+02  0.28258663072E+02  0.27592742825E+03  0.27857191753E+03  0.00000000000E+00 0. -1.
         13    1    3    3    0    0  0.57154859137E+02 -0.62178780646E+01 -0.28993601540E+03  0.29558117829E+03  0.00000000000E+00 0. -1.
        -14    1    3    3    0    0 -0.30969855532E+02  0.55958405053E+01 -0.19826691576E+03  0.20074913516E+03  0.00000000000E+00 0.  1.
          5    1    4    4  501    0 -0.52022880828E+02  0.64905510292E+02 -0.13457054456E+03  0.15825867831E+03  0.41800000000E+01 0. -1.
         -5    1    4    4    0  501  0.33593762721E+02 -0.26726041455E+02 -0.13881704596E+03  0.14536322380E+03  0.41800000000E+01 0. -1.
</event>
<event>
11    1  0.7105277E-009  0.1338616E+03  0.7561462E-02  0.1114613E+00
         22   -1    0    0    0    0  0.00000000000E+00  0.00000000000E+00  0.45473898392E+03  0.45473898392E+03  0.00000000000E+00 0. -1.
         22   -1    0    0    0    0 -0.00000000000E+00 -0.00000000000E+00 -0.11219221227E+03  0.11219221227E+03  0.00000000000E+00 0. -1.
        -24    2    1    2    0    0  0.17215645456E+02  0.34082068033E+02 -0.33822278784E+02  0.94409515873E+02  0.79443340409E+02 0.  0.
         25    2    1    2    0    0  0.32827608001E+02 -0.32190225802E+02  0.66745204038E+02  0.14905124914E+03  0.12508992815E+03 0.  0.
         24    2    1    2    0    0 -0.50043253457E+02 -0.18918422317E+01  0.30962384640E+03  0.32347043118E+03  0.79109337663E+02 0.  0.
        -11    1    5    5    0    0 -0.70608380844E+02  0.73633105430E+01  0.24072604865E+03  0.25097568067E+03  0.00000000000E+00 0.  1.
         12    1    5    5    0    0  0.20565127387E+02 -0.92551527747E+01  0.68897797748E+02  0.72494750513E+02  0.00000000000E+00 0. -1.
         11    1    3    3    0    0  0.56160672366E+01 -0.52774294595E+01 -0.49787103337E+02  0.50380027110E+02  0.00000000000E+00 0. -1.
        -12    1    3    3    0    0  0.11599578220E+02  0.39359497493E+02  0.15964824553E+02  0.44029488763E+02  0.00000000000E+00 0.  1.
          5    1    4    4  501    0  0.31063504729E+02  0.45278207278E+02  0.34730123809E+02  0.65105385953E+02  0.41800000000E+01 0. -1.
         -5    1    4    4    0  501  0.17641032719E+01 -0.77468433079E+02  0.32015080229E+02  0.83945863187E+02  0.41800000000E+01 0. -1.
</event>
<event>
11    1  0.7105277E-009  0.1473386E+03  0.7561462E-02  0.1099630E+00
         22   -1    0    0    0    0  0.00000000000E+00  0.00000000000E+00  0.70893366658E+02  0.70893366658E+02  0.00000000000E+00 0. -1.
         22   -1    0    0    0    0 -0.00000000000E+00 -0.00000000000E+00 -0.94830329913E+03  0.94830329913E+03  0.00000000000E+00 0. -1.
        -24    2    1    2    0    0 -0.12158387974E+02 -0.79525118849E+02 -0.74407036365E+03  0.75328368309E+03  0.85577626859E+02 0.  0.
         25    2    1    2    0    0  0.38926162849E+02  0.50108772202E+02 -0.88794426645E+02  0.16600772029E+03  0.12509187738E+03 0.  0.
         24    2    1    2    0    0 -0.26767774875E+02  0.29416346647E+02 -0.44545142179E+02  0.99905262411E+02  0.80093423849E+02 0.  0.
        -13    1    5    5    0    0 -0.50104712161E+01  0.44505226758E+02 -0.55443398583E+02  0.71272648871E+02  0.00000000000E+00 0.  1.
         14    1    5    5    0    0 -0.21757303658E+02 -0.15088880110E+02  0.10898256404E+02  0.28632613540E+02  0.00000000000E+00 0. -1.
         11    1    3    3    0    0 -0.97306379312E+01  0.10944869472E+02 -0.28507695058E+03  0.28545287393E+03  0.00000000000E+00 0. -1.
        -12    1    3    3    0    0 -0.24277500430E+01 -0.90469988321E+02 -0.45899341307E+03  0.46783080916E+03  0.00000000000E+00 0.  1.
          5    1    4    4  501    0  0.74248330294E+02 -0.27718133518E+01 -0.62054388792E+02  0.96895392404E+02  0.41800000000E+01 0. -1.
         -5    1    4    4    0  501 -0.35322167445E+02  0.52880585554E+02 -0.26740037852E+02  0.69112327886E+02  0.41800000000E+01 0. -1.
</event>
<event>
11    1  0.7105277E-009  0.1434402E+03  0.7561462E-02  0.1103777E+00
         22   -1    0    0    0    0  0.00000000000E+00  0.00000000000E+00  0.14976418614E+03  0.14976418614E+03  0.00000000000E+00 0.  1.
         22   -1    0    0    0    0 -0.00000000000E+00 -0.00000000000E+00 -0.15455886268E+04  0.15455886268E+04  0.00000000000E+00 0. -1.
         24    2    1    2    0    0 -0.69886300954E+02 -0.15038774034E+02 -0.13818172793E+04  0.13859801806E+04  0.80073766280E+02 0.  0.
         25    2    1    2    0    0  0.50536389634E+02  0.96173714905E+01 -0.11576938362E+03  0.17802236749E+03  0.12507194981E+03 0.  0.
        -24    2    1    2    0    0  0.19349911320E+02  0.54214025432E+01  0.10176222220E+03  0.13135026485E+03  0.80582451776E+02 0.  0.
        -13    1    3    3    0    0 -0.44867112193E+02 -0.40456961110E+02 -0.53281663000E+03  0.53623071962E+03  0.00000000000E+00 0.  1.
         14    1    3    3    0    0 -0.25019188761E+02  0.25418187077E+02 -0.84900064927E+03  0.84974946102E+03  0.00000000000E+00 0. -1.
         13    1    5    5    0    0  0.17581052071E+02 -0.25468746630E+02  0.70886828763E+01  0.31749013713E+02  0.00000000000E+00 0. -1.
        -14    1    5    5    0    0  0.17688592490E+01  0.30890149173E+02  0.94673539324E+02  0.99601251133E+02  0.00000000000E+00 0.  1.
          5    1    4    4  501    0  0.30425778155E+02  0.65710034767E+02 -0.81711743891E+02  0.10926032279E+03  0.41800000000E+01 0. -1.
         -5    1    4    4    0  501  0.20110611479E+02 -0.56092663276E+02 -0.34057639729E+02  0.68762044700E+02  0.41800000000E+01 0. -1.
</event>
<event>
11    1  0.7105277E-009  0.1287453E+03  0.7561462E-02  0.1120820E+00
         22   -1    0    0    0    0  0.00000000000E+00  0.00000000000E+00  0.13542373844E+04  0.13542373844E+04  0.00000000000E+00 0.  1.
         22   -1    0    0    0    0 -0.00000000000E+00 -0.00000000000E+00 -0.14920859772E+03  0.14920859772E+03  0.00000000000E+00 0.  1.
        -24    2    1    2    0    0  0.12999493519E+02  0.42902233613E+02 -0.50265739650E+01  0.92657217971E+02  0.80935190835E+02 0.  0.
         25    2    1    2    0    0 -0.22312522198E+02 -0.76911514972E+01 -0.57906302150E+02  0.13984928018E+03  0.12509068263E+03 0.  0.
         24    2    1    2    0    0  0.93130286789E+01 -0.35211082116E+02  0.12679616628E+04  0.12709394840E+04  0.78954675531E+02 0.  0.
        -11    1    5    5    0    0 -0.27104432074E+02 -0.36736406985E+02  0.48929745973E+03  0.49142264695E+03  0.00000000000E+00 0.  1.
         12    1    5    5    0    0  0.36417460753E+02  0.15253248692E+01  0.77866420306E+03  0.77951683701E+03  0.00000000000E+00 0. -1.
         13    1    3    3    0    0  0.22656541981E+02  0.49249370880E+02  0.25579068828E+02  0.59942540726E+02  0.00000000000E+00 0. -1.
        -14    1    3    3    0    0 -0.96570484614E+01 -0.63471372669E+01 -0.30605642793E+02  0.32714677245E+02  0.00000000000E+00 0.  1.
          5    1    4    4  501    0 -0.65758727272E+02 -0.55238186406E+01 -0.68158739260E+02  0.94962144681E+02  0.41800000000E+01 0. -1.
         -5    1    4    4    0  501  0.43446205074E+02 -0.21673328567E+01  0.10252437110E+02  0.44887135504E+02  0.41800000000E+01 0. -1.
</event>
<event>
11    1  0.7105277E-009  0.3274802E+03  0.7561462E-02  0.9891881E-01
         22   -1    0    0    0    0  0.00000000000E+00  0.00000000000E+00  0.65908798840E+03  0.65908798840E+03  0.00000000000E+00 0.  1.
         22   -1    0    0    0    0 -0.00000000000E+00 -0.00000000000E+00 -0.66304935577E+03  0.66304935577E+03  0.00000000000E+00 0.  1.
        -24    2    1    2    0    0 -0.48446417322E+01 -0.24830494962E+03 -0.15927629957E+03  0.30574679809E+03  0.80208144079E+02 0.  0.
         25    2    1    2    0    0  0.21604822893E+02  0.36959490329E+03 -0.32866786058E+03  0.51062422398E+03  0.12508946650E+03 0.  0.
         24    2    1    2    0    0 -0.16760181161E+02 -0.12128995368E+03  0.48398279279E+03  0.50576632210E+03  0.81043644514E+02 0.  0.
        -11    1    5    5    0    0  0.26760196862E+02 -0.17343902728E+02  0.74003590397E+02  0.80581948907E+02  0.00000000000E+00 0.  1.
         12    1    5    5    0    0 -0.43520378023E+02 -0.10394605095E+03  0.40997920239E+03  0.42518437319E+03  0.00000000000E+00 0. -1.
         11    1    3    3    0    0 -0.32761902373E+02 -0.21157588707E+03 -0.12187326387E+03  0.24635500945E+03  0.00000000000E+00 0. -1.
        -12    1    3    3    0    0  0.27917260641E+02 -0.36729062548E+02 -0.37403035702E+02  0.59391788634E+02  0.00000000000E+00 0.  1.
          5    1    4    4  501    0  0.74070198321E+02  0.22224693032E+03 -0.19953689507E+03  0.30775402062E+03  0.41800000000E+01 0.  1.
         -5    1    4    4    0  501 -0.52465375428E+02  0.14734797297E+03 -0.12913096551E+03  0.20287020336E+03  0.41800000000E+01 0.  1.
</event>
<event>
11    1  0.7105277E-009  0.2039061E+03  0.7561462E-02  0.1051795E+00
         22   -1    0    0    0    0  0.00000000000E+00  0.00000000000E+00  0.87658312712E+03  0.87658312712E+03  0.00000000000E+00 0. -1.
         22   -1    0    0    0    0 -0.00000000000E+00 -0.00000000000E+00 -0.64378875857E+03  0.64378875857E+03  0.00000000000E+00 0. -1.
        -24    2    1    2    0    0  0.25217594554E+02  0.54420766314E+02 -0.50529690970E+03  0.51529359731E+03  0.81271013294E+02 0.  0.
         25    2    1    2    0    0 -0.17160915737E+03 -0.11287368779E+03 -0.57759285200E+01  0.24056036220E+03  0.12508298934E+03 0.  0.
         24    2    1    2    0    0  0.14639156282E+03  0.58452921480E+02  0.74386720677E+03  0.76451792618E+03  0.79385165226E+02 0.  0.
        -13    1    5    5    0    0  0.10088639475E+02 -0.15917307522E+02  0.48654768412E+02  0.52176889658E+02  0.00000000000E+00 0.  1.
         14    1    5    5    0    0  0.13630292334E+03  0.74370229001E+02  0.69521243836E+03  0.71234103652E+03  0.00000000000E+00 0. -1.
         13    1    3    3    0    0  0.61986748688E+01  0.17047491281E+02 -0.41854747395E+03  0.41894036387E+03  0.00000000000E+00 0. -1.
        -14    1    3    3    0    0  0.19018919685E+02  0.37373275033E+02 -0.86749435744E+02  0.96353233441E+02  0.00000000000E+00 0.  1.
          5    1    4    4  501    0 -0.17761564016E+03 -0.12681186127E+03 -0.20195690645E+02  0.21921200266E+03  0.41800000000E+01 0. -1.
         -5    1    4    4    0  501  0.60064827892E+01  0.13938173479E+02  0.14419762125E+02  0.21348359543E+02  0.41800000000E+01 0. -1.
</event>
<event>
11    1  0.7105277E-009  0.2016509E+03  0.7561462E-02  0.1053362E+00
         22   -1    0    0    0    0  0.00000000000E+00  0.00000000000E+00  0.17282234327E+04  0.17282234327E+04  0.00000000000E+00 0. -1.
         22   -1    0    0    0    0 -0.00000000000E+00 -0.00000000000E+00 -0.96349507642E+03  0.96349507642E+03  0.00000000000E+00 0. -1.
        -24    2    1    2    0    0  0.93348539966E+02  0.15050698355E+03 -0.87325327877E+03  0.89462076819E+03  0.80054531303E+02 0.  0.
         25    2    1    2    0    0  0.38714714677E+02 -0.62268390856E+02 -0.54810619923E+01  0.14510771532E+03  0.12510006144E+03 0.  0.
         24    2    1    2    0    0 -0.13206325464E+03 -0.88238592698E+02  0.16434626970E+04  0.16519900256E+04  0.53615815123E+02 0.  0.
        -13    1    5    5    0    0 -0.26139356085E+02 -0.41926619975E+02  0.63598882748E+03  0.63790508391E+03  0.00000000000E+00 0.  1.
         14    1    5    5    0    0 -0.10592389856E+03 -0.46311972723E+02  0.10074738695E+04  0.10140849417E+04  0.00000000000E+00 0. -1.
         11    1    3    3    0    0  0.75063559685E+02  0.15461347110E+03 -0.82782846679E+03  0.84548201274E+03  0.00000000000E+00 0. -1.
        -12    1    3    3    0    0  0.18284980281E+02 -0.41064875454E+01 -0.45424811984E+02  0.49138755454E+02  0.00000000000E+00 0.  1.
          5    1    4    4  501    0  0.59552811692E+02  0.17686589771E+02 -0.15748228934E+01  0.62284069435E+02  0.41800000000E+01 0.  1.
         -5    1    4    4    0  501 -0.20838097015E+02 -0.79954980627E+02 -0.39062390989E+01  0.82823645888E+02  0.41800000000E+01 0.  1.
</event>
<event>
11    1  0.7105277E-009  0.2432653E+03  0.7561462E-02  0.1027549E+00
         22   -1    0    0    0    0  0.00000000000E+00  0.00000000000E+00  0.17364699554E+04  0.17364699554E+04  0.00000000000E+00 0. -1.
         22   -1    0    0    0    0 -0.00000000000E+00 -0.00000000000E+00 -0.37812577509E+03  0.37812577509E+03  0.00000000000E+00 0. -1.
         24    2    1    2    0    0  0.30669865830E+01 -0.56445878876E+01 -0.19252649254E+03  0.20908652174E+03  0.81298557595E+02 0.  0.
         25    2    1    2    0    0  0.18874508610E+03 -0.76997137828E+02 -0.85501538310E+02  0.25398880812E+03  0.12508610968E+03 0.  0.
        -24    2    1    2    0    0 -0.19181207269E+03  0.82641725716E+02  0.16363722112E+04  0.16515204006E+04  0.78639011938E+02 0.  0.
        -11    1    3    3    0    0  0.29270875533E+02  0.30663742126E+01 -0.23071312571E+02  0.37396153132E+02  0.00000000000E+00 0.  1.
         12    1    3    3    0    0 -0.26203888950E+02 -0.87109621002E+01 -0.16945517997E+03  0.17169036861E+03  0.00000000000E+00 0. -1.
         13    1    5    5    0    0 -0.19351677645E+03  0.68256805440E+02  0.14309822139E+04  0.14456202235E+04  0.00000000000E+00 0. -1.
        -14    1    5    5    0    0  0.17047037659E+01  0.14384920276E+02  0.20538999730E+03  0.20590017712E+03  0.00000000000E+00 0.  1.
          5    1    4    4  501    0  0.10264253201E+03 -0.83259308615E+02 -0.10072847057E+03  0.16622664959E+03  0.41800000000E+01 0. -1.
         -5    1    4    4    0  501  0.86102554092E+02  0.62621707868E+01  0.15226932264E+02  0.87762158533E+02  0.41800000000E+01 0. -1.
</event>
<event>
11    1  0.7105277E-009  0.1703901E+03  0.7561462E-02  0.1077693E+00
         22   -1    0    0    0    0  0.00000000000E+00  0.00000000000E+00  0.51370008675E+03  0.51370008675E+03  0.00000000000E+00 0. -1.
         22   -1    0    0    0    0 -0.00000000000E+00 -0.00000000000E+00 -0.23428147734E+03  0.23428147734E+03  0.00000000000E+00 0.  1.
         24    2    1    2    0    0  0.67350335344E+02  0.84416748120E+02 -0.11546017109E+03  0.17719163012E+03  0.80022294660E+02 0.  0.
         25    2    1    2    0    0 -0.16066616709E+03 -0.58976588195E+02  0.69808047586E+02  0.22318657835E+03  0.12508888858E+03 0.  0.
        -24    2    1    2    0    0  0.93315831742E+02 -0.25440159926E+02  0.32507073292E+03  0.34760335562E+03  0.76171288882E+02 0.  0.
        -13    1    3    3    0    0  0.80468700811E+02  0.71032429619E+02 -0.70328588089E+02  0.12832352929E+03  0.00000000000E+00 0.  1.
         14    1    3    3    0    0 -0.13118365467E+02  0.13384318501E+02 -0.45131583002E+02  0.48868100828E+02  0.00000000000E+00 0. -1.
         11    1    5    5    0    0  0.88975927817E+02 -0.35225163552E+02  0.32276671399E+03  0.33665394627E+03  0.00000000000E+00 0. -1.
        -12    1    5    5    0    0  0.43399039248E+01  0.97850036263E+01  0.23040189305E+01  0.10949409357E+02  0.00000000000E+00 0.  1.
          5    1    4    4  501    0 -0.10262598217E+02 -0.44211302178E+02  0.54772619210E+02  0.71256384820E+02  0.41800000000E+01 0.  1.
         -5    1    4    4    0  501 -0.15040356887E+03 -0.14765286017E+02  0.15035428375E+02  0.15193019353E+03  0.41800000000E+01 0.  1.
</event>
<event>
11    1  0.7105277E-009  0.1859673E+03  0.7561462E-02  0.1064916E+00
         22   -1    0    0    0    0  0.00000000000E+00  0.00000000000E+00  0.19115001797E+03  0.19115001797E+03  0.00000000000E+00 0.  1.
         22   -1    0    0    0    0 -0.00000000000E+00 -0.00000000000E+00 -0.40858366570E+03  0.40858366570E+03  0.00000000000E+00 0. -1.
        -24    2    1    2    0    0 -0.18254372522E+02 -0.10126563296E+02 -0.23817298371E+03  0.25239636847E+03  0.80881315803E+02 0.  0.
         25    2    1    2    0    0 -0.11355282110E+03 -0.56582912331E+02  0.10268632013E+02  0.17846176932E+03  0.12508912485E+03 0.  0.
         24    2    1    2    0    0  0.13180719362E+03  0.66709475626E+02  0.10470703963E+02  0.16887554589E+03  0.81154321679E+02 0.  0.
        -11    1    5    5    0    0  0.89192783129E+02  0.27485534328E+02  0.42653791121E+02  0.10261653403E+03  0.00000000000E+00 0.  1.
         12    1    5    5    0    0  0.42614410495E+02  0.39223941298E+02 -0.32183087158E+02  0.66259011854E+02  0.00000000000E+00 0. -1.
         11    1    3    3    0    0  0.40083901843E+01 -0.54941644887E+01 -0.22692512728E+03  0.22702701695E+03  0.00000000000E+00 0. -1.
        -12    1    3    3    0    0 -0.22262762706E+02 -0.46323988071E+01 -0.11247856430E+02  0.25369351515E+02  0.00000000000E+00 0.  1.
          5    1    4    4  501    0 -0.13665433359E+03 -0.52112387513E+02 -0.10651260467E+02  0.14670047570E+03  0.41800000000E+01 0.  1.
         -5    1    4    4    0  501  0.23101512484E+02 -0.44705248179E+01  0.20919892480E+02  0.31761293622E+02  0.41800000000E+01 0.  1.
</event>
<event>
11    1  0.7105277E-009  0.2480203E+03  0.7561462E-02  0.1024959E+00
         22   -1    0    0    0    0  0.00000000000E+00  0.00000000000E+00  0.51019511179E+03  0.51019511179E+03  0.00000000000E+00 0. -1.
         22   -1    0    0    0    0 -0.00000000000E+00 -0.00000000000E+00 -0.42124091219E+03  0.42124091219E+03  0.00000000000E+00 0.  1.
         24    2    1    2    0    0  0.17633546426E+03  0.27368619571E+02 -0.83646121216E+02  0.21315679775E+03  0.81215205090E+02 0.  0.
         25    2    1    2    0    0 -0.24542513333E+03 -0.84585669740E+02 -0.18395448311E+03  0.34186877191E+03  0.12508706472E+03 0.  0.
        -24    2    1    2    0    0  0.69089669067E+02  0.57217050170E+02  0.35655480393E+03  0.37641045432E+03  0.80661816944E+02 0.  0.
        -11    1    3    3    0    0  0.16706626563E+03  0.23897244138E+02 -0.46987899138E+02  0.17518583863E+03  0.00000000000E+00 0.  1.
         12    1    3    3    0    0  0.92691986287E+01  0.34713754330E+01 -0.36658222078E+02  0.37970959121E+02  0.00000000000E+00 0. -1.
         11    1    5    5    0    0  0.72239251983E+02  0.63049341048E+02  0.35711042800E+03  0.36975882237E+03  0.00000000000E+00 0. -1.
        -12    1    5    5    0    0 -0.31495829158E+01 -0.58322908781E+01 -0.55562407363E+00  0.66516319457E+01  0.00000000000E+00 0.  1.
          5    1    4    4  501    0 -0.24877423761E+03 -0.88950624942E+02 -0.19530799282E+03  0.32857802640E+03  0.41800000000E+01 0.  1.
         -5    1    4    4    0  501  0.33491042805E+01  0.43649552015E+01  0.11353509715E+02  0.13290745511E+02  0.41800000000E+01 0.  1.
</event>
<event>
11    1  0.7105277E-009  0.2629803E+03  0.7561462E-02  0.1017203E+00
         22   -1    0    0    0    0  0.00000000000E+00  0.00000000000E+00  0.20323024748E+04  0.20323024748E+04  0.00000000000E+00 0. -1.
         22   -1    0    0    0    0 -0.00000000000E+00 -0.00000000000E+00 -0.44161226223E+02  0.44161226223E+02  0.00000000000E+00 0.  1.
         24    2    1    2    0    0  0.21749772646E+03 -0.11752012189E+03  0.76194373375E+03  0.80507274148E+03  0.80421549374E+02 0.  0.
         25    2    1    2    0    0 -0.19367811148E+03  0.88110722666E+02  0.91218141648E+03  0.94498525458E+03  0.12508990563E+03 0.  0.
        -24    2    1    2    0    0 -0.23819614984E+02  0.29409399228E+02  0.31401609831E+03  0.32640570493E+03  0.80636762030E+02 0.  0.
        -11    1    3    3    0    0  0.82509547215E+02 -0.49178377682E+01  0.20463398855E+03  0.22069680510E+03  0.00000000000E+00 0.  1.
         12    1    3    3    0    0  0.13498817925E+03 -0.11260228413E+03  0.55730974520E+03  0.58437593639E+03  0.00000000000E+00 0. -1.
         13    1    5    5    0    0  0.16656699520E+02 -0.14854900634E+02  0.15225965711E+03  0.15388670149E+03  0.00000000000E+00 0. -1.
        -14    1    5    5    0    0 -0.40476314504E+02  0.44264299862E+02  0.16175644121E+03  0.17251900345E+03  0.00000000000E+00 0.  1.
          5    1    4    4  501    0 -0.23938679065E+02  0.72149910859E+02  0.29708838875E+03  0.30668820180E+03  0.41800000000E+01 0. -1.
         -5    1    4    4    0  501 -0.16973943241E+03  0.15960811808E+02  0.61509302773E+03  0.63829705278E+03  0.41800000000E+01 0. -1.
</event>
<event>
11    1  0.7105277E-009  0.2823427E+03  0.7561462E-02  0.1007954E+00
         22   -1    0    0    0    0  0.00000000000E+00  0.00000000000E+00  0.19250130467E+04  0.19250130467E+04  0.00000000000E+00 0. -1.
         22   -1    0    0    0    0 -0.00000000000E+00 -0.00000000000E+00 -0.87325620939E+03  0.87325620939E+03  0.00000000000E+00 0.  1.
        -24    2    1    2    0    0 -0.83319577533E+02  0.15336007104E+02 -0.67049488173E+03  0.68084957564E+03  0.82555515331E+02 0.  0.
         25    2    1    2    0    0  0.22065951188E+03 -0.22444925004E+03 -0.34964324634E+02  0.34049728990E+03  0.12509122433E+03 0.  0.
         24    2    1    2    0    0 -0.13733993434E+03  0.20911324294E+03  0.17572160437E+04  0.17769223905E+04  0.83990189697E+02 0.  0.
        -13    1    5    5    0    0 -0.40156275991E+02  0.11671304222E+02  0.20878152570E+03  0.21292832437E+03  0.00000000000E+00 0.  1.
         14    1    5    5    0    0 -0.97183658354E+02  0.19744193871E+03  0.15484345180E+04  0.15639940662E+04  0.00000000000E+00 0. -1.
         13    1    3    3    0    0 -0.39809325516E+02 -0.33899583495E+02 -0.27333588909E+03  0.27829206317E+03  0.00000000000E+00 0. -1.
        -14    1    3    3    0    0 -0.43510252017E+02  0.49235590599E+02 -0.39715899264E+03  0.40255751247E+03  0.00000000000E+00 0.  1.
          5    1    4    4  501    0  0.14976764744E+03 -0.20023244306E+03  0.14708921771E+02  0.25051388036E+03  0.41800000000E+01 0. -1.
         -5    1    4    4    0  501  0.70891864439E+02 -0.24216806981E+02 -0.49673246404E+02  0.89983409539E+02  0.41800000000E+01 0. -1.
</event>
<event>
11    1  0.7105277E-009  0.1639376E+03  0.7561462E-02  0.1083431E+00
         22   -1    0    0    0    0  0.00000000000E+00  0.00000000000E+00  0.24786789408E+04  0.24786789408E+04  0.00000000000E+00 0.  1.
         22   -1    0    0    0    0 -0.00000000000E+00 -0.00000000000E+00 -0.20298508116E+04  0.20298508116E+04  0.00000000000E+00 0.  1.
         24    2    1    2    0    0 -0.67649220284E+01 -0.10228455601E+03 -0.11931164780E+04  0.12008106840E+04  0.88946467790E+02 0.  0.
         25    2    1    2    0    0 -0.28395167475E+02  0.11423446280E+03 -0.82297320850E+03  0.84070581999E+03  0.12508227623E+03 0.  0.
        -24    2    1    2    0    0  0.35160089503E+02 -0.11949906783E+02  0.24649178158E+04  0.24670132484E+04  0.94633488594E+02 0.  0.
        -13    1    3    3    0    0 -0.19221008685E+02 -0.11476770668E+03 -0.95972412535E+03  0.96675305556E+03  0.00000000000E+00 0.  1.
         14    1    3    3    0    0  0.12456086656E+02  0.12483150667E+02 -0.23339235266E+03  0.23405762842E+03  0.00000000000E+00 0. -1.
         13    1    5    5    0    0 -0.16756511075E+02 -0.22190600942E+02  0.26418847633E+03  0.26564780153E+03  0.00000000000E+00 0. -1.
        -14    1    5    5    0    0  0.51916600578E+02  0.10240694159E+02  0.22007293395E+04  0.22013654469E+04  0.00000000000E+00 0.  1.
          5    1    4    4  501    0  0.20930037659E+01  0.65484787823E+02 -0.71756879147E+03  0.72056580615E+03  0.41800000000E+01 0. -1.
         -5    1    4    4    0  501 -0.30488171241E+02  0.48749674972E+02 -0.10540441703E+03  0.12014001384E+03  0.41800000000E+01 0. -1.
</event>
<event>
11    1  0.7105277E-009  0.1580307E+03  0.7561462E-02  0.1088944E+00
         22   -1    0    0    0    0  0.00000000000E+00  0.00000000000E+00  0.16943140697E+04  0.16943140697E+04  0.00000000000E+00 0.  1.
         22   -1    0    0    0    0 -0.00000000000E+00 -0.00000000000E+00 -0.41416225987E+03  0.41416225987E+03  0.00000000000E+00 0.  1.
         24    2    1    2    0    0 -0.26696903783E+02  0.94212846093E+02 -0.38809344402E+03  0.40792245943E+03  0.78711032079E+02 0.  0.
         25    2    1    2    0    0 -0.27377380239E+02 -0.58368006497E+02  0.33608949021E+03  0.36436194300E+03  0.12508850846E+03 0.  0.
        -24    2    1    2    0    0  0.54074284022E+02 -0.35844839597E+02  0.13321557637E+04  0.13361919272E+04  0.81000042107E+02 0.  0.
        -11    1    3    3    0    0 -0.35729291262E+02  0.30217089089E+02 -0.76339975581E+02  0.89540195437E+02  0.00000000000E+00 0.  1.
         12    1    3    3    0    0  0.90323874792E+01  0.63995757004E+02 -0.31175346844E+03  0.31838226399E+03  0.00000000000E+00 0. -1.
         11    1    5    5    0    0  0.18345310291E+02  0.26017874719E+02  0.47389037078E+03  0.47495848633E+03  0.00000000000E+00 0. -1.
        -12    1    5    5    0    0  0.35728973731E+02 -0.61862714315E+02  0.85826539288E+03  0.86123344083E+03  0.00000000000E+00 0.  1.
          5    1    4    4  501    0 -0.49746725290E+02 -0.86908963449E+02  0.28041054577E+03  0.29778423595E+03  0.41800000000E+01 0.  1.
         -5    1    4    4    0  501  0.22369345050E+02  0.28540956953E+02  0.55678944442E+02  0.66577707049E+02  0.41800000000E+01 0.  1.
</event>
<event>
11    1  0.7105277E-009  0.1761782E+03  0.7561462E-02  0.1072777E+00
         22   -1    0    0    0    0  0.00000000000E+00  0.00000000000E+00  0.92847756824E+03  0.92847756824E+03  0.00000000000E+00 0. -1.
         22   -1    0    0    0    0 -0.00000000000E+00 -0.00000000000E+00 -0.80853135182E+03  0.80853135182E+03  0.00000000000E+00 0. -1.
        -24    2    1    2    0    0  0.24909884787E+02 -0.12325621026E+03 -0.67118737144E+03  0.68715541887E+03  0.76664766242E+02 0.  0.
         25    2    1    2    0    0  0.32373587161E+02  0.11855056897E+03 -0.65702547767E+02  0.18726124529E+03  0.12509061778E+03 0.  0.
         24    2    1    2    0    0 -0.57283471948E+02  0.47056412949E+01  0.85683613562E+03  0.86259225590E+03  0.81201585037E+02 0.  0.
        -13    1    5    5    0    0  0.14554404816E+02  0.19375445539E+02  0.14757237302E+03  0.14954880096E+03  0.00000000000E+00 0.  1.
         14    1    5    5    0    0 -0.71837876764E+02 -0.14669804244E+02  0.70926376260E+03  0.71304345494E+03  0.00000000000E+00 0. -1.
         13    1    3    3    0    0  0.69867571475E+00 -0.62255461220E+02 -0.49926766606E+03  0.50313460721E+03  0.00000000000E+00 0. -1.
        -14    1    3    3    0    0  0.24211209073E+02 -0.61000749044E+02 -0.17191970538E+03  0.18402081167E+03  0.00000000000E+00 0.  1.
          5    1    4    4  501    0 -0.28746145365E+02  0.99690402231E+02 -0.13732639708E+02  0.10474051252E+03  0.41800000000E+01 0.  1.
         -5    1    4    4    0  501  0.61119732525E+02  0.18860166739E+02 -0.51969908059E+02  0.82520732771E+02  0.41800000000E+01 0.  1.
</event>
<event>
11    1  0.7105277E-009  0.1382295E+03  0.7561462E-02  0.1109552E+00
         22   -1    0    0    0    0  0.00000000000E+00  0.00000000000E+00  0.48297099365E+03  0.48297099365E+03  0.00000000000E+00 0.  1.
         22   -1    0    0    0    0 -0.00000000000E+00 -0.00000000000E+00 -0.51275127223E+03  0.51275127223E+03  0.00000000000E+00 0.  1.
        -24    2    1    2    0    0 -0.53107866370E+02  0.28492891812E+02 -0.47142911359E+03  0.48204609805E+03  0.80565136073E+02 0.  0.
         25    2    1    2    0    0 -0.90806768810E+01 -0.53683239453E+02  0.14342030690E+03  0.19794214066E+03  0.12508939895E+03 0.  0.
         24    2    1    2    0    0  0.62188543251E+02  0.25190347641E+02  0.29822852811E+03  0.31573402718E+03  0.79030072819E+02 0.  0.
        -11    1    5    5    0    0  0.77595500304E+02  0.34131415493E+02  0.26182189148E+03  0.27520304877E+03  0.00000000000E+00 0.  1.
         12    1    5    5    0    0 -0.15406957053E+02 -0.89410678521E+01  0.36406636631E+02  0.40530978408E+02  0.00000000000E+00 0. -1.
         13    1    3    3    0    0 -0.30404290910E+02 -0.10560723487E+02 -0.59501358534E+02  0.67648809699E+02  0.00000000000E+00 0. -1.
        -14    1    3    3    0    0 -0.22703575459E+02  0.39053615300E+02 -0.41192775506E+03  0.41439728835E+03  0.00000000000E+00 0.  1.
          5    1    4    4  501    0 -0.27078509837E+01  0.38501789295E+02  0.69202715566E+02  0.79348651391E+02  0.41800000000E+01 0. -1.
         -5    1    4    4    0  501 -0.63728258973E+01 -0.92185028748E+02  0.74217591331E+02  0.11859348927E+03  0.41800000000E+01 0. -1.
</event>
<event>
11    1  0.8057784E-009  0.1483704E+03  0.7561462E-02  0.1098556E+00
         22   -1    0    0    0    0  0.00000000000E+00  0.00000000000E+00  0.58393255459E+03  0.58393255459E+03  0.00000000000E+00 0.  1.
         22   -1    0    0    0    0 -0.00000000000E+00 -0.00000000000E+00 -0.18356377231E+03  0.18356377231E+03  0.00000000000E+00 0.  1.
         24    2    1    2    0    0  0.10648454288E+02 -0.59241614323E+02 -0.11468360878E+03  0.15423070333E+03  0.83736618520E+02 0.  0.
         25    2    1    2    0    0  0.69986884039E+02  0.38584322576E+02  0.91535903515E+02  0.17439413633E+03  0.12509028446E+03 0.  0.
        -24    2    1    2    0    0 -0.80635338327E+02  0.20657291747E+02  0.42351648755E+03  0.43887148724E+03  0.79455557366E+02 0.  0.
        -13    1    3    3    0    0  0.12933284476E+02 -0.48965185696E+02 -0.12776676975E+03  0.13743801042E+03  0.00000000000E+00 0.  1.
         14    1    3    3    0    0 -0.22848301873E+01 -0.10276428626E+02  0.13083160966E+02  0.16792692909E+02  0.00000000000E+00 0. -1.
         11    1    5    5    0    0  0.54675968575E+01  0.14998579242E+02  0.17643967944E+03  0.17716041453E+03  0.00000000000E+00 0. -1.
        -12    1    5    5    0    0 -0.86102935185E+02  0.56587125054E+01  0.24707680811E+03  0.26171107271E+03  0.00000000000E+00 0.  1.
          5    1    4    4  501    0  0.19037786958E+02  0.21608005185E+02  0.11279277999E+03  0.11648616586E+03  0.41800000000E+01 0. -1.
         -5    1    4    4    0  501  0.50949097081E+02  0.16976317391E+02 -0.21256876474E+02  0.57907970461E+02  0.41800000000E+01 0. -1.
</event>
<event>
11    1  0.7105277E-009  0.1535328E+03  0.7561462E-02  0.1093323E+00
         22   -1    0    0    0    0  0.00000000000E+00  0.00000000000E+00  0.63090128816E+03  0.63090128816E+03  0.00000000000E+00 0. -1.
         22   -1    0    0    0    0 -0.00000000000E+00 -0.00000000000E+00 -0.71763697499E+03  0.71763697499E+03  0.00000000000E+00 0. -1.
        -24    2    1    2    0    0 -0.32754726535E+02 -0.82028977662E+02 -0.67462987255E+03  0.68503417023E+03  0.79653776753E+02 0.  0.
         25    2    1    2    0    0  0.81751346864E+02  0.99284757590E+02  0.22214557107E+03  0.28554805355E+03  0.12509312664E+03 0.  0.
         24    2    1    2    0    0 -0.48996620329E+02 -0.17255779928E+02  0.36574861465E+03  0.37795603937E+03  0.79876703952E+02 0.  0.
        -13    1    5    5    0    0 -0.36007257294E+02  0.22685199667E+02  0.96721777878E+02  0.10567044609E+03  0.00000000000E+00 0.  1.
         14    1    5    5    0    0 -0.12989363035E+02 -0.39940979595E+02  0.26902683677E+03  0.27228559328E+03  0.00000000000E+00 0. -1.
         13    1    3    3    0    0 -0.21673322489E+02 -0.84731596246E+02 -0.66300252693E+03  0.66874623515E+03  0.00000000000E+00 0. -1.
        -14    1    3    3    0    0 -0.11081404046E+02  0.27026185846E+01 -0.11627345620E+02  0.16287935076E+02  0.00000000000E+00 0.  1.
          5    1    4    4  501    0  0.21683038130E+02  0.49070641153E+02  0.42522266078E+01  0.53978104791E+02  0.41800000000E+01 0.  1.
         -5    1    4    4    0  501  0.60068308734E+02  0.50214116437E+02  0.21789334447E+03  0.23156994876E+03  0.41800000000E+01 0.  1.
</event>
<event>
11    1  0.7105277E-009  0.1286748E+03  0.7561462E-02  0.1120908E+00
         22   -1    0    0    0    0  0.00000000000E+00  0.00000000000E+00  0.38210700316E+03  0.38210700316E+03  0.00000000000E+00 0. -1.
         22   -1    0    0    0    0 -0.00000000000E+00 -0.00000000000E+00 -0.10569577571E+04  0.10569577571E+04  0.00000000000E+00 0. -1.
         24    2    1    2    0    0  0.39988115722E+02  0.15258495178E+01 -0.87749456128E+03  0.88160799634E+03  0.75063816291E+02 0.  0.
         25    2    1    2    0    0 -0.12520894624E+02  0.13230471184E+02 -0.14908305076E+03  0.19546381022E+03  0.12509407226E+03 0.  0.
        -24    2    1    2    0    0 -0.27467221098E+02 -0.14756320701E+02  0.35172685808E+03  0.36199295371E+03  0.79717743377E+02 0.  0.
        -11    1    3    3    0    0 -0.13254685475E+02 -0.22857193077E+02 -0.29102028721E+03  0.29221729163E+03  0.00000000000E+00 0.  1.
         12    1    3    3    0    0  0.53242801197E+02  0.24383042595E+02 -0.58647427407E+03  0.58939070471E+03  0.00000000000E+00 0. -1.
         11    1    5    5    0    0 -0.90866333594E+01 -0.27582491961E+02  0.32826048111E+03  0.32954256815E+03  0.00000000000E+00 0. -1.
        -12    1    5    5    0    0 -0.18380587739E+02  0.12826171259E+02  0.23466376967E+02  0.32450385556E+02  0.00000000000E+00 0.  1.
          5    1    4    4  501    0 -0.60951139449E+02 -0.10056784980E+02 -0.39782346439E+02  0.73595433367E+02  0.41800000000E+01 0. -1.
         -5    1    4    4    0  501  0.48430244825E+02  0.23287256164E+02 -0.10930070432E+03  0.12186837686E+03  0.41800000000E+01 0. -1.
</event>
<event>
11    1  0.7105277E-009  0.1709454E+03  0.7561462E-02  0.1077212E+00
         22   -1    0    0    0    0  0.00000000000E+00  0.00000000000E+00  0.46233348552E+03  0.46233348552E+03  0.00000000000E+00 0. -1.
         22   -1    0    0    0    0 -0.00000000000E+00 -0.00000000000E+00 -0.25018587971E+04  0.25018587971E+04  0.00000000000E+00 0. -1.
         24    2    1    2    0    0  0.11520679217E+02  0.52819150989E+02 -0.23100922494E+04  0.23120917261E+04  0.79494402827E+02 0.  0.
         25    2    1    2    0    0  0.30539465249E+02 -0.15841634888E+03 -0.12041549453E+03  0.23701398008E+03  0.12508931570E+03 0.  0.
        -24    2    1    2    0    0 -0.42060144466E+02  0.10559719789E+03  0.39098243242E+03  0.41508657644E+03  0.80683204740E+02 0.  0.
        -11    1    3    3    0    0  0.19688700378E+02 -0.12124949314E+02 -0.28303649428E+03  0.28397942955E+03  0.00000000000E+00 0.  1.
         12    1    3    3    0    0 -0.81680211613E+01  0.64944100303E+02 -0.20270557552E+04  0.20281122965E+04  0.00000000000E+00 0. -1.
         11    1    5    5    0    0  0.88218063285E-01  0.51316051570E+02  0.27913600263E+03  0.28381376445E+03  0.00000000000E+00 0. -1.
        -12    1    5    5    0    0 -0.42148362529E+02  0.54281146324E+02  0.11184642979E+03  0.13127281199E+03  0.00000000000E+00 0.  1.
          5    1    4    4  501    0  0.38719613956E+02 -0.36513931737E+02 -0.99602146340E+02  0.11300679480E+03  0.41800000000E+01 0.  1.
         -5    1    4    4    0  501 -0.81801487070E+01 -0.12190241715E+03 -0.20813348191E+02  0.12400718528E+03  0.41800000000E+01 0.  1.
</event>
<event>
11    1  0.7105277E-009  0.1442250E+03  0.7561462E-02  0.1102930E+00
         22   -1    0    0    0    0  0.00000000000E+00  0.00000000000E+00  0.79250117789E+03  0.79250117789E+03  0.00000000000E+00 0. -1.
         22   -1    0    0    0    0 -0.00000000000E+00 -0.00000000000E+00 -0.41271695037E+03  0.41271695037E+03  0.00000000000E+00 0.  1.
        -24    2    1    2    0    0  0.66529798864E+02 -0.47266921149E+01 -0.30779713312E+03  0.32486921794E+03  0.79701805856E+02 0.  0.
         25    2    1    2    0    0 -0.11889377889E+03  0.23814410578E+02 -0.11398087597E+02  0.17458588228E+03  0.12508979608E+03 0.  0.
         24    2    1    2    0    0  0.52363980023E+02 -0.19087718463E+02  0.69897944824E+03  0.70576302803E+03  0.80142718190E+02 0.  0.
        -11    1    5    5    0    0  0.13089091634E+02 -0.13205288315E+02  0.28010286850E+02  0.33619639034E+02  0.00000000000E+00 0.  1.
         12    1    5    5    0    0  0.39274888389E+02 -0.58824301484E+01  0.67096916138E+03  0.67214338900E+03  0.00000000000E+00 0. -1.
         11    1    3    3    0    0 -0.12507060753E+02 -0.17869838071E+02 -0.42998419437E+02  0.48214331432E+02  0.00000000000E+00 0. -1.
        -12    1    3    3    0    0  0.79036859617E+02  0.13143145956E+02 -0.26479871368E+03  0.27665488651E+03  0.00000000000E+00 0.  1.
          5    1    4    4  501    0 -0.23271072960E+02  0.20672206522E+02 -0.59603823893E+02  0.67371887177E+02  0.41800000000E+01 0. -1.
         -5    1    4    4    0  501 -0.95622705927E+02  0.31422040568E+01  0.48205736296E+02  0.10721399511E+03  0.41800000000E+01 0. -1.
</event>
<event>
11    1  0.7105277E-009  0.1544376E+03  0.7561462E-02  0.1092429E+00
         22   -1    0    0    0    0  0.00000000000E+00  0.00000000000E+00  0.15690116454E+04  0.15690116454E+04  0.00000000000E+00 0. -1.
         22   -1    0    0    0    0 -0.00000000000E+00 -0.00000000000E+00 -0.16804101326E+03  0.16804101326E+03  0.00000000000E+00 0. -1.
         24    2    1    2    0    0 -0.79989398152E+02 -0.49373664900E+02 -0.11408128923E+03  0.16794922711E+03  0.79726656347E+02 0.  0.
         25    2    1    2    0    0  0.77144823039E+02 -0.67766034187E+01  0.18689524396E+03  0.23785966035E+03  0.12510051851E+03 0.  0.
        -24    2    1    2    0    0  0.28445751129E+01  0.56150268318E+02  0.13281566774E+04  0.13312437712E+04  0.71055431433E+02 0.  0.
        -11    1    3    3    0    0  0.31902753876E+01  0.16623657531E+02 -0.18632292124E+02  0.25173123694E+02  0.00000000000E+00 0.  1.
         12    1    3    3    0    0 -0.83179673539E+02 -0.65997322430E+02 -0.95448997107E+02  0.14277610342E+03  0.00000000000E+00 0. -1.
         13    1    5    5    0    0  0.26601369262E+01  0.72262638333E+02  0.11799598406E+04  0.11821735028E+04  0.00000000000E+00 0. -1.
        -14    1    5    5    0    0  0.18443818669E+00 -0.16112370014E+02  0.14819683682E+03  0.14907026843E+03  0.00000000000E+00 0.  1.
          5    1    4    4  501    0  0.23662175783E+02 -0.60969729044E+02  0.11855784210E+03  0.13546453686E+03  0.41800000000E+01 0. -1.
         -5    1    4    4    0  501  0.53482647256E+02  0.54193125626E+02  0.68337401861E+02  0.10239512350E+03  0.41800000000E+01 0. -1.
</event>
<event>
11    1  0.7105277E-009  0.1292299E+03  0.7561462E-02  0.1120219E+00
         22   -1    0    0    0    0  0.00000000000E+00  0.00000000000E+00  0.12786879921E+04  0.12786879921E+04  0.00000000000E+00 0. -1.
         22   -1    0    0    0    0 -0.00000000000E+00 -0.00000000000E+00 -0.28495619950E+03  0.28495619950E+03  0.00000000000E+00 0.  1.
        -24    2    1    2    0    0  0.72673871797E+01  0.18130315954E+02 -0.24700286007E+03  0.26079478429E+03  0.81375569776E+02 0.  0.
         25    2    1    2    0    0  0.18971116992E+02 -0.36787608627E+02  0.11818187897E+03  0.17699501334E+03  0.12508815612E+03 0.  0.
         24    2    1    2    0    0 -0.26238504172E+02  0.18657292673E+02  0.11225527737E+04  0.11258543940E+04  0.79917663758E+02 0.  0.
        -11    1    5    5    0    0  0.40195472577E+01  0.45355519235E+02  0.55021863647E+03  0.55209947275E+03  0.00000000000E+00 0.  1.
         12    1    5    5    0    0 -0.30258051429E+02 -0.26698226562E+02  0.57233413723E+03  0.57375492121E+03  0.00000000000E+00 0. -1.
         13    1    3    3    0    0  0.82100245302E+01 -0.44571290952E+01  0.29693150595E+01  0.98024147271E+01  0.00000000000E+00 0. -1.
        -14    1    3    3    0    0 -0.94263735058E+00  0.22587445050E+02 -0.24997217513E+03  0.25099236956E+03  0.00000000000E+00 0.  1.
          5    1    4    4  501    0 -0.29650614121E+02 -0.24580330503E+02 -0.93908059701E+01  0.39862403367E+02  0.41800000000E+01 0.  1.
         -5    1    4    4    0  501  0.48621731113E+02 -0.12207278124E+02  0.12757268494E+03  0.13713260998E+03  0.41800000000E+01 0.  1.
</event>
<event>
11    1  0.7105277E-009  0.1351275E+03  0.7561462E-02  0.1113125E+00
         22   -1    0    0    0    0  0.00000000000E+00  0.00000000000E+00  0.45909970132E+03  0.45909970132E+03  0.00000000000E+00 0. -1.
         22   -1    0    0    0    0 -0.00000000000E+00 -0.00000000000E+00 -0.74906428230E+03  0.74906428230E+03  0.00000000000E+00 0.  1.
         24    2    1    2    0    0 -0.87097573436E+01 -0.29253715661E+01 -0.70282644682E+03  0.70699487539E+03  0.76107304508E+02 0.  0.
         25    2    1    2    0    0 -0.25788122086E+02  0.41482519293E+02  0.85015752417E+02  0.15891876333E+03  0.12506665636E+03 0.  0.
        -24    2    1    2    0    0  0.34497879429E+02 -0.38557147727E+02  0.32784611342E+03  0.34225034490E+03  0.83519262304E+02 0.  0.
        -13    1    3    3    0    0 -0.38561727267E+02 -0.12144085178E+02 -0.51530837193E+03  0.51689186857E+03  0.00000000000E+00 0.  1.
         14    1    3    3    0    0  0.29851969924E+02  0.92187136121E+01 -0.18751807489E+03  0.19010300682E+03  0.00000000000E+00 0. -1.
         11    1    5    5    0    0  0.37922580120E+01  0.24151090929E+02  0.13402288500E+03  0.13623432063E+03  0.00000000000E+00 0. -1.
        -12    1    5    5    0    0  0.30705621417E+02 -0.62708238656E+02  0.19382322842E+03  0.20601602427E+03  0.00000000000E+00 0.  1.
          5    1    4    4  501    0 -0.38546535711E+02  0.28042176003E+02 -0.20245330483E+02  0.51957144424E+02  0.41800000000E+01 0. -1.
         -5    1    4    4    0  501  0.12758413625E+02  0.13440343290E+02  0.10526108290E+03  0.10696161891E+03  0.41800000000E+01 0. -1.
</event>
<event>
11    1  0.7105277E-009  0.1456782E+03  0.7561462E-02  0.1101378E+00
         22   -1    0    0    0    0  0.00000000000E+00  0.00000000000E+00  0.31281391658E+03  0.31281391658E+03  0.00000000000E+00 0.  1.
         22   -1    0    0    0    0 -0.00000000000E+00 -0.00000000000E+00 -0.73863088070E+03  0.73863088070E+03  0.00000000000E+00 0. -1.
        -24    2    1    2    0    0 -0.60575964904E+02 -0.48016592531E+02 -0.66223812414E+03  0.67152838904E+03  0.80099959676E+02 0.  0.
         25    2    1    2    0    0  0.54162670654E+02 -0.24732361560E+02  0.23208878603E+02  0.14047281125E+03  0.12509466037E+03 0.  0.
         24    2    1    2    0    0  0.64132942494E+01  0.72748954091E+02  0.21321228142E+03  0.23944359699E+03  0.80871617534E+02 0.  0.
        -11    1    5    5    0    0 -0.16353897288E+02  0.18273188597E+02  0.15358617303E+03  0.15553157854E+03  0.00000000000E+00 0.  1.
         12    1    5    5    0    0  0.22767191538E+02  0.54475765494E+02  0.59626108393E+02  0.83912018440E+02  0.00000000000E+00 0. -1.
         11    1    3    3    0    0 -0.75405051773E+01 -0.35826063731E+02 -0.47856332967E+03  0.47996169281E+03  0.00000000000E+00 0. -1.
        -12    1    3    3    0    0 -0.53035459726E+02 -0.12190528800E+02 -0.18367479448E+03  0.19156669624E+03  0.00000000000E+00 0.  1.
          5    1    4    4  501    0  0.24094341739E+02  0.49887086577E+02  0.22417685833E+02  0.59910631353E+02  0.41800000000E+01 0.  1.
         -5    1    4    4    0  501  0.30068328915E+02 -0.74619448137E+02  0.79119277055E+00  0.80562179898E+02  0.41800000000E+01 0.  1.
</event>
<event>
11    1  0.7105277E-009  0.1314935E+03  0.7561462E-02  0.1117447E+00
         22   -1    0    0    0    0  0.00000000000E+00  0.00000000000E+00  0.10184144864E+04  0.10184144864E+04  0.00000000000E+00 0.  1.
         22   -1    0    0    0    0 -0.00000000000E+00 -0.00000000000E+00 -0.14052172320E+03  0.14052172320E+03  0.00000000000E+00 0. -1.
        -24    2    1    2    0    0  0.34132092018E+02  0.22590333716E+02 -0.10612831630E+03  0.13960613578E+03  0.80940291228E+02 0.  0.
         25    2    1    2    0    0 -0.97902250277E+01 -0.44970597889E+02  0.28340601981E+03  0.31318344516E+03  0.12508675020E+03 0.  0.
         24    2    1    2    0    0 -0.24341866991E+02  0.22380264174E+02  0.70061505973E+03  0.70614662869E+03  0.81781395121E+02 0.  0.
        -13    1    5    5    0    0 -0.53044751691E+02  0.20051883963E+02  0.54009496621E+03  0.54306389703E+03  0.00000000000E+00 0.  1.
         14    1    5    5    0    0  0.28702884700E+02  0.23283802112E+01  0.16052009352E+03  0.16308273167E+03  0.00000000000E+00 0. -1.
         11    1    3    3    0    0  0.53045024486E+02 -0.54484527940E+01 -0.45126915214E+02  0.69856271997E+02  0.00000000000E+00 0. -1.
        -12    1    3    3    0    0 -0.18912932467E+02  0.28038786510E+02 -0.61001401087E+02  0.69749863785E+02  0.00000000000E+00 0.  1.
          5    1    4    4  501    0  0.99588824960E+01 -0.35165728395E+01  0.26217737587E+03  0.26242331154E+03  0.41800000000E+01 0.  1.
         -5    1    4    4    0  501 -0.19749107524E+02 -0.41454025050E+02  0.21228643943E+02  0.50760133613E+02  0.41800000000E+01 0.  1.
</event>
<event>
11    1  0.7105277E-009  0.1362417E+03  0.7561462E-02  0.1111829E+00
         22   -1    0    0    0    0  0.00000000000E+00  0.00000000000E+00  0.43730515574E+03  0.43730515574E+03  0.00000000000E+00 0. -1.
         22   -1    0    0    0    0 -0.00000000000E+00 -0.00000000000E+00 -0.37000614075E+03  0.37000614075E+03  0.00000000000E+00 0. -1.
         24    2    1    2    0    0 -0.20233780779E+01  0.57408728591E+02 -0.29646975485E+03  0.31262843754E+03  0.80884907373E+02 0.  0.
         25    2    1    2    0    0  0.17470210922E+02 -0.23835305571E+02  0.79765688733E+01  0.12878038366E+03  0.12508969383E+03 0.  0.
        -24    2    1    2    0    0 -0.15446832844E+02 -0.33573423021E+02  0.35579220097E+03  0.36590247529E+03  0.77011374321E+02 0.  0.
        -13    1    3    3    0    0  0.59153526976E+01 -0.11280058040E+02 -0.15126818378E+03  0.15180347338E+03  0.00000000000E+00 0.  1.
         14    1    3    3    0    0 -0.79387307754E+01  0.68688786631E+02 -0.14520157107E+03  0.16082496416E+03  0.00000000000E+00 0. -1.
         13    1    5    5    0    0 -0.17692217538E+02 -0.40698888904E+02  0.35567275898E+03  0.35843064266E+03  0.00000000000E+00 0. -1.
        -14    1    5    5    0    0  0.22453846937E+01  0.71254658833E+01  0.11944199300E+00  0.74718326310E+01  0.00000000000E+00 0.  1.
          5    1    4    4  501    0  0.67173760045E+02 -0.14060564900E+02 -0.18868787674E+02  0.71298787312E+02  0.41800000000E+01 0.  1.
         -5    1    4    4    0  501 -0.49703549123E+02 -0.97747406711E+01  0.26845356547E+02  0.57481596348E+02  0.41800000000E+01 0.  1.
</event>
<event>
11    1  0.7105277E-009  0.1694631E+03  0.7561462E-02  0.1078500E+00
         22   -1    0    0    0    0  0.00000000000E+00  0.00000000000E+00  0.48989166802E+03  0.48989166802E+03  0.00000000000E+00 0. -1.
         22   -1    0    0    0    0 -0.00000000000E+00 -0.00000000000E+00 -0.16767908837E+04  0.16767908837E+04  0.00000000000E+00 0. -1.
        -24    2    1    2    0    0 -0.99155505692E+02 -0.54262263520E+02 -0.15555746670E+04  0.15617151825E+04  0.79784454104E+02 0.  0.
         25    2    1    2    0    0  0.13441314459E+03  0.66268914436E+02 -0.29159542798E+02  0.19737384383E+03  0.12509073841E+03 0.  0.
         24    2    1    2    0    0 -0.35257638895E+02 -0.12006650916E+02  0.39783499417E+03  0.40759352532E+03  0.80452088395E+02 0.  0.
        -13    1    5    5    0    0  0.12181236920E+02  0.25222387371E+02  0.14341287686E+03  0.14612256707E+03  0.00000000000E+00 0.  1.
         14    1    5    5    0    0 -0.47438875815E+02 -0.37229038287E+02  0.25442211732E+03  0.26147095825E+03  0.00000000000E+00 0. -1.
         11    1    3    3    0    0 -0.10168046877E+03 -0.25015021471E+02 -0.10265712778E+04  0.10318978910E+04  0.00000000000E+00 0. -1.
        -12    1    3    3    0    0  0.25249630817E+01 -0.29247242049E+02 -0.52900338918E+03  0.52981729149E+03  0.00000000000E+00 0.  1.
          5    1    4    4  501    0  0.15720027724E+03  0.59755024461E+02 -0.13727677056E+02  0.16878540111E+03  0.41800000000E+01 0. -1.
         -5    1    4    4    0  501 -0.22787132649E+02  0.65138899750E+01 -0.15431865742E+02  0.28588442722E+02  0.41800000000E+01 0. -1.
</event>
<event>
11    1  0.7105277E-009  0.1304414E+03  0.7561462E-02  0.1118728E+00
         22   -1    0    0    0    0  0.00000000000E+00  0.00000000000E+00  0.50616041833E+03  0.50616041833E+03  0.00000000000E+00 0. -1.
         22   -1    0    0    0    0 -0.00000000000E+00 -0.00000000000E+00 -0.14823361221E+03  0.14823361221E+03  0.00000000000E+00 0. -1.
        -24    2    1    2    0    0  0.88540374504E+01  0.22155137843E+02 -0.83716358787E+02  0.11922753635E+03  0.81471053653E+02 0.  0.
         25    2    1    2    0    0 -0.25854429735E+02  0.12817850568E+02  0.59359137592E+02  0.14143346876E+03  0.12508864873E+03 0.  0.
         24    2    1    2    0    0  0.17000392285E+02 -0.34972988411E+02  0.38228402731E+03  0.39373302544E+03  0.85863231493E+02 0.  0.
        -11    1    5    5    0    0 -0.23033232966E+02 -0.31905883271E+02  0.84019703746E+02  0.92778369385E+02  0.00000000000E+00 0.  1.
         12    1    5    5    0    0  0.40033625250E+02 -0.30671051400E+01  0.29826432357E+03  0.30095465605E+03  0.00000000000E+00 0. -1.
         13    1    3    3    0    0 -0.17668756258E+02  0.71060250806E-01 -0.82839804568E+02  0.84703147629E+02  0.00000000000E+00 0. -1.
        -14    1    3    3    0    0  0.26522793709E+02  0.22084077592E+02 -0.87655421853E+00  0.34524388720E+02  0.00000000000E+00 0.  1.
          5    1    4    4  501    0 -0.57423318156E+02 -0.35303764910E+02  0.16415313762E+02  0.69503440280E+02  0.41800000000E+01 0.  1.
         -5    1    4    4    0  501  0.31568888421E+02  0.48121615478E+02  0.42943823830E+02  0.71930028482E+02  0.41800000000E+01 0.  1.
</event>
<event>
11    1  0.7105277E-009  0.1853864E+03  0.7561462E-02  0.1065367E+00
         22   -1    0    0    0    0  0.00000000000E+00  0.00000000000E+00  0.46053117238E+03  0.46053117238E+03  0.00000000000E+00 0. -1.
         22   -1    0    0    0    0 -0.00000000000E+00 -0.00000000000E+00 -0.65160732287E+03  0.65160732287E+03  0.00000000000E+00 0.  1.
         24    2    1    2    0    0  0.60887170387E+01 -0.14219958137E+03 -0.57898154154E+03  0.60243033763E+03  0.86283792467E+02 0.  0.
         25    2    1    2    0    0 -0.18790118684E+02  0.85211975788E+02  0.54470257058E+02  0.16195106573E+03  0.12508792671E+03 0.  0.
        -24    2    1    2    0    0  0.12701401645E+02  0.56987605580E+02  0.33343513400E+03  0.34775709189E+03  0.79668648651E+02 0.  0.
        -11    1    3    3    0    0  0.19285427215E+02 -0.10344181586E+03 -0.25478030449E+03  0.27565402323E+03  0.00000000000E+00 0.  1.
         12    1    3    3    0    0 -0.13196710176E+02 -0.38757765512E+02 -0.32420123705E+03  0.32677631440E+03  0.00000000000E+00 0. -1.
         11    1    5    5    0    0  0.31028657024E+02  0.58254683424E+02  0.31458933770E+03  0.32143869881E+03  0.00000000000E+00 0. -1.
        -12    1    5    5    0    0 -0.18327255380E+02 -0.12670778440E+01  0.18845796303E+02  0.26318393080E+02  0.00000000000E+00 0.  1.
          5    1    4    4  501    0 -0.56747977973E+02  0.45585378007E+02 -0.13859864681E+02  0.74215415790E+02  0.41800000000E+01 0.  1.
         -5    1    4    4    0  501  0.37957859289E+02  0.39626597782E+02  0.68330121739E+02  0.87735649940E+02  0.41800000000E+01 0.  1.
</event>
<event>
11    1  0.7105277E-009  0.1379392E+03  0.7561462E-02  0.1109882E+00
         22   -1    0    0    0    0  0.00000000000E+00  0.00000000000E+00  0.15994380802E+03  0.15994380802E+03  0.00000000000E+00 0. -1.
         22   -1    0    0    0    0 -0.00000000000E+00 -0.00000000000E+00 -0.14624288172E+04  0.14624288172E+04  0.00000000000E+00 0.  1.
        -24    2    1    2    0    0 -0.33890705786E+02 -0.10784568647E+02 -0.12940367349E+04  0.12969366270E+04  0.79048442423E+02 0.  0.
         25    2    1    2    0    0 -0.56760124150E+01 -0.36525603734E+02 -0.11804818342E+03  0.17592509182E+03  0.12509167628E+03 0.  0.
         24    2    1    2    0    0  0.39566718201E+02  0.47310172381E+02  0.10959990923E+03  0.14951090635E+03  0.80855385815E+02 0.  0.
        -11    1    5    5    0    0 -0.40712652943E+01 -0.18107006394E+02  0.61190385049E+01  0.19541788912E+02  0.00000000000E+00 0.  1.
         12    1    5    5    0    0  0.43637983496E+02  0.65417178775E+02  0.10348087073E+03  0.12996911744E+03  0.00000000000E+00 0. -1.
         13    1    3    3    0    0  0.10797743990E+02  0.16132338935E+01 -0.28035723947E+02  0.30086468987E+02  0.00000000000E+00 0. -1.
        -14    1    3    3    0    0 -0.44688449776E+02 -0.12397802541E+02 -0.12660010110E+04  0.12668501580E+04  0.00000000000E+00 0.  1.
          5    1    4    4  501    0 -0.55899355290E+01  0.45606701170E+02 -0.57917957374E+02  0.74048502734E+02  0.41800000000E+01 0.  1.
         -5    1    4    4    0  501 -0.86076885950E-01 -0.82132304904E+02 -0.60130226051E+02  0.10187658908E+03  0.41800000000E+01 0.  1.
</event>
<event>
11    1  0.7105277E-009  0.1817241E+03  0.7561462E-02  0.1068257E+00
         22   -1    0    0    0    0  0.00000000000E+00  0.00000000000E+00  0.35324173405E+04  0.35324173405E+04  0.00000000000E+00 0. -1.
         22   -1    0    0    0    0 -0.00000000000E+00 -0.00000000000E+00 -0.65321449431E+02  0.65321449431E+02  0.00000000000E+00 0. -1.
        -24    2    1    2    0    0  0.98286967491E+00 -0.21075013031E+02 -0.12037021626E+02  0.87916580735E+02  0.84494455862E+02 0.  0.
         25    2    1    2    0    0 -0.99242116109E+01 -0.11334998038E+03  0.52739136059E+03  0.55383630263E+03  0.12508515044E+03 0.  0.
         24    2    1    2    0    0  0.89413419360E+01  0.13442499341E+03  0.29517415521E+04  0.29559859065E+04  0.83213357819E+02 0.  0.
        -13    1    5    5    0    0 -0.32628942193E+02  0.31434115888E+02  0.10825006957E+04  0.10834484334E+04  0.00000000000E+00 0.  1.
         14    1    5    5    0    0  0.41570284129E+02  0.10299087753E+03  0.18692408563E+04  0.18725374732E+04  0.00000000000E+00 0. -1.
         11    1    3    3    0    0 -0.12452641490E+01 -0.48878122284E+02  0.12829540167E+02  0.50549170337E+02  0.00000000000E+00 0. -1.
        -12    1    3    3    0    0  0.22281338239E+01  0.27803109253E+02 -0.24866561794E+02  0.37367410398E+02  0.00000000000E+00 0.  1.
          5    1    4    4  501    0  0.56452845978E+02 -0.55074616250E+02  0.21013021281E+03  0.22448232873E+03  0.41800000000E+01 0. -1.
         -5    1    4    4    0  501 -0.66377057589E+02 -0.58275364133E+02  0.31726114777E+03  0.32935397390E+03  0.41800000000E+01 0. -1.
</event>
<event>
11    1  0.7105277E-009  0.2111750E+03  0.7561462E-02  0.1046891E+00
         22   -1    0    0    0    0  0.00000000000E+00  0.00000000000E+00  0.25860946926E+03  0.25860946926E+03  0.00000000000E+00 0. -1.
         22   -1    0    0    0    0 -0.00000000000E+00 -0.00000000000E+00 -0.49917171865E+03  0.49917171865E+03  0.00000000000E+00 0.  1.
        -24    2    1    2    0    0 -0.20347923007E+01  0.14157875641E+02 -0.10934706956E+03  0.14001818467E+03  0.86277022403E+02 0.  0.
         25    2    1    2    0    0  0.13827205253E+03 -0.11420116287E+03 -0.29690222513E+03  0.36872499979E+03  0.12508448374E+03 0.  0.
         24    2    1    2    0    0 -0.13623726023E+03  0.10004328723E+03  0.16568704530E+03  0.24903800345E+03  0.77449853379E+02 0.  0.
        -11    1    5    5    0    0 -0.42702396494E+02 -0.11641015396E+01  0.16112348595E+02  0.45655860259E+02  0.00000000000E+00 0.  1.
         12    1    5    5    0    0 -0.93534863737E+02  0.10120738877E+03  0.14957469671E+03  0.20338214319E+03  0.00000000000E+00 0. -1.
         11    1    3    3    0    0 -0.34182789360E+02 -0.34083648836E+01 -0.12638534881E+02  0.36603450706E+02  0.00000000000E+00 0. -1.
        -12    1    3    3    0    0  0.32147997060E+02  0.17566240524E+02 -0.96708534682E+02  0.10341473397E+03  0.00000000000E+00 0.  1.
          5    1    4    4  501    0  0.43816637920E+02  0.14852487596E+02 -0.12759951336E+03  0.13579249742E+03  0.41800000000E+01 0. -1.
         -5    1    4    4    0  501  0.94455414611E+02 -0.12905365046E+03 -0.16930271177E+03  0.23293250237E+03  0.41800000000E+01 0. -1.
</event>
<event>
11    1  0.7105277E-009  0.3325014E+03  0.7561462E-02  0.9873028E-01
         22   -1    0    0    0    0  0.00000000000E+00  0.00000000000E+00  0.10514569853E+04  0.10514569853E+04  0.00000000000E+00 0.  1.
         22   -1    0    0    0    0 -0.00000000000E+00 -0.00000000000E+00 -0.19115695505E+04  0.19115695505E+04  0.00000000000E+00 0. -1.
         24    2    1    2    0    0 -0.31350250228E+03  0.15486592200E+03 -0.14358651101E+04  0.14804446084E+04  0.87979267127E+02 0.  0.
         25    2    1    2    0    0  0.25381633961E+03  0.38825515734E+02 -0.39542179694E+03  0.48778784769E+03  0.12509369264E+03 0.  0.
        -24    2    1    2    0    0  0.59686162673E+02 -0.19369143773E+03  0.97117434173E+03  0.99479407973E+03  0.73190490970E+02 0.  0.
        -13    1    3    3    0    0 -0.12598366577E+03  0.36611949859E+02 -0.39449888364E+03  0.41574233379E+03  0.00000000000E+00 0.  1.
         14    1    3    3    0    0 -0.18751883651E+03  0.11825397214E+03 -0.10413662264E+04  0.10647022746E+04  0.00000000000E+00 0. -1.
         11    1    5    5    0    0  0.13836791246E+01 -0.18650878499E+02  0.27519688510E+02  0.33273158738E+02  0.00000000000E+00 0. -1.
        -12    1    5    5    0    0  0.58302483548E+02 -0.17504055923E+03  0.94365465321E+03  0.96152092099E+03  0.00000000000E+00 0.  1.
          5    1    4    4  501    0  0.10787476141E+02 -0.23915834570E+02 -0.11205680776E+02  0.28833599607E+02  0.41800000000E+01 0.  1.
         -5    1    4    4    0  501  0.24302886347E+03  0.62741350304E+02 -0.38421611616E+03  0.45895424808E+03  0.41800000000E+01 0.  1.
</event>
<event>
11    1  0.7105277E-009  0.1337400E+03  0.7561462E-02  0.1114757E+00
         22   -1    0    0    0    0  0.00000000000E+00  0.00000000000E+00  0.48927253503E+02  0.48927253503E+02  0.00000000000E+00 0.  1.
         22   -1    0    0    0    0 -0.00000000000E+00 -0.00000000000E+00 -0.12291132946E+04  0.12291132946E+04  0.00000000000E+00 0. -1.
        -24    2    1    2    0    0 -0.24088199541E+02 -0.58109230093E+01 -0.67153788552E+03  0.67679249804E+03  0.80442187577E+02 0.  0.
         25    2    1    2    0    0  0.67686936985E+02 -0.45483060819E+01 -0.48196326846E+03  0.50253105338E+03  0.12508660578E+03 0.  0.
         24    2    1    2    0    0 -0.43598737444E+02  0.10359229091E+02 -0.26684887170E+02  0.98716996724E+02  0.83814072236E+02 0.  0.
        -13    1    5    5    0    0 -0.12742851233E+02 -0.22322073147E+02  0.20997921432E+02  0.33189876643E+02  0.00000000000E+00 0.  1.
         14    1    5    5    0    0 -0.30855886211E+02  0.32681302238E+02 -0.47682808602E+02  0.65527120081E+02  0.00000000000E+00 0. -1.
         11    1    3    3    0    0 -0.14189635362E+02 -0.42379408119E+02 -0.29704238684E+03  0.30038565140E+03  0.00000000000E+00 0. -1.
        -12    1    3    3    0    0 -0.98985641792E+01  0.36568485109E+02 -0.37449549867E+03  0.37640684665E+03  0.00000000000E+00 0.  1.
          5    1    4    4  501    0  0.11767660994E+02  0.44322694311E+02 -0.33153058735E+03  0.33471328301E+03  0.41800000000E+01 0.  1.
         -5    1    4    4    0  501  0.55919275991E+02 -0.48871000393E+02 -0.15043268111E+03  0.16781777037E+03  0.41800000000E+01 0.  1.
</event>
<event>
11    1  0.7105277E-009  0.2123751E+03  0.7561462E-02  0.1046102E+00
         22   -1    0    0    0    0  0.00000000000E+00  0.00000000000E+00  0.47048818151E+03  0.47048818151E+03  0.00000000000E+00 0.  1.
         22   -1    0    0    0    0 -0.00000000000E+00 -0.00000000000E+00 -0.13276820772E+04  0.13276820772E+04  0.00000000000E+00 0.  1.
         24    2    1    2    0    0  0.43304667409E+02 -0.16997345887E+03 -0.11088010025E+04  0.11253965812E+04  0.79445143616E+02 0.  0.
         25    2    1    2    0    0 -0.27802168061E+02  0.14813629834E+03 -0.15966483626E+03  0.25270072518E+03  0.12508986022E+03 0.  0.
        -24    2    1    2    0    0 -0.15502499348E+02  0.21837160530E+02  0.41127194308E+03  0.42007295235E+03  0.81237214766E+02 0.  0.
        -11    1    3    3    0    0  0.51602327227E+01 -0.12547181303E+03 -0.89264656830E+03  0.90143646463E+03  0.00000000000E+00 0.  1.
         12    1    3    3    0    0  0.38144434686E+02 -0.44501645839E+02 -0.21615443417E+03  0.22396011652E+03  0.00000000000E+00 0. -1.
         11    1    5    5    0    0 -0.19676109793E+02 -0.21305413480E+02  0.65995726293E+02  0.72086793722E+02  0.00000000000E+00 0. -1.
        -12    1    5    5    0    0  0.41736104450E+01  0.43142574010E+02  0.34527621679E+03  0.34798615862E+03  0.00000000000E+00 0.  1.
          5    1    4    4  501    0  0.36319969296E+02  0.52479764996E+02 -0.11477126577E+02  0.64980479670E+02  0.41800000000E+01 0. -1.
         -5    1    4    4    0  501 -0.64122137357E+02  0.95656533346E+02 -0.14818770969E+03  0.18772024551E+03  0.41800000000E+01 0. -1.
</event>
<event>
11    1  0.7105277E-009  0.2164380E+03  0.7561462E-02  0.1043472E+00
         22   -1    0    0    0    0  0.00000000000E+00  0.00000000000E+00  0.23208783768E+04  0.23208783768E+04  0.00000000000E+00 0.  1.
         22   -1    0    0    0    0 -0.00000000000E+00 -0.00000000000E+00 -0.10414727019E+03  0.10414727019E+03  0.00000000000E+00 0.  1.
        -24    2    1    2    0    0 -0.13934180497E+03 -0.93720770004E+02  0.32168158323E+02  0.18900621019E+03  0.80553309928E+02 0.  0.
         25    2    1    2    0    0  0.24349906514E+03  0.75805478779E+02  0.85925099480E+03  0.90498514622E+03  0.12509027727E+03 0.  0.
         24    2    1    2    0    0 -0.10415726018E+03  0.17915291224E+02  0.13253119534E+04  0.13310342905E+04  0.63488708905E+02 0.  0.
        -13    1    5    5    0    0 -0.10944940366E+03  0.65838483994E+01  0.12354749615E+04  0.12403309637E+04  0.00000000000E+00 0.  1.
         14    1    5    5    0    0  0.52921434839E+01  0.11331442825E+02  0.89836991981E+02  0.90703326881E+02  0.00000000000E+00 0. -1.
         11    1    3    3    0    0 -0.76080106735E+02 -0.94660079671E+02  0.32571341899E+02  0.12573625427E+03  0.00000000000E+00 0. -1.
        -12    1    3    3    0    0 -0.63261698233E+02  0.93930966769E+00 -0.40318357553E+00  0.63269955926E+02  0.00000000000E+00 0.  1.
          5    1    4    4  501    0  0.23106026869E+03  0.10231890175E+03  0.73419807114E+03  0.77648070516E+03  0.41800000000E+01 0. -1.
         -5    1    4    4    0  501  0.12438796452E+02 -0.26513422968E+02  0.12505292366E+03  0.12850444106E+03  0.41800000000E+01 0. -1.
</event>
<event>
11    1  0.7105277E-009  0.2564534E+03  0.7561462E-02  0.1020516E+00
         22   -1    0    0    0    0  0.00000000000E+00  0.00000000000E+00  0.45004789889E+03  0.45004789889E+03  0.00000000000E+00 0.  1.
         22   -1    0    0    0    0 -0.00000000000E+00 -0.00000000000E+00 -0.12100312817E+04  0.12100312817E+04  0.00000000000E+00 0. -1.
        -24    2    1    2    0    0  0.15610707551E+03  0.15859518437E+03 -0.76402111468E+03  0.79987530115E+03  0.80934431414E+02 0.  0.
         25    2    1    2    0    0 -0.16901985741E+03 -0.15173960332E+03 -0.38429171985E+03  0.46359502410E+03  0.12509037136E+03 0.  0.
         24    2    1    2    0    0  0.12912781904E+02 -0.68555810477E+01  0.38832945171E+03  0.39660885535E+03  0.79278509978E+02 0.  0.
        -13    1    5    5    0    0  0.37372726808E+02 -0.23618659340E+02  0.30442937038E+03  0.30762282641E+03  0.00000000000E+00 0.  1.
         14    1    5    5    0    0 -0.24459944904E+02  0.16763078292E+02  0.83900081335E+02  0.88986028940E+02  0.00000000000E+00 0. -1.
         13    1    3    3    0    0  0.81901391232E+02  0.13287619247E+03 -0.55701709481E+03  0.57847382337E+03  0.00000000000E+00 0. -1.
        -14    1    3    3    0    0  0.74205684273E+02  0.25718991899E+02 -0.20700401987E+03  0.22140147778E+03  0.00000000000E+00 0.  1.
          5    1    4    4  501    0 -0.23736423263E+02 -0.10186828398E+03 -0.13636757821E+03  0.17191321606E+03  0.41800000000E+01 0. -1.
         -5    1    4    4    0  501 -0.14528343415E+03 -0.49871319341E+02 -0.24792414164E+03  0.29168180804E+03  0.41800000000E+01 0. -1.
</event>
<event>
11    1  0.7105277E-009  0.1340782E+03  0.7561462E-02  0.1114357E+00
         22   -1    0    0    0    0  0.00000000000E+00  0.00000000000E+00  0.32413800726E+03  0.32413800726E+03  0.00000000000E+00 0.  1.
         22   -1    0    0    0    0 -0.00000000000E+00 -0.00000000000E+00 -0.49428912505E+03  0.49428912505E+03  0.00000000000E+00 0.  1.
         24    2    1    2    0    0 -0.55847685256E+01 -0.40971083418E+02 -0.34892537677E+03  0.35967636071E+03  0.76865769911E+02 0.  0.
         25    2    1    2    0    0  0.52818813348E+02  0.30416703550E+02 -0.95778947015E+02  0.16892726640E+03  0.12509121369E+03 0.  0.
        -24    2    1    2    0    0 -0.47234044822E+02  0.10554379868E+02  0.27455320598E+03  0.28982350521E+03  0.79219639805E+02 0.  0.
        -11    1    3    3    0    0  0.15987485284E+02 -0.56511544794E+02 -0.20197945389E+03  0.21034460814E+03  0.00000000000E+00 0.  1.
         12    1    3    3    0    0 -0.21572253810E+02  0.15540461376E+02 -0.14694592287E+03  0.14933175256E+03  0.00000000000E+00 0. -1.
         11    1    5    5    0    0 -0.51973896488E+02  0.93196416211E+01  0.84067267081E+02  0.99274604157E+02  0.00000000000E+00 0. -1.
        -12    1    5    5    0    0  0.47398516656E+01  0.12347382471E+01  0.19048593890E+03  0.19054890105E+03  0.00000000000E+00 0.  1.
          5    1    4    4  501    0  0.16354587502E+02 -0.47453684313E+02 -0.51829004482E+02  0.72270621921E+02  0.41800000000E+01 0. -1.
         -5    1    4    4    0  501  0.36464225846E+02  0.77870387863E+02 -0.43949942533E+02  0.96656644475E+02  0.41800000000E+01 0. -1.
</event>
<event>
11    1  0.7105277E-009  0.1726499E+03  0.7561462E-02  0.1075748E+00
         22   -1    0    0    0    0  0.00000000000E+00  0.00000000000E+00  0.31029644874E+04  0.31029644874E+04  0.00000000000E+00 0.  1.
         22   -1    0    0    0    0 -0.00000000000E+00 -0.00000000000E+00 -0.45073555538E+03  0.45073555538E+03  0.00000000000E+00 0.  1.
         24    2    1    2    0    0 -0.29175531853E+01 -0.12174003214E+03 -0.42387642043E+03  0.44807444346E+03  0.79185475587E+02 0.  0.
         25    2    1    2    0    0 -0.33193249790E+02  0.41076645972E+02  0.32890941203E+03  0.35583392756E+03  0.12508916823E+03 0.  0.
        -24    2    1    2    0    0  0.36110802975E+02  0.80663386165E+02  0.27471959404E+04  0.27497916717E+04  0.80362498060E+02 0.  0.
        -13    1    3    3    0    0 -0.31512946269E+02 -0.10351791276E+03 -0.35781766281E+03  0.37382148663E+03  0.00000000000E+00 0.  1.
         14    1    3    3    0    0  0.28595393083E+02 -0.18222119373E+02 -0.66058757619E+02  0.74252956831E+02  0.00000000000E+00 0. -1.
         11    1    5    5    0    0  0.49348697707E+02  0.31376115776E+02  0.90407458613E+03  0.90596391313E+03  0.00000000000E+00 0. -1.
        -12    1    5    5    0    0 -0.13237894731E+02  0.49287270389E+02  0.18431213542E+04  0.18438277586E+04  0.00000000000E+00 0.  1.
          5    1    4    4  501    0 -0.12427013015E+02 -0.18023575647E+02  0.13679596988E+01  0.22329882340E+02  0.41800000000E+01 0.  1.
         -5    1    4    4    0  501 -0.20766236775E+02  0.59100221620E+02  0.32754145233E+03  0.33350404522E+03  0.41800000000E+01 0.  1.
</event>
<event>
11    1  0.7105277E-009  0.1500832E+03  0.7561462E-02  0.1096794E+00
         22   -1    0    0    0    0  0.00000000000E+00  0.00000000000E+00  0.13613527082E+04  0.13613527082E+04  0.00000000000E+00 0.  1.
         22   -1    0    0    0    0 -0.00000000000E+00 -0.00000000000E+00 -0.13102829070E+03  0.13102829070E+03  0.00000000000E+00 0. -1.
         24    2    1    2    0    0  0.10795313446E+02  0.70670657478E+02 -0.40128467140E+02  0.11414477151E+03  0.79422001785E+02 0.  0.
         25    2    1    2    0    0 -0.25921209446E+02 -0.13025518607E+03  0.10945050819E+03  0.21275740187E+03  0.12509186908E+03 0.  0.
        -24    2    1    2    0    0  0.15125896001E+02  0.59584528596E+02  0.11610023765E+04  0.11654788255E+04  0.81457141021E+02 0.  0.
        -13    1    3    3    0    0 -0.77717382250E+01  0.21450293427E+02  0.22711539807E+02  0.32192064916E+02  0.00000000000E+00 0.  1.
         14    1    3    3    0    0  0.18567051671E+02  0.49220364051E+02 -0.62840006947E+02  0.81952706595E+02  0.00000000000E+00 0. -1.
         13    1    5    5    0    0  0.11001274923E+02  0.14301240791E+02  0.44060519802E+02  0.47611794162E+02  0.00000000000E+00 0. -1.
        -14    1    5    5    0    0  0.41246210778E+01  0.45283287805E+02  0.11169418567E+04  0.11178670314E+04  0.00000000000E+00 0.  1.
          5    1    4    4  501    0 -0.16863830161E+01 -0.89169487214E+00  0.77000754308E+02  0.77137718215E+02  0.41800000000E+01 0. -1.
         -5    1    4    4    0  501 -0.24234826430E+02 -0.12936349120E+03  0.32449753877E+02  0.13561968366E+03  0.41800000000E+01 0. -1.
</event>
<event>
11    1  0.7105277E-009  0.1891342E+03  0.7561462E-02  0.1062485E+00
         22   -1    0    0    0    0  0.00000000000E+00  0.00000000000E+00  0.23467988494E+04  0.23467988494E+04  0.00000000000E+00 0.  1.
         22   -1    0    0    0    0 -0.00000000000E+00 -0.00000000000E+00 -0.13322844942E+04  0.13322844942E+04  0.00000000000E+00 0. -1.
        -24    2    1    2    0    0  0.74041108824E+02 -0.10200519005E+02 -0.11567133323E+04  0.11620335550E+04  0.82159074358E+02 0.  0.
         25    2    1    2    0    0 -0.38222256590E+02  0.14761218400E+03 -0.11280663338E+03  0.22720661981E+03  0.12508882359E+03 0.  0.
         24    2    1    2    0    0 -0.35818852234E+02 -0.13741166499E+03  0.22840343209E+04  0.22898431687E+04  0.80025012725E+02 0.  0.
        -13    1    5    5    0    0 -0.55215091519E+02 -0.11462167624E+03  0.20430753731E+04  0.20470329297E+04  0.00000000000E+00 0.  1.
         14    1    5    5    0    0  0.19396239286E+02 -0.22789988747E+02  0.24095894780E+03  0.24281023909E+03  0.00000000000E+00 0. -1.
         13    1    3    3    0    0  0.72084122534E+02  0.16091448362E+02 -0.10278855344E+04  0.10305356506E+04  0.00000000000E+00 0. -1.
        -14    1    3    3    0    0  0.19569862902E+01 -0.26291967367E+02 -0.12882779792E+03  0.13149790440E+03  0.00000000000E+00 0.  1.
          5    1    4    4  501    0  0.30022379809E+02  0.99010040987E+02 -0.26571988093E+02  0.10690123693E+03  0.41800000000E+01 0. -1.
         -5    1    4    4    0  501 -0.68244636400E+02  0.48602143010E+02 -0.86234645284E+02  0.12030538288E+03  0.41800000000E+01 0. -1.
</event>
<event>
11    1  0.7105277E-009  0.1615317E+03  0.7561462E-02  0.1085645E+00
         22   -1    0    0    0    0  0.00000000000E+00  0.00000000000E+00  0.11216161060E+04  0.11216161060E+04  0.00000000000E+00 0. -1.
         22   -1    0    0    0    0 -0.00000000000E+00 -0.00000000000E+00 -0.10427168487E+03  0.10427168487E+03  0.00000000000E+00 0. -1.
         24    2    1    2    0    0 -0.73364014616E+02  0.10979772251E+03 -0.29452866016E+01  0.15308005993E+03  0.77375781259E+02 0.  0.
         25    2    1    2    0    0 -0.10846217434E+02 -0.31159385747E+02  0.18430100158E+03  0.22517200384E+03  0.12508806648E+03 0.  0.
        -24    2    1    2    0    0  0.84210232050E+02 -0.78638336761E+02  0.83598870614E+03  0.84763572710E+03  0.79585538076E+02 0.  0.
        -13    1    3    3    0    0 -0.20579603315E+02  0.91438777771E+02  0.13806295500E+02  0.94737447445E+02  0.00000000000E+00 0.  1.
         14    1    3    3    0    0 -0.52784411302E+02  0.18358944737E+02 -0.16751582102E+02  0.58342612482E+02  0.00000000000E+00 0. -1.
         11    1    5    5    0    0  0.83644233817E+02 -0.73218466757E+02  0.83465559227E+03  0.84202568811E+03  0.00000000000E+00 0. -1.
        -12    1    5    5    0    0  0.56599823327E+00 -0.54198700041E+01  0.13331138654E+01  0.56100389873E+01  0.00000000000E+00 0.  1.
          5    1    4    4  501    0 -0.33142948638E+02 -0.31506786442E+02  0.19482411866E+03  0.20016253957E+03  0.41800000000E+01 0.  1.
         -5    1    4    4    0  501  0.22296731205E+02  0.34740069447E+00 -0.10523117082E+02  0.25009464264E+02  0.41800000000E+01 0.  1.
</event>
<event>
11    1  0.7105277E-009  0.1552890E+03  0.7561462E-02  0.1091594E+00
         22   -1    0    0    0    0  0.00000000000E+00  0.00000000000E+00  0.29361432947E+03  0.29361432947E+03  0.00000000000E+00 0. -1.
         22   -1    0    0    0    0 -0.00000000000E+00 -0.00000000000E+00 -0.13896570802E+04  0.13896570802E+04  0.00000000000E+00 0.  1.
        -24    2    1    2    0    0  0.91053132037E+02  0.34521071152E+01 -0.11677522275E+04  0.11741364045E+04  0.81537976656E+02 0.  0.
         25    2    1    2    0    0 -0.10122508044E+03  0.18538232145E+02 -0.18111193252E+03  0.24298064500E+03  0.12509148164E+03 0.  0.
         24    2    1    2    0    0  0.10171948405E+02 -0.21990339260E+02  0.25282140928E+03  0.26615436019E+03  0.79576597717E+02 0.  0.
        -11    1    5    5    0    0 -0.30131478014E+02  0.36136547123E+01  0.56772752211E+02  0.64374761058E+02  0.00000000000E+00 0.  1.
         12    1    5    5    0    0  0.40303426419E+02 -0.25603993973E+02  0.19604865707E+03  0.20177959914E+03  0.00000000000E+00 0. -1.
         11    1    3    3    0    0  0.20789175186E+02  0.32417182534E+02 -0.22028204522E+03  0.22362299294E+03  0.00000000000E+00 0. -1.
        -12    1    3    3    0    0  0.70263956851E+02 -0.28965075419E+02 -0.94747018231E+03  0.95051341158E+03  0.00000000000E+00 0.  1.
          5    1    4    4  501    0 -0.59728235274E+02  0.57217366859E+02 -0.42360723336E+02  0.93022537273E+02  0.41800000000E+01 0.  1.
         -5    1    4    4    0  501 -0.41496845169E+02 -0.38679134714E+02 -0.13875120919E+03  0.14995810772E+03  0.41800000000E+01 0.  1.
</event>
<event>
11    1  0.7105277E-009  0.1548136E+03  0.7561462E-02  0.1092059E+00
         22   -1    0    0    0    0  0.00000000000E+00  0.00000000000E+00  0.12298402726E+04  0.12298402726E+04  0.00000000000E+00 0. -1.
         22   -1    0    0    0    0 -0.00000000000E+00 -0.00000000000E+00 -0.17668303922E+03  0.17668303922E+03  0.00000000000E+00 0.  1.
         24    2    1    2    0    0 -0.25921455686E+02 -0.79777160842E+02 -0.62417521626E+02  0.13147847588E+03  0.79714022342E+02 0.  0.
         25    2    1    2    0    0 -0.53469484350E+02  0.12320906026E+03  0.33895784218E+02  0.18664201244E+03  0.12508740276E+03 0.  0.
        -24    2    1    2    0    0  0.79390940036E+02 -0.43431899423E+02  0.10816789707E+04  0.10884028235E+04  0.80012868535E+02 0.  0.
        -11    1    3    3    0    0  0.27031096212E+02 -0.15046283077E+02 -0.25372748111E+02  0.40010587893E+02  0.00000000000E+00 0.  1.
         12    1    3    3    0    0 -0.52952551898E+02 -0.64730877765E+02 -0.37044773516E+02  0.91467887991E+02  0.00000000000E+00 0. -1.
         11    1    5    5    0    0  0.31377771899E+02 -0.24471487100E+02  0.85478368801E+03  0.85570939666E+03  0.00000000000E+00 0. -1.
        -12    1    5    5    0    0  0.48013168138E+02 -0.18960412323E+02  0.22689528274E+03  0.23269342680E+03  0.00000000000E+00 0.  1.
          5    1    4    4  501    0 -0.77452875278E+02  0.27486363138E+02  0.30664088082E+02  0.87819170716E+02  0.41800000000E+01 0.  1.
         -5    1    4    4    0  501  0.23983390928E+02  0.95722697126E+02  0.32316961356E+01  0.98822841719E+02  0.41800000000E+01 0.  1.
</event>
<event>
11    1  0.7105277E-009  0.1368065E+03  0.7561462E-02  0.1111178E+00
         22   -1    0    0    0    0  0.00000000000E+00  0.00000000000E+00  0.98898186085E+02  0.98898186085E+02  0.00000000000E+00 0.  1.
         22   -1    0    0    0    0 -0.00000000000E+00 -0.00000000000E+00 -0.68962487163E+03  0.68962487163E+03  0.00000000000E+00 0. -1.
         24    2    1    2    0    0  0.31480197110E+02  0.40172736650E+02 -0.39330398574E+03  0.40463279906E+03  0.80217362831E+02 0.  0.
         25    2    1    2    0    0 -0.67412777165E+02 -0.34847259750E+02 -0.24347763302E+03  0.28405654749E+03  0.12509176773E+03 0.  0.
        -24    2    1    2    0    0  0.35932580056E+02 -0.53254769006E+01  0.46054933210E+02  0.99833711165E+02  0.80784911947E+02 0.  0.
        -11    1    3    3    0    0 -0.27097997186E+02  0.13603707176E+02 -0.10861065537E+03  0.11276363226E+03  0.00000000000E+00 0.  1.
         12    1    3    3    0    0  0.58578194296E+02  0.26569029474E+02 -0.28469333037E+03  0.29186916681E+03  0.00000000000E+00 0. -1.
         13    1    5    5    0    0 -0.24898192720E+02 -0.10287491920E+02  0.88560206836E+01  0.28358095724E+02  0.00000000000E+00 0. -1.
        -14    1    5    5    0    0  0.60830772776E+02  0.49620150196E+01  0.37198912526E+02  0.71475615441E+02  0.00000000000E+00 0.  1.
          5    1    4    4  501    0  0.24597496568E+02 -0.93030024652E+00 -0.40529395940E+01  0.25294288195E+02  0.41800000000E+01 0.  1.
         -5    1    4    4    0  501 -0.92010273733E+02 -0.33916959503E+02 -0.23942469343E+03  0.25876225930E+03  0.41800000000E+01 0.  1.
</event>
<event>
11    1  0.7105277E-009  0.1975074E+03  0.7561462E-02  0.1056300E+00
         22   -1    0    0    0    0  0.00000000000E+00  0.00000000000E+00  0.12835444601E+04  0.12835444601E+04  0.00000000000E+00 0.  1.
         22   -1    0    0    0    0 -0.00000000000E+00 -0.00000000000E+00 -0.13725286598E+04  0.13725286598E+04  0.00000000000E+00 0. -1.
         24    2    1    2    0    0  0.14381658157E+03 -0.52634502181E+02 -0.13519678236E+04  0.13629779964E+04  0.80239782553E+02 0.  0.
         25    2    1    2    0    0 -0.98199187345E+02  0.71601652933E+02  0.64544234193E+03  0.66859070247E+03  0.12509130098E+03 0.  0.
        -24    2    1    2    0    0 -0.45617394220E+02 -0.18967150752E+02  0.61754128192E+03  0.62450442107E+03  0.78789831820E+02 0.  0.
        -13    1    3    3    0    0  0.52210529092E+02 -0.31584476356E+01 -0.21574247645E+03  0.22199263791E+03  0.00000000000E+00 0.  1.
         14    1    3    3    0    0  0.91606052474E+02 -0.49476054545E+02 -0.11362253471E+04  0.11409853585E+04  0.00000000000E+00 0. -1.
         11    1    5    5    0    0 -0.66817667911E+02 -0.23250883294E+02  0.50136313520E+03  0.50633012715E+03  0.00000000000E+00 0. -1.
        -12    1    5    5    0    0  0.21200273691E+02  0.42837325411E+01  0.11617814672E+03  0.11817429392E+03  0.00000000000E+00 0.  1.
          5    1    4    4  501    0 -0.19404690295E+02  0.49151553285E+02  0.72537063585E+02  0.89841611680E+02  0.41800000000E+01 0. -1.
         -5    1    4    4    0  501 -0.78794497051E+02  0.22450099649E+02  0.57290527834E+03  0.57874909079E+03  0.41800000000E+01 0. -1.
</event>
<event>
11    1  0.7105277E-009  0.3345653E+03  0.7561462E-02  0.9865383E-01
         22   -1    0    0    0    0  0.00000000000E+00  0.00000000000E+00  0.83431931799E+02  0.83431931799E+02  0.00000000000E+00 0.  1.
         22   -1    0    0    0    0 -0.00000000000E+00 -0.00000000000E+00 -0.26894423924E+04  0.26894423924E+04  0.00000000000E+00 0.  1.
        -24    2    1    2    0    0 -0.98308780592E+02  0.11240852650E+03 -0.13645235446E+04  0.13745080942E+04  0.71047196698E+02 0.  0.
         25    2    1    2    0    0 -0.46078194731E+02  0.99746950181E+02 -0.10624184951E+04  0.10753861050E+04  0.12509820895E+03 0.  0.
         24    2    1    2    0    0  0.14438697532E+03 -0.21215547668E+03 -0.17906842088E+03  0.32298012500E+03  0.79956968818E+02 0.  0.
        -13    1    5    5    0    0  0.49183035535E+02 -0.76545383438E+02 -0.19717921794E+02  0.93096525982E+02  0.00000000000E+00 0.  1.
         14    1    5    5    0    0  0.95203939789E+02 -0.13561009324E+03 -0.15935049908E+03  0.22988359902E+03  0.00000000000E+00 0. -1.
         13    1    3    3    0    0 -0.88045885540E+02  0.10549446062E+03 -0.95883323254E+03  0.96862909671E+03  0.00000000000E+00 0. -1.
        -14    1    3    3    0    0 -0.10262895053E+02  0.69140658777E+01 -0.40569031203E+03  0.40587899748E+03  0.00000000000E+00 0.  1.
          5    1    4    4  501    0 -0.82095232339E+02  0.89581623439E+02 -0.92294112409E+03  0.93091475730E+03  0.41800000000E+01 0.  1.
         -5    1    4    4    0  501  0.36017037608E+02  0.10165326743E+02 -0.13947737103E+03  0.14447134766E+03  0.41800000000E+01 0.  1.
</event>
<event>
11    1  0.7105277E-009  0.2605318E+03  0.7561462E-02  0.1018434E+00
         22   -1    0    0    0    0  0.00000000000E+00  0.00000000000E+00  0.48688423731E+03  0.48688423731E+03  0.00000000000E+00 0. -1.
         22   -1    0    0    0    0 -0.00000000000E+00 -0.00000000000E+00 -0.67744770626E+03  0.67744770626E+03  0.00000000000E+00 0.  1.
        -24    2    1    2    0    0 -0.12990529834E+03 -0.18713586504E+03 -0.58198009764E+03  0.63023344690E+03  0.81228966618E+02 0.  0.
         25    2    1    2    0    0  0.14003193230E+03  0.19176919657E+03  0.22951315653E+03  0.35313973341E+03  0.12508803089E+03 0.  0.
         24    2    1    2    0    0 -0.10126633962E+02 -0.46333315315E+01  0.16190347217E+03  0.18095876327E+03  0.80058248977E+02 0.  0.
        -13    1    5    5    0    0  0.15135315109E+02  0.31685456481E+02  0.89068387716E+02  0.95740396940E+02  0.00000000000E+00 0.  1.
         14    1    5    5    0    0 -0.25261949070E+02 -0.36318788013E+02  0.72835084449E+02  0.85218366332E+02  0.00000000000E+00 0. -1.
         13    1    3    3    0    0 -0.57012435630E+02 -0.23235963826E+02 -0.12592290534E+03  0.14016742104E+03  0.00000000000E+00 0. -1.
        -14    1    3    3    0    0 -0.72892862708E+02 -0.16389990121E+03 -0.45605719231E+03  0.49006602586E+03  0.00000000000E+00 0.  1.
          5    1    4    4  501    0  0.16743881976E+01 -0.16533000487E+02  0.23684601296E+02  0.29233139063E+02  0.41800000000E+01 0.  1.
         -5    1    4    4    0  501  0.13835754410E+03  0.20830219705E+03  0.20582855524E+03  0.32390659434E+03  0.41800000000E+01 0.  1.
</event>
<event>
11    1  0.7105277E-009  0.2229994E+03  0.7561462E-02  0.1039355E+00
         22   -1    0    0    0    0  0.00000000000E+00  0.00000000000E+00  0.97568773593E+02  0.97568773593E+02  0.00000000000E+00 0.  1.
         22   -1    0    0    0    0 -0.00000000000E+00 -0.00000000000E+00 -0.32387207857E+04  0.32387207857E+04  0.00000000000E+00 0.  1.
         24    2    1    2    0    0 -0.99787715854E+02  0.15704486831E+03 -0.22990594051E+04  0.23081430552E+04  0.85026679171E+02 0.  0.
         25    2    1    2    0    0  0.16844587860E+03 -0.10013187547E+03 -0.87211575538E+03  0.90257043078E+03  0.12508830973E+03 0.  0.
        -24    2    1    2    0    0 -0.68658162747E+02 -0.56912992837E+02  0.30023148414E+02  0.12557607328E+03  0.83156050132E+02 0.  0.
        -11    1    3    3    0    0 -0.74220485231E+02  0.11262654536E+03 -0.20141013985E+04  0.20186128560E+04  0.00000000000E+00 0.  1.
         12    1    3    3    0    0 -0.25567230623E+02  0.44418322953E+02 -0.28495800667E+03  0.28953019922E+03  0.00000000000E+00 0. -1.
         13    1    5    5    0    0 -0.79341423648E+02 -0.29133146771E+02  0.17717457725E+01  0.84539581442E+02  0.00000000000E+00 0. -1.
        -14    1    5    5    0    0  0.10683260901E+02 -0.27779846066E+02  0.28251402641E+02  0.41036491835E+02  0.00000000000E+00 0.  1.
          5    1    4    4  501    0  0.76172839196E+02 -0.10698111735E+03 -0.38716130305E+03  0.40885034900E+03  0.41800000000E+01 0. -1.
         -5    1    4    4    0  501  0.92273039406E+02  0.68492418731E+01 -0.48495445233E+03  0.49372008178E+03  0.41800000000E+01 0. -1.
</event>
<event>
11    1  0.7105277E-009  0.1625631E+03  0.7561462E-02  0.1084691E+00
         22   -1    0    0    0    0  0.00000000000E+00  0.00000000000E+00  0.10510248048E+03  0.10510248048E+03  0.00000000000E+00 0. -1.
         22   -1    0    0    0    0 -0.00000000000E+00 -0.00000000000E+00 -0.85031613765E+03  0.85031613765E+03  0.00000000000E+00 0. -1.
        -24    2    1    2    0    0 -0.36216729546E+02 -0.49302195541E+01 -0.26319099239E+03  0.27945503387E+03  0.86542815519E+02 0.  0.
         25    2    1    2    0    0  0.13306470780E+03  0.32304677472E+02 -0.51190966097E+03  0.54447193945E+03  0.12509349786E+03 0.  0.
         24    2    1    2    0    0 -0.96847978255E+02 -0.27374457917E+02  0.29886996185E+02  0.13149164481E+03  0.79170248684E+02 0.  0.
        -11    1    5    5    0    0 -0.72044309864E+02  0.87971102294E+01 -0.86685999415E+01  0.73095255367E+02  0.00000000000E+00 0.  1.
         12    1    5    5    0    0 -0.24803668391E+02 -0.36171568147E+02  0.38555596127E+02  0.58396389448E+02  0.00000000000E+00 0. -1.
         11    1    3    3    0    0 -0.48321135769E+02 -0.97428673474E+01 -0.26174816028E+03  0.26634931019E+03  0.00000000000E+00 0. -1.
        -12    1    3    3    0    0  0.12104406223E+02  0.48126477933E+01 -0.14428321056E+01  0.13105723684E+02  0.00000000000E+00 0.  1.
          5    1    4    4  501    0  0.10155472561E+03 -0.13919969539E+02 -0.17443537930E+03  0.20236675071E+03  0.41800000000E+01 0. -1.
         -5    1    4    4    0  501  0.31509982196E+02  0.46224647011E+02 -0.33747428167E+03  0.34210518873E+03  0.41800000000E+01 0. -1.
</event>
<event>
11    1  0.7105277E-009  0.1609640E+03  0.7561462E-02  0.1086174E+00
         22   -1    0    0    0    0  0.00000000000E+00  0.00000000000E+00  0.22321915415E+03  0.22321915415E+03  0.00000000000E+00 0. -1.
         22   -1    0    0    0    0 -0.00000000000E+00 -0.00000000000E+00 -0.74280589048E+03  0.74280589048E+03  0.00000000000E+00 0.  1.
        -24    2    1    2    0    0 -0.99665679995E+02 -0.23126226320E+02 -0.65781230288E+03  0.67065442039E+03  0.81192706909E+02 0.  0.
         25    2    1    2    0    0  0.77488834730E+02  0.47680282613E+02  0.30674731789E+02  0.15768767722E+03  0.12508611241E+03 0.  0.
         24    2    1    2    0    0  0.22176845266E+02 -0.24554056293E+02  0.10755083476E+03  0.13768294701E+03  0.79339130912E+02 0.  0.
        -11    1    5    5    0    0 -0.10139760051E+02  0.22746741939E+02  0.15726239639E+02  0.29454093365E+02  0.00000000000E+00 0.  1.
         12    1    5    5    0    0  0.32316605317E+02 -0.47300798232E+02  0.91824595122E+02  0.10822885365E+03  0.00000000000E+00 0. -1.
         11    1    3    3    0    0 -0.23213495857E+02  0.29213328643E+02 -0.22051495216E+03  0.22364956759E+03  0.00000000000E+00 0. -1.
        -12    1    3    3    0    0 -0.76452184139E+02 -0.52339554963E+02 -0.43729735073E+03  0.44700485280E+03  0.00000000000E+00 0.  1.
          5    1    4    4  501    0  0.19759158847E+02  0.83838632709E+02  0.13221727106E+02  0.87244639724E+02  0.41800000000E+01 0.  1.
         -5    1    4    4    0  501  0.57729675882E+02 -0.36158350096E+02  0.17453004683E+02  0.70443037496E+02  0.41800000000E+01 0.  1.
</event>
<event>
11    1  0.7105277E-009  0.1287601E+03  0.7561462E-02  0.1120802E+00
         22   -1    0    0    0    0  0.00000000000E+00  0.00000000000E+00  0.13217142994E+04  0.13217142994E+04  0.00000000000E+00 0.  1.
         22   -1    0    0    0    0 -0.00000000000E+00 -0.00000000000E+00 -0.84030072260E+02  0.84030072260E+02  0.00000000000E+00 0. -1.
         24    2    1    2    0    0  0.11439219109E+02  0.26303891755E+02 -0.37897286393E+01  0.90790916515E+02  0.86057411204E+02 0.  0.
         25    2    1    2    0    0  0.72831221416E+01 -0.39651790375E+02  0.87547976117E+02  0.15791932089E+03  0.12509418627E+03 0.  0.
        -24    2    1    2    0    0 -0.18722341251E+02  0.13347898621E+02  0.11539259796E+04  0.11570341342E+04  0.81572843731E+02 0.  0.
        -11    1    3    3    0    0 -0.31201042542E+02 -0.11964932632E+02 -0.12583194985E+01  0.33440215857E+02  0.00000000000E+00 0.  1.
         12    1    3    3    0    0  0.42640261652E+02  0.38268824387E+02 -0.25314091408E+01  0.57350700657E+02  0.00000000000E+00 0. -1.
         11    1    5    5    0    0  0.25489603609E+02 -0.13092876201E+02  0.24908738593E+03  0.25073027167E+03  0.00000000000E+00 0. -1.
        -12    1    5    5    0    0 -0.44211944860E+02  0.26440774821E+02  0.90483859371E+03  0.90630386257E+03  0.00000000000E+00 0.  1.
          5    1    4    4  501    0 -0.14036688879E+02 -0.82098013403E+02  0.50072595353E+02  0.97272039378E+02  0.41800000000E+01 0. -1.
         -5    1    4    4    0  501  0.21319811021E+02  0.42446223027E+02  0.37475380763E+02  0.60647281510E+02  0.41800000000E+01 0. -1.
</event>
<event>
11    1  0.7105277E-009  0.1714380E+03  0.7561462E-02  0.1076787E+00
         22   -1    0    0    0    0  0.00000000000E+00  0.00000000000E+00  0.38345771351E+03  0.38345771351E+03  0.00000000000E+00 0.  1.
         22   -1    0    0    0    0 -0.00000000000E+00 -0.00000000000E+00 -0.52615349849E+03  0.52615349849E+03  0.00000000000E+00 0. -1.
        -24    2    1    2    0    0 -0.12158795038E+03 -0.22347069615E+02 -0.44132998614E+03  0.46474830118E+03  0.77044179415E+02 0.  0.
         25    2    1    2    0    0  0.70530624550E+02 -0.59884330500E+02  0.44908147027E+02  0.16194127458E+03  0.12509009835E+03 0.  0.
         24    2    1    2    0    0  0.51057325834E+02  0.82231400115E+02  0.25372605413E+03  0.28292163623E+03  0.79365534187E+02 0.  0.
        -13    1    5    5    0    0  0.67350840183E+02  0.82446594700E+02  0.23566990504E+03  0.25859984686E+03  0.00000000000E+00 0.  1.
         14    1    5    5    0    0 -0.16293514349E+02 -0.21519458493E+00  0.18056149090E+02  0.24321789377E+02  0.00000000000E+00 0. -1.
         11    1    3    3    0    0 -0.79870761114E+02  0.21782154335E+02 -0.29293269439E+03  0.30440657708E+03  0.00000000000E+00 0. -1.
        -12    1    3    3    0    0 -0.41717189270E+02 -0.44129223950E+02 -0.14839729175E+03  0.16034172410E+03  0.00000000000E+00 0.  1.
          5    1    4    4  501    0 -0.31732883457E+02 -0.35160918992E+02  0.28341693417E+02  0.55353320610E+02  0.41800000000E+01 0. -1.
         -5    1    4    4    0  501  0.10226350801E+03 -0.24723411508E+02  0.16566453610E+02  0.10658795397E+03  0.41800000000E+01 0. -1.
</event>
<event>
11    1  0.7105277E-009  0.1481927E+03  0.7561462E-02  0.1098740E+00
         22   -1    0    0    0    0  0.00000000000E+00  0.00000000000E+00  0.66446469703E+03  0.66446469703E+03  0.00000000000E+00 0.  1.
         22   -1    0    0    0    0 -0.00000000000E+00 -0.00000000000E+00 -0.28460615248E+03  0.28460615248E+03  0.00000000000E+00 0. -1.
        -24    2    1    2    0    0 -0.21212596111E+02 -0.18473444642E+02 -0.19573540604E+03  0.21302978895E+03  0.79234458500E+02 0.  0.
         25    2    1    2    0    0 -0.38287967200E+02 -0.37058826758E+02 -0.12838284440E+02  0.13657263796E+03  0.12509172163E+03 0.  0.
         24    2    1    2    0    0  0.59500563310E+02  0.55532271400E+02  0.58843223502E+03  0.59946842259E+03  0.80534118656E+02 0.  0.
        -11    1    5    5    0    0  0.47654838919E+02  0.52795755121E+02  0.22809503948E+03  0.23892618623E+03  0.00000000000E+00 0.  1.
         12    1    5    5    0    0  0.11845724392E+02  0.27365162790E+01  0.36033719554E+03  0.36054223636E+03  0.00000000000E+00 0. -1.
         13    1    3    3    0    0 -0.15838990600E+02  0.64225016018E+01 -0.18433459469E+03  0.18512526826E+03  0.00000000000E+00 0. -1.
        -14    1    3    3    0    0 -0.53736055109E+01 -0.24895946244E+02 -0.11400811349E+02  0.27904520690E+02  0.00000000000E+00 0.  1.
          5    1    4    4  501    0  0.29312295700E+02  0.13136286673E+02 -0.36708203885E+02  0.48956484139E+02  0.41800000000E+01 0.  1.
         -5    1    4    4    0  501 -0.67600262900E+02 -0.50195113431E+02  0.23869919444E+02  0.87616153824E+02  0.41800000000E+01 0.  1.
</event>
<event>
11    1  0.7105277E-009  0.2074680E+03  0.7561462E-02  0.1049365E+00
         22   -1    0    0    0    0  0.00000000000E+00  0.00000000000E+00  0.20036122469E+03  0.20036122469E+03  0.00000000000E+00 0.  1.
         22   -1    0    0    0    0 -0.00000000000E+00 -0.00000000000E+00 -0.12644694229E+04  0.12644694229E+04  0.00000000000E+00 0. -1.
         24    2    1    2    0    0 -0.30808776459E+02  0.16889223983E+02 -0.78929059924E+03  0.79401991789E+03  0.79079411797E+02 0.  0.
         25    2    1    2    0    0  0.15301638642E+03 -0.12314519034E+03 -0.39163204830E+03  0.45563404124E+03  0.12509182975E+03 0.  0.
        -24    2    1    2    0    0 -0.12220760996E+03  0.10625596636E+03  0.11681444931E+03  0.21517668846E+03  0.80189534043E+02 0.  0.
        -13    1    3    3    0    0  0.26392315053E+02 -0.51217731816E+00 -0.21022586917E+03  0.21187669218E+03  0.00000000000E+00 0.  1.
         14    1    3    3    0    0 -0.57201091512E+02  0.17401401301E+02 -0.57906473007E+03  0.58214322572E+03  0.00000000000E+00 0. -1.
         11    1    5    5    0    0 -0.22920900724E+02  0.46223842336E+02  0.15325261902E+01  0.51617438204E+02  0.00000000000E+00 0. -1.
        -12    1    5    5    0    0 -0.99286709240E+02  0.60032124022E+02  0.11528192312E+03  0.16355925026E+03  0.00000000000E+00 0.  1.
          5    1    4    4  501    0  0.99242815036E+02 -0.14403641473E+03 -0.28981464859E+03  0.33853453006E+03  0.41800000000E+01 0. -1.
         -5    1    4    4    0  501  0.53773571388E+02  0.20891224394E+02 -0.10181739971E+03  0.11709951119E+03  0.41800000000E+01 0. -1.
</event>
<event>
11    1  0.7105277E-009  0.1592022E+03  0.7561462E-02  0.1087830E+00
         22   -1    0    0    0    0  0.00000000000E+00  0.00000000000E+00  0.15646469213E+03  0.15646469213E+03  0.00000000000E+00 0. -1.
         22   -1    0    0    0    0 -0.00000000000E+00 -0.00000000000E+00 -0.13761409921E+04  0.13761409921E+04  0.00000000000E+00 0. -1.
         24    2    1    2    0    0  0.54249960589E+02 -0.85703210543E+02 -0.96220331088E+03  0.97060693120E+03  0.77165438587E+02 0.  0.
         25    2    1    2    0    0  0.27869188733E+02  0.18959373948E+02 -0.36733984718E+03  0.38950844979E+03  0.12506845964E+03 0.  0.
        -24    2    1    2    0    0 -0.82119149322E+02  0.66743836595E+02  0.10986685809E+03  0.17249030322E+03  0.80522566956E+02 0.  0.
        -11    1    3    3    0    0 -0.80591846058E+01  0.10181496604E+02 -0.86578379533E+02  0.87546725422E+02  0.00000000000E+00 0.  1.
         12    1    3    3    0    0  0.62309145195E+02 -0.95884707147E+02 -0.87562493134E+03  0.88306020578E+03  0.00000000000E+00 0. -1.
         13    1    5    5    0    0 -0.64636348734E+02  0.21419447122E+01  0.41635075600E+02  0.76915050705E+02  0.00000000000E+00 0. -1.
        -14    1    5    5    0    0 -0.17482800588E+02  0.64601891882E+02  0.68231782494E+02  0.95575252516E+02  0.00000000000E+00 0.  1.
          5    1    4    4  501    0 -0.41807696575E+02 -0.20527966722E+02 -0.99900295049E+02  0.11030331936E+03  0.41800000000E+01 0. -1.
         -5    1    4    4    0  501  0.69676885308E+02  0.39487340670E+02 -0.26743955213E+03  0.27920513044E+03  0.41800000000E+01 0. -1.
</event>
<event>
11    1  0.7105277E-009  0.1293065E+03  0.7561462E-02  0.1120124E+00
         22   -1    0    0    0    0  0.00000000000E+00  0.00000000000E+00  0.20951781339E+03  0.20951781339E+03  0.00000000000E+00 0. -1.
         22   -1    0    0    0    0 -0.00000000000E+00 -0.00000000000E+00 -0.21442349147E+04  0.21442349147E+04  0.00000000000E+00 0.  1.
         24    2    1    2    0    0 -0.22466621629E+02  0.22164483887E+02 -0.13101776036E+04  0.13133620714E+04  0.85782072984E+02 0.  0.
         25    2    1    2    0    0  0.51287246352E+02  0.80441873128E+01 -0.81681126384E+03  0.82796357937E+03  0.12509179604E+03 0.  0.
        -24    2    1    2    0    0 -0.28820624723E+02 -0.30208671200E+02  0.19227176617E+03  0.21242707733E+03  0.80085197689E+02 0.  0.
        -11    1    3    3    0    0 -0.24962365561E+02  0.52055225007E+02 -0.10215812367E+04  0.10232111656E+04  0.00000000000E+00 0.  1.
         12    1    3    3    0    0  0.24957439321E+01 -0.29890741120E+02 -0.28859636689E+03  0.29015090578E+03  0.00000000000E+00 0. -1.
         13    1    5    5    0    0 -0.12863534273E+02 -0.47311101963E+02  0.17887301234E+03  0.18547065920E+03  0.00000000000E+00 0. -1.
        -14    1    5    5    0    0 -0.15957090451E+02  0.17102430763E+02  0.13398753836E+02  0.26956418123E+02  0.00000000000E+00 0.  1.
          5    1    4    4  501    0  0.91321629210E+02  0.92699885301E+01 -0.64400128176E+03  0.65052340155E+03  0.41800000000E+01 0.  1.
         -5    1    4    4    0  501 -0.40034382858E+02 -0.12258012173E+01 -0.17280998208E+03  0.17744017782E+03  0.41800000000E+01 0.  1.
</event>
<event>
11    1  0.7105277E-009  0.1543078E+03  0.7561462E-02  0.1092557E+00
         22   -1    0    0    0    0  0.00000000000E+00  0.00000000000E+00  0.13005745123E+03  0.13005745123E+03  0.00000000000E+00 0.  1.
         22   -1    0    0    0    0 -0.00000000000E+00 -0.00000000000E+00 -0.16449226944E+04  0.16449226944E+04  0.00000000000E+00 0.  1.
         24    2    1    2    0    0  0.87294013522E+02 -0.17254519115E+02 -0.14607352243E+04  0.14656746315E+04  0.80850273100E+02 0.  0.
         25    2    1    2    0    0 -0.11274963756E+03  0.25174391106E+02 -0.11418826900E+03  0.20501936274E+03  0.12509095724E+03 0.  0.
        -24    2    1    2    0    0  0.25455624035E+02 -0.79198719910E+01  0.60058250130E+02  0.10428615139E+03  0.80980829807E+02 0.  0.
        -13    1    3    3    0    0  0.10235112367E+03 -0.85792812795E+01 -0.12730791390E+04  0.12772156634E+04  0.00000000000E+00 0.  1.
         14    1    3    3    0    0 -0.15057110153E+02 -0.86752378360E+01 -0.18765608529E+03  0.18845896812E+03  0.00000000000E+00 0. -1.
         13    1    5    5    0    0 -0.35740484815E+01  0.28154948603E+02 -0.87187868263E-01  0.28381024561E+02  0.00000000000E+00 0. -1.
        -14    1    5    5    0    0  0.29029672516E+02 -0.36074820594E+02  0.60145437999E+02  0.75905126832E+02  0.00000000000E+00 0.  1.
          5    1    4    4  501    0 -0.12045570349E+03 -0.12491270128E+02 -0.52160357707E+02  0.13192340069E+03  0.41800000000E+01 0.  1.
         -5    1    4    4    0  501  0.77060659336E+01  0.37665661235E+02 -0.62027911293E+02  0.73095962048E+02  0.41800000000E+01 0.  1.
</event>
<event>
11    1  0.7105277E-009  0.2156685E+03  0.7561462E-02  0.1043965E+00
         22   -1    0    0    0    0  0.00000000000E+00  0.00000000000E+00  0.44158372093E+03  0.44158372093E+03  0.00000000000E+00 0. -1.
         22   -1    0    0    0    0 -0.00000000000E+00 -0.00000000000E+00 -0.29032319742E+03  0.29032319742E+03  0.00000000000E+00 0.  1.
         24    2    1    2    0    0 -0.66798353105E+02 -0.14810402311E+03 -0.14306913450E+03  0.23081970889E+03  0.80075833590E+02 0.  0.
         25    2    1    2    0    0  0.10256734954E+03  0.21393759019E+03  0.11631840868E+03  0.29234955520E+03  0.12509570951E+03 0.  0.
        -24    2    1    2    0    0 -0.35768996437E+02 -0.65833567081E+02  0.17801124934E+03  0.20873765426E+03  0.79182850123E+02 0.  0.
        -13    1    3    3    0    0 -0.55040752076E+02 -0.31392627698E+02 -0.42386159158E+02  0.76233640547E+02  0.00000000000E+00 0.  1.
         14    1    3    3    0    0 -0.11757601029E+02 -0.11671139541E+03 -0.10068297534E+03  0.15458606834E+03  0.00000000000E+00 0. -1.
         13    1    5    5    0    0 -0.50180577962E+02 -0.18510789825E+02  0.12638429398E+03  0.13723603575E+03  0.00000000000E+00 0. -1.
        -14    1    5    5    0    0  0.14411581525E+02 -0.47322777256E+02  0.51626955361E+02  0.71501618507E+02  0.00000000000E+00 0.  1.
          5    1    4    4  501    0  0.81380216877E+02  0.21573082787E+03  0.69651673127E+02  0.24089698579E+03  0.41800000000E+01 0. -1.
         -5    1    4    4    0  501  0.21187132665E+02 -0.17932376780E+01  0.46666735552E+02  0.51452569411E+02  0.41800000000E+01 0. -1.
</event>
<event>
11    1  0.7105277E-009  0.1321068E+03  0.7561462E-02  0.1116707E+00
         22   -1    0    0    0    0  0.00000000000E+00  0.00000000000E+00  0.11350700466E+03  0.11350700466E+03  0.00000000000E+00 0. -1.
         22   -1    0    0    0    0 -0.00000000000E+00 -0.00000000000E+00 -0.89259398956E+03  0.89259398956E+03  0.00000000000E+00 0. -1.
         24    2    1    2    0    0 -0.14888256651E+02  0.10166782255E+02 -0.60643580788E+03  0.61218993984E+03  0.81774749834E+02 0.  0.
         25    2    1    2    0    0 -0.20328366673E+02  0.16100876796E+02 -0.24475437636E+03  0.27608840075E+03  0.12509044550E+03 0.  0.
        -24    2    1    2    0    0  0.35216623324E+02 -0.26267659050E+02  0.72103199343E+02  0.11782265362E+03  0.82177283239E+02 0.  0.
        -11    1    3    3    0    0  0.10691733331E+01  0.44813305082E+02 -0.36840997433E+03  0.37112704648E+03  0.00000000000E+00 0.  1.
         12    1    3    3    0    0 -0.15957429984E+02 -0.34646522827E+02 -0.23802583355E+03  0.24106289336E+03  0.00000000000E+00 0. -1.
         13    1    5    5    0    0  0.36832043170E+02 -0.45222840564E+02  0.78461280269E+02  0.97764396455E+02  0.00000000000E+00 0. -1.
        -14    1    5    5    0    0 -0.16154198455E+01  0.18955181514E+02 -0.63580809258E+01  0.20058257167E+02  0.00000000000E+00 0.  1.
          5    1    4    4  501    0 -0.34287726148E+01 -0.16875392895E+02  0.88150806797E+01  0.19791751170E+02  0.41800000000E+01 0.  1.
         -5    1    4    4    0  501 -0.16899594059E+02  0.32976269691E+02 -0.25356945704E+03  0.25629664958E+03  0.41800000000E+01 0.  1.
</event>
<event>
11    1  0.7105277E-009  0.1777239E+03  0.7561462E-02  0.1071499E+00
         22   -1    0    0    0    0  0.00000000000E+00  0.00000000000E+00  0.33454558345E+04  0.33454558345E+04  0.00000000000E+00 0. -1.
         22   -1    0    0    0    0 -0.00000000000E+00 -0.00000000000E+00 -0.22451402856E+03  0.22451402856E+03  0.00000000000E+00 0.  1.
         24    2    1    2    0    0  0.12138024146E+03 -0.54521742012E+02 -0.14159936114E+03  0.20944432368E+03  0.78171364834E+02 0.  0.
         25    2    1    2    0    0 -0.89210674054E+02  0.44592728495E+02  0.83846298243E+02  0.18062506337E+03  0.12509258966E+03 0.  0.
        -24    2    1    2    0    0 -0.32169567409E+02  0.99290135165E+01  0.31786948688E+04  0.31799004760E+04  0.80823893792E+02 0.  0.
        -13    1    3    3    0    0  0.95569994400E+02 -0.24702120226E+02 -0.13823756223E+03  0.16986301005E+03  0.00000000000E+00 0.  1.
         14    1    3    3    0    0  0.25810247063E+02 -0.29819621786E+02 -0.33617989065E+01  0.39581313631E+02  0.00000000000E+00 0. -1.
         11    1    5    5    0    0 -0.44511001158E+02  0.28550692353E+02  0.28282201343E+04  0.28287144605E+04  0.00000000000E+00 0. -1.
        -12    1    5    5    0    0  0.12341433749E+02 -0.18621678836E+02  0.35047473455E+03  0.35118601548E+03  0.00000000000E+00 0.  1.
          5    1    4    4  501    0 -0.70416402272E+02  0.76684198661E+02  0.19230229361E+02  0.10595381142E+03  0.41800000000E+01 0.  1.
         -5    1    4    4    0  501 -0.18794271782E+02 -0.32091470166E+02  0.64616068882E+02  0.74671251945E+02  0.41800000000E+01 0.  1.
</event>
<event>
11    1  0.7105277E-009  0.1288462E+03  0.7561462E-02  0.1120695E+00
         22   -1    0    0    0    0  0.00000000000E+00  0.00000000000E+00  0.48685731101E+03  0.48685731101E+03  0.00000000000E+00 0.  1.
         22   -1    0    0    0    0 -0.00000000000E+00 -0.00000000000E+00 -0.10316522470E+04  0.10316522470E+04  0.00000000000E+00 0.  1.
        -24    2    1    2    0    0  0.26501183956E+02  0.25443170480E+02 -0.98993989014E+03  0.99338163947E+03  0.74002890931E+02 0.  0.
         25    2    1    2    0    0 -0.24995792304E+02 -0.50890830226E+02  0.11628816991E+03  0.17995865513E+03  0.12509001903E+03 0.  0.
         24    2    1    2    0    0 -0.15053916520E+01  0.25447659746E+02  0.32885678425E+03  0.34516926340E+03  0.10171128876E+03 0.  0.
        -13    1    5    5    0    0 -0.16648914762E+02 -0.36948814879E+02  0.13547215664E+03  0.14140405407E+03  0.00000000000E+00 0.  1.
         14    1    5    5    0    0  0.15143523110E+02  0.62396474625E+02  0.19338462761E+03  0.20376520933E+03  0.00000000000E+00 0. -1.
         11    1    3    3    0    0 -0.17641025173E+02 -0.29927194517E+01 -0.55429569751E+03  0.55458442316E+03  0.00000000000E+00 0. -1.
        -12    1    3    3    0    0  0.44142209129E+02  0.28435889932E+02 -0.43564419263E+03  0.43879721630E+03  0.00000000000E+00 0.  1.
          5    1    4    4  501    0 -0.75479189760E+02 -0.34184957006E+02  0.59826167673E+02  0.10228568869E+03  0.41800000000E+01 0. -1.
         -5    1    4    4    0  501  0.50483397456E+02 -0.16705873220E+02  0.56462002236E+02  0.77672966438E+02  0.41800000000E+01 0. -1.
</event>
<event>
11    1  0.7105277E-009  0.1556049E+03  0.7561462E-02  0.1091285E+00
         22   -1    0    0    0    0  0.00000000000E+00  0.00000000000E+00  0.16394497735E+03  0.16394497735E+03  0.00000000000E+00 0. -1.
         22   -1    0    0    0    0 -0.00000000000E+00 -0.00000000000E+00 -0.25286625714E+04  0.25286625714E+04  0.00000000000E+00 0. -1.
        -24    2    1    2    0    0 -0.33314020973E+01 -0.91800626744E+02 -0.21769588949E+04  0.21807740336E+04  0.90481503404E+02 0.  0.
         25    2    1    2    0    0  0.44721040361E+02  0.97508753723E+02 -0.31237177935E+03  0.35317492837E+03  0.12509385671E+03 0.  0.
         24    2    1    2    0    0 -0.41389638263E+02 -0.57081269795E+01  0.12461308022E+03  0.15865858672E+03  0.88873182171E+02 0.  0.
        -13    1    5    5    0    0 -0.48166792542E+02  0.14325088870E+01  0.17765751249E+02  0.51358678944E+02  0.00000000000E+00 0.  1.
         14    1    5    5    0    0  0.67771542782E+01 -0.71406358665E+01  0.10684732897E+03  0.10729990778E+03  0.00000000000E+00 0. -1.
         11    1    3    3    0    0 -0.11143680981E+02 -0.71864490285E+02 -0.20883092190E+04  0.20895750958E+04  0.00000000000E+00 0. -1.
        -12    1    3    3    0    0  0.78122788833E+01 -0.19936136459E+02 -0.88649675829E+02  0.91198937838E+02  0.00000000000E+00 0.  1.
          5    1    4    4  501    0  0.79746873548E+02  0.58221042825E+02 -0.26273468828E+03  0.28070668409E+03  0.41800000000E+01 0. -1.
         -5    1    4    4    0  501 -0.35025833187E+02  0.39287710898E+02 -0.49637091069E+02  0.72468244272E+02  0.41800000000E+01 0. -1.
</event>
<event>
11    1  0.7105277E-009  0.1323741E+03  0.7561462E-02  0.1116386E+00
         22   -1    0    0    0    0  0.00000000000E+00  0.00000000000E+00  0.13149363067E+04  0.13149363067E+04  0.00000000000E+00 0. -1.
         22   -1    0    0    0    0 -0.00000000000E+00 -0.00000000000E+00 -0.70780430977E+02  0.70780430977E+02  0.00000000000E+00 0.  1.
        -24    2    1    2    0    0  0.27508436205E+02  0.59526796507E+00 -0.27690703191E+02  0.89080747354E+02  0.80072068161E+02 0.  0.
         25    2    1    2    0    0 -0.33323743990E+02 -0.42256907566E+02  0.45910579508E+03  0.47887551709E+03  0.12509001415E+03 0.  0.
         24    2    1    2    0    0  0.58153077852E+01  0.41661639601E+02  0.81274078385E+03  0.81776047325E+03  0.80094318520E+02 0.  0.
        -11    1    5    5    0    0 -0.15871798641E+02  0.15427323391E+02  0.55439997191E+02  0.59695138727E+02  0.00000000000E+00 0.  1.
         12    1    5    5    0    0  0.21687106426E+02  0.26234316210E+02  0.75730078665E+03  0.75806533452E+03  0.00000000000E+00 0. -1.
         13    1    3    3    0    0 -0.24669190448E+02  0.16594760949E+02 -0.58738257254E+01  0.30306053470E+02  0.00000000000E+00 0. -1.
        -14    1    3    3    0    0  0.52177626653E+02 -0.15999492983E+02 -0.21816877466E+02  0.58774693884E+02  0.00000000000E+00 0.  1.
          5    1    4    4  501    0 -0.12132427517E+02  0.31757253166E+02  0.39664510532E+02  0.52406724014E+02  0.41800000000E+01 0.  1.
         -5    1    4    4    0  501 -0.21191316473E+02 -0.74014160732E+02  0.41944128455E+03  0.42646879308E+03  0.41800000000E+01 0.  1.
</event>
<event>
11    1  0.7105277E-009  0.1300454E+03  0.7561462E-02  0.1119213E+00
         22   -1    0    0    0    0  0.00000000000E+00  0.00000000000E+00  0.14079738733E+03  0.14079738733E+03  0.00000000000E+00 0. -1.
         22   -1    0    0    0    0 -0.00000000000E+00 -0.00000000000E+00 -0.98728372231E+03  0.98728372231E+03  0.00000000000E+00 0.  1.
         24    2    1    2    0    0  0.14967547435E+02 -0.10177863258E+02 -0.82067854860E+03  0.82488090970E+03  0.81164146491E+02 0.  0.
         25    2    1    2    0    0  0.18857785815E+02  0.24296744048E+02 -0.11729151847E+03  0.17421238208E+03  0.12508679350E+03 0.  0.
        -24    2    1    2    0    0 -0.33825333251E+02 -0.14118880791E+02  0.91483732082E+02  0.12898781786E+03  0.83217113367E+02 0.  0.
        -11    1    3    3    0    0  0.47117341057E+02  0.54125726174E+01 -0.46884507164E+03  0.47123777540E+03  0.00000000000E+00 0.  1.
         12    1    3    3    0    0 -0.32149793621E+02 -0.15590435875E+02 -0.35183347696E+03  0.35364313429E+03  0.00000000000E+00 0. -1.
         11    1    5    5    0    0 -0.85663576003E+01  0.24897151136E+01  0.97715647366E+02  0.98122010293E+02  0.00000000000E+00 0. -1.
        -12    1    5    5    0    0 -0.25258975650E+02 -0.16608595904E+02 -0.62319152841E+01  0.30865807569E+02  0.00000000000E+00 0.  1.
          5    1    4    4  501    0 -0.30002827551E+02  0.51980480434E+02 -0.97411276253E+02  0.11449265980E+03  0.41800000000E+01 0. -1.
         -5    1    4    4    0  501  0.48860613366E+02 -0.27683736385E+02 -0.19880242215E+02  0.59719722281E+02  0.41800000000E+01 0. -1.
</event>
<event>
11    1  0.7105277E-009  0.1285028E+03  0.7561462E-02  0.1121122E+00
         22   -1    0    0    0    0  0.00000000000E+00  0.00000000000E+00  0.13534537760E+03  0.13534537760E+03  0.00000000000E+00 0.  1.
         22   -1    0    0    0    0 -0.00000000000E+00 -0.00000000000E+00 -0.80794731000E+03  0.80794731000E+03  0.00000000000E+00 0. -1.
         24    2    1    2    0    0  0.19513551848E+00 -0.25808605497E+02 -0.63101694182E+03  0.63657979460E+03  0.79908271362E+02 0.  0.
         25    2    1    2    0    0 -0.19636722470E+02  0.45310134403E+02 -0.12813116794E+03  0.18575303822E+03  0.12509190965E+03 0.  0.
        -24    2    1    2    0    0  0.19441586951E+02 -0.19501528906E+02  0.86546177372E+02  0.12095985477E+03  0.79892181818E+02 0.  0.
        -11    1    3    3    0    0  0.35216191406E+01 -0.34892624487E+02 -0.10962147318E+03  0.11509458904E+03  0.00000000000E+00 0.  1.
         12    1    3    3    0    0 -0.33264836221E+01  0.90840189904E+01 -0.52139546865E+03  0.52148520556E+03  0.00000000000E+00 0. -1.
         13    1    5    5    0    0  0.40490084466E+02  0.12437941093E+02  0.27148111541E+02  0.50310727275E+02  0.00000000000E+00 0. -1.
        -14    1    5    5    0    0 -0.21048497514E+02 -0.31939469999E+02  0.59398065832E+02  0.70649127497E+02  0.00000000000E+00 0.  1.
          5    1    4    4  501    0 -0.19484140426E+02 -0.38361717344E+02 -0.74948339865E+02  0.86521553004E+02  0.41800000000E+01 0. -1.
         -5    1    4    4    0  501 -0.15258204385E+00  0.83671851747E+02 -0.53182828080E+02  0.99231485218E+02  0.41800000000E+01 0. -1.
</event>
<event>
11    1  0.7105277E-009  0.1410042E+03  0.7561462E-02  0.1106442E+00
         22   -1    0    0    0    0  0.00000000000E+00  0.00000000000E+00  0.35493543552E+03  0.35493543552E+03  0.00000000000E+00 0. -1.
         22   -1    0    0    0    0 -0.00000000000E+00 -0.00000000000E+00 -0.14815915238E+03  0.14815915238E+03  0.00000000000E+00 0. -1.
        -24    2    1    2    0    0 -0.29693137889E+02  0.30100931657E+02 -0.81427829990E+02  0.12133744882E+03  0.79401111227E+02 0.  0.
         25    2    1    2    0    0  0.75180967456E+02  0.10311391102E+02  0.19382511509E+03  0.24284493765E+03  0.12508791248E+03 0.  0.
         24    2    1    2    0    0 -0.45487829566E+02 -0.40412322758E+02  0.94378998034E+02  0.13891220144E+03  0.81773504081E+02 0.  0.
        -13    1    5    5    0    0 -0.76310780179E+01 -0.14350535125E+02 -0.13833903473E+02  0.21343572695E+02  0.00000000000E+00 0.  1.
         14    1    5    5    0    0 -0.37856751548E+02 -0.26061787633E+02  0.10821290151E+03  0.11756862875E+03  0.00000000000E+00 0. -1.
         13    1    3    3    0    0 -0.31367526021E+01  0.36185791718E+02 -0.86326140351E+02  0.93656036896E+02  0.00000000000E+00 0. -1.
        -14    1    3    3    0    0 -0.26556385287E+02 -0.60848600612E+01  0.48983103613E+01  0.27681411920E+02  0.00000000000E+00 0.  1.
          5    1    4    4  501    0  0.59677988179E+02 -0.23123374569E+02  0.23152265525E+02  0.68188360616E+02  0.41800000000E+01 0. -1.
         -5    1    4    4    0  501  0.15502979276E+02  0.33434765671E+02  0.17067284957E+03  0.17465657704E+03  0.41800000000E+01 0. -1.
</event>
<event>
11    1  0.7105277E-009  0.1342608E+03  0.7561462E-02  0.1114142E+00
         22   -1    0    0    0    0  0.00000000000E+00  0.00000000000E+00  0.29967924074E+02  0.29967924074E+02  0.00000000000E+00 0.  1.
         22   -1    0    0    0    0 -0.00000000000E+00 -0.00000000000E+00 -0.16502117950E+04  0.16502117950E+04  0.00000000000E+00 0.  1.
        -24    2    1    2    0    0  0.41752848815E+02  0.31006238304E+02 -0.12615969927E+04  0.12653404166E+04  0.82187047426E+02 0.  0.
         25    2    1    2    0    0 -0.24373646210E+02 -0.91392328256E+00 -0.23062634659E+03  0.26349808212E+03  0.12509123731E+03 0.  0.
         24    2    1    2    0    0 -0.17379202605E+02 -0.30092315021E+02 -0.12802053172E+03  0.15134122042E+03  0.72851385357E+02 0.  0.
        -11    1    5    5    0    0  0.17736133048E+01 -0.51757368176E+02 -0.81001435679E+02  0.96141580218E+02  0.00000000000E+00 0.  1.
         12    1    5    5    0    0 -0.19152815910E+02  0.21665053155E+02 -0.47019096041E+02  0.55199640198E+02  0.00000000000E+00 0. -1.
         11    1    3    3    0    0  0.17303623437E+01  0.47948771308E+02 -0.87366781570E+03  0.87498430329E+03  0.00000000000E+00 0. -1.
        -12    1    3    3    0    0  0.40022486471E+02 -0.16942533004E+02 -0.38792917696E+03  0.39035611329E+03  0.00000000000E+00 0.  1.
          5    1    4    4  501    0  0.10526327102E+02  0.37971206671E+01  0.12796459909E+02  0.17505526951E+02  0.41800000000E+01 0.  1.
         -5    1    4    4    0  501 -0.34899973312E+02 -0.47110439496E+01 -0.24342280650E+03  0.24599255517E+03  0.41800000000E+01 0.  1.
</event>
<event>
11    1  0.7105277E-009  0.1312161E+03  0.7561462E-02  0.1117784E+00
         22   -1    0    0    0    0  0.00000000000E+00  0.00000000000E+00  0.27408609962E+03  0.27408609962E+03  0.00000000000E+00 0. -1.
         22   -1    0    0    0    0 -0.00000000000E+00 -0.00000000000E+00 -0.70265938904E+03  0.70265938904E+03  0.00000000000E+00 0. -1.
         24    2    1    2    0    0 -0.17439529913E+02 -0.63440352515E+01 -0.60445646500E+03  0.60967595108E+03  0.77412939857E+02 0.  0.
         25    2    1    2    0    0 -0.22525726063E+02  0.16067689565E+02 -0.38665690274E+02  0.13381890792E+03  0.12508751148E+03 0.  0.
        -24    2    1    2    0    0  0.39965255976E+02 -0.97236543139E+01  0.21454886585E+03  0.23325062967E+03  0.81748818121E+02 0.  0.
        -13    1    3    3    0    0 -0.14426246611E+02  0.14120853388E+02 -0.39671273072E+02  0.44512076999E+02  0.00000000000E+00 0.  1.
         14    1    3    3    0    0 -0.30132833020E+01 -0.20464888639E+02 -0.56478519193E+03  0.56516387408E+03  0.00000000000E+00 0. -1.
         11    1    5    5    0    0  0.21718583582E+02  0.30671812506E+02  0.48328570726E+02  0.61221791084E+02  0.00000000000E+00 0. -1.
        -12    1    5    5    0    0  0.18246672395E+02 -0.40395466819E+02  0.16622029512E+03  0.17202883858E+03  0.00000000000E+00 0.  1.
          5    1    4    4  501    0  0.33388421144E+02  0.16090514042E+02 -0.62587862958E+02  0.72858796986E+02  0.41800000000E+01 0. -1.
         -5    1    4    4    0  501 -0.55914147208E+02 -0.22824476597E-01  0.23922172684E+02  0.60960110932E+02  0.41800000000E+01 0. -1.
</event>
<event>
11    1  0.7105277E-009  0.1666361E+03  0.7561462E-02  0.1080997E+00
         22   -1    0    0    0    0  0.00000000000E+00  0.00000000000E+00  0.10874483235E+03  0.10874483235E+03  0.00000000000E+00 0. -1.
         22   -1    0    0    0    0 -0.00000000000E+00 -0.00000000000E+00 -0.13389206223E+04  0.13389206223E+04  0.00000000000E+00 0. -1.
        -24    2    1    2    0    0  0.92307936545E+02  0.56210680198E+02 -0.67834241200E+03  0.69193795284E+03  0.83362503287E+02 0.  0.
         25    2    1    2    0    0 -0.10448690134E+03 -0.45759235960E+02 -0.62380148814E+03  0.64636435854E+03  0.12508863725E+03 0.  0.
         24    2    1    2    0    0  0.12178964793E+02 -0.10451444238E+02  0.71968110140E+02  0.10936314331E+03  0.80767124304E+02 0.  0.
        -13    1    5    5    0    0 -0.45958391984E+01 -0.23586555537E+02 -0.89837611100E+01  0.25654537683E+02  0.00000000000E+00 0.  1.
         14    1    5    5    0    0  0.16774803992E+02  0.13135111299E+02  0.80951871250E+02  0.83708605631E+02  0.00000000000E+00 0. -1.
         11    1    3    3    0    0  0.72979008199E+02  0.18079334119E+02 -0.57798280348E+03  0.58285239905E+03  0.00000000000E+00 0. -1.
        -12    1    3    3    0    0  0.19328928346E+02  0.38131346079E+02 -0.10035960852E+03  0.10908555379E+03  0.00000000000E+00 0.  1.
          5    1    4    4  501    0 -0.66677870835E+02 -0.28196108619E+02 -0.58429533852E+03  0.58877794967E+03  0.41800000000E+01 0.  1.
         -5    1    4    4    0  501 -0.37809030503E+02 -0.17563127341E+02 -0.39506149613E+02  0.57586408873E+02  0.41800000000E+01 0.  1.
</event>
<event>
11    1  0.7105277E-009  0.1999641E+03  0.7561462E-02  0.1054549E+00
         22   -1    0    0    0    0  0.00000000000E+00  0.00000000000E+00  0.12169730068E+04  0.12169730068E+04  0.00000000000E+00 0. -1.
         22   -1    0    0    0    0 -0.00000000000E+00 -0.00000000000E+00 -0.16135809206E+04  0.16135809206E+04  0.00000000000E+00 0.  1.
        -24    2    1    2    0    0 -0.13846722892E+03  0.81231365913E+02 -0.12934334203E+04  0.13059479442E+04  0.82208953051E+02 0.  0.
         25    2    1    2    0    0  0.15656774155E+03  0.13484660126E+02 -0.27803267689E+03  0.34299369879E+03  0.12508882539E+03 0.  0.
         24    2    1    2    0    0 -0.18100512624E+02 -0.94716026039E+02  0.11748581834E+04  0.11816122844E+04  0.81345469571E+02 0.  0.
        -11    1    5    5    0    0 -0.31737307970E+01 -0.10198662611E+03  0.81368870152E+03  0.82006136810E+03  0.00000000000E+00 0.  1.
         12    1    5    5    0    0 -0.14926781827E+02  0.72706000705E+01  0.36116948190E+03  0.36155091633E+03  0.00000000000E+00 0. -1.
         13    1    3    3    0    0 -0.41303286785E+02  0.65734416186E+02 -0.43271374574E+03  0.43962274818E+03  0.00000000000E+00 0. -1.
        -14    1    3    3    0    0 -0.97163942140E+02  0.15496949727E+02 -0.86071967458E+03  0.86632519605E+03  0.00000000000E+00 0.  1.
          5    1    4    4  501    0  0.35861184933E+02  0.50480103300E+02 -0.15367471716E+03  0.16573369153E+03  0.41800000000E+01 0.  1.
         -5    1    4    4    0  501  0.12070655662E+03 -0.36995443174E+02 -0.12435795973E+03  0.17726000726E+03  0.41800000000E+01 0.  1.
</event>
<event>
11    1  0.7105277E-009  0.1276410E+03  0.7561462E-02  0.1122202E+00
         22   -1    0    0    0    0  0.00000000000E+00  0.00000000000E+00  0.59072135546E+02  0.59072135546E+02  0.00000000000E+00 0. -1.
         22   -1    0    0    0    0 -0.00000000000E+00 -0.00000000000E+00 -0.13472294340E+04  0.13472294340E+04  0.00000000000E+00 0. -1.
         24    2    1    2    0    0 -0.12779817513E+02 -0.91025553345E+01 -0.11409590840E+04  0.11438807779E+04  0.80183678781E+02 0.  0.
         25    2    1    2    0    0  0.10322382102E+01  0.30298422930E+02 -0.10460826396E+03  0.16585959150E+03  0.12508978877E+03 0.  0.
        -24    2    1    2    0    0  0.11747579303E+02 -0.21195867596E+02 -0.42589950450E+02  0.96561200147E+02  0.83203912600E+02 0.  0.
        -11    1    3    3    0    0  0.15854094295E+02 -0.33392321091E+02 -0.80137635089E+03  0.80222843080E+03  0.00000000000E+00 0.  1.
         12    1    3    3    0    0 -0.28633911809E+02  0.24289765757E+02 -0.33958273311E+03  0.34165234706E+03  0.00000000000E+00 0. -1.
         11    1    5    5    0    0 -0.12100485734E+02 -0.18353825231E+02  0.19876338584E+02  0.29637029054E+02  0.00000000000E+00 0. -1.
        -12    1    5    5    0    0  0.23848065038E+02 -0.28420423647E+01 -0.62466289034E+02  0.66924171094E+02  0.00000000000E+00 0.  1.
          5    1    4    4  501    0  0.49149403585E+01  0.42125779391E+02 -0.13025339788E+03  0.13704801344E+03  0.41800000000E+01 0. -1.
         -5    1    4    4    0  501 -0.38827021483E+01 -0.11827356461E+02  0.25645133916E+02  0.28811578062E+02  0.41800000000E+01 0. -1.
</event>
<event>
11    1  0.7105277E-009  0.1907623E+03  0.7561462E-02  0.1061255E+00
         22   -1    0    0    0    0  0.00000000000E+00  0.00000000000E+00  0.76523401709E+03  0.76523401709E+03  0.00000000000E+00 0.  1.
         22   -1    0    0    0    0 -0.00000000000E+00 -0.00000000000E+00 -0.43674748603E+03  0.43674748603E+03  0.00000000000E+00 0.  1.
         24    2    1    2    0    0 -0.14662605009E+02  0.14134024719E+03 -0.24900777341E+03  0.29810759007E+03  0.81677454543E+02 0.  0.
         25    2    1    2    0    0  0.13568683828E+03 -0.12467206917E+03 -0.75152818454E+02  0.23505242572E+03  0.12509058238E+03 0.  0.
        -24    2    1    2    0    0 -0.12102423327E+03 -0.16668178018E+02  0.65264712292E+03  0.66882148732E+03  0.80307046055E+02 0.  0.
        -11    1    3    3    0    0  0.25526139760E+02  0.49751132834E+02 -0.13683697879E+03  0.14782123594E+03  0.00000000000E+00 0.  1.
         12    1    3    3    0    0 -0.40188744769E+02  0.91589114356E+02 -0.11217079461E+03  0.15028635413E+03  0.00000000000E+00 0. -1.
         13    1    5    5    0    0  0.13767068400E+01 -0.28969030570E+01  0.19093583012E+03  0.19096276756E+03  0.00000000000E+00 0. -1.
        -14    1    5    5    0    0 -0.12240094011E+03 -0.13771274961E+02  0.46171129280E+03  0.47785871976E+03  0.00000000000E+00 0.  1.
          5    1    4    4  501    0  0.15593677940E+03 -0.89345713178E+02 -0.73119623471E+02  0.19406928497E+03  0.41800000000E+01 0.  1.
         -5    1    4    4    0  501 -0.20249941124E+02 -0.35326355994E+02 -0.20331949834E+01  0.40983140743E+02  0.41800000000E+01 0.  1.
</event>
<event>
11    1  0.7105277E-009  0.1760041E+03  0.7561462E-02  0.1072922E+00
         22   -1    0    0    0    0  0.00000000000E+00  0.00000000000E+00  0.95683322195E+02  0.95683322195E+02  0.00000000000E+00 0. -1.
         22   -1    0    0    0    0 -0.00000000000E+00 -0.00000000000E+00 -0.12328293156E+04  0.12328293156E+04  0.00000000000E+00 0. -1.
         24    2    1    2    0    0  0.25516583690E+02 -0.55809888818E+02 -0.77989496952E+03  0.78656197517E+03  0.81717425102E+02 0.  0.
         25    2    1    2    0    0 -0.14189667306E+03  0.19848108159E+02 -0.34064450051E+03  0.39014675295E+03  0.12508876802E+03 0.  0.
        -24    2    1    2    0    0  0.11638008937E+03  0.35961780659E+02 -0.16606523361E+02  0.15180390967E+03  0.89056585955E+02 0.  0.
        -11    1    3    3    0    0  0.55509633599E+02 -0.35632265881E+02 -0.48842974998E+03  0.49286367127E+03  0.00000000000E+00 0.  1.
         12    1    3    3    0    0 -0.29993049909E+02 -0.20177622937E+02 -0.29146521955E+03  0.29369830390E+03  0.00000000000E+00 0. -1.
         11    1    5    5    0    0  0.70462336871E+02 -0.15387417979E+02  0.18543896354E+02  0.74468715857E+02  0.00000000000E+00 0. -1.
        -12    1    5    5    0    0  0.45917752497E+02  0.51349198639E+02 -0.35150419715E+02  0.77335193808E+02  0.00000000000E+00 0.  1.
          5    1    4    4  501    0 -0.11177792788E+03  0.25755768840E+01 -0.11012663708E+03  0.15699136075E+03  0.41800000000E+01 0. -1.
         -5    1    4    4    0  501 -0.30118745182E+02  0.17272531275E+02 -0.23051786344E+03  0.23315539220E+03  0.41800000000E+01 0. -1.
</event>
<event>
11    1  0.7105277E-009  0.1492437E+03  0.7561462E-02  0.1097654E+00
         22   -1    0    0    0    0  0.00000000000E+00  0.00000000000E+00  0.16154524679E+04  0.16154524679E+04  0.00000000000E+00 0.  1.
         22   -1    0    0    0    0 -0.00000000000E+00 -0.00000000000E+00 -0.41845952273E+03  0.41845952273E+03  0.00000000000E+00 0. -1.
         24    2    1    2    0    0  0.12717134811E+02  0.20699205919E+02 -0.34605517995E+03  0.35683637570E+03  0.83593234245E+02 0.  0.
         25    2    1    2    0    0  0.59012968860E+02 -0.59259382982E+02  0.22382137838E+02  0.15212963690E+03  0.12509301085E+03 0.  0.
        -24    2    1    2    0    0 -0.71730103672E+02  0.38560177063E+02  0.15206659873E+04  0.15249459781E+04  0.80019347788E+02 0.  0.
        -11    1    3    3    0    0  0.95806624272E+01  0.44379339436E+02 -0.10240764001E+03  0.11202071056E+03  0.00000000000E+00 0.  1.
         12    1    3    3    0    0  0.31364723842E+01 -0.23680133517E+02 -0.24364753993E+03  0.24481566514E+03  0.00000000000E+00 0. -1.
         11    1    5    5    0    0 -0.46546670279E+02 -0.16315967266E+02  0.89984984062E+03  0.90120060973E+03  0.00000000000E+00 0. -1.
        -12    1    5    5    0    0 -0.25183433393E+02  0.54876144329E+02  0.62081614669E+03  0.62374536834E+03  0.00000000000E+00 0.  1.
          5    1    4    4  501    0 -0.16637764286E+02  0.23628954516E+02 -0.16194583398E+02  0.33389813168E+02  0.41800000000E+01 0.  1.
         -5    1    4    4    0  501  0.75650733147E+02 -0.82888337498E+02  0.38576721236E+02  0.11873982373E+03  0.41800000000E+01 0.  1.
</event>
<event>
11    1  0.7105277E-009  0.1460127E+03  0.7561462E-02  0.1101024E+00
         22   -1    0    0    0    0  0.00000000000E+00  0.00000000000E+00  0.26473168105E+03  0.26473168105E+03  0.00000000000E+00 0.  1.
         22   -1    0    0    0    0 -0.00000000000E+00 -0.00000000000E+00 -0.11906671043E+04  0.11906671043E+04  0.00000000000E+00 0.  1.
        -24    2    1    2    0    0  0.35641205198E+02 -0.36081249354E+02 -0.10950817995E+04  0.10991953387E+04  0.80337368662E+02 0.  0.
         25    2    1    2    0    0  0.43704106532E+02  0.12336478094E+02 -0.20330577043E+02  0.13462769335E+03  0.12509614636E+03 0.  0.
         24    2    1    2    0    0 -0.79345311730E+02  0.23744771260E+02  0.18947695334E+03  0.22157575333E+03  0.79591494274E+02 0.  0.
        -11    1    5    5    0    0 -0.65376106868E+02 -0.10848839894E+02  0.69930720390E+02  0.96343335683E+02  0.00000000000E+00 0.  1.
         12    1    5    5    0    0 -0.13969204862E+02  0.34593611154E+02  0.11954623295E+03  0.12523241764E+03  0.00000000000E+00 0. -1.
         11    1    3    3    0    0 -0.65129473812E+01 -0.44253580576E+02 -0.34531799238E+03  0.34820297779E+03  0.00000000000E+00 0. -1.
        -12    1    3    3    0    0  0.42154152579E+02  0.81723312218E+01 -0.74976380715E+03  0.75099236087E+03  0.00000000000E+00 0.  1.
          5    1    4    4  501    0 -0.42581565284E+02  0.58750252140E+01 -0.20942039214E+02  0.47997364821E+02  0.41800000000E+01 0.  1.
         -5    1    4    4    0  501  0.86285671817E+02  0.64614528803E+01  0.61146217108E+00  0.86630328524E+02  0.41800000000E+01 0.  1.
</event>
<event>
11    1  0.7105277E-009  0.1520459E+03  0.7561462E-02  0.1094806E+00
         22   -1    0    0    0    0  0.00000000000E+00  0.00000000000E+00  0.33496444815E+03  0.33496444815E+03  0.00000000000E+00 0.  1.
         22   -1    0    0    0    0 -0.00000000000E+00 -0.00000000000E+00 -0.21385579092E+03  0.21385579092E+03  0.00000000000E+00 0.  1.
         24    2    1    2    0    0 -0.77146533813E+01 -0.21502809613E+02 -0.12594934766E+03  0.15267468074E+03  0.83213179638E+02 0.  0.
         25    2    1    2    0    0  0.36724940003E+02  0.97783139773E+02  0.54133592772E+02  0.17171873421E+03  0.12508642681E+03 0.  0.
        -24    2    1    2    0    0 -0.29010286622E+02 -0.76280330159E+02  0.19292441212E+03  0.22442682412E+03  0.80543684379E+02 0.  0.
        -13    1    3    3    0    0 -0.42288091353E+02 -0.28390713695E+02 -0.78102645226E+02  0.93243436690E+02  0.00000000000E+00 0.  1.
         14    1    3    3    0    0  0.34573437971E+02  0.68879040812E+01 -0.47846702431E+02  0.59431244050E+02  0.00000000000E+00 0. -1.
         13    1    5    5    0    0  0.59792286126E+01 -0.55880125409E+02  0.47867775670E+02  0.73821836458E+02  0.00000000000E+00 0. -1.
        -14    1    5    5    0    0 -0.34989515234E+02 -0.20400204751E+02  0.14505663645E+03  0.15060498766E+03  0.00000000000E+00 0.  1.
          5    1    4    4  501    0  0.52393410455E+02  0.12438168175E+02 -0.19918918271E+02  0.57567466435E+02  0.41800000000E+01 0.  1.
         -5    1    4    4    0  501 -0.15668470452E+02  0.85344971598E+02  0.74052511043E+02  0.11415126778E+03  0.41800000000E+01 0.  1.
</event>
<event>
11    1  0.7105277E-009  0.2074576E+03  0.7561462E-02  0.1049372E+00
         22   -1    0    0    0    0  0.00000000000E+00  0.00000000000E+00  0.39300019389E+03  0.39300019389E+03  0.00000000000E+00 0. -1.
         22   -1    0    0    0    0 -0.00000000000E+00 -0.00000000000E+00 -0.94548921937E+03  0.94548921937E+03  0.00000000000E+00 0. -1.
         24    2    1    2    0    0 -0.35678752804E+02 -0.31489709799E+02 -0.81249521026E+03  0.81778834641E+03  0.79779305617E+02 0.  0.
         25    2    1    2    0    0 -0.12834820210E+03  0.80193121342E+02 -0.37783245926E+01  0.19637693927E+03  0.12508168870E+03 0.  0.
        -24    2    1    2    0    0  0.16402695490E+03 -0.48703411544E+02  0.26378450937E+03  0.32432412758E+03  0.79542492514E+02 0.  0.
        -13    1    3    3    0    0 -0.77324468579E+01 -0.55356748895E+02 -0.46046678588E+03  0.46384676487E+03  0.00000000000E+00 0.  1.
         14    1    3    3    0    0 -0.27946305946E+02  0.23867039097E+02 -0.35202842438E+03  0.35394158154E+03  0.00000000000E+00 0. -1.
         11    1    5    5    0    0  0.94957436730E+02 -0.64732902627E+02  0.18955312327E+03  0.22167013785E+03  0.00000000000E+00 0. -1.
        -12    1    5    5    0    0  0.69069518171E+02  0.16029491083E+02  0.74231386101E+02  0.10265398973E+03  0.00000000000E+00 0.  1.
          5    1    4    4  501    0 -0.22204829582E+02  0.53394172184E+02 -0.50869402781E+02  0.77130802014E+02  0.41800000000E+01 0.  1.
         -5    1    4    4    0  501 -0.10614337252E+03  0.26798949159E+02  0.47091078188E+02  0.11924613725E+03  0.41800000000E+01 0.  1.
</event>
<event>
11    1  0.7105277E-009  0.1426281E+03  0.7561462E-02  0.1104659E+00
         22   -1    0    0    0    0  0.00000000000E+00  0.00000000000E+00  0.18611259682E+03  0.18611259682E+03  0.00000000000E+00 0. -1.
         22   -1    0    0    0    0 -0.00000000000E+00 -0.00000000000E+00 -0.47526844946E+03  0.47526844946E+03  0.00000000000E+00 0.  1.
         24    2    1    2    0    0 -0.26028036608E+02 -0.46177811849E+01 -0.35660180573E+03  0.36669804656E+03  0.81263933629E+02 0.  0.
         25    2    1    2    0    0  0.52038044541E+02  0.64913390758E+02 -0.31129953876E+02  0.15342050833E+03  0.12508825671E+03 0.  0.
        -24    2    1    2    0    0 -0.26010007933E+02 -0.60295609573E+02  0.98575906959E+02  0.14126249140E+03  0.76979224458E+02 0.  0.
        -11    1    3    3    0    0 -0.12772956784E+02 -0.40382141443E+02 -0.12510125659E+03  0.13207645579E+03  0.00000000000E+00 0.  1.
         12    1    3    3    0    0 -0.13255079824E+02  0.35764360258E+02 -0.23150054913E+03  0.23462159077E+03  0.00000000000E+00 0. -1.
         11    1    5    5    0    0 -0.37959627268E+02 -0.73268785594E+02  0.72871779785E+02  0.11008880294E+03  0.00000000000E+00 0. -1.
        -12    1    5    5    0    0  0.11949619335E+02  0.12973176021E+02  0.25704127174E+02  0.31173688459E+02  0.00000000000E+00 0.  1.
          5    1    4    4  501    0  0.84151696742E+02  0.64473240380E+02  0.33089131720E+01  0.10614484489E+03  0.41800000000E+01 0.  1.
         -5    1    4    4    0  501 -0.32113652201E+02  0.44015037781E+00 -0.34438867048E+02  0.47275663439E+02  0.41800000000E+01 0.  1.
</event>
<event>
11    1  0.7105277E-009  0.1857457E+03  0.7561462E-02  0.1065088E+00
         22   -1    0    0    0    0  0.00000000000E+00  0.00000000000E+00  0.10703764210E+04  0.10703764210E+04  0.00000000000E+00 0. -1.
         22   -1    0    0    0    0 -0.00000000000E+00 -0.00000000000E+00 -0.10022399316E+04  0.10022399316E+04  0.00000000000E+00 0. -1.
        -24    2    1    2    0    0 -0.44614945662E+02 -0.87668677814E+02 -0.94514576163E+03  0.95375670721E+03  0.81701012082E+02 0.  0.
         25    2    1    2    0    0 -0.74297577986E+02 -0.37447603762E+01  0.72062209704E+02  0.16240326773E+03  0.12509079094E+03 0.  0.
         24    2    1    2    0    0  0.11891252365E+03  0.91413438190E+02  0.94122004137E+03  0.95645637766E+03  0.80106373911E+02 0.  0.
        -13    1    5    5    0    0  0.31168355450E+02  0.40820404342E+02  0.14514224459E+03  0.15396117354E+03  0.00000000000E+00 0.  1.
         14    1    5    5    0    0  0.87744168198E+02  0.50593033849E+02  0.79607779677E+03  0.80249520412E+03  0.00000000000E+00 0. -1.
         13    1    3    3    0    0 -0.22961971292E+02 -0.27905737401E+02 -0.68518919017E+03  0.68614153688E+03  0.00000000000E+00 0. -1.
        -14    1    3    3    0    0 -0.21652974370E+02 -0.59762940413E+02 -0.25995657146E+03  0.26761517033E+03  0.00000000000E+00 0.  1.
          5    1    4    4  501    0 -0.54734165996E+02  0.55489100138E+02  0.60655231436E+02  0.98850385239E+02  0.41800000000E+01 0.  1.
         -5    1    4    4    0  501 -0.19563411990E+02 -0.59233860515E+02  0.11406978269E+02  0.63552882495E+02  0.41800000000E+01 0.  1.
</event>
<event>
11    1  0.7105277E-009  0.1611180E+03  0.7561462E-02  0.1086030E+00
         22   -1    0    0    0    0  0.00000000000E+00  0.00000000000E+00  0.66529688885E+03  0.66529688885E+03  0.00000000000E+00 0. -1.
         22   -1    0    0    0    0 -0.00000000000E+00 -0.00000000000E+00 -0.10909069274E+04  0.10909069274E+04  0.00000000000E+00 0.  1.
        -24    2    1    2    0    0 -0.53048532212E+02 -0.84675388132E+02 -0.10122857958E+04  0.10203435170E+04  0.79964318210E+02 0.  0.
         25    2    1    2    0    0  0.96925119975E+02  0.13215935578E+03  0.83872722943E+02  0.22258062220E+03  0.12508767135E+03 0.  0.
         24    2    1    2    0    0 -0.43876587762E+02 -0.47483967648E+02  0.50280303435E+03  0.51327967700E+03  0.80406799014E+02 0.  0.
        -11    1    5    5    0    0  0.98478476893E+01 -0.34633734602E+02  0.92265374236E+02  0.99042288744E+02  0.00000000000E+00 0.  1.
         12    1    5    5    0    0 -0.53724435452E+02 -0.12850233046E+02  0.41053766012E+03  0.41423738825E+03  0.00000000000E+00 0. -1.
         11    1    3    3    0    0 -0.16701520266E+01  0.15242894832E+02 -0.10092384732E+03  0.10208211503E+03  0.00000000000E+00 0. -1.
        -12    1    3    3    0    0 -0.51378380186E+02 -0.99918282963E+02 -0.91136194852E+03  0.91826140201E+03  0.00000000000E+00 0.  1.
          5    1    4    4  501    0  0.71831279051E+02  0.38004951026E+02  0.94228925986E+02  0.12450169414E+03  0.41800000000E+01 0.  1.
         -5    1    4    4    0  501  0.25093840924E+02  0.94154404754E+02 -0.10356203043E+02  0.98078928055E+02  0.41800000000E+01 0.  1.
</event>
<event>
11    1  0.7105277E-009  0.1810041E+03  0.7561462E-02  0.1068834E+00
         22   -1    0    0    0    0  0.00000000000E+00  0.00000000000E+00  0.29538981913E+03  0.29538981913E+03  0.00000000000E+00 0.  1.
         22   -1    0    0    0    0 -0.00000000000E+00 -0.00000000000E+00 -0.50456768906E+03  0.50456768906E+03  0.00000000000E+00 0.  1.
         24    2    1    2    0    0 -0.93209553160E+02  0.10379314231E+03 -0.39982017861E+03  0.43088782512E+03  0.79668723000E+02 0.  0.
         25    2    1    2    0    0  0.45919313855E+02 -0.77064556000E+02 -0.14413062810E+01  0.15394023738E+03  0.12509192678E+03 0.  0.
        -24    2    1    2    0    0  0.47290239304E+02 -0.26728586309E+02  0.19208361495E+03  0.21512944569E+03  0.80210842212E+02 0.  0.
        -11    1    3    3    0    0 -0.66897231216E+02  0.42372092464E+02 -0.30349400413E+03  0.31365465772E+03  0.00000000000E+00 0.  1.
         12    1    3    3    0    0 -0.26312321944E+02  0.61421049845E+02 -0.96326174477E+02  0.11723316740E+03  0.00000000000E+00 0. -1.
         11    1    5    5    0    0  0.53536401302E+02 -0.27070627533E+02  0.67172140887E+02  0.90061432648E+02  0.00000000000E+00 0. -1.
        -12    1    5    5    0    0 -0.62461619972E+01  0.34204122398E+00  0.12491147407E+03  0.12506801304E+03  0.00000000000E+00 0.  1.
          5    1    4    4  501    0  0.86245731773E+02 -0.31565375714E+02  0.79523913858E+01  0.92278990684E+02  0.41800000000E+01 0. -1.
         -5    1    4    4    0  501 -0.40326417917E+02 -0.45499180286E+02 -0.93936976668E+01  0.61661246700E+02  0.41800000000E+01 0. -1.
</event>
<event>
11    1  0.7105277E-009  0.1318842E+03  0.7561462E-02  0.1116975E+00
         22   -1    0    0    0    0  0.00000000000E+00  0.00000000000E+00  0.18701121410E+03  0.18701121410E+03  0.00000000000E+00 0.  1.
         22   -1    0    0    0    0 -0.00000000000E+00 -0.00000000000E+00 -0.22905243376E+03  0.22905243376E+03  0.00000000000E+00 0.  1.
        -24    2    1    2    0    0 -0.24778913702E+01 -0.51334243903E+01 -0.14548105789E+03  0.16550457310E+03  0.78705358894E+02 0.  0.
         25    2    1    2    0    0 -0.16312576771E+02  0.40457473667E+02  0.87409265214E+02  0.15870826134E+03  0.12508007529E+03 0.  0.
         24    2    1    2    0    0  0.18790468141E+02 -0.35324049276E+02  0.16030573018E+02  0.91850813430E+02  0.81109324410E+02 0.  0.
        -13    1    5    5    0    0  0.19986632576E+02 -0.20307367403E+01  0.43988725959E+02  0.48359046567E+02  0.00000000000E+00 0.  1.
         14    1    5    5    0    0 -0.11961644345E+01 -0.33293312536E+02 -0.27958152941E+02  0.43491766862E+02  0.00000000000E+00 0. -1.
         13    1    3    3    0    0  0.26755327906E+02 -0.21952941584E+02 -0.32064278587E+02  0.47179414758E+02  0.00000000000E+00 0. -1.
        -14    1    3    3    0    0 -0.29233219276E+02  0.16819517194E+02 -0.11341677930E+03  0.11832515834E+03  0.00000000000E+00 0.  1.
          5    1    4    4  501    0 -0.43831950173E+02 -0.20081939547E+02 -0.50437452857E+00  0.48396807184E+02  0.41800000000E+01 0. -1.
         -5    1    4    4    0  501  0.27519373402E+02  0.60539413213E+02  0.87913639742E+02  0.11031145415E+03  0.41800000000E+01 0. -1.
</event>
<event>
11    1  0.7105277E-009  0.1302946E+03  0.7561462E-02  0.1118908E+00
         22   -1    0    0    0    0  0.00000000000E+00  0.00000000000E+00  0.37661091397E+03  0.37661091397E+03  0.00000000000E+00 0.  1.
         22   -1    0    0    0    0 -0.00000000000E+00 -0.00000000000E+00 -0.25589228733E+03  0.25589228733E+03  0.00000000000E+00 0.  1.
        -24    2    1    2    0    0 -0.26130392927E+02  0.28164521401E+02 -0.19972789789E+03  0.22017912168E+03  0.84330153141E+02 0.  0.
         25    2    1    2    0    0  0.24564761185E+02  0.17542379534E+01  0.60993069660E+02  0.14135747241E+03  0.12512104386E+03 0.  0.
         24    2    1    2    0    0  0.15656317425E+01 -0.29918759354E+02  0.25945345487E+03  0.27096660720E+03  0.72174951388E+02 0.  0.
        -11    1    5    5    0    0  0.12111143755E+02 -0.40619713116E+01  0.23009276922E+03  0.23044709124E+03  0.00000000000E+00 0.  1.
         12    1    5    5    0    0 -0.10545512012E+02 -0.25856788042E+02  0.29360685650E+02  0.40519515956E+02  0.00000000000E+00 0. -1.
         11    1    3    3    0    0  0.26924953562E+02  0.24977768728E+02 -0.10909196476E+03  0.11510820488E+03  0.00000000000E+00 0. -1.
        -12    1    3    3    0    0 -0.53055346490E+02  0.31867526725E+01 -0.90635933129E+02  0.10507091680E+03  0.00000000000E+00 0.  1.
          5    1    4    4  501    0  0.41800949251E+02 -0.31072472330E+02 -0.16959469546E+02  0.54935543160E+02  0.41800000000E+01 0. -1.
         -5    1    4    4    0  501 -0.17236188066E+02  0.32826710284E+02  0.77952539205E+02  0.86421929252E+02  0.41800000000E+01 0. -1.
</event>
<event>
11    1  0.7105277E-009  0.1737902E+03  0.7561462E-02  0.1074780E+00
         22   -1    0    0    0    0  0.00000000000E+00  0.00000000000E+00  0.16961673019E+04  0.16961673019E+04  0.00000000000E+00 0. -1.
         22   -1    0    0    0    0 -0.00000000000E+00 -0.00000000000E+00 -0.19727438303E+03  0.19727438303E+03  0.00000000000E+00 0. -1.
         24    2    1    2    0    0  0.11283592200E+03 -0.47224312863E+02 -0.13183356317E+03  0.19766800006E+03  0.82039434732E+02 0.  0.
         25    2    1    2    0    0 -0.85320490487E+02 -0.78628681028E+02  0.22754841083E+03  0.28440815176E+03  0.12509061490E+03 0.  0.
        -24    2    1    2    0    0 -0.27515431515E+02  0.12585299389E+03  0.14031780712E+04  0.14113655331E+04  0.80298776288E+02 0.  0.
        -11    1    3    3    0    0  0.12781346870E+02  0.17175883423E+02 -0.19161362503E+01  0.21495240806E+02  0.00000000000E+00 0.  1.
         12    1    3    3    0    0  0.10005457513E+03 -0.64400196287E+02 -0.12991742692E+03  0.17617275926E+03  0.00000000000E+00 0. -1.
         13    1    5    5    0    0 -0.12887334585E+02  0.55061652497E+01  0.48695873689E+03  0.48716035623E+03  0.00000000000E+00 0. -1.
        -14    1    5    5    0    0 -0.14628096930E+02  0.12034682864E+03  0.91621933435E+03  0.92420517691E+03  0.00000000000E+00 0.  1.
          5    1    4    4  501    0 -0.51873452242E+02  0.23958582081E+02  0.47320972902E+02  0.74307574172E+02  0.41800000000E+01 0.  1.
         -5    1    4    4    0  501 -0.33447038245E+02 -0.10258726311E+03  0.18022743793E+03  0.21010057759E+03  0.41800000000E+01 0.  1.
</event>
<event>
11    1  0.7105277E-009  0.1520255E+03  0.7561462E-02  0.1094827E+00
         22   -1    0    0    0    0  0.00000000000E+00  0.00000000000E+00  0.25527193802E+03  0.25527193802E+03  0.00000000000E+00 0.  1.
         22   -1    0    0    0    0 -0.00000000000E+00 -0.00000000000E+00 -0.32187021553E+03  0.32187021553E+03  0.00000000000E+00 0. -1.
        -24    2    1    2    0    0  0.39755454362E+02 -0.75834035385E+02 -0.74098181404E+02  0.14002711189E+03  0.82375691220E+02 0.  0.
         25    2    1    2    0    0  0.57977576448E+01  0.93164583986E+02 -0.17360631831E+03  0.23345441418E+03  0.12509418868E+03 0.  0.
         24    2    1    2    0    0 -0.45553212006E+02 -0.17330548602E+02  0.18110622220E+03  0.20366062748E+03  0.79389825696E+02 0.  0.
        -13    1    5    5    0    0  0.54564641902E+01  0.18940660616E+02  0.96080155142E+02  0.98081179837E+02  0.00000000000E+00 0.  1.
         14    1    5    5    0    0 -0.51009676197E+02 -0.36271209218E+02  0.85026067062E+02  0.10557944764E+03  0.00000000000E+00 0. -1.
         11    1    3    3    0    0  0.24051907214E+02 -0.74951388119E+02 -0.88682056123E+02  0.11857787272E+03  0.00000000000E+00 0. -1.
        -12    1    3    3    0    0  0.15703547147E+02 -0.88264726537E+00  0.14583874719E+02  0.21449239171E+02  0.00000000000E+00 0.  1.
          5    1    4    4  501    0  0.56961639893E+02  0.83134788700E+02 -0.91968363415E+02  0.13649788929E+03  0.41800000000E+01 0.  1.
         -5    1    4    4    0  501 -0.51163882248E+02  0.10029795286E+02 -0.81637954894E+02  0.96956524894E+02  0.41800000000E+01 0.  1.
</event>
<event>
11    1  0.7105277E-009  0.1790679E+03  0.7561462E-02  0.1070399E+00
         22   -1    0    0    0    0  0.00000000000E+00  0.00000000000E+00  0.45393733392E+03  0.45393733392E+03  0.00000000000E+00 0.  1.
         22   -1    0    0    0    0 -0.00000000000E+00 -0.00000000000E+00 -0.69990992619E+03  0.69990992619E+03  0.00000000000E+00 0.  1.
        -24    2    1    2    0    0  0.56660166515E+02  0.10433270231E+03 -0.61933125066E+03  0.63254844638E+03  0.49504057767E+02 0.  0.
         25    2    1    2    0    0  0.76576230136E+02 -0.12732233324E+03  0.13999125370E+03  0.23941509962E+03  0.12508854163E+03 0.  0.
         24    2    1    2    0    0 -0.13323639665E+03  0.22989630930E+02  0.23336740469E+03  0.28188371411E+03  0.81961101684E+02 0.  0.
        -11    1    5    5    0    0 -0.10078267373E+03  0.44085616889E+02  0.20889538773E+03  0.23608890689E+03  0.00000000000E+00 0.  1.
         12    1    5    5    0    0 -0.32453722920E+02 -0.21095985959E+02  0.24472016959E+02  0.45794807227E+02  0.00000000000E+00 0. -1.
         11    1    3    3    0    0  0.24931438475E+02  0.72182270733E+01 -0.14961589429E+03  0.15185056882E+03  0.00000000000E+00 0. -1.
        -12    1    3    3    0    0  0.31728728040E+02  0.97114475239E+02 -0.46971535637E+03  0.48069787756E+03  0.00000000000E+00 0.  1.
          5    1    4    4  501    0 -0.27207808383E+02  0.16437390491E+01  0.11766464614E+02  0.29981474357E+02  0.41800000000E+01 0. -1.
         -5    1    4    4    0  501  0.10378403852E+03 -0.12896607229E+03  0.12822478909E+03  0.20943362526E+03  0.41800000000E+01 0. -1.
</event>
<event>
11    1  0.7105277E-009  0.1498185E+03  0.7561462E-02  0.1097064E+00
         22   -1    0    0    0    0  0.00000000000E+00  0.00000000000E+00  0.14496927370E+04  0.14496927370E+04  0.00000000000E+00 0.  1.
         22   -1    0    0    0    0 -0.00000000000E+00 -0.00000000000E+00 -0.44504975770E+03  0.44504975770E+03  0.00000000000E+00 0.  1.
        -24    2    1    2    0    0  0.68293000061E+02  0.22787252986E+02 -0.38653025668E+03  0.40145785280E+03  0.81114582430E+02 0.  0.
         25    2    1    2    0    0 -0.67046141953E+02  0.60755873910E+02  0.74195462390E+02  0.17128643484E+03  0.12509042631E+03 0.  0.
         24    2    1    2    0    0 -0.12468581084E+01 -0.83543126896E+02  0.13169777736E+04  0.13219982070E+04  0.79169404591E+02 0.  0.
        -13    1    5    5    0    0 -0.28814727498E+02 -0.99861027088E+01  0.59024818832E+03  0.59103547659E+03  0.00000000000E+00 0.  1.
         14    1    5    5    0    0  0.27567869390E+02 -0.73557024187E+02  0.72672958526E+03  0.73096273046E+03  0.00000000000E+00 0. -1.
         13    1    3    3    0    0 -0.45714855994E+01 -0.13002411892E+02 -0.12137826829E+02  0.18365403228E+02  0.00000000000E+00 0. -1.
        -14    1    3    3    0    0  0.72864485661E+02  0.35789664878E+02 -0.37439242986E+03  0.38309244957E+03  0.00000000000E+00 0.  1.
          5    1    4    4  501    0  0.11570394420E+02  0.55753597123E+02 -0.76589776520E+01  0.57606162499E+02  0.41800000000E+01 0. -1.
         -5    1    4    4    0  501 -0.78616536373E+02  0.50022767866E+01  0.81854440042E+02  0.11368027234E+03  0.41800000000E+01 0. -1.
</event>
<event>
11    1  0.7105277E-009  0.1985736E+03  0.7561462E-02  0.1055537E+00
         22   -1    0    0    0    0  0.00000000000E+00  0.00000000000E+00  0.16874409174E+03  0.16874409174E+03  0.00000000000E+00 0. -1.
         22   -1    0    0    0    0 -0.00000000000E+00 -0.00000000000E+00 -0.26567622303E+04  0.26567622303E+04  0.00000000000E+00 0. -1.
         24    2    1    2    0    0 -0.17237677358E+02 -0.75591095482E+02 -0.24056863338E+04  0.24082688428E+04  0.80130715940E+02 0.  0.
         25    2    1    2    0    0  0.14868447436E+03  0.12635138119E+03 -0.10421931026E+03  0.25412423157E+03  0.12508283654E+03 0.  0.
        -24    2    1    2    0    0 -0.13144679700E+03 -0.50760285710E+02  0.21887505442E+02  0.16311324766E+03  0.79195969717E+02 0.  0.
        -13    1    3    3    0    0 -0.30355179510E+02  0.31846635707E+00 -0.42374970613E+03  0.42483567622E+03  0.00000000000E+00 0.  1.
         14    1    3    3    0    0  0.13117502152E+02 -0.75909561839E+02 -0.19819366276E+04  0.19834331666E+04  0.00000000000E+00 0. -1.
         13    1    5    5    0    0 -0.51912239602E+02 -0.53555487894E+02 -0.13871513570E+02  0.75864944426E+02  0.00000000000E+00 0. -1.
        -14    1    5    5    0    0 -0.79534557400E+02  0.27952021837E+01  0.35759019012E+02  0.87248303231E+02  0.00000000000E+00 0.  1.
          5    1    4    4  501    0  0.11201248269E+03  0.14661794263E+02 -0.63416505932E+02  0.12961824761E+03  0.41800000000E+01 0. -1.
         -5    1    4    4    0  501  0.36671991672E+02  0.11168958693E+03 -0.40802804328E+02  0.12450598396E+03  0.41800000000E+01 0. -1.
</event>
<event>
11    1  0.7105277E-009  0.1475090E+03  0.7561462E-02  0.1099452E+00
         22   -1    0    0    0    0  0.00000000000E+00  0.00000000000E+00  0.71480194049E+03  0.71480194049E+03  0.00000000000E+00 0.  1.
         22   -1    0    0    0    0 -0.00000000000E+00 -0.00000000000E+00 -0.37969270375E+03  0.37969270375E+03  0.00000000000E+00 0. -1.
        -24    2    1    2    0    0 -0.68609341187E+02  0.34305489648E+02 -0.29303045786E+03  0.31495339342E+03  0.86282573429E+02 0.  0.
         25    2    1    2    0    0  0.59453981197E+02 -0.78843554775E+02  0.15864933704E+02  0.16016531251E+03  0.12510055636E+03 0.  0.
         24    2    1    2    0    0  0.91553599898E+01  0.44538065126E+02  0.61227476090E+03  0.61937593830E+03  0.81723376368E+02 0.  0.
        -13    1    5    5    0    0 -0.22557425588E+02  0.38567425029E+02  0.51400798360E+03  0.51594620934E+03  0.00000000000E+00 0.  1.
         14    1    5    5    0    0  0.31712785578E+02  0.59706400970E+01  0.98266777297E+02  0.10342972896E+03  0.00000000000E+00 0. -1.
         13    1    3    3    0    0  0.64367826743E+01 -0.50887792458E+01 -0.13818799899E+03  0.13843139424E+03  0.00000000000E+00 0. -1.
        -14    1    3    3    0    0 -0.75046123861E+02  0.39394268894E+02 -0.15484245887E+03  0.17652199919E+03  0.00000000000E+00 0.  1.
          5    1    4    4  501    0 -0.23726279796E+02 -0.94535726052E+01  0.41373115401E+02  0.48800752719E+02  0.41800000000E+01 0.  1.
         -5    1    4    4    0  501  0.83180260993E+02 -0.69389982169E+02 -0.25508181697E+02  0.11136455979E+03  0.41800000000E+01 0.  1.
</event>
<event>
11    1  0.7105277E-009  0.3362355E+03  0.7561462E-02  0.9859239E-01
         22   -1    0    0    0    0  0.00000000000E+00  0.00000000000E+00  0.44211617980E+03  0.44211617980E+03  0.00000000000E+00 0. -1.
         22   -1    0    0    0    0 -0.00000000000E+00 -0.00000000000E+00 -0.85514451220E+03  0.85514451220E+03  0.00000000000E+00 0.  1.
         24    2    1    2    0    0  0.17060247736E+02 -0.70026627889E+02 -0.24668668703E+03  0.26959382282E+03  0.81435416620E+02 0.  0.
         25    2    1    2    0    0  0.29440813686E+03  0.10222323301E+03 -0.47429221235E+03  0.58114032269E+03  0.12508090001E+03 0.  0.
        -24    2    1    2    0    0 -0.31146838459E+03 -0.32196605119E+02  0.30795056698E+03  0.44652654648E+03  0.80642600593E+02 0.  0.
        -13    1    3    3    0    0 -0.20771434254E+02 -0.44718520678E+02 -0.61134719355E+02  0.78540769560E+02  0.00000000000E+00 0.  1.
         14    1    3    3    0    0  0.37831681990E+02 -0.25308107212E+02 -0.18555196767E+03  0.19105305326E+03  0.00000000000E+00 0. -1.
         11    1    5    5    0    0 -0.17590343513E+03 -0.38915978275E+01  0.22302339154E+03  0.28407146319E+03  0.00000000000E+00 0. -1.
        -12    1    5    5    0    0 -0.13556494946E+03 -0.28305007291E+02  0.84927175437E+02  0.16245508329E+03  0.00000000000E+00 0.  1.
          5    1    4    4  501    0  0.10025327326E+03 -0.21625128559E+02 -0.18261324678E+03  0.20948373513E+03  0.41800000000E+01 0.  1.
         -5    1    4    4    0  501  0.19415486359E+03  0.12384836157E+03 -0.29167896558E+03  0.37165658756E+03  0.41800000000E+01 0.  1.
</event>
<event>
11    1  0.7105277E-009  0.1321447E+03  0.7561462E-02  0.1116662E+00
         22   -1    0    0    0    0  0.00000000000E+00  0.00000000000E+00  0.34269120568E+03  0.34269120568E+03  0.00000000000E+00 0.  1.
         22   -1    0    0    0    0 -0.00000000000E+00 -0.00000000000E+00 -0.28347072531E+03  0.28347072531E+03  0.00000000000E+00 0. -1.
        -24    2    1    2    0    0  0.40050271845E+02  0.85737883759E+01 -0.21390404280E+03  0.23237647232E+03  0.81033025609E+02 0.  0.
         25    2    1    2    0    0 -0.55166872509E+02 -0.21506637635E+02  0.36704745571E+02  0.14318166489E+03  0.12509129278E+03 0.  0.
         24    2    1    2    0    0  0.15116600663E+02  0.12932849259E+02  0.23641977761E+03  0.25060379377E+03  0.80698079300E+02 0.  0.
        -13    1    5    5    0    0  0.27948128547E+02 -0.36724066656E+01  0.22490957524E+03  0.22666914544E+03  0.00000000000E+00 0.  1.
         14    1    5    5    0    0 -0.12831527884E+02  0.16605255925E+02  0.11510202367E+02  0.23934648330E+02  0.00000000000E+00 0. -1.
         13    1    3    3    0    0  0.53703595564E+02 -0.14445154868E+02 -0.18411484093E+03  0.19233047946E+03  0.00000000000E+00 0. -1.
        -14    1    3    3    0    0 -0.13653323719E+02  0.23018943244E+02 -0.29789201870E+02  0.40045992866E+02  0.00000000000E+00 0.  1.
          5    1    4    4  501    0 -0.41729080485E+02 -0.38612287395E+02  0.77827984421E+02  0.96472236705E+02  0.41800000000E+01 0. -1.
         -5    1    4    4    0  501 -0.13437792024E+02  0.17105649760E+02 -0.41123238850E+02  0.46709428188E+02  0.41800000000E+01 0. -1.
</event>
<event>
11    1  0.7105277E-009  0.1683668E+03  0.7561462E-02  0.1079462E+00
         22   -1    0    0    0    0  0.00000000000E+00  0.00000000000E+00  0.71456675803E+03  0.71456675803E+03  0.00000000000E+00 0.  1.
         22   -1    0    0    0    0 -0.00000000000E+00 -0.00000000000E+00 -0.26112920926E+03  0.26112920926E+03  0.00000000000E+00 0. -1.
         24    2    1    2    0    0 -0.28744957283E+02 -0.18271421656E+02 -0.18421423098E+03  0.20473704189E+03  0.82596949159E+02 0.  0.
         25    2    1    2    0    0  0.10349126297E+03 -0.65025080005E+02  0.72796576779E+02  0.18943399784E+03  0.12508875012E+03 0.  0.
        -24    2    1    2    0    0 -0.74746305684E+02  0.83296501662E+02  0.56485520297E+03  0.58152492755E+03  0.81145077720E+02 0.  0.
        -11    1    3    3    0    0 -0.17144044016E+02  0.31393483572E+02 -0.10088783240E+03  0.10704122469E+03  0.00000000000E+00 0.  1.
         12    1    3    3    0    0 -0.11600913267E+02 -0.49664905228E+02 -0.83326398576E+02  0.97695817206E+02  0.00000000000E+00 0. -1.
         11    1    5    5    0    0 -0.45543334197E+00  0.63889808277E+00 -0.28950153622E+01  0.29994539898E+01  0.00000000000E+00 0. -1.
        -12    1    5    5    0    0 -0.74290872342E+02  0.82657603579E+02  0.56775021833E+03  0.57852547356E+03  0.00000000000E+00 0.  1.
          5    1    4    4  501    0  0.11325376148E+03 -0.20055024473E+02  0.15973224331E+02  0.11619481396E+03  0.41800000000E+01 0.  1.
         -5    1    4    4    0  501 -0.97624985138E+01 -0.44970055533E+02  0.56823352448E+02  0.73239183879E+02  0.41800000000E+01 0.  1.
</event>
<event>
11    1  0.7105277E-009  0.1517072E+03  0.7561462E-02  0.1095147E+00
         22   -1    0    0    0    0  0.00000000000E+00  0.00000000000E+00  0.51091366764E+03  0.51091366764E+03  0.00000000000E+00 0. -1.
         22   -1    0    0    0    0 -0.00000000000E+00 -0.00000000000E+00 -0.15574253594E+03  0.15574253594E+03  0.00000000000E+00 0. -1.
        -24    2    1    2    0    0 -0.46820806259E+02  0.38897651054E+02 -0.60404761657E+02  0.11772634518E+03  0.80656939958E+02 0.  0.
         25    2    1    2    0    0  0.93913376991E+02 -0.10005015803E+03  0.94253934187E+02  0.20823362192E+03  0.12509068985E+03 0.  0.
         24    2    1    2    0    0 -0.47092570732E+02  0.61152506974E+02  0.32132195917E+03  0.34069623648E+03  0.82878132107E+02 0.  0.
        -13    1    5    5    0    0  0.21563052861E+02  0.32159574783E+02  0.10813294338E+03  0.11485615762E+03  0.00000000000E+00 0.  1.
         14    1    5    5    0    0 -0.68655623593E+02  0.28992932191E+02  0.21318901578E+03  0.22584007886E+03  0.00000000000E+00 0. -1.
         13    1    3    3    0    0 -0.58977222336E+02  0.53534737835E+02 -0.37756947011E+02  0.88146854493E+02  0.00000000000E+00 0. -1.
        -14    1    3    3    0    0  0.12156416076E+02 -0.14637086781E+02 -0.22647814647E+02  0.29579490691E+02  0.00000000000E+00 0.  1.
          5    1    4    4  501    0  0.34171008923E+02 -0.11685019450E+03  0.75297289961E+02  0.14320886872E+03  0.41800000000E+01 0.  1.
         -5    1    4    4    0  501  0.59742368068E+02  0.16800036470E+02  0.18956644227E+02  0.65024753195E+02  0.41800000000E+01 0.  1.
</event>
<event>
11    1  0.7105277E-009  0.1627322E+03  0.7561462E-02  0.1084535E+00
         22   -1    0    0    0    0  0.00000000000E+00  0.00000000000E+00  0.30251308223E+03  0.30251308223E+03  0.00000000000E+00 0. -1.
         22   -1    0    0    0    0 -0.00000000000E+00 -0.00000000000E+00 -0.13903897941E+03  0.13903897941E+03  0.00000000000E+00 0.  1.
        -24    2    1    2    0    0 -0.83213642022E+02  0.48338339170E+02  0.36467876468E+02  0.13235975167E+03  0.83235164414E+02 0.  0.
         25    2    1    2    0    0  0.11048395315E+03 -0.27226667789E+02  0.10673999729E+03  0.19997504819E+03  0.12509435452E+03 0.  0.
         24    2    1    2    0    0 -0.27270311128E+02 -0.21111671381E+02  0.20266229069E+02  0.10921726179E+03  0.10162833116E+03 0.  0.
        -13    1    5    5    0    0 -0.85678572305E+01 -0.58656134004E+02  0.29582787997E+02  0.66250219468E+02  0.00000000000E+00 0.  1.
         14    1    5    5    0    0 -0.18702453898E+02  0.37544462624E+02 -0.93165589283E+01  0.42967042320E+02  0.00000000000E+00 0. -1.
         11    1    3    3    0    0 -0.29456476187E+02  0.19566826737E+02 -0.26892554493E+02  0.44426953362E+02  0.00000000000E+00 0. -1.
        -12    1    3    3    0    0 -0.53757165835E+02  0.28771512433E+02  0.63360430960E+02  0.87932798305E+02  0.00000000000E+00 0.  1.
          5    1    4    4  501    0  0.61838055872E+02 -0.70050418500E+02  0.27440581036E+02  0.97475454211E+02  0.41800000000E+01 0. -1.
         -5    1    4    4    0  501  0.48645897278E+02  0.42823750711E+02  0.79299416253E+02  0.10249959398E+03  0.41800000000E+01 0. -1.
</event>
<event>
11    1  0.7105277E-009  0.1680292E+03  0.7561462E-02  0.1079760E+00
         22   -1    0    0    0    0  0.00000000000E+00  0.00000000000E+00  0.12092325504E+04  0.12092325504E+04  0.00000000000E+00 0. -1.
         22   -1    0    0    0    0 -0.00000000000E+00 -0.00000000000E+00 -0.71833408886E+02  0.71833408886E+02  0.00000000000E+00 0.  1.
         24    2    1    2    0    0 -0.38971900348E+02 -0.10731010688E+03  0.34000335725E+02  0.14384090644E+03  0.80622053327E+02 0.  0.
         25    2    1    2    0    0  0.82657581063E+02  0.74349480973E+02  0.54395421347E+03  0.56911727668E+03  0.12509263464E+03 0.  0.
        -24    2    1    2    0    0 -0.43685680715E+02  0.32960625903E+02  0.55944459235E+03  0.56810777619E+03  0.82300376043E+02 0.  0.
        -13    1    3    3    0    0 -0.32366413827E+02 -0.97189981040E+02 -0.54484816818E+01  0.10258246980E+03  0.00000000000E+00 0.  1.
         14    1    3    3    0    0 -0.66054865208E+01 -0.10120125836E+02  0.39448817407E+02  0.41258436640E+02  0.00000000000E+00 0. -1.
         11    1    5    5    0    0  0.33739711674E+01  0.34121090139E+02  0.40984339262E+03  0.41127513777E+03  0.00000000000E+00 0. -1.
        -12    1    5    5    0    0 -0.47059651883E+02 -0.11604642359E+01  0.14960119973E+03  0.15683263842E+03  0.00000000000E+00 0.  1.
          5    1    4    4  501    0  0.10821123182E+03  0.29186868527E+02  0.31659200611E+03  0.33587127701E+03  0.41800000000E+01 0. -1.
         -5    1    4    4    0  501 -0.25553650756E+02  0.45162612446E+02  0.22736220735E+03  0.23324599967E+03  0.41800000000E+01 0. -1.
</event>
<event>
11    1  0.7105277E-009  0.1529435E+03  0.7561462E-02  0.1093908E+00
         22   -1    0    0    0    0  0.00000000000E+00  0.00000000000E+00  0.36985067644E+03  0.36985067644E+03  0.00000000000E+00 0. -1.
         22   -1    0    0    0    0 -0.00000000000E+00 -0.00000000000E+00 -0.20261718977E+04  0.20261718977E+04  0.00000000000E+00 0.  1.
         24    2    1    2    0    0  0.35720140863E+02 -0.65776944574E+02 -0.16409115515E+04  0.16445871836E+04  0.80459615979E+02 0.  0.
         25    2    1    2    0    0 -0.11088974454E+03  0.10831743225E+03 -0.34705800031E+03  0.40015700100E+03  0.12508864176E+03 0.  0.
        -24    2    1    2    0    0  0.75169603673E+02 -0.42540487676E+02  0.33164833047E+03  0.35127838959E+03  0.77108556475E+02 0.  0.
        -13    1    3    3    0    0  0.33279790776E+02 -0.46320726815E+02 -0.15693967001E+04  0.15704327927E+04  0.00000000000E+00 0.  1.
         14    1    3    3    0    0  0.24403500869E+01 -0.19456217758E+02 -0.71514851384E+02  0.74154390878E+02  0.00000000000E+00 0. -1.
         13    1    5    5    0    0  0.59378796649E+02 -0.10387409117E+01  0.26224669872E+03  0.26888706080E+03  0.00000000000E+00 0. -1.
        -14    1    5    5    0    0  0.15790807025E+02 -0.41501746764E+02  0.69401631754E+02  0.82391328798E+02  0.00000000000E+00 0.  1.
          5    1    4    4  501    0 -0.61031822514E+02  0.83891000339E+02 -0.90830610622E+02  0.13795019218E+03  0.41800000000E+01 0.  1.
         -5    1    4    4    0  501 -0.49857922022E+02  0.24426431911E+02 -0.25622738969E+03  0.26220680882E+03  0.41800000000E+01 0.  1.
</event>
<event>
11    1  0.7105277E-009  0.1512941E+03  0.7561462E-02  0.1095564E+00
         22   -1    0    0    0    0  0.00000000000E+00  0.00000000000E+00  0.22418181358E+04  0.22418181358E+04  0.00000000000E+00 0. -1.
         22   -1    0    0    0    0 -0.00000000000E+00 -0.00000000000E+00 -0.84580945357E+03  0.84580945357E+03  0.00000000000E+00 0.  1.
         24    2    1    2    0    0 -0.53927807580E+02 -0.18444862793E+02 -0.70434150788E+03  0.71227034358E+03  0.89351335941E+02 0.  0.
         25    2    1    2    0    0  0.85193460851E+02  0.97159448589E+02 -0.76546211428E+02  0.19546026983E+03  0.12509000910E+03 0.  0.
        -24    2    1    2    0    0 -0.31265653271E+02 -0.78714585796E+02  0.21768964016E+04  0.21798969760E+04  0.76807263232E+02 0.  0.
        -13    1    3    3    0    0 -0.16727668426E+02 -0.48689223109E+02 -0.23996296076E+03  0.24542346643E+03  0.00000000000E+00 0.  1.
         14    1    3    3    0    0 -0.37200139154E+02  0.30244360316E+02 -0.46437854712E+03  0.46684687715E+03  0.00000000000E+00 0. -1.
         13    1    5    5    0    0 -0.33556825341E+02 -0.91697461314E+02  0.20484155937E+04  0.20507415559E+04  0.00000000000E+00 0. -1.
        -14    1    5    5    0    0  0.22911720707E+01  0.12982875518E+02  0.12848080792E+03  0.12915542006E+03  0.00000000000E+00 0.  1.
          5    1    4    4  501    0  0.42234883237E+02  0.55933781128E+02  0.27584155403E+02  0.75436935666E+02  0.41800000000E+01 0. -1.
         -5    1    4    4    0  501  0.42958577614E+02  0.41225667461E+02 -0.10413036683E+03  0.12002333417E+03  0.41800000000E+01 0. -1.
</event>
<event>
11    1  0.7105277E-009  0.1479085E+03  0.7561462E-02  0.1099035E+00
         22   -1    0    0    0    0  0.00000000000E+00  0.00000000000E+00  0.28658188244E+03  0.28658188244E+03  0.00000000000E+00 0.  1.
         22   -1    0    0    0    0 -0.00000000000E+00 -0.00000000000E+00 -0.53023075274E+03  0.53023075274E+03  0.00000000000E+00 0. -1.
         24    2    1    2    0    0 -0.39191136219E+01  0.45917669475E+02 -0.27409084607E+03  0.28906801111E+03  0.79440111559E+02 0.  0.
         25    2    1    2    0    0 -0.36993446285E+02 -0.11131870021E+03 -0.20554973720E+03  0.26768781638E+03  0.12508279055E+03 0.  0.
        -24    2    1    2    0    0  0.40912559907E+02  0.65401030731E+02  0.23599171297E+03  0.26005680769E+03  0.77371327095E+02 0.  0.
        -11    1    3    3    0    0 -0.21579035596E+02 -0.64472167771E+01 -0.23871405304E+02  0.32818674145E+02  0.00000000000E+00 0.  1.
         12    1    3    3    0    0  0.17659921974E+02  0.52364886253E+02 -0.25021944077E+03  0.25624933697E+03  0.00000000000E+00 0. -1.
         11    1    5    5    0    0 -0.18320773093E+02  0.24586090161E+02  0.34739678905E+02  0.46335427553E+02  0.00000000000E+00 0. -1.
        -12    1    5    5    0    0  0.59233333000E+02  0.40814940570E+02  0.20125203407E+03  0.21372138014E+03  0.00000000000E+00 0.  1.
          5    1    4    4  501    0 -0.18199294365E+01  0.69587445839E+01 -0.11319656306E+03  0.11350185266E+03  0.41800000000E+01 0. -1.
         -5    1    4    4    0  501 -0.35173516849E+02 -0.11827744479E+03 -0.92353174139E+02  0.15418596372E+03  0.41800000000E+01 0. -1.
</event>
<event>
11    1  0.7105277E-009  0.1545636E+03  0.7561462E-02  0.1092305E+00
         22   -1    0    0    0    0  0.00000000000E+00  0.00000000000E+00  0.15106252814E+04  0.15106252814E+04  0.00000000000E+00 0.  1.
         22   -1    0    0    0    0 -0.00000000000E+00 -0.00000000000E+00 -0.67346630533E+03  0.67346630533E+03  0.00000000000E+00 0.  1.
         24    2    1    2    0    0 -0.20846247403E+02 -0.46491418375E+02 -0.48138331672E+03  0.49156227123E+03  0.85484214133E+02 0.  0.
         25    2    1    2    0    0  0.19399659433E+02 -0.45150241725E+02 -0.15893659699E+03  0.20814173337E+03  0.12508896111E+03 0.  0.
        -24    2    1    2    0    0  0.14465879698E+01  0.91641660101E+02  0.14774788898E+04  0.14843875821E+04  0.10982867446E+03 0.  0.
        -13    1    3    3    0    0 -0.27369952160E+02 -0.66219603929E+02 -0.27669946404E+03  0.28582642220E+03  0.00000000000E+00 0.  1.
         14    1    3    3    0    0  0.65237047565E+01  0.19728185554E+02 -0.20468385268E+03  0.20573584903E+03  0.00000000000E+00 0. -1.
         11    1    5    5    0    0  0.33972799347E+02 -0.10646637674E+02  0.39379854366E+03  0.39540459656E+03  0.00000000000E+00 0. -1.
        -12    1    5    5    0    0 -0.32526211378E+02  0.10228829777E+03  0.10836803461E+04  0.10889829856E+04  0.00000000000E+00 0.  1.
          5    1    4    4  501    0 -0.11182679091E+02  0.65586011001E+01 -0.14588909173E+03  0.14652360576E+03  0.41800000000E+01 0. -1.
         -5    1    4    4    0  501  0.30582338524E+02 -0.51708842826E+02 -0.13047505265E+02  0.61618127605E+02  0.41800000000E+01 0. -1.
</event>
<event>
11    1  0.7105277E-009  0.1342134E+03  0.7561462E-02  0.1114198E+00
         22   -1    0    0    0    0  0.00000000000E+00  0.00000000000E+00  0.53064694646E+03  0.53064694646E+03  0.00000000000E+00 0.  1.
         22   -1    0    0    0    0 -0.00000000000E+00 -0.00000000000E+00 -0.96122948819E+03  0.96122948819E+03  0.00000000000E+00 0.  1.
        -24    2    1    2    0    0  0.44585081690E+02  0.22742011783E+02 -0.45173799460E+03  0.46160331230E+03  0.80655895965E+02 0.  0.
         25    2    1    2    0    0 -0.15557736153E+02 -0.55594960583E+02 -0.49124549824E+03  0.51020830739E+03  0.12513007072E+03 0.  0.
         24    2    1    2    0    0 -0.29027345537E+02  0.32852948800E+02  0.51240095111E+03  0.52006481496E+03  0.77400090671E+02 0.  0.
        -11    1    5    5    0    0 -0.36174583079E+02  0.21298875528E+02  0.49972037459E+03  0.50148050345E+03  0.00000000000E+00 0.  1.
         12    1    5    5    0    0  0.71472375419E+01  0.11554073272E+02  0.12680576513E+02  0.18584311512E+02  0.00000000000E+00 0. -1.
         13    1    3    3    0    0  0.31581764441E+02  0.20978174061E+02 -0.69738740135E+02  0.79378734607E+02  0.00000000000E+00 0. -1.
        -14    1    3    3    0    0  0.13003317249E+02  0.17638377221E+01 -0.38199925446E+03  0.38222457769E+03  0.00000000000E+00 0.  1.
          5    1    4    4  501    0 -0.35742548502E+02 -0.78663195122E+02 -0.20789167824E+03  0.22517071373E+03  0.41800000000E+01 0.  1.
         -5    1    4    4    0  501  0.20184812349E+02  0.23068234538E+02 -0.28335381999E+03  0.28503759366E+03  0.41800000000E+01 0.  1.
</event>
<event>
11    1  0.7105277E-009  0.1351869E+03  0.7561462E-02  0.1113055E+00
         22   -1    0    0    0    0  0.00000000000E+00  0.00000000000E+00  0.30822149557E+03  0.30822149557E+03  0.00000000000E+00 0.  1.
         22   -1    0    0    0    0 -0.00000000000E+00 -0.00000000000E+00 -0.61315355963E+03  0.61315355963E+03  0.00000000000E+00 0. -1.
         24    2    1    2    0    0 -0.50254525135E+02  0.12031546605E+02 -0.52651027879E+03  0.53514856869E+03  0.80626555694E+02 0.  0.
         25    2    1    2    0    0  0.53205791049E+02  0.35062082810E+02 -0.58516342261E+01  0.14050624696E+03  0.12509019929E+03 0.  0.
        -24    2    1    2    0    0 -0.29512659145E+01 -0.47093629415E+02  0.22742984896E+03  0.24572023955E+03  0.80172189853E+02 0.  0.
        -13    1    3    3    0    0 -0.93275206068E+01  0.20506434016E+02 -0.33503086745E+02  0.40372927788E+02  0.00000000000E+00 0.  1.
         14    1    3    3    0    0 -0.40927004528E+02 -0.84748874117E+01 -0.49300719205E+03  0.49477564090E+03  0.00000000000E+00 0. -1.
         13    1    5    5    0    0 -0.56220115097E+01  0.20104344430E+02  0.25900228828E+02  0.33265801234E+02  0.00000000000E+00 0. -1.
        -14    1    5    5    0    0  0.26707455952E+01 -0.67197973845E+02  0.20152962013E+03  0.21245443832E+03  0.00000000000E+00 0.  1.
          5    1    4    4  501    0  0.63378056497E+02 -0.21839704478E+02 -0.34886061704E+02  0.75685272268E+02  0.41800000000E+01 0.  1.
         -5    1    4    4    0  501 -0.10172265447E+02  0.56901787288E+02  0.29034427478E+02  0.64820974691E+02  0.41800000000E+01 0.  1.
</event>
<event>
11    1  0.7105277E-009  0.1542770E+03  0.7561462E-02  0.1092587E+00
         22   -1    0    0    0    0  0.00000000000E+00  0.00000000000E+00  0.19044003922E+03  0.19044003922E+03  0.00000000000E+00 0. -1.
         22   -1    0    0    0    0 -0.00000000000E+00 -0.00000000000E+00 -0.24095795566E+03  0.24095795566E+03  0.00000000000E+00 0. -1.
        -24    2    1    2    0    0 -0.31286217004E+02  0.93560906426E+02 -0.70608666017E+02  0.14570635131E+03  0.80698739214E+02 0.  0.
         25    2    1    2    0    0  0.95191653099E+02 -0.33411706789E+02 -0.16429343094E+02  0.16154125913E+03  0.12509141504E+03 0.  0.
         24    2    1    2    0    0 -0.63905436095E+02 -0.60149199637E+02  0.36520092668E+02  0.12415038444E+03  0.79860940443E+02 0.  0.
        -13    1    5    5    0    0 -0.29735428181E+02 -0.34458004019E+02  0.60051918539E+02  0.75351062702E+02  0.00000000000E+00 0.  1.
         14    1    5    5    0    0 -0.34170007914E+02 -0.25691195619E+02 -0.23531825872E+02  0.48799321737E+02  0.00000000000E+00 0. -1.
         11    1    3    3    0    0 -0.32839753772E+02  0.78452890013E+02 -0.12886528745E+02  0.86019579180E+02  0.00000000000E+00 0. -1.
        -12    1    3    3    0    0  0.15535367676E+01  0.15108016412E+02 -0.57722137272E+02  0.59686772133E+02  0.00000000000E+00 0.  1.
          5    1    4    4  501    0  0.54502324126E+02  0.45367101723E+02 -0.15809633785E+02  0.72774268628E+02  0.41800000000E+01 0.  1.
         -5    1    4    4    0  501  0.40689328973E+02 -0.78778808512E+02 -0.61970930847E+00  0.88766990500E+02  0.41800000000E+01 0.  1.
</event>
<event>
11    1  0.7105277E-009  0.1652725E+03  0.7561462E-02  0.1082221E+00
         22   -1    0    0    0    0  0.00000000000E+00  0.00000000000E+00  0.13684678716E+04  0.13684678716E+04  0.00000000000E+00 0. -1.
         22   -1    0    0    0    0 -0.00000000000E+00 -0.00000000000E+00 -0.35291843565E+03  0.35291843565E+03  0.00000000000E+00 0. -1.
        -24    2    1    2    0    0  0.62706077659E+02  0.61773317993E+02 -0.32353584991E+03  0.34454756651E+03  0.79306900196E+02 0.  0.
         25    2    1    2    0    0  0.66943706229E+02 -0.52177502539E+02  0.45804588708E+03  0.48234509662E+03  0.12508719353E+03 0.  0.
         24    2    1    2    0    0 -0.12964978389E+03 -0.95958154538E+01  0.88103939881E+03  0.89449364415E+03  0.83590137170E+02 0.  0.
        -13    1    5    5    0    0 -0.38407217330E+02 -0.13237841273E+02  0.97126297495E+02  0.10527997174E+03  0.00000000000E+00 0.  1.
         14    1    5    5    0    0 -0.91242566558E+02  0.36420258187E+01  0.78391310131E+03  0.78921367241E+03  0.00000000000E+00 0. -1.
         13    1    3    3    0    0  0.79005878245E+02  0.40405754524E+02 -0.21206553498E+03  0.22988332893E+03  0.00000000000E+00 0. -1.
        -14    1    3    3    0    0 -0.16299800585E+02  0.21367563469E+02 -0.11147031493E+03  0.11466423758E+03  0.00000000000E+00 0.  1.
          5    1    4    4  501    0 -0.21656316220E+02 -0.17594995399E+02  0.21321676890E+02  0.35364759305E+02  0.41800000000E+01 0. -1.
         -5    1    4    4    0  501  0.88600022449E+02 -0.34582507140E+02  0.43672421019E+03  0.44698033731E+03  0.41800000000E+01 0. -1.
</event>
<event>
11    1  0.7105277E-009  0.1412445E+03  0.7561462E-02  0.1106177E+00
         22   -1    0    0    0    0  0.00000000000E+00  0.00000000000E+00  0.15609385446E+03  0.15609385446E+03  0.00000000000E+00 0.  1.
         22   -1    0    0    0    0 -0.00000000000E+00 -0.00000000000E+00 -0.22234203917E+04  0.22234203917E+04  0.00000000000E+00 0.  1.
        -24    2    1    2    0    0  0.45205995859E+02  0.51725030121E+02 -0.19345218467E+04  0.19373891811E+04  0.79893699276E+02 0.  0.
         25    2    1    2    0    0 -0.19359709778E+02 -0.26322757312E+02 -0.25838759112E+03  0.28892771132E+03  0.12508952477E+03 0.  0.
         24    2    1    2    0    0 -0.25846286081E+02 -0.25402272809E+02  0.12558290056E+03  0.15319735369E+03  0.79906559787E+02 0.  0.
        -11    1    5    5    0    0  0.13676399199E+02 -0.16543255955E+02  0.10610427387E+03  0.10825359184E+03  0.00000000000E+00 0.  1.
         12    1    5    5    0    0 -0.39522685280E+02 -0.88590168532E+01  0.19478626681E+02  0.44943761844E+02  0.00000000000E+00 0. -1.
         13    1    3    3    0    0  0.13672141439E+02  0.87599665685E+01 -0.14240854432E+04  0.14241780135E+04  0.00000000000E+00 0. -1.
        -14    1    3    3    0    0  0.31533854420E+02  0.42965063552E+02 -0.51043640344E+03  0.51321116767E+03  0.00000000000E+00 0.  1.
          5    1    4    4  501    0 -0.33214955385E+02 -0.56297211766E+02 -0.24404874908E+03  0.25268532534E+03  0.41800000000E+01 0. -1.
         -5    1    4    4    0  501  0.13855245607E+02  0.29974454453E+02 -0.14338842043E+02  0.36242385983E+02  0.41800000000E+01 0. -1.
</event>
<event>
11    1  0.7105277E-009  0.1880481E+03  0.7561462E-02  0.1063313E+00
         22   -1    0    0    0    0  0.00000000000E+00  0.00000000000E+00  0.15841605354E+03  0.15841605354E+03  0.00000000000E+00 0. -1.
         22   -1    0    0    0    0 -0.00000000000E+00 -0.00000000000E+00 -0.46416485272E+03  0.46416485272E+03  0.00000000000E+00 0.  1.
        -24    2    1    2    0    0  0.26001778022E+02  0.10802968451E+02 -0.16188404853E+03  0.17508450349E+03  0.60459421151E+02 0.  0.
         25    2    1    2    0    0  0.97558935987E+02 -0.84001510284E+02 -0.20476364309E+03  0.27229695810E+03  0.12507391469E+03 0.  0.
         24    2    1    2    0    0 -0.12356071401E+03  0.73198541833E+02  0.60898892428E+02  0.17519944468E+03  0.79755211383E+02 0.  0.
        -13    1    5    5    0    0 -0.78524942549E+02  0.41932918657E+01  0.12466424824E+02  0.79618854845E+02  0.00000000000E+00 0.  1.
         14    1    5    5    0    0 -0.45035771460E+02  0.69005249967E+02  0.48432467604E+02  0.95580589830E+02  0.00000000000E+00 0. -1.
         11    1    3    3    0    0 -0.15781394382E+02 -0.46036216233E+01 -0.81947584963E+02  0.83580215494E+02  0.00000000000E+00 0. -1.
        -12    1    3    3    0    0  0.41783172404E+02  0.15406590075E+02 -0.79936463564E+02  0.91504287993E+02  0.00000000000E+00 0.  1.
          5    1    4    4  501    0  0.16250205985E+02  0.72186783415E+01  0.13093444823E+02  0.22474189838E+02  0.41800000000E+01 0. -1.
         -5    1    4    4    0  501  0.81308730003E+02 -0.91220188626E+02 -0.21785708791E+03  0.24982276826E+03  0.41800000000E+01 0. -1.
</event>
<event>
11    1  0.7105277E-009  0.1596227E+03  0.7561462E-02  0.1087433E+00
         22   -1    0    0    0    0  0.00000000000E+00  0.00000000000E+00  0.29835340056E+03  0.29835340056E+03  0.00000000000E+00 0.  1.
         22   -1    0    0    0    0 -0.00000000000E+00 -0.00000000000E+00 -0.69320276609E+03  0.69320276609E+03  0.00000000000E+00 0. -1.
         24    2    1    2    0    0  0.13410782287E+02  0.36092863454E+02 -0.27363364435E+03  0.28799390294E+03  0.81133056987E+02 0.  0.
         25    2    1    2    0    0 -0.11174208003E+03 -0.42988026526E+02 -0.37861368189E+03  0.41632925526E+03  0.12508983091E+03 0.  0.
        -24    2    1    2    0    0  0.98331297747E+02  0.68951630718E+01  0.25739796070E+03  0.28723300846E+03  0.80823904771E+02 0.  0.
        -13    1    3    3    0    0  0.10696580634E+01 -0.10165881274E+02 -0.18869790863E-01  0.10222018711E+02  0.00000000000E+00 0.  1.
         14    1    3    3    0    0  0.12341124223E+02  0.46258744728E+02 -0.27361477456E+03  0.27777188423E+03  0.00000000000E+00 0. -1.
         11    1    5    5    0    0  0.64314072274E+02 -0.32315635024E+02  0.11498763125E+03  0.13565675619E+03  0.00000000000E+00 0. -1.
        -12    1    5    5    0    0  0.34017225473E+02  0.39210798096E+02  0.14241032945E+03  0.15157625227E+03  0.00000000000E+00 0.  1.
          5    1    4    4  501    0 -0.61959193619E+02  0.37684915262E+01 -0.32072011818E+03  0.32669865290E+03  0.41800000000E+01 0.  1.
         -5    1    4    4    0  501 -0.49782886415E+02 -0.46756518052E+02 -0.57893563708E+02  0.89630602357E+02  0.41800000000E+01 0.  1.
</event>
<event>
11    1  0.7105277E-009  0.2721857E+03  0.7561462E-02  0.1012702E+00
         22   -1    0    0    0    0  0.00000000000E+00  0.00000000000E+00  0.76379165349E+03  0.76379165349E+03  0.00000000000E+00 0. -1.
         22   -1    0    0    0    0 -0.00000000000E+00 -0.00000000000E+00 -0.16281383707E+04  0.16281383707E+04  0.00000000000E+00 0. -1.
         24    2    1    2    0    0  0.22353602055E+03  0.20641463452E+02 -0.11807704827E+04  0.12047049475E+04  0.81857528802E+02 0.  0.
         25    2    1    2    0    0 -0.37268811243E+03 -0.26273412433E+02 -0.33306246521E+03  0.51591121492E+03  0.12508818728E+03 0.  0.
        -24    2    1    2    0    0  0.14915209189E+03  0.56319489808E+01  0.64948623071E+03  0.67131386185E+03  0.80943633878E+02 0.  0.
        -13    1    3    3    0    0  0.76237040222E+02 -0.15496727739E+02 -0.25533317416E+03  0.26692183256E+03  0.00000000000E+00 0.  1.
         14    1    3    3    0    0  0.14729898033E+03  0.36138191191E+02 -0.92543730858E+03  0.93778311490E+03  0.00000000000E+00 0. -1.
         13    1    5    5    0    0  0.77046989069E+02 -0.35435658819E+02  0.27672023781E+03  0.28942359001E+03  0.00000000000E+00 0. -1.
        -14    1    5    5    0    0  0.72105102816E+02  0.41067607800E+02  0.37276599290E+03  0.38189027184E+03  0.00000000000E+00 0.  1.
          5    1    4    4  501    0 -0.11916020194E+03 -0.38902311861E+02 -0.48269292423E+02  0.13438727836E+03  0.41800000000E+01 0.  1.
         -5    1    4    4    0  501 -0.25352791049E+03  0.12628899429E+02 -0.28479317279E+03  0.38152393656E+03  0.41800000000E+01 0.  1.
</event>
<event>
11    1  0.7105277E-009  0.1571111E+03  0.7561462E-02  0.1089826E+00
         22   -1    0    0    0    0  0.00000000000E+00  0.00000000000E+00  0.18062836815E+04  0.18062836815E+04  0.00000000000E+00 0.  1.
         22   -1    0    0    0    0 -0.00000000000E+00 -0.00000000000E+00 -0.31339685720E+03  0.31339685720E+03  0.00000000000E+00 0. -1.
         24    2    1    2    0    0  0.15565855808E+02  0.69017069187E+01 -0.28814291847E+03  0.29959400275E+03  0.80251452295E+02 0.  0.
         25    2    1    2    0    0  0.65402184985E+01 -0.98893331108E+02  0.36094643417E+03  0.39465514664E+03  0.12509073119E+03 0.  0.
        -24    2    1    2    0    0 -0.22106074306E+02  0.91991624190E+02  0.14200833086E+04  0.14254313893E+04  0.79163784707E+02 0.  0.
        -13    1    3    3    0    0 -0.16367774933E+02 -0.70177584163E+01 -0.12498214475E+02  0.21756800190E+02  0.00000000000E+00 0.  1.
         14    1    3    3    0    0  0.31933630740E+02  0.13919465335E+02 -0.27564470399E+03  0.27783720256E+03  0.00000000000E+00 0. -1.
         11    1    5    5    0    0 -0.49994559390E+02  0.73705045187E+02  0.94942451514E+03  0.95359257527E+03  0.00000000000E+00 0. -1.
        -12    1    5    5    0    0  0.27888485084E+02  0.18286579002E+02  0.47065879346E+03  0.47183881404E+03  0.00000000000E+00 0.  1.
          5    1    4    4  501    0  0.91082632345E+01  0.18615819442E+02  0.79599888695E+01  0.22590772794E+02  0.41800000000E+01 0.  1.
         -5    1    4    4    0  501 -0.25680447360E+01 -0.11750915055E+03  0.35298644530E+03  0.37206437385E+03  0.41800000000E+01 0.  1.
</event>
<event>
11    1  0.7105277E-009  0.1687463E+03  0.7561462E-02  0.1079128E+00
         22   -1    0    0    0    0  0.00000000000E+00  0.00000000000E+00  0.44863561692E+03  0.44863561692E+03  0.00000000000E+00 0. -1.
         22   -1    0    0    0    0 -0.00000000000E+00 -0.00000000000E+00 -0.43434236676E+03  0.43434236676E+03  0.00000000000E+00 0.  1.
         24    2    1    2    0    0  0.45113219282E+02 -0.86789666773E+02 -0.13626733818E+03  0.18613543387E+03  0.80684344674E+02 0.  0.
         25    2    1    2    0    0 -0.12625271062E+03  0.73501051588E+02 -0.22961192613E+03  0.29951949512E+03  0.12509252501E+03 0.  0.
        -24    2    1    2    0    0  0.81139491336E+02  0.13288615185E+02  0.38017251446E+03  0.39732305469E+03  0.81081839485E+02 0.  0.
        -13    1    3    3    0    0  0.41333047110E+02 -0.69283654656E+02 -0.14521091953E+03  0.16611699713E+03  0.00000000000E+00 0.  1.
         14    1    3    3    0    0  0.37801721712E+01 -0.17506012117E+02  0.89435813539E+01  0.20018436735E+02  0.00000000000E+00 0. -1.
         13    1    5    5    0    0  0.93092416748E+02  0.26757174125E+02  0.30436099828E+03  0.31940219426E+03  0.00000000000E+00 0. -1.
        -14    1    5    5    0    0 -0.11952925412E+02 -0.13468558940E+02  0.75811516174E+02  0.77920860431E+02  0.00000000000E+00 0.  1.
          5    1    4    4  501    0 -0.80183706368E+02  0.38967660380E+01 -0.19145607338E+03  0.20764756677E+03  0.41800000000E+01 0. -1.
         -5    1    4    4    0  501 -0.46069004250E+02  0.69604285550E+02 -0.38155852748E+02  0.91871928349E+02  0.41800000000E+01 0. -1.
</event>
<event>
11    1  0.7105277E-009  0.1477398E+03  0.7561462E-02  0.1099211E+00
         22   -1    0    0    0    0  0.00000000000E+00  0.00000000000E+00  0.17878854012E+04  0.17878854012E+04  0.00000000000E+00 0.  1.
         22   -1    0    0    0    0 -0.00000000000E+00 -0.00000000000E+00 -0.31902777634E+03  0.31902777634E+03  0.00000000000E+00 0. -1.
        -24    2    1    2    0    0 -0.13603185509E+02  0.47546363247E+02 -0.29099424002E+03  0.30379908594E+03  0.71906422387E+02 0.  0.
         25    2    1    2    0    0  0.66516121879E+02  0.14037942242E+02  0.24049041678E+03  0.27947230854E+03  0.12509065666E+03 0.  0.
         24    2    1    2    0    0 -0.52912936370E+02 -0.61584305488E+02  0.15193614481E+04  0.15236417830E+04  0.80203912554E+02 0.  0.
        -11    1    5    5    0    0 -0.64465838960E+02 -0.73033749381E+02  0.13450841293E+04  0.13486070918E+04  0.00000000000E+00 0.  1.
         12    1    5    5    0    0  0.11552902590E+02  0.11449443893E+02  0.17427731871E+03  0.17503469125E+03  0.00000000000E+00 0. -1.
         13    1    3    3    0    0 -0.23140255529E+01  0.15250649827E+01 -0.20958392324E+03  0.20960224574E+03  0.00000000000E+00 0. -1.
        -14    1    3    3    0    0 -0.11289159956E+02  0.46021298264E+02 -0.81410316782E+02  0.94196840207E+02  0.00000000000E+00 0.  1.
          5    1    4    4  501    0  0.23087561734E+01  0.51003232828E+02  0.16838261951E+03  0.17600238370E+03  0.41800000000E+01 0.  1.
         -5    1    4    4    0  501  0.64207365706E+02 -0.36965290586E+02  0.72107797272E+02  0.10346992484E+03  0.41800000000E+01 0.  1.
</event>
<event>
11    1  0.7105277E-009  0.1686712E+03  0.7561462E-02  0.1079194E+00
         22   -1    0    0    0    0  0.00000000000E+00  0.00000000000E+00  0.12888982830E+03  0.12888982830E+03  0.00000000000E+00 0. -1.
         22   -1    0    0    0    0 -0.00000000000E+00 -0.00000000000E+00 -0.70948280455E+03  0.70948280455E+03  0.00000000000E+00 0.  1.
        -24    2    1    2    0    0 -0.25966115628E+02  0.36898739989E+02 -0.43951608918E+03  0.44913799693E+03  0.80714258088E+02 0.  0.
         25    2    1    2    0    0  0.10596047429E+03  0.44976725759E+02 -0.17649315459E+03  0.24504941905E+03  0.12509538835E+03 0.  0.
         24    2    1    2    0    0 -0.79994358667E+02 -0.81875465747E+02  0.35416267521E+02  0.14418521688E+03  0.80202091310E+02 0.  0.
        -13    1    5    5    0    0 -0.22538024119E+02  0.15029075719E+02  0.58814325235E+01  0.27720514005E+02  0.00000000000E+00 0.  1.
         14    1    5    5    0    0 -0.57456334548E+02 -0.96904541467E+02  0.29534834998E+02  0.11646470287E+03  0.00000000000E+00 0. -1.
         13    1    3    3    0    0 -0.30594225736E+02  0.36372677024E+02 -0.11299960384E+03  0.12258828961E+03  0.00000000000E+00 0. -1.
        -14    1    3    3    0    0  0.46281101081E+01  0.52606296501E+00 -0.32651648535E+03  0.32654970732E+03  0.00000000000E+00 0.  1.
          5    1    4    4  501    0  0.69932332747E+02 -0.17091396456E+02 -0.23225208761E+02  0.75759683989E+02  0.41800000000E+01 0. -1.
         -5    1    4    4    0  501  0.36028141548E+02  0.62068122215E+02 -0.15326794583E+03  0.16928973506E+03  0.41800000000E+01 0. -1.
</event>
<event>
11    1  0.7105277E-009  0.1472281E+03  0.7561462E-02  0.1099745E+00
         22   -1    0    0    0    0  0.00000000000E+00  0.00000000000E+00  0.33418432802E+03  0.33418432802E+03  0.00000000000E+00 0. -1.
         22   -1    0    0    0    0 -0.00000000000E+00 -0.00000000000E+00 -0.41903477773E+03  0.41903477773E+03  0.00000000000E+00 0.  1.
        -24    2    1    2    0    0 -0.23613352409E+01 -0.17127534988E+02 -0.20016827546E+03  0.21640784563E+03  0.80411994083E+02 0.  0.
         25    2    1    2    0    0 -0.59475647774E+01  0.93497577453E+02 -0.16977811604E+03  0.23075438440E+03  0.12508319917E+03 0.  0.
         24    2    1    2    0    0  0.83089000183E+01 -0.76370042465E+02  0.28509594180E+03  0.30605687572E+03  0.80558636663E+02 0.  0.
        -11    1    5    5    0    0  0.14245957237E+02 -0.55245097165E+02  0.72141185484E+02  0.91974554641E+02  0.00000000000E+00 0.  1.
         12    1    5    5    0    0 -0.59370572188E+01 -0.21124945299E+02  0.21295475631E+03  0.21408232108E+03  0.00000000000E+00 0. -1.
         11    1    3    3    0    0 -0.25925713621E+02 -0.22254981004E+02 -0.32975643373E+02  0.47484943530E+02  0.00000000000E+00 0. -1.
        -12    1    3    3    0    0  0.23564378380E+02  0.51274460157E+01 -0.16719263208E+03  0.16892290210E+03  0.00000000000E+00 0.  1.
          5    1    4    4  501    0  0.49462997063E+02  0.71946077190E+02 -0.13761706172E+03  0.16302991805E+03  0.41800000000E+01 0.  1.
         -5    1    4    4    0  501 -0.55410561841E+02  0.21551500263E+02 -0.32161054320E+02  0.67724466348E+02  0.41800000000E+01 0.  1.
</event>
<event>
11    1  0.7105277E-009  0.1634071E+03  0.7561462E-02  0.1083916E+00
         22   -1    0    0    0    0  0.00000000000E+00  0.00000000000E+00  0.26485939967E+03  0.26485939967E+03  0.00000000000E+00 0. -1.
         22   -1    0    0    0    0 -0.00000000000E+00 -0.00000000000E+00 -0.54348260975E+03  0.54348260975E+03  0.00000000000E+00 0.  1.
        -24    2    1    2    0    0  0.97757475089E+02  0.28121910575E+01 -0.35713337205E+03  0.37815600519E+03  0.76767743705E+02 0.  0.
         25    2    1    2    0    0 -0.14334582690E+03 -0.58433716258E+01 -0.11030632540E+03  0.21999275004E+03  0.12508858286E+03 0.  0.
         24    2    1    2    0    0  0.45588351812E+02  0.30311805683E+01  0.18881648738E+03  0.21019325420E+03  0.80262396731E+02 0.  0.
        -13    1    5    5    0    0  0.27882379402E+02 -0.23076633253E+02  0.26545660718E+02  0.44884631962E+02  0.00000000000E+00 0.  1.
         14    1    5    5    0    0  0.17705972409E+02  0.26107813821E+02  0.16227082666E+03  0.16530862224E+03  0.00000000000E+00 0. -1.
         11    1    3    3    0    0  0.16579910175E+02  0.58847037221E+01 -0.20446028522E+03  0.20521581662E+03  0.00000000000E+00 0. -1.
        -12    1    3    3    0    0  0.81177564914E+02 -0.30725126646E+01 -0.15267308684E+03  0.17294018857E+03  0.00000000000E+00 0.  1.
          5    1    4    4  501    0 -0.11195019519E+03 -0.44824381536E+02 -0.28475629233E+02  0.12397743845E+03  0.41800000000E+01 0.  1.
         -5    1    4    4    0  501 -0.31395631708E+02  0.38981009911E+02 -0.81830696169E+02  0.96015311589E+02  0.41800000000E+01 0.  1.
</event>
<event>
11    1  0.7105277E-009  0.1767989E+03  0.7561462E-02  0.1072262E+00
         22   -1    0    0    0    0  0.00000000000E+00  0.00000000000E+00  0.18511280713E+04  0.18511280713E+04  0.00000000000E+00 0.  1.
         22   -1    0    0    0    0 -0.00000000000E+00 -0.00000000000E+00 -0.72702667424E+03  0.72702667424E+03  0.00000000000E+00 0. -1.
         24    2    1    2    0    0  0.52469930212E+02  0.66834808909E+02 -0.70336446506E+03  0.71307623809E+03  0.80846554415E+02 0.  0.
         25    2    1    2    0    0 -0.14196244207E+03 -0.12249156068E+03  0.87723638012E+03  0.90573049366E+03  0.12508614292E+03 0.  0.
        -24    2    1    2    0    0  0.89492511859E+02  0.55656751767E+02  0.95022948200E+03  0.95934801379E+03  0.79410071159E+02 0.  0.
        -13    1    3    3    0    0 -0.48249397266E+01  0.39779667550E+02 -0.12534479432E+03  0.13159414674E+03  0.00000000000E+00 0.  1.
         14    1    3    3    0    0  0.57294869939E+02  0.27055141359E+02 -0.57801967074E+03  0.58148209135E+03  0.00000000000E+00 0. -1.
         11    1    5    5    0    0  0.20124950303E+02 -0.20199883311E+02  0.24833182641E+03  0.24996348717E+03  0.00000000000E+00 0. -1.
        -12    1    5    5    0    0  0.69367561555E+02  0.75856635078E+02  0.70189765559E+03  0.70938452662E+03  0.00000000000E+00 0.  1.
          5    1    4    4  501    0  0.15896540052E+02 -0.26363284859E+02  0.56985869076E+02  0.64904425492E+02  0.41800000000E+01 0. -1.
         -5    1    4    4    0  501 -0.15785898212E+03 -0.96128275817E+02  0.82025051105E+03  0.84082606817E+03  0.41800000000E+01 0. -1.
</event>
<event>
11    1  0.7105277E-009  0.1368738E+03  0.7561462E-02  0.1111100E+00
         22   -1    0    0    0    0  0.00000000000E+00  0.00000000000E+00  0.23892913034E+03  0.23892913034E+03  0.00000000000E+00 0. -1.
         22   -1    0    0    0    0 -0.00000000000E+00 -0.00000000000E+00 -0.93402932926E+03  0.93402932926E+03  0.00000000000E+00 0. -1.
        -24    2    1    2    0    0  0.17637973962E+02 -0.10062807347E+02 -0.83675693395E+03  0.84096799316E+03  0.81563722240E+02 0.  0.
         25    2    1    2    0    0 -0.41057757634E+01  0.63181763918E+02 -0.24055265924E+02  0.14225292129E+03  0.12509374529E+03 0.  0.
         24    2    1    2    0    0 -0.13532198199E+02 -0.53118956571E+02  0.16571200095E+03  0.18973754514E+03  0.74398419620E+02 0.  0.
        -13    1    5    5    0    0 -0.39502918405E+02 -0.15534823718E+02  0.51570724270E+02  0.66793344820E+02  0.00000000000E+00 0.  1.
         14    1    5    5    0    0  0.25970720207E+02 -0.37584132853E+02  0.11414127668E+03  0.12294420033E+03  0.00000000000E+00 0. -1.
         11    1    3    3    0    0 -0.15426221609E+01 -0.34598273109E+02 -0.69353678326E+03  0.69440095760E+03  0.00000000000E+00 0. -1.
        -12    1    3    3    0    0  0.19180596123E+02  0.24535465762E+02 -0.14322015070E+03  0.14656703556E+03  0.00000000000E+00 0.  1.
          5    1    4    4  501    0 -0.40081609159E+02  0.11402019212E+02  0.35888660795E+02  0.55154417851E+02  0.41800000000E+01 0. -1.
         -5    1    4    4    0  501  0.35975833395E+02  0.51779744706E+02 -0.59943926719E+02  0.87098503436E+02  0.41800000000E+01 0. -1.
</event>
<event>
11    1  0.7105277E-009  0.3074706E+03  0.7561462E-02  0.9970781E-01
         22   -1    0    0    0    0  0.00000000000E+00  0.00000000000E+00  0.95975377004E+03  0.95975377004E+03  0.00000000000E+00 0. -1.
         22   -1    0    0    0    0 -0.00000000000E+00 -0.00000000000E+00 -0.70078878184E+02  0.70078878184E+02  0.00000000000E+00 0. -1.
        -24    2    1    2    0    0  0.75602643676E+02  0.14168613481E+03  0.24620553992E+03  0.30454546901E+03  0.79624457820E+02 0.  0.
         25    2    1    2    0    0 -0.20634896335E+02  0.16114683634E+02  0.15348154879E+03  0.19972426609E+03  0.12509082569E+03 0.  0.
         24    2    1    2    0    0 -0.54967747341E+02 -0.15780081844E+03  0.48998780315E+03  0.52556291312E+03  0.90585743161E+02 0.  0.
        -11    1    5    5    0    0 -0.91054029556E+01 -0.10550287736E+02  0.16765501365E+03  0.16823323256E+03  0.00000000000E+00 0.  1.
         12    1    5    5    0    0 -0.45862344385E+02 -0.14725053071E+03  0.32233278950E+03  0.35732968056E+03  0.00000000000E+00 0. -1.
         11    1    3    3    0    0  0.52639295190E+02  0.12891200082E+03  0.24011948387E+03  0.27757263173E+03  0.00000000000E+00 0. -1.
        -12    1    3    3    0    0  0.22963348486E+02  0.12774133987E+02  0.60860560504E+01  0.26972837283E+02  0.00000000000E+00 0.  1.
          5    1    4    4  501    0 -0.12948093954E+02  0.70880402193E+02  0.91817921394E+02  0.11678907330E+03  0.41800000000E+01 0. -1.
         -5    1    4    4    0  501 -0.76868023809E+01 -0.54765718559E+02  0.61663627397E+02  0.82935192795E+02  0.41800000000E+01 0. -1.
</event>
<event>
11    1  0.7105277E-009  0.1854739E+03  0.7561462E-02  0.1065299E+00
         22   -1    0    0    0    0  0.00000000000E+00  0.00000000000E+00  0.11793992358E+04  0.11793992358E+04  0.00000000000E+00 0. -1.
         22   -1    0    0    0    0 -0.00000000000E+00 -0.00000000000E+00 -0.13084059484E+04  0.13084059484E+04  0.00000000000E+00 0. -1.
        -24    2    1    2    0    0 -0.72265435354E+02 -0.11571013942E+03 -0.12613707771E+04  0.12716842518E+04  0.86680270997E+02 0.  0.
         25    2    1    2    0    0  0.32471770209E+02  0.17857065529E+03  0.27925468757E+03  0.35577032368E+03  0.12508975935E+03 0.  0.
         24    2    1    2    0    0  0.39793665145E+02 -0.62860515865E+02  0.85310937696E+03  0.86035060879E+03  0.82901029755E+02 0.  0.
        -13    1    5    5    0    0  0.10321299991E+02  0.12213466149E+02  0.37549338536E+02  0.40812385539E+02  0.00000000000E+00 0.  1.
         14    1    5    5    0    0  0.29472365154E+02 -0.75073982014E+02  0.81556003843E+03  0.81953822325E+03  0.00000000000E+00 0. -1.
         11    1    3    3    0    0 -0.26188581481E+02 -0.70445094460E+02 -0.98512691278E+03  0.98798956848E+03  0.00000000000E+00 0. -1.
        -12    1    3    3    0    0 -0.46076853873E+02 -0.45265044962E+02 -0.27624386433E+03  0.28369468331E+03  0.00000000000E+00 0.  1.
          5    1    4    4  501    0 -0.42436033726E+02  0.70933165594E+02  0.68131135920E+02  0.10719913722E+03  0.41800000000E+01 0. -1.
         -5    1    4    4    0  501  0.74907803935E+02  0.10763748969E+03  0.21112355165E+03  0.24857118646E+03  0.41800000000E+01 0. -1.
</event>
<event>
11    1  0.7105277E-009  0.2107680E+03  0.7561462E-02  0.1047160E+00
         22   -1    0    0    0    0  0.00000000000E+00  0.00000000000E+00  0.10904345673E+04  0.10904345673E+04  0.00000000000E+00 0.  1.
         22   -1    0    0    0    0 -0.00000000000E+00 -0.00000000000E+00 -0.41069506250E+03  0.41069506250E+03  0.00000000000E+00 0.  1.
         24    2    1    2    0    0  0.16927562140E+03  0.21782688257E+01 -0.31879391979E+03  0.37001766397E+03  0.81391200376E+02 0.  0.
         25    2    1    2    0    0 -0.17181082728E+03 -0.12847153614E+02  0.11138014538E+03  0.24028467956E+03  0.12508869141E+03 0.  0.
        -24    2    1    2    0    0  0.25352058850E+01  0.10668884788E+02  0.88715327922E+03  0.89082728629E+03  0.80075344444E+02 0.  0.
        -11    1    3    3    0    0  0.60427501172E+02 -0.37659515937E+02 -0.13740880993E+03  0.15476079312E+03  0.00000000000E+00 0.  1.
         12    1    3    3    0    0  0.10884812023E+03  0.39837784762E+02 -0.18138510985E+03  0.21525687085E+03  0.00000000000E+00 0. -1.
         11    1    5    5    0    0  0.68912141745E+01 -0.71640270486E+01  0.12450740960E+02  0.15932139430E+02  0.00000000000E+00 0. -1.
        -12    1    5    5    0    0 -0.43560082896E+01  0.17832911836E+02  0.87470253826E+03  0.87489514686E+03  0.00000000000E+00 0.  1.
          5    1    4    4  501    0  0.19173079008E+02  0.57447176056E+01  0.59171988713E+01  0.21286013753E+02  0.41800000000E+01 0.  1.
         -5    1    4    4    0  501 -0.19098390629E+03 -0.18591871219E+02  0.10546294651E+03  0.21899866581E+03  0.41800000000E+01 0.  1.
</event>
<event>
11    1  0.7105277E-009  0.2228468E+03  0.7561462E-02  0.1039449E+00
         22   -1    0    0    0    0  0.00000000000E+00  0.00000000000E+00  0.38705964953E+03  0.38705964953E+03  0.00000000000E+00 0.  1.
         22   -1    0    0    0    0 -0.00000000000E+00 -0.00000000000E+00 -0.13119829928E+04  0.13119829928E+04  0.00000000000E+00 0.  1.
        -24    2    1    2    0    0  0.13485943683E+03  0.12478835248E+03 -0.11215536827E+04  0.11394685026E+04  0.82137717351E+02 0.  0.
         25    2    1    2    0    0 -0.17043898748E+03 -0.95195038124E+02 -0.97375589454E+02  0.25147883126E+03  0.12509217967E+03 0.  0.
         24    2    1    2    0    0  0.35579550648E+02 -0.29593314357E+02  0.29400592884E+03  0.30809530852E+03  0.79633939115E+02 0.  0.
        -13    1    5    5    0    0  0.43827073928E+02 -0.33031535471E+01  0.26286756144E+03  0.26651656250E+03  0.00000000000E+00 0.  1.
         14    1    5    5    0    0 -0.82475232806E+01 -0.26290160810E+02  0.31138367401E+02  0.41578746013E+02  0.00000000000E+00 0. -1.
         13    1    3    3    0    0 -0.10687231027E+02  0.17129815822E+02 -0.11896031451E+03  0.12066152628E+03  0.00000000000E+00 0. -1.
        -14    1    3    3    0    0  0.14554666785E+03  0.10765853666E+03 -0.10025933682E+04  0.10188069763E+04  0.00000000000E+00 0.  1.
          5    1    4    4  501    0 -0.57610328526E+02 -0.32532238460E+02  0.27568951722E+02  0.71797047231E+02  0.41800000000E+01 0.  1.
         -5    1    4    4    0  501 -0.11282865895E+03 -0.62662799665E+02 -0.12494454118E+03  0.17968178403E+03  0.41800000000E+01 0.  1.
</event>
<event>
11    1  0.7105277E-009  0.1475353E+03  0.7561462E-02  0.1099424E+00
         22   -1    0    0    0    0  0.00000000000E+00  0.00000000000E+00  0.38592896678E+03  0.38592896678E+03  0.00000000000E+00 0. -1.
         22   -1    0    0    0    0 -0.00000000000E+00 -0.00000000000E+00 -0.24803127480E+04  0.24803127480E+04  0.00000000000E+00 0.  1.
         24    2    1    2    0    0  0.68329544984E+02  0.36356948497E+02 -0.23555241610E+04  0.23583432234E+04  0.85427934393E+02 0.  0.
         25    2    1    2    0    0 -0.11667079057E+03 -0.26850006740E+02 -0.51777105208E+02  0.18072667901E+03  0.12509303597E+03 0.  0.
        -24    2    1    2    0    0  0.48341245588E+02 -0.95069417571E+01  0.31291748492E+03  0.32717181242E+03  0.81833883634E+02 0.  0.
        -13    1    3    3    0    0  0.68520193823E+02  0.30908783122E+02 -0.23471350963E+04  0.23483384616E+04  0.00000000000E+00 0.  1.
         14    1    3    3    0    0 -0.19064883881E+00  0.54481653751E+01 -0.83890646770E+01  0.10004761821E+02  0.00000000000E+00 0. -1.
         11    1    5    5    0    0 -0.31927871852E+01  0.84665730070E+01  0.21404092152E+03  0.21423210038E+03  0.00000000000E+00 0. -1.
        -12    1    5    5    0    0  0.51534032773E+02 -0.17973514764E+02  0.98876563394E+02  0.11293971204E+03  0.00000000000E+00 0.  1.
          5    1    4    4  501    0 -0.14227936625E+02 -0.22022161888E+02  0.36644033386E+02  0.45251158854E+02  0.41800000000E+01 0.  1.
         -5    1    4    4    0  501 -0.10244285395E+03 -0.48278448527E+01 -0.88421138595E+02  0.13547552015E+03  0.41800000000E+01 0.  1.
</event>
<event>
11    1  0.7105277E-009  0.1519774E+03  0.7561462E-02  0.1094875E+00
         22   -1    0    0    0    0  0.00000000000E+00  0.00000000000E+00  0.52054446749E+03  0.52054446749E+03  0.00000000000E+00 0. -1.
         22   -1    0    0    0    0 -0.00000000000E+00 -0.00000000000E+00 -0.31251893708E+03  0.31251893708E+03  0.00000000000E+00 0. -1.
        -24    2    1    2    0    0  0.79544919382E+02  0.30883472628E+02 -0.25375844558E+03  0.27898652726E+03  0.78478981946E+02 0.  0.
         25    2    1    2    0    0 -0.11344787482E+03  0.16693903768E+02  0.14923710054E+03  0.22598356412E+03  0.12509097629E+03 0.  0.
         24    2    1    2    0    0  0.33902955437E+02 -0.47577376397E+02  0.31254687545E+03  0.32809331320E+03  0.80911406388E+02 0.  0.
        -11    1    5    5    0    0  0.42557366154E+01  0.17727074269E+02  0.20791465749E+02  0.27652224219E+02  0.00000000000E+00 0.  1.
         12    1    5    5    0    0  0.29647218822E+02 -0.65304450666E+02  0.29175540970E+03  0.30044108898E+03  0.00000000000E+00 0. -1.
         13    1    3    3    0    0  0.86418924066E+02  0.13472050230E+02 -0.15070007721E+03  0.17424190037E+03  0.00000000000E+00 0. -1.
        -14    1    3    3    0    0 -0.68740046840E+01  0.17411422399E+02 -0.10305836838E+03  0.10474462689E+03  0.00000000000E+00 0.  1.
          5    1    4    4  501    0 -0.13182107885E+03  0.39161771030E+01  0.82847789408E+02  0.15579910745E+03  0.41800000000E+01 0.  1.
         -5    1    4    4    0  501  0.18373204030E+02  0.12777726665E+02  0.66389311134E+02  0.70184456669E+02  0.41800000000E+01 0.  1.
</event>
<event>
11    1  0.7105277E-009  0.2090004E+03  0.7561462E-02  0.1048335E+00
         22   -1    0    0    0    0  0.00000000000E+00  0.00000000000E+00  0.10254171008E+03  0.10254171008E+03  0.00000000000E+00 0. -1.
         22   -1    0    0    0    0 -0.00000000000E+00 -0.00000000000E+00 -0.12340640915E+04  0.12340640915E+04  0.00000000000E+00 0. -1.
        -24    2    1    2    0    0  0.12381815943E+02 -0.24030269232E+02 -0.80570055078E+03  0.81009190737E+03  0.79779431242E+02 0.  0.
         25    2    1    2    0    0 -0.11755346364E+03  0.14313602113E+03 -0.24414008919E+03  0.33099703266E+03  0.12509162689E+03 0.  0.
         24    2    1    2    0    0  0.10517164770E+03 -0.11910575190E+03 -0.81681741441E+02  0.19551686155E+03  0.79420908127E+02 0.  0.
        -11    1    5    5    0    0  0.56866045793E+02 -0.69111719827E+02 -0.88247012529E+02  0.12568895020E+03  0.00000000000E+00 0.  1.
         12    1    5    5    0    0  0.48305601908E+02 -0.49994032075E+02  0.65652710881E+01  0.69827911348E+02  0.00000000000E+00 0. -1.
         11    1    3    3    0    0  0.31233841921E+02 -0.20996659501E+02 -0.75463955415E+03  0.75557744096E+03  0.00000000000E+00 0. -1.
        -12    1    3    3    0    0 -0.18852025977E+02 -0.30336097303E+01 -0.51060996632E+02  0.54514466415E+02  0.00000000000E+00 0.  1.
          5    1    4    4  501    0 -0.87862157399E+02  0.17991419073E+02 -0.66899581785E+02  0.11196640704E+03  0.41800000000E+01 0.  1.
         -5    1    4    4    0  501 -0.29691306246E+02  0.12514460206E+03 -0.17724050741E+03  0.21903062562E+03  0.41800000000E+01 0.  1.
</event>
<event>
11    1  0.7105277E-009  0.1696999E+03  0.7561462E-02  0.1078293E+00
         22   -1    0    0    0    0  0.00000000000E+00  0.00000000000E+00  0.12976270203E+03  0.12976270203E+03  0.00000000000E+00 0. -1.
         22   -1    0    0    0    0 -0.00000000000E+00 -0.00000000000E+00 -0.63262850935E+03  0.63262850935E+03  0.00000000000E+00 0.  1.
        -24    2    1    2    0    0 -0.14764784206E+02 -0.56887905740E+02 -0.38279948227E+03  0.39564509273E+03  0.80903418340E+02 0.  0.
         25    2    1    2    0    0  0.89417958568E+02  0.12630058271E+03 -0.12794546210E+03  0.23657696417E+03  0.12510479685E+03 0.  0.
         24    2    1    2    0    0 -0.74653174362E+02 -0.69412676972E+02  0.78791370481E+01  0.13016915448E+03  0.80564953986E+02 0.  0.
        -13    1    5    5    0    0  0.96611328923E+01 -0.25953237286E+02 -0.16492887014E+02  0.32232333711E+02  0.00000000000E+00 0.  1.
         14    1    5    5    0    0 -0.84314307254E+02 -0.43459439686E+02  0.24372024062E+02  0.97936820770E+02  0.00000000000E+00 0. -1.
         11    1    3    3    0    0  0.36201957412E+01  0.15837726639E+02 -0.23312262549E+02  0.28414802260E+02  0.00000000000E+00 0. -1.
        -12    1    3    3    0    0 -0.18384979947E+02 -0.72725632379E+02 -0.35948721972E+03  0.36723029047E+03  0.00000000000E+00 0.  1.
          5    1    4    4  501    0 -0.78487930241E+01 -0.20355594378E+02 -0.81945770814E+01  0.23676513003E+02  0.41800000000E+01 0. -1.
         -5    1    4    4    0  501  0.97266751592E+02  0.14665617709E+03 -0.11975088502E+03  0.21290045117E+03  0.41800000000E+01 0. -1.
</event>
<event>
11    1  0.7105277E-009  0.1546316E+03  0.7561462E-02  0.1092238E+00
         22   -1    0    0    0    0  0.00000000000E+00  0.00000000000E+00  0.28779125878E+03  0.28779125878E+03  0.00000000000E+00 0. -1.
         22   -1    0    0    0    0 -0.00000000000E+00 -0.00000000000E+00 -0.29507320763E+03  0.29507320763E+03  0.00000000000E+00 0. -1.
         24    2    1    2    0    0  0.77866842819E+02  0.54320576168E+02 -0.21752719088E+03  0.25058785967E+03  0.80387974464E+02 0.  0.
         25    2    1    2    0    0 -0.56968345515E+02 -0.34384275707E+02  0.49423065182E+02  0.15007006437E+03  0.12510281389E+03 0.  0.
        -24    2    1    2    0    0 -0.20898497304E+02 -0.19936300461E+02  0.16082217684E+03  0.18220654236E+03  0.80630318409E+02 0.  0.
        -11    1    3    3    0    0  0.18051965054E+02  0.91888603758E+01  0.27360845265E+00  0.20257923361E+02  0.00000000000E+00 0.  1.
         12    1    3    3    0    0  0.59814877764E+02  0.45131715792E+02 -0.21780079933E+03  0.23032993631E+03  0.00000000000E+00 0. -1.
         13    1    5    5    0    0  0.78669312767E+01 -0.25277766378E+02  0.14785181342E+03  0.15020323836E+03  0.00000000000E+00 0. -1.
        -14    1    5    5    0    0 -0.28765428580E+02  0.53414659165E+01  0.12970363422E+02  0.32003303999E+02  0.00000000000E+00 0.  1.
          5    1    4    4  501    0 -0.51438106617E+02 -0.32806460282E+02  0.90035872514E+02  0.10883966827E+03  0.41800000000E+01 0.  1.
         -5    1    4    4    0  501 -0.55302388973E+01 -0.15778154248E+01 -0.40612807332E+02  0.41230396108E+02  0.41800000000E+01 0.  1.
</event>
<event>
11    1  0.7105277E-009  0.1428658E+03  0.7561462E-02  0.1104400E+00
         22   -1    0    0    0    0  0.00000000000E+00  0.00000000000E+00  0.11653277191E+03  0.11653277191E+03  0.00000000000E+00 0. -1.
         22   -1    0    0    0    0 -0.00000000000E+00 -0.00000000000E+00 -0.63390810489E+03  0.63390810489E+03  0.00000000000E+00 0.  1.
         24    2    1    2    0    0 -0.10016207831E+02 -0.54227500232E+02 -0.45199147742E+03  0.46250845656E+03  0.81097660438E+02 0.  0.
         25    2    1    2    0    0 -0.49703662489E+02  0.37062561404E+01 -0.10347070155E+03  0.16981813085E+03  0.12509125103E+03 0.  0.
        -24    2    1    2    0    0  0.59719870320E+02  0.50521244092E+02  0.38086845999E+02  0.11811428940E+03  0.79884407151E+02 0.  0.
        -13    1    3    3    0    0 -0.24162390772E+02  0.35118000516E+00 -0.28962039479E+03  0.29062676672E+03  0.00000000000E+00 0.  1.
         14    1    3    3    0    0  0.14146182941E+02 -0.54578680237E+02 -0.16237108263E+03  0.17188168985E+03  0.00000000000E+00 0. -1.
         13    1    5    5    0    0  0.55642691710E+02  0.69257048184E+02  0.42432248864E+02  0.98453763806E+02  0.00000000000E+00 0. -1.
        -14    1    5    5    0    0  0.40771786095E+01 -0.18735804092E+02 -0.43454028656E+01  0.19660525590E+02  0.00000000000E+00 0.  1.
          5    1    4    4  501    0 -0.72860400586E+02 -0.40634512249E+02 -0.54815304306E+02  0.99909917153E+02  0.41800000000E+01 0.  1.
         -5    1    4    4    0  501  0.23156738097E+02  0.44340768389E+02 -0.48655397245E+02  0.69908213693E+02  0.41800000000E+01 0.  1.
</event>
<event>
11    1  0.7105277E-009  0.1404880E+03  0.7561462E-02  0.1107015E+00
         22   -1    0    0    0    0  0.00000000000E+00  0.00000000000E+00  0.43248970609E+03  0.43248970609E+03  0.00000000000E+00 0. -1.
         22   -1    0    0    0    0 -0.00000000000E+00 -0.00000000000E+00 -0.87544282839E+03  0.87544282839E+03  0.00000000000E+00 0. -1.
        -24    2    1    2    0    0 -0.98745005801E+01 -0.10297649775E+02 -0.63843342400E+03  0.64344690605E+03  0.78886859989E+02 0.  0.
         25    2    1    2    0    0  0.11258791704E+02  0.73945430984E+02 -0.20475246230E+03  0.25132674783E+03  0.12508747420E+03 0.  0.
         24    2    1    2    0    0 -0.13842911236E+01 -0.63647781209E+02  0.40023276399E+03  0.41315888061E+03  0.80380588056E+02 0.  0.
        -11    1    5    5    0    0  0.18857663893E+02  0.69172716038E+01  0.17766451445E+03  0.17879636414E+03  0.00000000000E+00 0.  1.
         12    1    5    5    0    0 -0.20241955017E+02 -0.70565052812E+02  0.22256824954E+03  0.23436251647E+03  0.00000000000E+00 0. -1.
         13    1    3    3    0    0 -0.24619155934E+02  0.22630689908E+01 -0.59903150639E+03  0.59954146642E+03  0.00000000000E+00 0. -1.
        -14    1    3    3    0    0  0.14744655354E+02 -0.12560718766E+02 -0.39401917613E+02  0.43905439629E+02  0.00000000000E+00 0.  1.
          5    1    4    4  501    0 -0.28301374220E+02  0.62075968449E+02 -0.35426957146E+02  0.76986591912E+02  0.41800000000E+01 0.  1.
         -5    1    4    4    0  501  0.39560165924E+02  0.11869462535E+02 -0.16932550515E+03  0.17434015591E+03  0.41800000000E+01 0.  1.
</event>
<event>
11    1  0.7105277E-009  0.1446085E+03  0.7561462E-02  0.1102519E+00
         22   -1    0    0    0    0  0.00000000000E+00  0.00000000000E+00  0.22542260593E+04  0.22542260593E+04  0.00000000000E+00 0. -1.
         22   -1    0    0    0    0 -0.00000000000E+00 -0.00000000000E+00 -0.75554608959E+03  0.75554608959E+03  0.00000000000E+00 0.  1.
        -24    2    1    2    0    0  0.47693890725E+02  0.39498672859E+02 -0.63627324995E+03  0.64431467506E+03  0.80392160788E+02 0.  0.
         25    2    1    2    0    0 -0.62160577418E+02  0.31984932389E+02 -0.68644644219E+02  0.15888934547E+03  0.12508702426E+03 0.  0.
         24    2    1    2    0    0  0.14466686693E+02 -0.71483605247E+02  0.22035978639E+04  0.22065681284E+04  0.88205263772E+02 0.  0.
        -13    1    5    5    0    0 -0.22043316105E+02  0.97808202057E+01  0.61686922281E+03  0.61734043305E+03  0.00000000000E+00 0.  1.
         14    1    5    5    0    0  0.36510002798E+02 -0.81264425453E+02  0.15867286411E+04  0.15892276953E+04  0.00000000000E+00 0. -1.
         13    1    3    3    0    0 -0.15764331219E+02  0.28487608493E+02 -0.13252877353E+03  0.13646953429E+03  0.00000000000E+00 0. -1.
        -14    1    3    3    0    0  0.63458221944E+02  0.11011064365E+02 -0.50374447643E+03  0.50784514077E+03  0.00000000000E+00 0.  1.
          5    1    4    4  501    0  0.30487400080E+02 -0.20189625636E+02 -0.15333489750E+02  0.39870927439E+02  0.41800000000E+01 0. -1.
         -5    1    4    4    0  501 -0.92647977498E+02  0.52174558024E+02 -0.53311154468E+02  0.11901841803E+03  0.41800000000E+01 0. -1.
</event>
<event>
11    1  0.7105277E-009  0.1399507E+03  0.7561462E-02  0.1107613E+00
         22   -1    0    0    0    0  0.00000000000E+00  0.00000000000E+00  0.82845068149E+03  0.82845068149E+03  0.00000000000E+00 0.  1.
         22   -1    0    0    0    0 -0.00000000000E+00 -0.00000000000E+00 -0.23180740655E+04  0.23180740655E+04  0.00000000000E+00 0. -1.
         24    2    1    2    0    0  0.16039326046E+02 -0.28401463499E+02 -0.18417976525E+04  0.18438483135E+04  0.80586024835E+02 0.  0.
         25    2    1    2    0    0  0.27501740139E+02  0.73555637801E+02 -0.46043884289E+03  0.48354330420E+03  0.12507366402E+03 0.  0.
        -24    2    1    2    0    0 -0.43541066185E+02 -0.45154174301E+02  0.81261311135E+03  0.81913312930E+03  0.81879734226E+02 0.  0.
        -11    1    3    3    0    0 -0.13467118438E+02 -0.35629980739E+02 -0.41935977899E+03  0.42108607558E+03  0.00000000000E+00 0.  1.
         12    1    3    3    0    0  0.29506444484E+02  0.72285172391E+01 -0.14224378735E+04  0.14227622379E+04  0.00000000000E+00 0. -1.
         13    1    5    5    0    0  0.44669223231E+01 -0.30454494550E+02  0.97128242546E+02  0.10188878807E+03  0.00000000000E+00 0. -1.
        -14    1    5    5    0    0 -0.48007988508E+02 -0.14699679752E+02  0.71548486880E+03  0.71724434123E+03  0.00000000000E+00 0.  1.
          5    1    4    4  501    0 -0.47227293472E+02  0.43210757552E+02 -0.15848830875E+03  0.17097837064E+03  0.41800000000E+01 0. -1.
         -5    1    4    4    0  501  0.74729033611E+02  0.30344880249E+02 -0.30195053414E+03  0.31256493356E+03  0.41800000000E+01 0. -1.
</event>
<event>
11    1  0.7105277E-009  0.1815658E+03  0.7561462E-02  0.1068383E+00
         22   -1    0    0    0    0  0.00000000000E+00  0.00000000000E+00  0.13765029714E+04  0.13765029714E+04  0.00000000000E+00 0.  1.
         22   -1    0    0    0    0 -0.00000000000E+00 -0.00000000000E+00 -0.11471205431E+04  0.11471205431E+04  0.00000000000E+00 0.  1.
         24    2    1    2    0    0  0.48199576494E+02 -0.70648916706E+02 -0.10713479992E+04  0.10776705597E+04  0.79201208376E+02 0.  0.
         25    2    1    2    0    0 -0.11497966638E+03  0.17731330091E+03  0.15492496224E+03  0.29035897220E+03  0.12508500492E+03 0.  0.
        -24    2    1    2    0    0  0.66780089883E+02 -0.10666438420E+03  0.11458054652E+04  0.11555939826E+04  0.81794970389E+02 0.  0.
        -13    1    3    3    0    0  0.22617666845E+02 -0.27631438500E+02 -0.84936724664E+03  0.85011750653E+03  0.00000000000E+00 0.  1.
         14    1    3    3    0    0  0.25581909650E+02 -0.43017478206E+02 -0.22198075253E+03  0.22755305321E+03  0.00000000000E+00 0. -1.
         13    1    5    5    0    0  0.50266209664E+01  0.13692073840E+02  0.13198419601E+03  0.13278767940E+03  0.00000000000E+00 0. -1.
        -14    1    5    5    0    0  0.61753468917E+02 -0.12035645804E+03  0.10138212692E+04  0.10228063032E+04  0.00000000000E+00 0.  1.
          5    1    4    4  501    0 -0.60868804292E+02  0.11881018706E+03  0.22057828701E+02  0.13536946514E+03  0.41800000000E+01 0.  1.
         -5    1    4    4    0  501 -0.54110862085E+02  0.58503113843E+02  0.13286713354E+03  0.15498950706E+03  0.41800000000E+01 0.  1.
</event>
<event>
11    1  0.7105277E-009  0.1396252E+03  0.7561462E-02  0.1107978E+00
         22   -1    0    0    0    0  0.00000000000E+00  0.00000000000E+00  0.12945869942E+04  0.12945869942E+04  0.00000000000E+00 0.  1.
         22   -1    0    0    0    0 -0.00000000000E+00 -0.00000000000E+00 -0.35022842902E+03  0.35022842902E+03  0.00000000000E+00 0.  1.
        -24    2    1    2    0    0  0.42002290425E+01 -0.61404432950E+02 -0.24983359570E+03  0.27028815818E+03  0.82769055808E+02 0.  0.
         25    2    1    2    0    0 -0.51328749557E+02  0.58940999860E+02 -0.26862453020E+02  0.14992927723E+03  0.12509402381E+03 0.  0.
         24    2    1    2    0    0  0.47128520514E+02  0.24634330903E+01  0.12210546140E+04  0.12245979879E+04  0.80241483372E+02 0.  0.
        -13    1    5    5    0    0  0.17164637480E+02 -0.37295595327E+02  0.42146852467E+03  0.42346346182E+03  0.00000000000E+00 0.  1.
         14    1    5    5    0    0  0.29963883034E+02  0.39759028418E+02  0.79958608928E+03  0.80113452603E+03  0.00000000000E+00 0. -1.
         11    1    3    3    0    0 -0.32963904397E+02 -0.52309019919E+02 -0.12083199330E+03  0.13573217439E+03  0.00000000000E+00 0. -1.
        -12    1    3    3    0    0  0.37164133439E+02 -0.90954130309E+01 -0.12900160240E+03  0.13455598379E+03  0.00000000000E+00 0.  1.
          5    1    4    4  501    0  0.29368639436E+02 -0.17169199499E+02  0.45222917418E+01  0.34571981667E+02  0.41800000000E+01 0.  1.
         -5    1    4    4    0  501 -0.80697388993E+02  0.76110199359E+02 -0.31384744762E+02  0.11535729557E+03  0.41800000000E+01 0.  1.
</event>
<event>
11    1  0.7105277E-009  0.1385231E+03  0.7561462E-02  0.1109219E+00
         22   -1    0    0    0    0  0.00000000000E+00  0.00000000000E+00  0.10816801076E+04  0.10816801076E+04  0.00000000000E+00 0.  1.
         22   -1    0    0    0    0 -0.00000000000E+00 -0.00000000000E+00 -0.77112933819E+02  0.77112933819E+02  0.00000000000E+00 0.  1.
         24    2    1    2    0    0 -0.39986020070E+02  0.40061998856E+02 -0.10645913753E+02  0.99566484706E+02  0.81217632591E+02 0.  0.
         25    2    1    2    0    0  0.84445981886E+02 -0.24778905839E+02  0.28159574561E+03  0.32045201906E+03  0.12509282369E+03 0.  0.
        -24    2    1    2    0    0 -0.44459961816E+02 -0.15283093016E+02  0.73361734196E+03  0.73877453770E+03  0.73369966537E+02 0.  0.
        -13    1    3    3    0    0 -0.13323786713E+02  0.59980785379E+02  0.70967780417E+01  0.61851290735E+02  0.00000000000E+00 0.  1.
         14    1    3    3    0    0 -0.26662233357E+02 -0.19918786523E+02 -0.17742691794E+02  0.37715193971E+02  0.00000000000E+00 0. -1.
         11    1    5    5    0    0  0.29977889237E+01  0.14437225128E+02  0.35849562865E+02  0.38763531385E+02  0.00000000000E+00 0. -1.
        -12    1    5    5    0    0 -0.47457750740E+02 -0.29720318145E+02  0.69776777910E+03  0.70001100631E+03  0.00000000000E+00 0.  1.
          5    1    4    4  501    0  0.17233779313E+02  0.21424073150E+02  0.58808659445E+00  0.27817482014E+02  0.41800000000E+01 0. -1.
         -5    1    4    4    0  501  0.67212202574E+02 -0.46202978990E+02  0.28100765902E+03  0.29263453704E+03  0.41800000000E+01 0. -1.
</event>
<event>
11    1  0.7105277E-009  0.1355228E+03  0.7561462E-02  0.1112663E+00
         22   -1    0    0    0    0  0.00000000000E+00  0.00000000000E+00  0.57602607727E+03  0.57602607727E+03  0.00000000000E+00 0. -1.
         22   -1    0    0    0    0 -0.00000000000E+00 -0.00000000000E+00 -0.49922032314E+03  0.49922032314E+03  0.00000000000E+00 0.  1.
        -24    2    1    2    0    0  0.47963644665E+02  0.17545658619E+02 -0.42617889115E+03  0.43656650226E+03  0.79708859544E+02 0.  0.
         25    2    1    2    0    0 -0.74111980647E+02 -0.59150918180E+02  0.35018675550E+02  0.16083084506E+03  0.12509530882E+03 0.  0.
         24    2    1    2    0    0  0.26148335982E+02  0.41605259561E+02  0.46796596973E+03  0.47784905308E+03  0.83263651192E+02 0.  0.
        -13    1    5    5    0    0  0.61098246743E+00  0.90356347908E+01  0.10665583044E+01  0.91188564121E+01  0.00000000000E+00 0.  1.
         14    1    5    5    0    0  0.25537353514E+02  0.32569624770E+02  0.46689941142E+03  0.46873019667E+03  0.00000000000E+00 0. -1.
         11    1    3    3    0    0  0.27860918570E+02  0.46912016648E+02 -0.18848565298E+03  0.19622387589E+03  0.00000000000E+00 0. -1.
        -12    1    3    3    0    0  0.20102726095E+02 -0.29366358029E+02 -0.23769323817E+03  0.24034262637E+03  0.00000000000E+00 0.  1.
          5    1    4    4  501    0 -0.27966022934E+01 -0.46548717939E+02 -0.36193268546E+02  0.59177945337E+02  0.41800000000E+01 0.  1.
         -5    1    4    4    0  501 -0.71315378354E+02 -0.12602200240E+02  0.71211944097E+02  0.10165289973E+03  0.41800000000E+01 0.  1.
</event>
<event>
11    1  0.7105277E-009  0.1616080E+03  0.7561462E-02  0.1085575E+00
         22   -1    0    0    0    0  0.00000000000E+00  0.00000000000E+00  0.17190653758E+03  0.17190653758E+03  0.00000000000E+00 0.  1.
         22   -1    0    0    0    0 -0.00000000000E+00 -0.00000000000E+00 -0.68943725272E+03  0.68943725272E+03  0.00000000000E+00 0. -1.
         24    2    1    2    0    0 -0.10344302507E+02  0.35545729808E+02 -0.54802877091E+03  0.55538843415E+03  0.82160060517E+02 0.  0.
         25    2    1    2    0    0  0.88740335941E+02  0.37093749233E+02 -0.30945930346E+02  0.16078911138E+03  0.12507875231E+03 0.  0.
        -24    2    1    2    0    0 -0.78396033433E+02 -0.72639479041E+02  0.61443986121E+02  0.14516624477E+03  0.76651439748E+02 0.  0.
        -13    1    3    3    0    0 -0.12442126894E+02 -0.23323463831E+02 -0.26370332242E+03  0.26502496626E+03  0.00000000000E+00 0.  1.
         14    1    3    3    0    0  0.20978243865E+01  0.58869193640E+02 -0.28432544849E+03  0.29036346789E+03  0.00000000000E+00 0. -1.
         13    1    5    5    0    0  0.10241155906E+02 -0.32287950827E+02  0.11933122753E+02  0.35913680701E+02  0.00000000000E+00 0. -1.
        -14    1    5    5    0    0 -0.88637189339E+02 -0.40351528214E+02  0.49510863369E+02  0.10925256406E+03  0.00000000000E+00 0.  1.
          5    1    4    4  501    0  0.39491119425E+02 -0.95018698684E+01  0.43737254819E+02  0.59835222933E+02  0.41800000000E+01 0.  1.
         -5    1    4    4    0  501  0.49249216516E+02  0.46595619101E+02 -0.74683185165E+02  0.10095388845E+03  0.41800000000E+01 0.  1.
</event>
<event>
11    1  0.7105277E-009  0.2574542E+03  0.7561462E-02  0.1020002E+00
         22   -1    0    0    0    0  0.00000000000E+00  0.00000000000E+00  0.66584013289E+03  0.66584013289E+03  0.00000000000E+00 0.  1.
         22   -1    0    0    0    0 -0.00000000000E+00 -0.00000000000E+00 -0.15319777625E+04  0.15319777625E+04  0.00000000000E+00 0. -1.
         24    2    1    2    0    0 -0.51425932705E+02 -0.10011150040E+02 -0.12709384761E+04  0.12744924944E+04  0.79382988137E+02 0.  0.
         25    2    1    2    0    0  0.16340688940E+03  0.20144267471E+03 -0.14704196785E+03  0.32334252717E+03  0.12509231340E+03 0.  0.
        -24    2    1    2    0    0 -0.11198095669E+03 -0.19143152467E+03  0.55184281427E+03  0.59998287380E+03  0.79140343043E+02 0.  0.
        -13    1    3    3    0    0 -0.28826402254E+01  0.30434347434E+02 -0.52147411038E+03  0.52236941614E+03  0.00000000000E+00 0.  1.
         14    1    3    3    0    0 -0.48543292479E+02 -0.40445497474E+02 -0.74946436567E+03  0.75212307831E+03  0.00000000000E+00 0. -1.
         11    1    5    5    0    0 -0.20716858514E+02 -0.10974319815E+03  0.29491793922E+03  0.31535590789E+03  0.00000000000E+00 0. -1.
        -12    1    5    5    0    0 -0.91264098179E+02 -0.81688326514E+02  0.25692487504E+03  0.28462696591E+03  0.00000000000E+00 0.  1.
          5    1    4    4  501    0  0.17008517436E+03  0.20979596708E+03 -0.12320539148E+03  0.29688441392E+03  0.41800000000E+01 0.  1.
         -5    1    4    4    0  501 -0.66782849631E+01 -0.83532923734E+01 -0.23836576371E+02  0.26458113248E+02  0.41800000000E+01 0.  1.
</event>
<event>
11    1  0.7105277E-009  0.1416109E+03  0.7561462E-02  0.1105773E+00
         22   -1    0    0    0    0  0.00000000000E+00  0.00000000000E+00  0.17909722196E+03  0.17909722196E+03  0.00000000000E+00 0.  1.
         22   -1    0    0    0    0 -0.00000000000E+00 -0.00000000000E+00 -0.10330012900E+04  0.10330012900E+04  0.00000000000E+00 0.  1.
         24    2    1    2    0    0 -0.93586583299E+01  0.26007185748E+01 -0.80069507813E+03  0.80516380052E+03  0.84153367750E+02 0.  0.
         25    2    1    2    0    0 -0.33184632614E+02 -0.53936503535E+02 -0.18820007947E+03  0.23469173224E+03  0.12510225023E+03 0.  0.
        -24    2    1    2    0    0  0.42543290944E+02  0.51335784960E+02  0.13499108955E+03  0.17224297922E+03  0.83664539743E+02 0.  0.
        -13    1    3    3    0    0 -0.26405655126E+02 -0.30872523611E+02 -0.56851588459E+03  0.56996550980E+03  0.00000000000E+00 0.  1.
         14    1    3    3    0    0  0.17046996796E+02  0.33473242186E+02 -0.23217919354E+03  0.23519829072E+03  0.00000000000E+00 0. -1.
         11    1    5    5    0    0  0.56975430671E+02  0.25740952949E+02  0.43540269452E+02  0.76187606753E+02  0.00000000000E+00 0. -1.
        -12    1    5    5    0    0 -0.14432139727E+02  0.25594832011E+02  0.91450820098E+02  0.96055372465E+02  0.00000000000E+00 0.  1.
          5    1    4    4  501    0 -0.17978036146E+02 -0.58386477617E+00  0.15138939062E+02  0.23879082011E+02  0.41800000000E+01 0. -1.
         -5    1    4    4    0  501 -0.15206596468E+02 -0.53352638758E+02 -0.20333901853E+03  0.21081265023E+03  0.41800000000E+01 0. -1.
</event>
<event>
11    1  0.7105277E-009  0.1512543E+03  0.7561462E-02  0.1095604E+00
         22   -1    0    0    0    0  0.00000000000E+00  0.00000000000E+00  0.62413170534E+03  0.62413170534E+03  0.00000000000E+00 0.  1.
         22   -1    0    0    0    0 -0.00000000000E+00 -0.00000000000E+00 -0.52750174110E+03  0.52750174110E+03  0.00000000000E+00 0. -1.
        -24    2    1    2    0    0 -0.67834210745E+02  0.50928669272E+02 -0.47182762436E+03  0.48642190198E+03  0.82399940040E+02 0.  0.
         25    2    1    2    0    0  0.58469817484E+02 -0.69749631855E+02  0.89097835363E+02  0.17852224487E+03  0.12509211385E+03 0.  0.
         24    2    1    2    0    0  0.93643932612E+01  0.18820962583E+02  0.47935975324E+03  0.48668929958E+03  0.81478713790E+02 0.  0.
        -13    1    5    5    0    0  0.29414711513E+02  0.21761901383E+02  0.44708611938E+03  0.44858087760E+03  0.00000000000E+00 0.  1.
         14    1    5    5    0    0 -0.20050318252E+02 -0.29409388008E+01  0.32273633863E+02  0.38108421980E+02  0.00000000000E+00 0. -1.
         11    1    3    3    0    0 -0.34232080271E+02  0.65815594326E+02 -0.22606056028E+03  0.23792205591E+03  0.00000000000E+00 0. -1.
        -12    1    3    3    0    0 -0.33602130474E+02 -0.14886925054E+02 -0.24576706409E+03  0.24849984607E+03  0.00000000000E+00 0.  1.
          5    1    4    4  501    0  0.52601907107E+02  0.10682210214E+02  0.81140579969E+02  0.97377288749E+02  0.41800000000E+01 0.  1.
         -5    1    4    4    0  501  0.58679103768E+01 -0.80431842069E+02  0.79572553940E+01  0.81144956123E+02  0.41800000000E+01 0.  1.
</event>
<event>
11    1  0.7105277E-009  0.1542137E+03  0.7561462E-02  0.1092649E+00
         22   -1    0    0    0    0  0.00000000000E+00  0.00000000000E+00  0.76654227762E+03  0.76654227762E+03  0.00000000000E+00 0. -1.
         22   -1    0    0    0    0 -0.00000000000E+00 -0.00000000000E+00 -0.42581092601E+03  0.42581092601E+03  0.00000000000E+00 0.  1.
        -24    2    1    2    0    0 -0.32658087745E+02  0.58691572177E+02 -0.31790652733E+03  0.33432646729E+03  0.78729761015E+02 0.  0.
         25    2    1    2    0    0  0.10690263401E+03 -0.69565086340E+01 -0.22084311107E+02  0.16616749584E+03  0.12508938286E+03 0.  0.
         24    2    1    2    0    0 -0.74244546268E+02 -0.51735063543E+02  0.68072219006E+03  0.69185924051E+03  0.84248081208E+02 0.  0.
        -11    1    5    5    0    0 -0.61073438382E+02 -0.88141885137E+01  0.20665667198E+03  0.21567251765E+03  0.00000000000E+00 0.  1.
         12    1    5    5    0    0 -0.13171107886E+02 -0.42920875029E+02  0.47406551808E+03  0.47618672286E+03  0.00000000000E+00 0. -1.
         13    1    3    3    0    0 -0.55566507764E+01  0.30168044265E+02 -0.27287134501E+02  0.41055754431E+02  0.00000000000E+00 0. -1.
        -14    1    3    3    0    0 -0.27101436969E+02  0.28523527912E+02 -0.29061939283E+03  0.29327071286E+03  0.00000000000E+00 0.  1.
          5    1    4    4  501    0  0.40917183955E+02  0.42325778470E+02 -0.51786510502E+02  0.78517530118E+02  0.41800000000E+01 0. -1.
         -5    1    4    4    0  501  0.65985450058E+02 -0.49282287104E+02  0.29702199395E+02  0.87649965719E+02  0.41800000000E+01 0. -1.
</event>
<event>
11    1  0.7105277E-009  0.1344085E+03  0.7561462E-02  0.1113968E+00
         22   -1    0    0    0    0  0.00000000000E+00  0.00000000000E+00  0.21136768115E+04  0.21136768115E+04  0.00000000000E+00 0. -1.
         22   -1    0    0    0    0 -0.00000000000E+00 -0.00000000000E+00 -0.74623567127E+02  0.74623567127E+02  0.00000000000E+00 0.  1.
         24    2    1    2    0    0  0.25360274054E+02 -0.74263093546E+01 -0.22111459746E+02  0.87798924276E+02  0.80755438710E+02 0.  0.
         25    2    1    2    0    0 -0.24796588278E-01  0.50018612127E+02  0.22736143247E+03  0.26427686569E+03  0.12508868290E+03 0.  0.
        -24    2    1    2    0    0 -0.25335477466E+02 -0.42592302773E+02  0.18338032716E+04  0.18362245886E+04  0.80189215173E+02 0.  0.
        -13    1    3    3    0    0  0.83086738165E-01  0.34351850257E+02 -0.18037155671E+02  0.38799426596E+02  0.00000000000E+00 0.  1.
         14    1    3    3    0    0  0.25277187316E+02 -0.41778159612E+02 -0.40743040752E+01  0.48999497680E+02  0.00000000000E+00 0. -1.
         13    1    5    5    0    0 -0.99147050071E+01 -0.65674213713E+02  0.13290576469E+04  0.13307162104E+04  0.00000000000E+00 0. -1.
        -14    1    5    5    0    0 -0.15420772459E+02  0.23081910941E+02  0.50474562473E+03  0.50550837829E+03  0.00000000000E+00 0.  1.
          5    1    4    4  501    0 -0.43662763138E+02  0.63616678658E+02  0.18994081780E+03  0.20505732212E+03  0.41800000000E+01 0.  1.
         -5    1    4    4    0  501  0.43637966549E+02 -0.13598066531E+02  0.37420614666E+02  0.59219543564E+02  0.41800000000E+01 0.  1.
</event>
<event>
11    1  0.7105277E-009  0.1819763E+03  0.7561462E-02  0.1068055E+00
         22   -1    0    0    0    0  0.00000000000E+00  0.00000000000E+00  0.88822798303E+03  0.88822798303E+03  0.00000000000E+00 0.  1.
         22   -1    0    0    0    0 -0.00000000000E+00 -0.00000000000E+00 -0.13568232921E+04  0.13568232921E+04  0.00000000000E+00 0.  1.
        -24    2    1    2    0    0 -0.25510016780E+02  0.34760894315E+02 -0.12163682036E+04  0.12196423454E+04  0.78209739904E+02 0.  0.
         25    2    1    2    0    0 -0.14461620839E+02  0.93462029776E+02 -0.84790557060E+02  0.17826996777E+03  0.12508578398E+03 0.  0.
         24    2    1    2    0    0  0.39971637619E+02 -0.12822292409E+03  0.83256345150E+03  0.84713896198E+03  0.80272473757E+02 0.  0.
        -13    1    5    5    0    0  0.57316900907E+02 -0.96395166393E+02  0.72523616160E+03  0.73385607944E+03  0.00000000000E+00 0.  1.
         14    1    5    5    0    0 -0.17345263287E+02 -0.31827757698E+02  0.10732728990E+03  0.11328288254E+03  0.00000000000E+00 0. -1.
         11    1    3    3    0    0 -0.45643430024E+02  0.29948137843E+02 -0.49932168909E+03  0.50229708625E+03  0.00000000000E+00 0. -1.
        -12    1    3    3    0    0  0.20133413244E+02  0.48127564716E+01 -0.71704651447E+03  0.71734525918E+03  0.00000000000E+00 0.  1.
          5    1    4    4  501    0  0.23483769592E+02  0.22658372784E+02 -0.91808409554E+02  0.97525103211E+02  0.41800000000E+01 0.  1.
         -5    1    4    4    0  501 -0.37945390431E+02  0.70803656992E+02  0.70178524943E+01  0.80744864555E+02  0.41800000000E+01 0.  1.
</event>
<event>
11    1  0.7105277E-009  0.1420065E+03  0.7561462E-02  0.1105338E+00
         22   -1    0    0    0    0  0.00000000000E+00  0.00000000000E+00  0.19424683360E+03  0.19424683360E+03  0.00000000000E+00 0.  1.
         22   -1    0    0    0    0 -0.00000000000E+00 -0.00000000000E+00 -0.99470436102E+03  0.99470436102E+03  0.00000000000E+00 0.  1.
        -24    2    1    2    0    0  0.16841676290E+02 -0.66341637479E+02 -0.70207687068E+03  0.71001695522E+03  0.80791642125E+02 0.  0.
         25    2    1    2    0    0  0.39970974942E+02  0.69177243144E+02 -0.25437988211E+03  0.29451475111E+03  0.12508654762E+03 0.  0.
         24    2    1    2    0    0 -0.56812651232E+02 -0.28356056654E+01  0.15599922537E+03  0.18441948829E+03  0.80243824350E+02 0.  0.
        -13    1    5    5    0    0 -0.55229286324E+02 -0.26766026434E+02  0.14611233940E+03  0.15847873663E+03  0.00000000000E+00 0.  1.
         14    1    5    5    0    0 -0.15833649078E+01  0.23930420768E+02  0.98868859696E+01  0.25940751661E+02  0.00000000000E+00 0. -1.
         13    1    3    3    0    0  0.36327373818E+02 -0.23908454171E+01 -0.17732271172E+03  0.18102137532E+03  0.00000000000E+00 0. -1.
        -14    1    3    3    0    0 -0.19485697529E+02 -0.63950792062E+02 -0.52475415895E+03  0.52899557990E+03  0.00000000000E+00 0.  1.
          5    1    4    4  501    0 -0.62674387792E+01 -0.16301465217E+02  0.40284901468E+01  0.18404338889E+02  0.41800000000E+01 0.  1.
         -5    1    4    4    0  501  0.46238413722E+02  0.85478708361E+02 -0.25840837226E+03  0.27611041223E+03  0.41800000000E+01 0.  1.
</event>
<event>
11    1  0.7105277E-009  0.1499057E+03  0.7561462E-02  0.1096975E+00
         22   -1    0    0    0    0  0.00000000000E+00  0.00000000000E+00  0.12884358916E+03  0.12884358916E+03  0.00000000000E+00 0. -1.
         22   -1    0    0    0    0 -0.00000000000E+00 -0.00000000000E+00 -0.64359636256E+03  0.64359636256E+03  0.00000000000E+00 0. -1.
         24    2    1    2    0    0 -0.68966676441E+02  0.15802351323E+02 -0.26984219378E+03  0.28957077335E+03  0.77655047937E+02 0.  0.
         25    2    1    2    0    0  0.14381776017E+03 -0.29066754885E+02 -0.30176458724E+03  0.35810228211E+03  0.12508778503E+03 0.  0.
        -24    2    1    2    0    0 -0.74851083731E+02  0.13264403562E+02  0.56854007620E+02  0.12476689625E+03  0.80967716274E+02 0.  0.
        -13    1    3    3    0    0 -0.51606124890E+02 -0.76820390966E+01 -0.24712057958E+03  0.25256838025E+03  0.00000000000E+00 0.  1.
         14    1    3    3    0    0 -0.17360551551E+02  0.23484390420E+02 -0.22721614204E+02  0.37002393106E+02  0.00000000000E+00 0. -1.
         11    1    5    5    0    0 -0.55358948781E+01  0.35932934761E+02  0.29707219630E+02  0.46950408207E+02  0.00000000000E+00 0. -1.
        -12    1    5    5    0    0 -0.69315188853E+02 -0.22668531199E+02  0.27146787990E+02  0.77816488039E+02  0.00000000000E+00 0.  1.
          5    1    4    4  501    0  0.11489839627E+03  0.33249881236E+02 -0.22605137714E+03  0.25578094842E+03  0.41800000000E+01 0. -1.
         -5    1    4    4    0  501  0.28919363904E+02 -0.62316636121E+02 -0.75713210096E+02  0.10232133369E+03  0.41800000000E+01 0. -1.
</event>
<event>
11    1  0.7105277E-009  0.1567800E+03  0.7561462E-02  0.1090146E+00
         22   -1    0    0    0    0  0.00000000000E+00  0.00000000000E+00  0.22446107625E+02  0.22446107625E+02  0.00000000000E+00 0.  1.
         22   -1    0    0    0    0 -0.00000000000E+00 -0.00000000000E+00 -0.27368562496E+04  0.27368562496E+04  0.00000000000E+00 0.  1.
         24    2    1    2    0    0 -0.48365550677E+02 -0.78443526198E+02 -0.11106665313E+04  0.11175162806E+04  0.82279283509E+02 0.  0.
         25    2    1    2    0    0  0.82834679444E+02  0.59414791438E+02 -0.14851136105E+04  0.14938503172E+04  0.12503852363E+03 0.  0.
        -24    2    1    2    0    0 -0.34469128768E+02  0.19028734760E+02 -0.11863000011E+03  0.14793575935E+03  0.79130893996E+02 0.  0.
        -11    1    3    3    0    0 -0.89873175817E+01 -0.83363114410E+02 -0.76077386868E+03  0.76538033682E+03  0.00000000000E+00 0.  1.
         12    1    3    3    0    0 -0.39378233095E+02  0.49195882122E+01 -0.34989266259E+03  0.35213594381E+03  0.00000000000E+00 0. -1.
         11    1    5    5    0    0 -0.59757507581E+01  0.47480236060E+01 -0.11567582501E+03  0.11592734715E+03  0.00000000000E+00 0. -1.
        -12    1    5    5    0    0 -0.28493378009E+02  0.14280711154E+02 -0.29541751035E+01  0.32008412207E+02  0.00000000000E+00 0.  1.
          5    1    4    4  501    0 -0.11168583415E+02  0.35024107881E+02 -0.12746175027E+03  0.13272300317E+03  0.41800000000E+01 0.  1.
         -5    1    4    4    0  501  0.94003262860E+02  0.24390683557E+02 -0.13576518603E+04  0.13611273140E+04  0.41800000000E+01 0.  1.
</event>
<event>
11    1  0.7105277E-009  0.2158193E+03  0.7561462E-02  0.1043868E+00
         22   -1    0    0    0    0  0.00000000000E+00  0.00000000000E+00  0.31502846123E+03  0.31502846123E+03  0.00000000000E+00 0. -1.
         22   -1    0    0    0    0 -0.00000000000E+00 -0.00000000000E+00 -0.17535998378E+04  0.17535998378E+04  0.00000000000E+00 0.  1.
        -24    2    1    2    0    0  0.14446012062E+03 -0.97980627005E+02 -0.15704571235E+04  0.15821874635E+04  0.80701072699E+02 0.  0.
         25    2    1    2    0    0 -0.22334679809E+03  0.23662396157E+02 -0.48436755413E+02  0.26160606799E+03  0.12509162371E+03 0.  0.
         24    2    1    2    0    0  0.78886677472E+02  0.74318230848E+02  0.18032250241E+03  0.22483476750E+03  0.79297922302E+02 0.  0.
        -11    1    5    5    0    0  0.25274090850E+02 -0.19332893620E+01  0.43768182355E+01  0.25723021088E+02  0.00000000000E+00 0.  1.
         12    1    5    5    0    0  0.53612586622E+02  0.76251520210E+02  0.17594568417E+03  0.19911174641E+03  0.00000000000E+00 0. -1.
         11    1    3    3    0    0  0.10535261749E+01 -0.28936062452E+02 -0.14430052612E+03  0.14717692573E+03  0.00000000000E+00 0. -1.
        -12    1    3    3    0    0  0.14340659445E+03 -0.69044564552E+02 -0.14261565974E+04  0.14350105378E+04  0.00000000000E+00 0.  1.
          5    1    4    4  501    0 -0.16562101291E+03 -0.29866760527E+02 -0.66030139095E+02  0.18083084629E+03  0.41800000000E+01 0. -1.
         -5    1    4    4    0  501 -0.57725785179E+02  0.53529156684E+02  0.17593383681E+02  0.80775221691E+02  0.41800000000E+01 0. -1.
</event>
<event>
11    1  0.7105277E-009  0.2202500E+03  0.7561462E-02  0.1041061E+00
         22   -1    0    0    0    0  0.00000000000E+00  0.00000000000E+00  0.47343240199E+03  0.47343240199E+03  0.00000000000E+00 0. -1.
         22   -1    0    0    0    0 -0.00000000000E+00 -0.00000000000E+00 -0.49201166375E+03  0.49201166375E+03  0.00000000000E+00 0.  1.
         24    2    1    2    0    0 -0.31973290909E+02  0.11482281489E+01 -0.38840962091E+03  0.39856470909E+03  0.83475648852E+02 0.  0.
         25    2    1    2    0    0  0.33541330602E+02 -0.18149982392E+03  0.13875276058E+03  0.26261793886E+03  0.12509454943E+03 0.  0.
        -24    2    1    2    0    0 -0.15680396930E+01  0.18035159578E+03  0.23107759858E+03  0.30426141780E+03  0.81541381823E+02 0.  0.
        -11    1    3    3    0    0 -0.87772218006E+01  0.41365588079E+02 -0.20983857842E+03  0.21405695619E+03  0.00000000000E+00 0.  1.
         12    1    3    3    0    0 -0.23196069109E+02 -0.40217359930E+02 -0.17857104250E+03  0.18450775290E+03  0.00000000000E+00 0. -1.
         11    1    5    5    0    0  0.37654977666E+02  0.11690503216E+03  0.15433867066E+03  0.19724378101E+03  0.00000000000E+00 0. -1.
        -12    1    5    5    0    0 -0.39223017359E+02  0.63446563613E+02  0.76738927917E+02  0.10701763678E+03  0.00000000000E+00 0.  1.
          5    1    4    4  501    0 -0.28633579327E+02 -0.97568226523E+02  0.18772193189E+02  0.10348578805E+03  0.41800000000E+01 0.  1.
         -5    1    4    4    0  501  0.62174909929E+02 -0.83931597401E+02  0.11998056739E+03  0.15913215080E+03  0.41800000000E+01 0.  1.
</event>
<event>
11    1  0.7105277E-009  0.1272879E+03  0.7561462E-02  0.1122647E+00
         22   -1    0    0    0    0  0.00000000000E+00  0.00000000000E+00  0.74406616318E+03  0.74406616318E+03  0.00000000000E+00 0.  1.
         22   -1    0    0    0    0 -0.00000000000E+00 -0.00000000000E+00 -0.32540260254E+03  0.32540260254E+03  0.00000000000E+00 0.  1.
        -24    2    1    2    0    0  0.20591278020E+02  0.10030856790E+02 -0.26742706669E+03  0.28027775440E+03  0.80707897965E+02 0.  0.
         25    2    1    2    0    0 -0.17508765319E+02 -0.29379214337E+02  0.36949164121E+02  0.13487951397E+03  0.12513012212E+03 0.  0.
         24    2    1    2    0    0 -0.30825127014E+01  0.19348357547E+02  0.64914146321E+03  0.65431149735E+03  0.79718476419E+02 0.  0.
        -13    1    5    5    0    0 -0.24751462221E+02 -0.10392089687E+02  0.49918392383E+03  0.49990521123E+03  0.00000000000E+00 0.  1.
         14    1    5    5    0    0  0.21668949519E+02  0.29740447235E+02  0.14995753938E+03  0.15440628611E+03  0.00000000000E+00 0. -1.
         11    1    3    3    0    0  0.44881761862E+02 -0.99201453078E+01 -0.10182612534E+03  0.11171992496E+03  0.00000000000E+00 0. -1.
        -12    1    3    3    0    0 -0.24290483841E+02  0.19951002098E+02 -0.16560094135E+03  0.16855782944E+03  0.00000000000E+00 0.  1.
          5    1    4    4  501    0  0.52870094117E+02 -0.13398080333E+02  0.29650890910E+02  0.62220600610E+02  0.41800000000E+01 0.  1.
         -5    1    4    4    0  501 -0.70378859436E+02 -0.15981134004E+02  0.72982732116E+01  0.72658913365E+02  0.41800000000E+01 0.  1.
</event>
<event>
11    1  0.7105277E-009  0.1500093E+03  0.7561462E-02  0.1096869E+00
         22   -1    0    0    0    0  0.00000000000E+00  0.00000000000E+00  0.82636090577E+03  0.82636090577E+03  0.00000000000E+00 0. -1.
         22   -1    0    0    0    0 -0.00000000000E+00 -0.00000000000E+00 -0.86452928537E+03  0.86452928537E+03  0.00000000000E+00 0.  1.
         24    2    1    2    0    0  0.22357265667E+02  0.82823847728E+02 -0.75681886552E+03  0.76755042060E+03  0.94864196990E+02 0.  0.
         25    2    1    2    0    0  0.68966512691E+02 -0.64521912150E+02 -0.34303598109E+02  0.16044898607E+03  0.12509070017E+03 0.  0.
        -24    2    1    2    0    0 -0.91323778357E+02 -0.18301935578E+02  0.75295408403E+03  0.76289078448E+03  0.79921855895E+02 0.  0.
        -11    1    3    3    0    0  0.29653903027E+02  0.68987100134E+02 -0.74267487637E+03  0.74646134926E+03  0.00000000000E+00 0.  1.
         12    1    3    3    0    0 -0.72966373599E+01  0.13836747594E+02 -0.14143989151E+02  0.21089071337E+02  0.00000000000E+00 0. -1.
         11    1    5    5    0    0 -0.45763586149E+02 -0.22061085057E+02  0.62415911773E+03  0.62622328409E+03  0.00000000000E+00 0. -1.
        -12    1    5    5    0    0 -0.45560192208E+02  0.37591494786E+01  0.12879496629E+03  0.13666750038E+03  0.00000000000E+00 0.  1.
          5    1    4    4  501    0  0.97244617933E+02 -0.16401897883E+02 -0.92874889214E+01  0.99142663982E+02  0.41800000000E+01 0. -1.
         -5    1    4    4    0  501 -0.28278105242E+02 -0.48120014267E+02 -0.25016109188E+02  0.61306322089E+02  0.41800000000E+01 0. -1.
</event>
<event>
11    1  0.7105277E-009  0.1540569E+03  0.7561462E-02  0.1092804E+00
         22   -1    0    0    0    0  0.00000000000E+00  0.00000000000E+00  0.28533700996E+04  0.28533700996E+04  0.00000000000E+00 0. -1.
         22   -1    0    0    0    0 -0.00000000000E+00 -0.00000000000E+00 -0.48985357729E+03  0.48985357729E+03  0.00000000000E+00 0. -1.
        -24    2    1    2    0    0  0.37064680106E+02 -0.80567754650E+02 -0.44411716268E+03  0.45984148390E+03  0.79681757835E+02 0.  0.
         25    2    1    2    0    0 -0.61028696315E+02  0.10695480718E+03  0.17162792515E+03  0.24549518637E+03  0.12509160358E+03 0.  0.
         24    2    1    2    0    0  0.23964016209E+02 -0.26387052529E+02  0.26360057599E+04  0.26378870066E+04  0.93010446641E+02 0.  0.
        -13    1    5    5    0    0  0.15692375820E+02 -0.61526101016E+02  0.16612443816E+04  0.16624574001E+04  0.00000000000E+00 0.  1.
         14    1    5    5    0    0  0.82716403889E+01  0.35139048487E+02  0.97476137830E+03  0.97542960658E+03  0.00000000000E+00 0. -1.
         11    1    3    3    0    0  0.29702270202E+02 -0.74758098438E+02 -0.20037963787E+03  0.21592359160E+03  0.00000000000E+00 0. -1.
        -12    1    3    3    0    0  0.73624099036E+01 -0.58096562120E+01 -0.24373752481E+03  0.24391789230E+03  0.00000000000E+00 0.  1.
          5    1    4    4  501    0  0.19417610064E+02  0.62260034494E+02  0.12766483307E+03  0.14341944595E+03  0.41800000000E+01 0.  1.
         -5    1    4    4    0  501 -0.80446306380E+02  0.44694772685E+02  0.43963092078E+02  0.10207574041E+03  0.41800000000E+01 0.  1.
</event>
<event>
11    1  0.7105277E-009  0.2118488E+03  0.7561462E-02  0.1046447E+00
         22   -1    0    0    0    0  0.00000000000E+00  0.00000000000E+00  0.94588466591E+03  0.94588466591E+03  0.00000000000E+00 0.  1.
         22   -1    0    0    0    0 -0.00000000000E+00 -0.00000000000E+00 -0.55874955005E+03  0.55874955005E+03  0.00000000000E+00 0.  1.
        -24    2    1    2    0    0 -0.10115493781E+02  0.83796603579E+02 -0.49630509280E+03  0.50972020887E+03  0.79823256021E+02 0.  0.
         25    2    1    2    0    0 -0.46895666238E+02 -0.22429553711E+03  0.37042110562E+03  0.45317404359E+03  0.12508887565E+03 0.  0.
         24    2    1    2    0    0  0.57011160019E+02  0.14049893353E+03  0.51301910304E+03  0.54173996351E+03  0.85459729044E+02 0.  0.
        -11    1    5    5    0    0  0.26413784451E+02  0.68680704370E+02  0.38364560827E+03  0.39063881004E+03  0.00000000000E+00 0.  1.
         12    1    5    5    0    0  0.30597375568E+02  0.71818229164E+02  0.12937349477E+03  0.15110115347E+03  0.00000000000E+00 0. -1.
         11    1    3    3    0    0  0.28477572243E+02  0.48691288694E+02 -0.16604090519E+03  0.17536075933E+03  0.00000000000E+00 0. -1.
        -12    1    3    3    0    0 -0.38593066025E+02  0.35105314886E+02 -0.33026418761E+03  0.33435944954E+03  0.00000000000E+00 0.  1.
          5    1    4    4  501    0 -0.81975139167E+02 -0.19499851125E+03  0.33010728021E+03  0.39208753063E+03  0.41800000000E+01 0. -1.
         -5    1    4    4    0  501  0.35079472929E+02 -0.29297025867E+02  0.40313825409E+02  0.61086512953E+02  0.41800000000E+01 0. -1.
</event>
<event>
11    1  0.7105277E-009  0.3789697E+03  0.7561462E-02  0.9713931E-01
         22   -1    0    0    0    0  0.00000000000E+00  0.00000000000E+00  0.82942916742E+03  0.82942916742E+03  0.00000000000E+00 0. -1.
         22   -1    0    0    0    0 -0.00000000000E+00 -0.00000000000E+00 -0.77833658590E+03  0.77833658590E+03  0.00000000000E+00 0. -1.
        -24    2    1    2    0    0  0.22289336842E+03 -0.30284026313E+03 -0.58928583912E+03  0.70361692726E+03  0.80157978288E+02 0.  0.
         25    2    1    2    0    0 -0.24840267319E+03  0.16996866554E+03  0.10077487710E+03  0.34117886693E+03  0.12511677773E+03 0.  0.
         24    2    1    2    0    0  0.25509304770E+02  0.13287159759E+03  0.53960354354E+03  0.56296995913E+03  0.86357423594E+02 0.  0.
        -11    1    5    5    0    0  0.10923900384E+01 -0.52811211741E+01 -0.34920702307E-01  0.53930303454E+01  0.00000000000E+00 0.  1.
         12    1    5    5    0    0  0.24416914732E+02  0.13815271876E+03  0.53963846424E+03  0.55757692879E+03  0.00000000000E+00 0. -1.
         11    1    3    3    0    0  0.18514067434E+03 -0.25254859629E+03 -0.53788761434E+03  0.62239934804E+03  0.00000000000E+00 0. -1.
        -12    1    3    3    0    0  0.37752694079E+02 -0.50291666842E+02 -0.51398224785E+02  0.81217579224E+02  0.00000000000E+00 0.  1.
          5    1    4    4  501    0 -0.18908814483E+03  0.78102632310E+02  0.20884754896E+02  0.20568906893E+03  0.41800000000E+01 0.  1.
         -5    1    4    4    0  501 -0.59314528361E+02  0.91866033229E+02  0.79890122204E+02  0.13548979800E+03  0.41800000000E+01 0.  1.
</event>
<event>
11    1  0.7105277E-009  0.1705757E+03  0.7561462E-02  0.1077532E+00
         22   -1    0    0    0    0  0.00000000000E+00  0.00000000000E+00  0.93916054389E+03  0.93916054389E+03  0.00000000000E+00 0.  1.
         22   -1    0    0    0    0 -0.00000000000E+00 -0.00000000000E+00 -0.34382586022E+03  0.34382586022E+03  0.00000000000E+00 0. -1.
        -24    2    1    2    0    0  0.10975665659E+03  0.46304993069E+02 -0.28441662855E+03  0.32228064553E+03  0.93708696700E+02 0.  0.
         25    2    1    2    0    0 -0.93892985824E+02 -0.53230713734E+01  0.12327960958E+03  0.19922553667E+03  0.12509486180E+03 0.  0.
         24    2    1    2    0    0 -0.15863670763E+02 -0.40981921695E+02  0.75647170265E+03  0.76148022190E+03  0.75309478034E+02 0.  0.
        -13    1    5    5    0    0 -0.11370345690E+02 -0.60508657667E+02  0.66477047208E+03  0.66761543044E+03  0.00000000000E+00 0.  1.
         14    1    5    5    0    0 -0.44933250732E+01  0.19526735972E+02  0.91701230573E+02  0.93864791464E+02  0.00000000000E+00 0. -1.
         11    1    3    3    0    0  0.11201850062E+03  0.66200288112E+02 -0.22938977448E+03  0.26372389209E+03  0.00000000000E+00 0. -1.
        -12    1    3    3    0    0 -0.22618440318E+01 -0.19895295044E+02 -0.55026854078E+02  0.58556753436E+02  0.00000000000E+00 0.  1.
          5    1    4    4  501    0 -0.49780444663E+02  0.49164191797E+02  0.10570241402E+03  0.12682934659E+03  0.41800000000E+01 0.  1.
         -5    1    4    4    0  501 -0.44112541161E+02 -0.54487263170E+02  0.17577195555E+02  0.72396190087E+02  0.41800000000E+01 0.  1.
</event>
<event>
11    1  0.7105277E-009  0.1564351E+03  0.7561462E-02  0.1090479E+00
         22   -1    0    0    0    0  0.00000000000E+00  0.00000000000E+00  0.77164795742E+02  0.77164795742E+02  0.00000000000E+00 0. -1.
         22   -1    0    0    0    0 -0.00000000000E+00 -0.00000000000E+00 -0.16063060116E+04  0.16063060116E+04  0.00000000000E+00 0. -1.
         24    2    1    2    0    0  0.68756260279E+01 -0.28354776838E+02 -0.10180345323E+04  0.10219485067E+04  0.84458118154E+02 0.  0.
         25    2    1    2    0    0 -0.66844383031E+02  0.97167770443E+02 -0.51261198450E+03  0.54067676897E+03  0.12510225696E+03 0.  0.
        -24    2    1    2    0    0  0.59968757003E+02 -0.68812993605E+02  0.15053009851E+01  0.12084553166E+03  0.79182679204E+02 0.  0.
        -13    1    3    3    0    0  0.91883323358E+01 -0.90194385216E+01 -0.20396127755E+02  0.24120069439E+02  0.00000000000E+00 0.  1.
         14    1    3    3    0    0 -0.23127063079E+01 -0.19335338317E+02 -0.99763840456E+03  0.99782843724E+03  0.00000000000E+00 0. -1.
         11    1    5    5    0    0  0.62821058036E+02 -0.83702054883E+02  0.65746489122E+01  0.10486059953E+03  0.00000000000E+00 0. -1.
        -12    1    5    5    0    0 -0.28523010336E+01  0.14889061279E+02 -0.50693479271E+01  0.15984932135E+02  0.00000000000E+00 0.  1.
          5    1    4    4  501    0 -0.97147552962E+02  0.55096909645E+02 -0.41828073216E+03  0.43295445464E+03  0.41800000000E+01 0.  1.
         -5    1    4    4    0  501  0.30303169931E+02  0.42070860798E+02 -0.94331252338E+02  0.10772231433E+03  0.41800000000E+01 0.  1.
</event>
<event>
11    1  0.7105277E-009  0.2079676E+03  0.7561462E-02  0.1049028E+00
         22   -1    0    0    0    0  0.00000000000E+00  0.00000000000E+00  0.46479657004E+03  0.46479657004E+03  0.00000000000E+00 0.  1.
         22   -1    0    0    0    0 -0.00000000000E+00 -0.00000000000E+00 -0.85482102886E+03  0.85482102886E+03  0.00000000000E+00 0. -1.
        -24    2    1    2    0    0  0.66829987707E+02 -0.15096945197E+03 -0.76064230723E+03  0.78239045984E+03  0.79373102639E+02 0.  0.
         25    2    1    2    0    0 -0.44765364209E+02  0.17877921091E+03  0.87586368171E+02  0.23934309921E+03  0.12509117940E+03 0.  0.
         24    2    1    2    0    0 -0.22064623497E+02 -0.27809758940E+02  0.28303148024E+03  0.29788403985E+03  0.85836193329E+02 0.  0.
        -13    1    5    5    0    0  0.18738117602E+01 -0.50257252541E+02  0.10000534493E+03  0.11193914248E+03  0.00000000000E+00 0.  1.
         14    1    5    5    0    0 -0.23938435258E+02  0.22447493601E+02  0.18302613531E+03  0.18594489737E+03  0.00000000000E+00 0. -1.
         11    1    3    3    0    0  0.62240348445E+02 -0.13199056757E+03 -0.73887886971E+03  0.75315161489E+03  0.00000000000E+00 0. -1.
        -12    1    3    3    0    0  0.45896392619E+01 -0.18978884403E+02 -0.21763437512E+02  0.29238844951E+02  0.00000000000E+00 0.  1.
          5    1    4    4  501    0 -0.82986770905E+02  0.13311182569E+03  0.87460032555E+02  0.17964490524E+03  0.41800000000E+01 0. -1.
         -5    1    4    4    0  501  0.38221406696E+02  0.45667385222E+02  0.12633561680E+00  0.59698193972E+02  0.41800000000E+01 0. -1.
</event>
<event>
11    1  0.7105277E-009  0.1614571E+03  0.7561462E-02  0.1085715E+00
         22   -1    0    0    0    0  0.00000000000E+00  0.00000000000E+00  0.60766465444E+03  0.60766465444E+03  0.00000000000E+00 0. -1.
         22   -1    0    0    0    0 -0.00000000000E+00 -0.00000000000E+00 -0.61309477361E+03  0.61309477361E+03  0.00000000000E+00 0. -1.
        -24    2    1    2    0    0 -0.66552020686E+02 -0.27808319159E+02 -0.19959141184E+03  0.22713737006E+03  0.80945531842E+02 0.  0.
         25    2    1    2    0    0  0.10819960672E+03  0.11993390649E+03 -0.36575101852E+03  0.41894277385E+03  0.12509173991E+03 0.  0.
         24    2    1    2    0    0 -0.41647586029E+02 -0.92125587334E+02  0.55991231120E+03  0.57467928413E+03  0.80825974266E+02 0.  0.
        -13    1    5    5    0    0  0.80250574579E+01  0.13436532149E+00  0.19117212512E+03  0.19134053680E+03  0.00000000000E+00 0.  1.
         14    1    5    5    0    0 -0.49672643487E+02 -0.92259952656E+02  0.36874018608E+03  0.38333874733E+03  0.00000000000E+00 0. -1.
         13    1    3    3    0    0 -0.65156457956E+02 -0.36827856890E+02 -0.20378409262E+03  0.21709355463E+03  0.00000000000E+00 0. -1.
        -14    1    3    3    0    0 -0.13955627305E+01  0.90195377317E+01  0.41926807813E+01  0.10043815429E+02  0.00000000000E+00 0.  1.
          5    1    4    4  501    0  0.11219871369E+02 -0.23711221100E+02 -0.84251161994E+02  0.88339335615E+02  0.41800000000E+01 0. -1.
         -5    1    4    4    0  501  0.96979735346E+02  0.14364512759E+03 -0.28149985653E+03  0.33060343824E+03  0.41800000000E+01 0. -1.
</event>
<event>
11    1  0.7105277E-009  0.1996437E+03  0.7561462E-02  0.1054776E+00
         22   -1    0    0    0    0  0.00000000000E+00  0.00000000000E+00  0.25510919734E+03  0.25510919734E+03  0.00000000000E+00 0. -1.
         22   -1    0    0    0    0 -0.00000000000E+00 -0.00000000000E+00 -0.12334847004E+04  0.12334847004E+04  0.00000000000E+00 0.  1.
         24    2    1    2    0    0 -0.53494433895E+02  0.14283486765E+03 -0.10015998681E+04  0.10164697312E+04  0.82127734376E+02 0.  0.
         25    2    1    2    0    0  0.10040098828E+03 -0.15338723417E+03 -0.15562178012E+03  0.27105996714E+03  0.12508942916E+03 0.  0.
        -24    2    1    2    0    0 -0.46906554380E+02  0.10552366518E+02  0.17884614516E+03  0.20106419940E+03  0.78289790901E+02 0.  0.
        -11    1    3    3    0    0 -0.36191048055E+02  0.95000448111E+02 -0.86043013379E+03  0.86641496538E+03  0.00000000000E+00 0.  1.
         12    1    3    3    0    0 -0.17303385840E+02  0.47834419543E+02 -0.14116973432E+03  0.15005476581E+03  0.00000000000E+00 0. -1.
         11    1    5    5    0    0 -0.59564763662E+02  0.44861341705E+01  0.17712051168E+03  0.18692180752E+03  0.00000000000E+00 0. -1.
        -12    1    5    5    0    0  0.12658209282E+02  0.60662323475E+01  0.17256334800E+01  0.14142391878E+02  0.00000000000E+00 0.  1.
          5    1    4    4  501    0  0.28565839375E+02 -0.66388878734E+02  0.73881375766E+01  0.72770511718E+02  0.41800000000E+01 0. -1.
         -5    1    4    4    0  501  0.71835148900E+02 -0.86998355438E+02 -0.16300991769E+03  0.19828945542E+03  0.41800000000E+01 0. -1.
</event>
<event>
11    1  0.7105277E-009  0.2284820E+03  0.7561462E-02  0.1036030E+00
         22   -1    0    0    0    0  0.00000000000E+00  0.00000000000E+00  0.49304690935E+03  0.49304690935E+03  0.00000000000E+00 0. -1.
         22   -1    0    0    0    0 -0.00000000000E+00 -0.00000000000E+00 -0.55487615748E+03  0.55487615748E+03  0.00000000000E+00 0.  1.
         24    2    1    2    0    0 -0.45215880848E+02 -0.48657941414E+01 -0.34744530459E+03  0.35994487992E+03  0.82303858147E+02 0.  0.
         25    2    1    2    0    0  0.19453446461E+03 -0.10742786159E+03 -0.82081583269E+02  0.26789769982E+03  0.12508951951E+03 0.  0.
        -24    2    1    2    0    0 -0.14931858376E+03  0.11229365573E+03  0.36769763973E+03  0.42008048709E+03  0.79750591242E+02 0.  0.
        -13    1    3    3    0    0 -0.66858495086E+01  0.21802309887E+02 -0.25766080173E+03  0.25866799193E+03  0.00000000000E+00 0.  1.
         14    1    3    3    0    0 -0.38530031339E+02 -0.26668104029E+02 -0.89784502855E+02  0.10127688799E+03  0.00000000000E+00 0. -1.
         13    1    5    5    0    0 -0.16773510194E+02  0.15919988611E+02  0.12573685238E+03  0.12784581623E+03  0.00000000000E+00 0. -1.
        -14    1    5    5    0    0 -0.13254507357E+03  0.96373667118E+02  0.24196078735E+03  0.29223467087E+03  0.00000000000E+00 0.  1.
          5    1    4    4  501    0  0.67328415347E+02 -0.10675565715E+03 -0.55165103059E+02  0.13780619305E+03  0.41800000000E+01 0. -1.
         -5    1    4    4    0  501  0.12720604927E+03 -0.67220444075E+00 -0.26916480209E+02  0.13009150678E+03  0.41800000000E+01 0. -1.
</event>
<event>
11    1  0.7105277E-009  0.2402270E+03  0.7561462E-02  0.1029238E+00
         22   -1    0    0    0    0  0.00000000000E+00  0.00000000000E+00  0.86812043125E+03  0.86812043125E+03  0.00000000000E+00 0. -1.
         22   -1    0    0    0    0 -0.00000000000E+00 -0.00000000000E+00 -0.20906735567E+04  0.20906735567E+04  0.00000000000E+00 0. -1.
         24    2    1    2    0    0  0.20245511268E+03  0.30626634276E+02 -0.18997013067E+04  0.19115950062E+04  0.58346803874E+02 0.  0.
         25    2    1    2    0    0 -0.21099083840E+03 -0.63943193684E+01 -0.10032544799E+03  0.26508563139E+03  0.12508866952E+03 0.  0.
        -24    2    1    2    0    0  0.85357257276E+01 -0.24232314908E+02  0.77747362930E+03  0.78211335035E+03  0.81092446285E+02 0.  0.
        -11    1    3    3    0    0  0.94651129459E+02 -0.28064015740E+01 -0.65870504527E+03  0.66547655771E+03  0.00000000000E+00 0.  1.
         12    1    3    3    0    0  0.10780398322E+03  0.33433035850E+02 -0.12409962614E+04  0.12461184485E+04  0.00000000000E+00 0. -1.
         11    1    5    5    0    0 -0.31842363669E-01 -0.42817352270E+02  0.71687232617E+03  0.71814988596E+03  0.00000000000E+00 0. -1.
        -12    1    5    5    0    0  0.85675680913E+01  0.18585037361E+02  0.60601303129E+02  0.63963464397E+02  0.00000000000E+00 0.  1.
          5    1    4    4  501    0 -0.28014329312E+02  0.46356672070E+02 -0.14895341347E+02  0.56330163199E+02  0.41800000000E+01 0.  1.
         -5    1    4    4    0  501 -0.18297650909E+03 -0.52750991438E+02 -0.85430106643E+02  0.20875546819E+03  0.41800000000E+01 0.  1.
</event>
<event>
11    1  0.7105277E-009  0.1360815E+03  0.7561462E-02  0.1112015E+00
         22   -1    0    0    0    0  0.00000000000E+00  0.00000000000E+00  0.20466734914E+04  0.20466734914E+04  0.00000000000E+00 0. -1.
         22   -1    0    0    0    0 -0.00000000000E+00 -0.00000000000E+00 -0.26111380810E+03  0.26111380810E+03  0.00000000000E+00 0. -1.
        -24    2    1    2    0    0 -0.18231839498E+02 -0.49709270455E+02 -0.19721867839E+03  0.22017865457E+03  0.82340884614E+02 0.  0.
         25    2    1    2    0    0 -0.33174258019E+02  0.31956664284E+02  0.35742552697E+02  0.13801083450E+03  0.12509076935E+03 0.  0.
         24    2    1    2    0    0  0.51406097516E+02  0.17752606171E+02  0.19470358089E+04  0.19495978104E+04  0.83817892368E+02 0.  0.
        -13    1    5    5    0    0 -0.80313575607E+01  0.12649952787E+01  0.20197892246E+02  0.21772867714E+02  0.00000000000E+00 0.  1.
         14    1    5    5    0    0  0.59437455077E+02  0.16487610892E+02  0.19268379167E+04  0.19278249427E+04  0.00000000000E+00 0. -1.
         11    1    3    3    0    0 -0.13325438849E+02  0.17538606023E+02 -0.17199146905E+02  0.27946031489E+02  0.00000000000E+00 0. -1.
        -12    1    3    3    0    0 -0.49064006490E+01 -0.67247876478E+02 -0.18001953149E+03  0.19223262308E+03  0.00000000000E+00 0.  1.
          5    1    4    4  501    0 -0.81030765522E+02  0.22846008661E+02  0.25359090163E+02  0.88025456129E+02  0.41800000000E+01 0.  1.
         -5    1    4    4    0  501  0.47856507503E+02  0.91106556227E+01  0.10383462535E+02  0.49985378367E+02  0.41800000000E+01 0.  1.
</event>
<event>
11    1  0.7105277E-009  0.1307625E+03  0.7561462E-02  0.1118336E+00
         22   -1    0    0    0    0  0.00000000000E+00  0.00000000000E+00  0.18078950350E+04  0.18078950350E+04  0.00000000000E+00 0.  1.
         22   -1    0    0    0    0 -0.00000000000E+00 -0.00000000000E+00 -0.21752935912E+03  0.21752935912E+03  0.00000000000E+00 0. -1.
        -24    2    1    2    0    0 -0.11450788032E+02 -0.36099835304E+02 -0.19856200039E+03  0.21808451296E+03  0.81851500516E+02 0.  0.
         25    2    1    2    0    0  0.31358644055E+02  0.46025192636E+02  0.62005466775E+03  0.63499283621E+03  0.12508568316E+03 0.  0.
         24    2    1    2    0    0 -0.19907856023E+02 -0.99253573313E+01  0.11688730086E+04  0.11723470450E+04  0.87399361080E+02 0.  0.
        -11    1    5    5    0    0  0.14694432960E+02 -0.37755204473E+02  0.36349522281E+03  0.36574603051E+03  0.00000000000E+00 0.  1.
         12    1    5    5    0    0 -0.34602288984E+02  0.27829847142E+02  0.80537778576E+03  0.80660101450E+03  0.00000000000E+00 0. -1.
         13    1    3    3    0    0  0.33683773710E+02 -0.78691355907E+01 -0.55038838431E+02  0.65006104652E+02  0.00000000000E+00 0. -1.
        -14    1    3    3    0    0 -0.45134561741E+02 -0.28230699714E+02 -0.14352316196E+03  0.15307840830E+03  0.00000000000E+00 0.  1.
          5    1    4    4  501    0  0.60776815779E+02  0.20759318488E+02  0.14874375386E+03  0.16207080969E+03  0.41800000000E+01 0.  1.
         -5    1    4    4    0  501 -0.29418171724E+02  0.25265874147E+02  0.47131091389E+03  0.47292202653E+03  0.41800000000E+01 0.  1.
</event>
<event>
11    1  0.7105277E-009  0.1559072E+03  0.7561462E-02  0.1090991E+00
         22   -1    0    0    0    0  0.00000000000E+00  0.00000000000E+00  0.37152973633E+03  0.37152973633E+03  0.00000000000E+00 0. -1.
         22   -1    0    0    0    0 -0.00000000000E+00 -0.00000000000E+00 -0.10408843357E+04  0.10408843357E+04  0.00000000000E+00 0. -1.
         24    2    1    2    0    0 -0.99538305951E+01  0.16961052134E+02 -0.93185636621E+03  0.93546976501E+03  0.79753607853E+02 0.  0.
         25    2    1    2    0    0  0.50085361351E+02  0.68407002336E+02 -0.34477423621E+02  0.15499829128E+03  0.12509083167E+03 0.  0.
        -24    2    1    2    0    0 -0.40131530756E+02 -0.85368054470E+02  0.29697919044E+03  0.32194601576E+03  0.80958958903E+02 0.  0.
        -11    1    3    3    0    0 -0.18051851823E+02 -0.15395973361E+02 -0.93939920886E+02  0.96889700619E+02  0.00000000000E+00 0.  1.
         12    1    3    3    0    0  0.80980212275E+01  0.32357025495E+02 -0.83791644533E+03  0.83858006439E+03  0.00000000000E+00 0. -1.
         11    1    5    5    0    0 -0.48246976228E+02 -0.74437452794E+02  0.29517169151E+03  0.30821264179E+03  0.00000000000E+00 0. -1.
        -12    1    5    5    0    0  0.81154454722E+01 -0.10930601676E+02  0.18074989324E+01  0.13733373970E+02  0.00000000000E+00 0.  1.
          5    1    4    4  501    0 -0.13773968955E+00  0.86878491503E+02 -0.48411201252E+02  0.99544000647E+02  0.41800000000E+01 0. -1.
         -5    1    4    4    0  501  0.50223101040E+02 -0.18471489167E+02  0.13933777631E+02  0.55454290630E+02  0.41800000000E+01 0. -1.
</event>
<event>
11    1  0.7105277E-009  0.2960600E+03  0.7561462E-02  0.1001873E+00
         22   -1    0    0    0    0  0.00000000000E+00  0.00000000000E+00  0.18005117013E+04  0.18005117013E+04  0.00000000000E+00 0.  1.
         22   -1    0    0    0    0 -0.00000000000E+00 -0.00000000000E+00 -0.26802798751E+04  0.26802798751E+04  0.00000000000E+00 0. -1.
        -24    2    1    2    0    0 -0.26702670974E+03 -0.28303774585E+02 -0.23682531911E+04  0.23848393569E+04  0.82043975722E+02 0.  0.
         25    2    1    2    0    0  0.26755534924E+03  0.53734806847E+01 -0.23064384793E+03  0.37477683789E+03  0.12508538854E+03 0.  0.
         24    2    1    2    0    0 -0.52863950482E+00  0.22930293901E+02  0.17191288652E+04  0.17211753816E+04  0.80712831907E+02 0.  0.
        -11    1    5    5    0    0 -0.13250793995E+02  0.51209762627E+02  0.10905461829E+04  0.10918282833E+04  0.00000000000E+00 0.  1.
         12    1    5    5    0    0  0.12722154490E+02 -0.28279468727E+02  0.62858268231E+03  0.62934709825E+03  0.00000000000E+00 0. -1.
         11    1    3    3    0    0 -0.20037645689E+03 -0.35773891546E+02 -0.20167081348E+04  0.20269539208E+04  0.00000000000E+00 0. -1.
        -12    1    3    3    0    0 -0.66650252849E+02  0.74701169612E+01 -0.35154505625E+03  0.35788543617E+03  0.00000000000E+00 0.  1.
          5    1    4    4  501    0  0.22517035812E+03  0.47375692173E+02 -0.20984662667E+03  0.31144698668E+03  0.41800000000E+01 0. -1.
         -5    1    4    4    0  501  0.42384991123E+02 -0.42002211488E+02 -0.20797221255E+02  0.63329851211E+02  0.41800000000E+01 0. -1.
</event>
<event>
11    1  0.7105277E-009  0.1605633E+03  0.7561462E-02  0.1086549E+00
         22   -1    0    0    0    0  0.00000000000E+00  0.00000000000E+00  0.43592824280E+03  0.43592824280E+03  0.00000000000E+00 0.  1.
         22   -1    0    0    0    0 -0.00000000000E+00 -0.00000000000E+00 -0.12303017324E+03  0.12303017324E+03  0.00000000000E+00 0.  1.
        -24    2    1    2    0    0 -0.19596375484E+02 -0.63188681202E+02  0.12304541601E+02  0.10767606286E+03  0.84058940061E+02 0.  0.
         25    2    1    2    0    0  0.72244515706E+02 -0.33685472282E+02  0.34724988473E+02  0.15233947858E+03  0.12509001086E+03 0.  0.
         24    2    1    2    0    0 -0.52648140223E+02  0.96874153483E+02  0.26586853949E+03  0.29894287461E+03  0.80773347737E+02 0.  0.
        -11    1    5    5    0    0 -0.31703705010E+02  0.10180289568E+03  0.25122612779E+03  0.27291669382E+03  0.00000000000E+00 0.  1.
         12    1    5    5    0    0 -0.20944435212E+02 -0.49287421937E+01  0.14642411697E+02  0.26026180786E+02  0.00000000000E+00 0. -1.
         13    1    3    3    0    0 -0.13982898977E+02 -0.43348737547E+02 -0.34098960621E+02  0.56897922863E+02  0.00000000000E+00 0. -1.
        -14    1    3    3    0    0 -0.56134765067E+01 -0.19839943655E+02  0.46403502222E+02  0.50778139993E+02  0.00000000000E+00 0.  1.
          5    1    4    4  501    0  0.48148029700E+02 -0.77847622531E+02  0.10111828895E+01  0.91635036904E+02  0.41800000000E+01 0.  1.
         -5    1    4    4    0  501  0.24096486007E+02  0.44162150249E+02  0.33713805583E+02  0.60704441678E+02  0.41800000000E+01 0.  1.
</event>
<event>
11    1  0.7105277E-009  0.1522491E+03  0.7561462E-02  0.1094603E+00
         22   -1    0    0    0    0  0.00000000000E+00  0.00000000000E+00  0.17538371439E+03  0.17538371439E+03  0.00000000000E+00 0. -1.
         22   -1    0    0    0    0 -0.00000000000E+00 -0.00000000000E+00 -0.50814120339E+03  0.50814120339E+03  0.00000000000E+00 0. -1.
         24    2    1    2    0    0 -0.17014274800E+02  0.23367564605E+02 -0.38015961282E+03  0.38912878977E+03  0.77873969900E+02 0.  0.
         25    2    1    2    0    0 -0.44702887576E+02  0.46399628725E+02 -0.44739620136E+02  0.14764999077E+03  0.12509041714E+03 0.  0.
        -24    2    1    2    0    0  0.61717162375E+02 -0.69767193329E+02  0.92141743963E+02  0.14674613724E+03  0.66089775430E+02 0.  0.
        -11    1    3    3    0    0 -0.41181356834E+02 -0.85583848641E+01 -0.16511848498E+03  0.17039150267E+03  0.00000000000E+00 0.  1.
         12    1    3    3    0    0  0.24167082035E+02  0.31925949469E+02 -0.21504112785E+03  0.21873728710E+03  0.00000000000E+00 0. -1.
         11    1    5    5    0    0  0.22850250718E+02 -0.71359375425E+02  0.54853282280E+02  0.92861062862E+02  0.00000000000E+00 0. -1.
        -12    1    5    5    0    0  0.38866911657E+02  0.15921820960E+01  0.37288461683E+02  0.53885074374E+02  0.00000000000E+00 0.  1.
          5    1    4    4  501    0 -0.41837512167E+02  0.34798504446E+02  0.36351873005E+02  0.65576248802E+02  0.41800000000E+01 0. -1.
         -5    1    4    4    0  501 -0.28653754092E+01  0.11601124279E+02 -0.81091493141E+02  0.82073741967E+02  0.41800000000E+01 0. -1.
</event>
<event>
11    1  0.7105277E-009  0.1447286E+03  0.7561462E-02  0.1102390E+00
         22   -1    0    0    0    0  0.00000000000E+00  0.00000000000E+00  0.56458959814E+03  0.56458959814E+03  0.00000000000E+00 0. -1.
         22   -1    0    0    0    0 -0.00000000000E+00 -0.00000000000E+00 -0.40572064985E+03  0.40572064985E+03  0.00000000000E+00 0. -1.
         24    2    1    2    0    0 -0.41923007697E+01 -0.73796131951E+02 -0.33954724996E+03  0.35615104668E+03  0.78024282238E+02 0.  0.
         25    2    1    2    0    0 -0.34328942206E+02  0.61028325637E+02  0.42530898546E+02  0.14953244197E+03  0.12509253002E+03 0.  0.
        -24    2    1    2    0    0  0.38521242976E+02  0.12767806314E+02  0.45588529971E+03  0.46462675933E+03  0.79998224705E+02 0.  0.
        -11    1    3    3    0    0  0.11767213225E+02 -0.12007013850E+02 -0.81829545556E+01  0.18697498066E+02  0.00000000000E+00 0.  1.
         12    1    3    3    0    0 -0.15959513995E+02 -0.61789118102E+02 -0.33136429541E+03  0.33745354862E+03  0.00000000000E+00 0. -1.
         13    1    5    5    0    0  0.44657657277E+02  0.27618196279E+02  0.43557727273E+03  0.43873070514E+03  0.00000000000E+00 0. -1.
        -14    1    5    5    0    0 -0.61364143013E+01 -0.14850389965E+02  0.20308026987E+02  0.25896054191E+02  0.00000000000E+00 0.  1.
          5    1    4    4  501    0 -0.38457783151E+02  0.97911420342E+02  0.37935183297E+02  0.11190262665E+03  0.41800000000E+01 0.  1.
         -5    1    4    4    0  501  0.41288409453E+01 -0.36883094705E+02  0.45957152493E+01  0.37629815322E+02  0.41800000000E+01 0.  1.
</event>
<event>
11    1  0.7105277E-009  0.1830918E+03  0.7561462E-02  0.1067169E+00
         22   -1    0    0    0    0  0.00000000000E+00  0.00000000000E+00  0.71105021380E+03  0.71105021380E+03  0.00000000000E+00 0.  1.
         22   -1    0    0    0    0 -0.00000000000E+00 -0.00000000000E+00 -0.10163548953E+03  0.10163548953E+03  0.00000000000E+00 0.  1.
         24    2    1    2    0    0  0.41707070422E+02 -0.76952912332E+02  0.32514762712E+02  0.12587086377E+03  0.84409917138E+02 0.  0.
         25    2    1    2    0    0  0.10164374288E+03  0.30274219486E+02  0.13234648263E+03  0.21075044948E+03  0.12510867939E+03 0.  0.
        -24    2    1    2    0    0 -0.14335081330E+03  0.46678692846E+02  0.44455347892E+03  0.47606439008E+03  0.79253718196E+02 0.  0.
        -11    1    3    3    0    0  0.27549456839E+01 -0.35359532518E+02 -0.26165837456E+02  0.44074225069E+02  0.00000000000E+00 0.  1.
         12    1    3    3    0    0  0.38952124738E+02 -0.41593379814E+02  0.58680600168E+02  0.81796638697E+02  0.00000000000E+00 0. -1.
         11    1    5    5    0    0 -0.92041129640E+01 -0.17792481471E+02  0.75930357641E+02  0.78528385338E+02  0.00000000000E+00 0. -1.
        -12    1    5    5    0    0 -0.13414670033E+03  0.64471174317E+02  0.36862312128E+03  0.39753600475E+03  0.00000000000E+00 0.  1.
          5    1    4    4  501    0  0.31520961009E+02  0.74129333097E+02  0.73842610909E+02  0.10935690465E+03  0.41800000000E+01 0.  1.
         -5    1    4    4    0  501  0.70122781867E+02 -0.43855113611E+02  0.58503871723E+02  0.10139354483E+03  0.41800000000E+01 0.  1.
</event>
<event>
11    1  0.7105277E-009  0.2015630E+03  0.7561462E-02  0.1053424E+00
         22   -1    0    0    0    0  0.00000000000E+00  0.00000000000E+00  0.11673209322E+04  0.11673209322E+04  0.00000000000E+00 0. -1.
         22   -1    0    0    0    0 -0.00000000000E+00 -0.00000000000E+00 -0.68201149646E+03  0.68201149646E+03  0.00000000000E+00 0.  1.
         24    2    1    2    0    0  0.13342588665E+03 -0.62684854763E+02 -0.46386034871E+03  0.49289994355E+03  0.77795070524E+02 0.  0.
         25    2    1    2    0    0 -0.19759036702E+03  0.82629125746E+02 -0.12466686251E+03  0.27759804614E+03  0.12509725437E+03 0.  0.
        -24    2    1    2    0    0  0.64164480368E+02 -0.19944270983E+02  0.10738366470E+04  0.10788344390E+04  0.79017389761E+02 0.  0.
        -13    1    3    3    0    0  0.11724245606E+03 -0.74815105548E+02 -0.44083274364E+03  0.46225166455E+03  0.00000000000E+00 0.  1.
         14    1    3    3    0    0  0.16183430591E+02  0.12130250785E+02 -0.23027605074E+02  0.30648278993E+02  0.00000000000E+00 0. -1.
         13    1    5    5    0    0  0.23295900700E+02  0.11568890760E+02  0.78451969413E+03  0.78495075559E+03  0.00000000000E+00 0. -1.
        -14    1    5    5    0    0  0.40868579668E+02 -0.31513161744E+02  0.28931695284E+03  0.29388368340E+03  0.00000000000E+00 0.  1.
          5    1    4    4  501    0 -0.13065366918E+03  0.28044394099E+02 -0.10121456414E+02  0.13407753575E+03  0.41800000000E+01 0.  1.
         -5    1    4    4    0  501 -0.66936697838E+02  0.54584731648E+02 -0.11454540609E+03  0.14352051039E+03  0.41800000000E+01 0.  1.
</event>
<event>
11    1  0.7105277E-009  0.1439225E+03  0.7561462E-02  0.1103256E+00
         22   -1    0    0    0    0  0.00000000000E+00  0.00000000000E+00  0.37526262037E+03  0.37526262037E+03  0.00000000000E+00 0. -1.
         22   -1    0    0    0    0 -0.00000000000E+00 -0.00000000000E+00 -0.11742736824E+03  0.11742736824E+03  0.00000000000E+00 0. -1.
        -24    2    1    2    0    0 -0.71304910901E+02  0.71770710725E+01 -0.34683545098E+02  0.11324680239E+03  0.80535639829E+02 0.  0.
         25    2    1    2    0    0  0.67704532899E+02 -0.17871058072E+02  0.11404089888E+03  0.18318320642E+03  0.12508989570E+03 0.  0.
         24    2    1    2    0    0  0.36003780022E+01  0.10693987000E+02  0.17847789835E+03  0.19625997980E+03  0.80847358595E+02 0.  0.
        -11    1    5    5    0    0 -0.30770663488E+01  0.49090156570E+01 -0.78312805154E+01  0.97414437609E+01  0.00000000000E+00 0.  1.
         12    1    5    5    0    0  0.66774443510E+01  0.57849713430E+01  0.18630917887E+03  0.18651853604E+03  0.00000000000E+00 0. -1.
         11    1    3    3    0    0 -0.43437583119E+02  0.43686652508E+02 -0.23810736222E+02  0.66047697871E+02  0.00000000000E+00 0. -1.
        -12    1    3    3    0    0 -0.27867327782E+02 -0.36509581436E+02 -0.10872808876E+02  0.47199104517E+02  0.00000000000E+00 0.  1.
          5    1    4    4  501    0  0.23573395250E+01 -0.62985104332E+02  0.59337365382E+02  0.86666462648E+02  0.41800000000E+01 0.  1.
         -5    1    4    4    0  501  0.65347193374E+02  0.45114046260E+02  0.54703533501E+02  0.96516743777E+02  0.41800000000E+01 0.  1.
</event>
<event>
11    1  0.7105277E-009  0.1953435E+03  0.7561462E-02  0.1057866E+00
         22   -1    0    0    0    0  0.00000000000E+00  0.00000000000E+00  0.21672475304E+03  0.21672475304E+03  0.00000000000E+00 0.  1.
         22   -1    0    0    0    0 -0.00000000000E+00 -0.00000000000E+00 -0.83207988551E+03  0.83207988551E+03  0.00000000000E+00 0. -1.
        -24    2    1    2    0    0  0.12852143249E+03  0.66686624540E+02 -0.65948438786E+03  0.67959122358E+03  0.77199150473E+02 0.  0.
         25    2    1    2    0    0 -0.17502267315E+03 -0.12621026688E+03 -0.53063782894E+01  0.24947524808E+03  0.12509106351E+03 0.  0.
         24    2    1    2    0    0  0.46501240657E+02  0.59523642344E+02  0.49435633689E+02  0.11973816689E+03  0.78663316429E+02 0.  0.
        -13    1    5    5    0    0 -0.52594486668E+01  0.16179335180E+02  0.49377279164E+02  0.52225935939E+02  0.00000000000E+00 0.  1.
         14    1    5    5    0    0  0.51760689324E+02  0.43344307164E+02  0.58354525049E-01  0.67512230951E+02  0.00000000000E+00 0. -1.
         13    1    3    3    0    0  0.12429197723E+03  0.81524594666E+02 -0.60010639054E+03  0.61824140520E+03  0.00000000000E+00 0. -1.
        -14    1    3    3    0    0  0.42294552604E+01 -0.14837970126E+02 -0.59377997326E+02  0.61349818384E+02  0.00000000000E+00 0.  1.
          5    1    4    4  501    0 -0.11052338433E+03 -0.14474446192E+03 -0.26621731523E+01  0.18218380089E+03  0.41800000000E+01 0. -1.
         -5    1    4    4    0  501 -0.64499288823E+02  0.18534195036E+02 -0.26442051372E+01  0.67291447191E+02  0.41800000000E+01 0. -1.
</event>
<event>
11    1  0.7105277E-009  0.1326245E+03  0.7561462E-02  0.1116086E+00
         22   -1    0    0    0    0  0.00000000000E+00  0.00000000000E+00  0.45770235583E+03  0.45770235583E+03  0.00000000000E+00 0. -1.
         22   -1    0    0    0    0 -0.00000000000E+00 -0.00000000000E+00 -0.17567013169E+04  0.17567013169E+04  0.00000000000E+00 0.  1.
         24    2    1    2    0    0 -0.55108634003E+02  0.65366155187E+01 -0.16477370432E+04  0.16506206649E+04  0.80196801433E+02 0.  0.
         25    2    1    2    0    0  0.43317418676E+02  0.37143278057E+02 -0.53881900318E+02  0.14767133186E+03  0.12509013233E+03 0.  0.
        -24    2    1    2    0    0  0.11791215327E+02 -0.43679893576E+02  0.40261998244E+03  0.41611167597E+03  0.94863642948E+02 0.  0.
        -13    1    3    3    0    0 -0.65802867251E+02 -0.17727276609E+02 -0.98582472961E+03  0.98817744924E+03  0.00000000000E+00 0.  1.
         14    1    3    3    0    0  0.10694233248E+02  0.24263892128E+02 -0.66191231356E+03  0.66244321562E+03  0.00000000000E+00 0. -1.
         13    1    5    5    0    0 -0.20802646330E+02 -0.44102216025E+01  0.30690900105E+03  0.30764481967E+03  0.00000000000E+00 0. -1.
        -14    1    5    5    0    0  0.32593861656E+02 -0.39269671974E+02  0.95710981399E+02  0.10846685630E+03  0.00000000000E+00 0.  1.
          5    1    4    4  501    0  0.14660465463E+02 -0.46483314618E+02 -0.16905288419E+02  0.51757984524E+02  0.41800000000E+01 0. -1.
         -5    1    4    4    0  501  0.28656953212E+02  0.83626592675E+02 -0.36976611899E+02  0.95913347337E+02  0.41800000000E+01 0. -1.
</event>
<event>
11    1  0.7105277E-009  0.1406202E+03  0.7561462E-02  0.1106868E+00
         22   -1    0    0    0    0  0.00000000000E+00  0.00000000000E+00  0.16713957058E+04  0.16713957058E+04  0.00000000000E+00 0.  1.
         22   -1    0    0    0    0 -0.00000000000E+00 -0.00000000000E+00 -0.18483707198E+03  0.18483707198E+03  0.00000000000E+00 0.  1.
         24    2    1    2    0    0 -0.28874341829E+02  0.58008176577E+02 -0.15572717009E+03  0.18655835089E+03  0.79714431667E+02 0.  0.
         25    2    1    2    0    0  0.44163108825E+02 -0.34562725643E+02  0.37066109537E+03  0.39519600803E+03  0.12508107353E+03 0.  0.
        -24    2    1    2    0    0 -0.15288766996E+02 -0.23445450934E+02  0.12716247086E+04  0.12744784189E+04  0.80513385278E+02 0.  0.
        -13    1    3    3    0    0 -0.23419264113E+02  0.76142695393E+02 -0.10092777921E+03  0.12857911421E+03  0.00000000000E+00 0.  1.
         14    1    3    3    0    0 -0.54550777163E+01 -0.18134518816E+02 -0.54799390881E+02  0.57979236684E+02  0.00000000000E+00 0. -1.
         11    1    5    5    0    0 -0.27474559265E+02  0.87092858634E+01  0.17841280206E+03  0.18072584487E+03  0.00000000000E+00 0. -1.
        -12    1    5    5    0    0  0.12185792269E+02 -0.32154736797E+02  0.10932119065E+04  0.10937525740E+04  0.00000000000E+00 0.  1.
          5    1    4    4  501    0  0.10148174642E+02  0.44208795077E+02  0.79478698407E+02  0.91606434879E+02  0.41800000000E+01 0.  1.
         -5    1    4    4    0  501  0.34014934182E+02 -0.78771520720E+02  0.29118239697E+03  0.30358957315E+03  0.41800000000E+01 0.  1.
</event>
<event>
11    1  0.7105277E-009  0.1351732E+03  0.7561462E-02  0.1113071E+00
         22   -1    0    0    0    0  0.00000000000E+00  0.00000000000E+00  0.23568840340E+03  0.23568840340E+03  0.00000000000E+00 0.  1.
         22   -1    0    0    0    0 -0.00000000000E+00 -0.00000000000E+00 -0.29047553457E+03  0.29047553457E+03  0.00000000000E+00 0.  1.
        -24    2    1    2    0    0  0.42617188864E+02 -0.25912865603E+02 -0.18880888266E+03  0.21082785425E+03  0.79447394946E+02 0.  0.
         25    2    1    2    0    0 -0.49597733958E+02  0.30790428180E+02 -0.24023039985E+02  0.14011493408E+03  0.12508837924E+03 0.  0.
         24    2    1    2    0    0  0.69805450946E+01 -0.48775625768E+01  0.15804479147E+03  0.17522114964E+03  0.75178298344E+02 0.  0.
        -11    1    5    5    0    0  0.17849597292E+02  0.32021297388E+02  0.87522166700E+02  0.94889942953E+02  0.00000000000E+00 0.  1.
         12    1    5    5    0    0 -0.10869052198E+02 -0.36898859964E+02  0.70522624771E+02  0.80331206682E+02  0.00000000000E+00 0. -1.
         13    1    3    3    0    0  0.26588277059E+02  0.21927888688E+02 -0.35705293998E+02  0.49624961448E+02  0.00000000000E+00 0. -1.
        -14    1    3    3    0    0  0.16028911805E+02 -0.47840754291E+02 -0.15310358867E+03  0.16120289280E+03  0.00000000000E+00 0.  1.
          5    1    4    4  501    0 -0.36293154075E+02 -0.46704387082E+02 -0.10907387491E+02  0.60290432967E+02  0.41800000000E+01 0.  1.
         -5    1    4    4    0  501 -0.13304579883E+02  0.77494815262E+02 -0.13115652493E+02  0.79824501118E+02  0.41800000000E+01 0.  1.
</event>
<event>
11    1  0.7105277E-009  0.1565527E+03  0.7561462E-02  0.1090365E+00
         22   -1    0    0    0    0  0.00000000000E+00  0.00000000000E+00  0.41041944340E+03  0.41041944340E+03  0.00000000000E+00 0. -1.
         22   -1    0    0    0    0 -0.00000000000E+00 -0.00000000000E+00 -0.10022491165E+04  0.10022491165E+04  0.00000000000E+00 0.  1.
         24    2    1    2    0    0  0.30480031340E+02 -0.50768084067E+02 -0.94501106196E+03  0.95022879898E+03  0.79890127802E+02 0.  0.
         25    2    1    2    0    0 -0.10006771659E+03  0.87532349165E+02  0.17813976481E+03  0.25506175894E+03  0.12508902834E+03 0.  0.
        -24    2    1    2    0    0  0.69587685254E+02 -0.36764265098E+02  0.17504162408E+03  0.20737800193E+03  0.78562130819E+02 0.  0.
        -11    1    3    3    0    0  0.55507717100E+02 -0.48701894722E+02 -0.74380425027E+03  0.74746086448E+03  0.00000000000E+00 0.  1.
         12    1    3    3    0    0 -0.25027685760E+02 -0.20661893446E+01 -0.20120681169E+03  0.20276793451E+03  0.00000000000E+00 0. -1.
         13    1    5    5    0    0 -0.64281710117E+01  0.23485981566E+01  0.76983806836E+02  0.77287410429E+02  0.00000000000E+00 0. -1.
        -14    1    5    5    0    0  0.76015856265E+02 -0.39112863254E+02  0.98057817243E+02  0.13009059150E+03  0.00000000000E+00 0.  1.
          5    1    4    4  501    0 -0.11786775907E+03  0.41191726610E+02  0.15776663843E+03  0.20123953779E+03  0.41800000000E+01 0. -1.
         -5    1    4    4    0  501  0.17800042472E+02  0.46340622555E+02  0.20373126380E+02  0.53822221148E+02  0.41800000000E+01 0. -1.
</event>
<event>
11    1  0.7105277E-009  0.1722273E+03  0.7561462E-02  0.1076109E+00
         22   -1    0    0    0    0  0.00000000000E+00  0.00000000000E+00  0.34391394175E+03  0.34391394175E+03  0.00000000000E+00 0. -1.
         22   -1    0    0    0    0 -0.00000000000E+00 -0.00000000000E+00 -0.20448686326E+03  0.20448686326E+03  0.00000000000E+00 0.  1.
        -24    2    1    2    0    0  0.65329279820E+02 -0.76766779837E+02  0.67994746319E+01  0.12895514829E+03  0.80138281289E+02 0.  0.
         25    2    1    2    0    0 -0.57416181427E+02  0.12472799888E+03 -0.68037100917E+02  0.19781350346E+03  0.12508974161E+03 0.  0.
         24    2    1    2    0    0 -0.79130983930E+01 -0.47961219038E+02  0.20066470477E+03  0.22163215325E+03  0.80570416128E+02 0.  0.
        -13    1    5    5    0    0  0.12259561016E+02  0.18831944313E+02  0.31965331412E+02  0.39073282115E+02  0.00000000000E+00 0.  1.
         14    1    5    5    0    0 -0.20172659409E+02 -0.66793163351E+02  0.16869937336E+03  0.18255887114E+03  0.00000000000E+00 0. -1.
         13    1    3    3    0    0  0.81086373662E+02 -0.57618151599E+02 -0.84699177386E+01  0.99832814714E+02  0.00000000000E+00 0. -1.
        -14    1    3    3    0    0 -0.15757093842E+02 -0.19148628238E+02  0.15269392370E+02  0.29122333579E+02  0.00000000000E+00 0.  1.
          5    1    4    4  501    0 -0.85980752565E+02  0.91701569438E+02 -0.83875146708E+02  0.15117665258E+03  0.41800000000E+01 0.  1.
         -5    1    4    4    0  501  0.28564571138E+02  0.33026429438E+02  0.15838045791E+02  0.46636850882E+02  0.41800000000E+01 0.  1.
</event>
<event>
11    1  0.7105277E-009  0.1484633E+03  0.7561462E-02  0.1098459E+00
         22   -1    0    0    0    0  0.00000000000E+00  0.00000000000E+00  0.26225703771E+03  0.26225703771E+03  0.00000000000E+00 0. -1.
         22   -1    0    0    0    0 -0.00000000000E+00 -0.00000000000E+00 -0.85895227661E+03  0.85895227661E+03  0.00000000000E+00 0.  1.
        -24    2    1    2    0    0 -0.21442510536E+01 -0.76418410405E+02 -0.61436888517E+03  0.62427834365E+03  0.80186981624E+02 0.  0.
         25    2    1    2    0    0  0.27969968716E+02  0.98656483781E+02 -0.20303513779E+03  0.25958924381E+03  0.12509151602E+03 0.  0.
         24    2    1    2    0    0 -0.25825717663E+02 -0.22238073376E+02  0.22070878405E+03  0.23734172687E+03  0.80356881183E+02 0.  0.
        -13    1    5    5    0    0 -0.34623115232E+01 -0.35172451991E+02  0.34638391458E+02  0.49486433928E+02  0.00000000000E+00 0.  1.
         14    1    5    5    0    0 -0.22363406139E+02  0.12934378615E+02  0.18607039259E+03  0.18785529294E+03  0.00000000000E+00 0. -1.
         13    1    3    3    0    0  0.18927252574E+02 -0.85695769249E+00 -0.28768594583E+03  0.28830917207E+03  0.00000000000E+00 0. -1.
        -14    1    3    3    0    0 -0.21071503627E+02 -0.75561452713E+02 -0.32668293933E+03  0.33596917158E+03  0.00000000000E+00 0.  1.
          5    1    4    4  501    0  0.10342476997E+02 -0.28584192318E+02 -0.59332607931E+02  0.66797108057E+02  0.41800000000E+01 0.  1.
         -5    1    4    4    0  501  0.17627491719E+02  0.12724067610E+03 -0.14370252986E+03  0.19279213575E+03  0.41800000000E+01 0.  1.
</event>
<event>
11    1  0.7105277E-009  0.1968761E+03  0.7561462E-02  0.1056755E+00
         22   -1    0    0    0    0  0.00000000000E+00  0.00000000000E+00  0.70241842114E+03  0.70241842114E+03  0.00000000000E+00 0. -1.
         22   -1    0    0    0    0 -0.00000000000E+00 -0.00000000000E+00 -0.46684927510E+03  0.46684927510E+03  0.00000000000E+00 0.  1.
        -24    2    1    2    0    0 -0.11890303498E+02  0.43013105133E+02 -0.33874584504E+03  0.34985821094E+03  0.75236385482E+02 0.  0.
         25    2    1    2    0    0 -0.13286430217E+03  0.11269832979E+02 -0.34632344344E+02  0.18608125105E+03  0.12508757249E+03 0.  0.
         24    2    1    2    0    0  0.14475460567E+03 -0.54282938112E+02  0.60894733543E+03  0.63332823425E+03  0.79920346216E+02 0.  0.
        -11    1    5    5    0    0  0.87159686369E+02 -0.95386290191E+01  0.20678241003E+03  0.22460356513E+03  0.00000000000E+00 0.  1.
         12    1    5    5    0    0  0.57594919300E+02 -0.44744309093E+02  0.40216492540E+03  0.40872466912E+03  0.00000000000E+00 0. -1.
         11    1    3    3    0    0 -0.11696758991E+02 -0.54196904418E+01 -0.71450317784E+01  0.14739019455E+02  0.00000000000E+00 0. -1.
        -12    1    3    3    0    0 -0.19354450710E+00  0.48432795575E+02 -0.33160081326E+03  0.33511919149E+03  0.00000000000E+00 0.  1.
          5    1    4    4  501    0  0.19297311403E+02 -0.44516864243E+01 -0.25807983806E+02  0.32798295193E+02  0.41800000000E+01 0.  1.
         -5    1    4    4    0  501 -0.15216161357E+03  0.15721519404E+02 -0.88243605381E+01  0.15328295586E+03  0.41800000000E+01 0.  1.
</event>
<event>
11    1  0.7105277E-009  0.1579854E+03  0.7561462E-02  0.1088988E+00
         22   -1    0    0    0    0  0.00000000000E+00  0.00000000000E+00  0.66326022773E+02  0.66326022773E+02  0.00000000000E+00 0.  1.
         22   -1    0    0    0    0 -0.00000000000E+00 -0.00000000000E+00 -0.36484335929E+04  0.36484335929E+04  0.00000000000E+00 0.  1.
         24    2    1    2    0    0  0.81978309388E+02  0.52927225148E+02 -0.32390779854E+04  0.32415383231E+04  0.80142186912E+02 0.  0.
         25    2    1    2    0    0 -0.59910462515E+02 -0.59949658337E+02 -0.35676699120E+03  0.38744552477E+03  0.12509246022E+03 0.  0.
        -24    2    1    2    0    0 -0.22067846873E+02  0.70224331886E+01  0.13737406518E+02  0.85775767773E+02  0.81439926116E+02 0.  0.
        -13    1    3    3    0    0  0.77243133616E+02  0.75799398612E+01 -0.23635147593E+04  0.23647887801E+04  0.00000000000E+00 0.  1.
         14    1    3    3    0    0  0.47351757715E+01  0.45347285287E+02 -0.87556322612E+03  0.87674954297E+03  0.00000000000E+00 0. -1.
         13    1    5    5    0    0 -0.32631621324E+02 -0.16115485047E+02 -0.21535639856E+02  0.42288477775E+02  0.00000000000E+00 0. -1.
        -14    1    5    5    0    0  0.10563774450E+02  0.23137918235E+02  0.35273046374E+02  0.43487289998E+02  0.00000000000E+00 0.  1.
          5    1    4    4  501    0 -0.33156436590E+02 -0.56183252915E+02 -0.35397884138E+03  0.35996444233E+03  0.41800000000E+01 0. -1.
         -5    1    4    4    0  501 -0.26754025925E+02 -0.37664054215E+01 -0.27881498178E+01  0.27481082445E+02  0.41800000000E+01 0. -1.
</event>
<event>
11    1  0.7105277E-009  0.1509642E+03  0.7561462E-02  0.1095898E+00
         22   -1    0    0    0    0  0.00000000000E+00  0.00000000000E+00  0.20965505965E+03  0.20965505965E+03  0.00000000000E+00 0.  1.
         22   -1    0    0    0    0 -0.00000000000E+00 -0.00000000000E+00 -0.11087831409E+04  0.11087831409E+04  0.00000000000E+00 0.  1.
         24    2    1    2    0    0 -0.46367753807E+02  0.68762893641E+02 -0.68194274226E+03  0.69172725579E+03  0.81008570763E+02 0.  0.
         25    2    1    2    0    0  0.11193861545E+03 -0.23459587392E+02 -0.38626103785E+03  0.42181337798E+03  0.12509328764E+03 0.  0.
        -24    2    1    2    0    0 -0.65570861641E+02 -0.45303306249E+02  0.16907569888E+03  0.20489756677E+03  0.83931480761E+02 0.  0.
        -11    1    3    3    0    0 -0.51249726916E+02  0.57097899252E+01 -0.35479664920E+03  0.35852447405E+03  0.00000000000E+00 0.  1.
         12    1    3    3    0    0  0.48819731087E+01  0.63053103716E+02 -0.32714609306E+03  0.33320278173E+03  0.00000000000E+00 0. -1.
         13    1    5    5    0    0 -0.61152180621E+02  0.55574475930E+01  0.67741446077E+02  0.91429633790E+02  0.00000000000E+00 0. -1.
        -14    1    5    5    0    0 -0.44186810205E+01 -0.50860753842E+02  0.10133425280E+03  0.11346793298E+03  0.00000000000E+00 0.  1.
          5    1    4    4  501    0  0.13558711782E+03 -0.36428895219E+02 -0.29827497674E+03  0.32969131787E+03  0.41800000000E+01 0.  1.
         -5    1    4    4    0  501 -0.23648502374E+02  0.12969307827E+02 -0.87986061106E+02  0.92122060111E+02  0.41800000000E+01 0.  1.
</event>
<event>
11    1  0.7105277E-009  0.1701294E+03  0.7561462E-02  0.1077919E+00
         22   -1    0    0    0    0  0.00000000000E+00  0.00000000000E+00  0.11735154761E+03  0.11735154761E+03  0.00000000000E+00 0.  1.
         22   -1    0    0    0    0 -0.00000000000E+00 -0.00000000000E+00 -0.11321134455E+04  0.11321134455E+04  0.00000000000E+00 0. -1.
         24    2    1    2    0    0 -0.17675014513E+02 -0.20096196341E+01 -0.80099532585E+03  0.80530053770E+03  0.81234224798E+02 0.  0.
         25    2    1    2    0    0  0.81385815149E+02  0.95743978775E+02 -0.24493749418E+03  0.30237857809E+03  0.12509143879E+03 0.  0.
        -24    2    1    2    0    0 -0.63710800637E+02 -0.93734359141E+02  0.31170922123E+02  0.14178587734E+03  0.79286899449E+02 0.  0.
        -11    1    3    3    0    0  0.23908596629E+02  0.24059665455E+02 -0.30302160700E+03  0.30491405806E+03  0.00000000000E+00 0.  1.
         12    1    3    3    0    0 -0.41583611141E+02 -0.26069285089E+02 -0.49797371885E+03  0.50038647964E+03  0.00000000000E+00 0. -1.
         11    1    5    5    0    0 -0.11059005245E+00 -0.69316210454E+02  0.77612227653E+01  0.69749450468E+02  0.00000000000E+00 0. -1.
        -12    1    5    5    0    0 -0.63600210584E+02 -0.24418148687E+02  0.23409699358E+02  0.72036426867E+02  0.00000000000E+00 0.  1.
          5    1    4    4  501    0  0.57898657922E+02  0.11868571518E+03 -0.23171914462E+03  0.26673917590E+03  0.41800000000E+01 0.  1.
         -5    1    4    4    0  501  0.23487157227E+02 -0.22941736403E+02 -0.13218349557E+02  0.35639402195E+02  0.41800000000E+01 0.  1.
</event>
<event>
11    1  0.7105277E-009  0.1293108E+03  0.7561462E-02  0.1120119E+00
         22   -1    0    0    0    0  0.00000000000E+00  0.00000000000E+00  0.37843391317E+03  0.37843391317E+03  0.00000000000E+00 0. -1.
         22   -1    0    0    0    0 -0.00000000000E+00 -0.00000000000E+00 -0.57075938759E+03  0.57075938759E+03  0.00000000000E+00 0.  1.
        -24    2    1    2    0    0 -0.12873176894E+02  0.28041084439E+02 -0.28393940179E+03  0.29572049246E+03  0.76661624527E+02 0.  0.
         25    2    1    2    0    0 -0.19990710787E+02 -0.30701875359E+02 -0.26016867213E+03  0.29099323224E+03  0.12508832713E+03 0.  0.
         24    2    1    2    0    0  0.32863887681E+02  0.26607909203E+01  0.35178259950E+03  0.36247957606E+03  0.80952645623E+02 0.  0.
        -11    1    5    5    0    0  0.34229271077E+02 -0.18673167615E+02  0.71987419897E+02  0.81868912358E+02  0.00000000000E+00 0.  1.
         12    1    5    5    0    0 -0.13653833959E+01  0.21333958536E+02  0.27979517960E+03  0.28061066371E+03  0.00000000000E+00 0. -1.
         11    1    3    3    0    0  0.66485462254E+01  0.28424673980E+02 -0.33145820015E+02  0.44167982094E+02  0.00000000000E+00 0. -1.
        -12    1    3    3    0    0 -0.19521723119E+02 -0.38358954194E+00 -0.25079358177E+03  0.25155251037E+03  0.00000000000E+00 0.  1.
          5    1    4    4  501    0  0.86773957457E+01  0.39994414565E+02 -0.15888641435E+03  0.16412560878E+03  0.41800000000E+01 0. -1.
         -5    1    4    4    0  501 -0.28668106533E+02 -0.70696289924E+02 -0.10128225777E+03  0.12686762345E+03  0.41800000000E+01 0. -1.
</event>
<event>
11    1  0.7105277E-009  0.1267479E+03  0.7561462E-02  0.1123331E+00
         22   -1    0    0    0    0  0.00000000000E+00  0.00000000000E+00  0.93057375004E+03  0.93057375004E+03  0.00000000000E+00 0. -1.
         22   -1    0    0    0    0 -0.00000000000E+00 -0.00000000000E+00 -0.83448674112E+02  0.83448674112E+02  0.00000000000E+00 0. -1.
         24    2    1    2    0    0 -0.93764378425E+01  0.19092274424E+02 -0.31920703097E+02  0.88350378149E+02  0.79589104176E+02 0.  0.
         25    2    1    2    0    0  0.23376555173E+02 -0.30675504093E+02  0.18699806949E+03  0.22826198813E+03  0.12509119612E+03 0.  0.
        -24    2    1    2    0    0 -0.14000117330E+02  0.11583229669E+02  0.69204770953E+03  0.69741005788E+03  0.84383541413E+02 0.  0.
        -13    1    3    3    0    0 -0.33642263060E+02 -0.16474581893E+01  0.10481531088E+02  0.35275749123E+02  0.00000000000E+00 0.  1.
         14    1    3    3    0    0  0.24265825217E+02  0.20739732614E+02 -0.42402234185E+02  0.53074629026E+02  0.00000000000E+00 0. -1.
         13    1    5    5    0    0  0.13877368438E+02  0.42740251869E+01  0.61463902204E+03  0.61481052046E+03  0.00000000000E+00 0. -1.
        -14    1    5    5    0    0 -0.27877485768E+02  0.73092044822E+01  0.77408687490E+02  0.82599537419E+02  0.00000000000E+00 0.  1.
          5    1    4    4  501    0  0.16787367145E+02  0.92355737419E+01  0.18656507576E+03  0.18759294073E+03  0.41800000000E+01 0. -1.
         -5    1    4    4    0  501  0.65891880278E+01 -0.39911077835E+02  0.43299373392E+00  0.40669047400E+02  0.41800000000E+01 0. -1.
</event>
<event>
11    1  0.7105277E-009  0.1676757E+03  0.7561462E-02  0.1080072E+00
         22   -1    0    0    0    0  0.00000000000E+00  0.00000000000E+00  0.96752619782E+03  0.96752619782E+03  0.00000000000E+00 0.  1.
         22   -1    0    0    0    0 -0.00000000000E+00 -0.00000000000E+00 -0.14425807828E+03  0.14425807828E+03  0.00000000000E+00 0.  1.
         24    2    1    2    0    0  0.47430286736E+02 -0.19035666843E+02 -0.53747621935E+02  0.10727327217E+03  0.77503286033E+02 0.  0.
         25    2    1    2    0    0 -0.63621562438E+02  0.12708634114E+03  0.96523182566E+02  0.21251443636E+03  0.12508804730E+03 0.  0.
        -24    2    1    2    0    0  0.16191275702E+02 -0.10805067430E+03  0.78049255891E+03  0.79199656758E+03  0.78439931887E+02 0.  0.
        -13    1    3    3    0    0  0.60395211029E+02 -0.32735848714E+02 -0.55521077605E+02  0.88327840258E+02  0.00000000000E+00 0.  1.
         14    1    3    3    0    0 -0.12964924293E+02  0.13700181871E+02  0.17734556705E+01  0.18945431910E+02  0.00000000000E+00 0. -1.
         11    1    5    5    0    0 -0.26786892431E+02 -0.14479035147E+02  0.13935164226E+03  0.14263961675E+03  0.00000000000E+00 0. -1.
        -12    1    5    5    0    0  0.42978168133E+02 -0.93571639154E+02  0.64114091665E+03  0.64935695083E+03  0.00000000000E+00 0.  1.
          5    1    4    4  501    0 -0.60863529853E+01 -0.77965244469E+01 -0.21630563225E+02  0.24149185319E+02  0.41800000000E+01 0. -1.
         -5    1    4    4    0  501 -0.57535209452E+02  0.13488286559E+03  0.11815374579E+03  0.18836525105E+03  0.41800000000E+01 0. -1.
</event>
<event>
11    1  0.7105277E-009  0.1463050E+03  0.7561462E-02  0.1100715E+00
         22   -1    0    0    0    0  0.00000000000E+00  0.00000000000E+00  0.14488918767E+03  0.14488918767E+03  0.00000000000E+00 0.  1.
         22   -1    0    0    0    0 -0.00000000000E+00 -0.00000000000E+00 -0.11091360709E+04  0.11091360709E+04  0.00000000000E+00 0.  1.
        -24    2    1    2    0    0 -0.17502969218E+02 -0.58481404407E+02 -0.83423365922E+03  0.84019512026E+03  0.79092435402E+02 0.  0.
         25    2    1    2    0    0 -0.23084284911E+02  0.11787655901E+03 -0.21431451587E+03  0.27568988119E+03  0.12508569665E+03 0.  0.
         24    2    1    2    0    0  0.40587254129E+02 -0.59395154600E+02  0.84301291830E+02  0.13814025716E+03  0.82467649755E+02 0.  0.
        -11    1    5    5    0    0  0.59405010961E+02 -0.51249034133E+02  0.87347911616E+02  0.11740986539E+03  0.00000000000E+00 0.  1.
         12    1    5    5    0    0 -0.18817756832E+02 -0.81461204670E+01 -0.30466197853E+01  0.20730391771E+02  0.00000000000E+00 0. -1.
         11    1    3    3    0    0  0.38252413002E+00  0.69062010150E+01 -0.58974729726E+01  0.90896713159E+01  0.00000000000E+00 0. -1.
        -12    1    3    3    0    0 -0.17885493348E+02 -0.65387605422E+02 -0.82833618625E+03  0.83110544895E+03  0.00000000000E+00 0.  1.
          5    1    4    4  501    0 -0.55247570029E+02  0.54009542864E+01 -0.57865691138E+02  0.80295547275E+02  0.41800000000E+01 0.  1.
         -5    1    4    4    0  501  0.32163285118E+02  0.11247560472E+03 -0.15644882473E+03  0.19539433392E+03  0.41800000000E+01 0.  1.
</event>
<event>
11    1  0.7105277E-009  0.1313048E+03  0.7561462E-02  0.1117676E+00
         22   -1    0    0    0    0  0.00000000000E+00  0.00000000000E+00  0.30684111928E+03  0.30684111928E+03  0.00000000000E+00 0.  1.
         22   -1    0    0    0    0 -0.00000000000E+00 -0.00000000000E+00 -0.26042461731E+03  0.26042461731E+03  0.00000000000E+00 0. -1.
        -24    2    1    2    0    0  0.72436625299E+01  0.41872060174E+02 -0.17498787253E+03  0.19773523977E+03  0.81686776446E+02 0.  0.
         25    2    1    2    0    0 -0.10492126981E+02 -0.24548731410E+02 -0.53299249132E+01  0.12801671797E+03  0.12508855678E+03 0.  0.
         24    2    1    2    0    0  0.32484644509E+01 -0.17323328764E+02  0.22673429941E+03  0.24151377886E+03  0.81300754052E+02 0.  0.
        -11    1    5    5    0    0  0.34496525148E+02 -0.27922662043E+02  0.17172217518E+03  0.17736457017E+03  0.00000000000E+00 0.  1.
         12    1    5    5    0    0 -0.31248060697E+02  0.10599333279E+02  0.55012124228E+02  0.64149208689E+02  0.00000000000E+00 0. -1.
         13    1    3    3    0    0  0.29237812194E+02  0.43394925252E+02 -0.16578180304E+03  0.17384353718E+03  0.00000000000E+00 0. -1.
        -14    1    3    3    0    0 -0.21994149664E+02 -0.15228650780E+01 -0.92060694887E+01  0.23891702596E+02  0.00000000000E+00 0.  1.
          5    1    4    4  501    0 -0.54335482350E+02 -0.52518325748E+02 -0.49018726361E+01  0.75842072341E+02  0.41800000000E+01 0. -1.
         -5    1    4    4    0  501  0.43843355369E+02  0.27969594338E+02 -0.42805227713E+00  0.52174645626E+02  0.41800000000E+01 0. -1.
</event>
<event>
11    1  0.7105277E-009  0.1887787E+03  0.7561462E-02  0.1062755E+00
         22   -1    0    0    0    0  0.00000000000E+00  0.00000000000E+00  0.47377724690E+03  0.47377724690E+03  0.00000000000E+00 0. -1.
         22   -1    0    0    0    0 -0.00000000000E+00 -0.00000000000E+00 -0.42763349096E+03  0.42763349096E+03  0.00000000000E+00 0. -1.
         24    2    1    2    0    0  0.88664590391E+01 -0.13884150000E+03 -0.34646836234E+03  0.38177176518E+03  0.79710591310E+02 0.  0.
         25    2    1    2    0    0 -0.40887944636E+02  0.16634084067E+03  0.16186588172E+03  0.26681260793E+03  0.12508918737E+03 0.  0.
        -24    2    1    2    0    0  0.32021485596E+02 -0.27499340673E+02  0.23074623657E+03  0.25282636475E+03  0.94317314128E+02 0.  0.
        -13    1    3    3    0    0 -0.26212501844E+02 -0.43434100441E+02 -0.17726688266E+03  0.18438319886E+03  0.00000000000E+00 0.  1.
         14    1    3    3    0    0  0.35078960883E+02 -0.95407399559E+02 -0.16920147968E+03  0.19738856632E+03  0.00000000000E+00 0. -1.
         11    1    5    5    0    0  0.15092814034E+02  0.43287132680E+01  0.21126805665E+03  0.21185070818E+03  0.00000000000E+00 0. -1.
        -12    1    5    5    0    0  0.16928671562E+02 -0.31828053941E+02  0.19478179917E+02  0.40975656571E+02  0.00000000000E+00 0.  1.
          5    1    4    4  501    0 -0.42720797835E+02  0.54707736309E+02  0.13506828712E+03  0.15191746958E+03  0.41800000000E+01 0.  1.
         -5    1    4    4    0  501  0.18328531997E+01  0.11163310436E+03  0.26797594600E+02  0.11489513835E+03  0.41800000000E+01 0.  1.
</event>
<event>
11    1  0.7105277E-009  0.2575096E+03  0.7561462E-02  0.1019973E+00
         22   -1    0    0    0    0  0.00000000000E+00  0.00000000000E+00  0.23735786997E+04  0.23735786997E+04  0.00000000000E+00 0. -1.
         22   -1    0    0    0    0 -0.00000000000E+00 -0.00000000000E+00 -0.50565395600E+02  0.50565395600E+02  0.00000000000E+00 0. -1.
        -24    2    1    2    0    0 -0.19402356552E+03  0.16667133201E+03  0.64412698600E+03  0.69785619308E+03  0.81726465991E+02 0.  0.
         25    2    1    2    0    0  0.15753491388E+03 -0.11697944133E+03  0.61576427633E+03  0.65826628421E+03  0.12508964042E+03 0.  0.
         24    2    1    2    0    0  0.36488651642E+02 -0.49691890676E+02  0.10631220418E+04  0.10680216180E+04  0.81492301013E+02 0.  0.
        -13    1    5    5    0    0  0.43600339778E+02 -0.30643077289E+02  0.30457218001E+03  0.30919928953E+03  0.00000000000E+00 0.  1.
         14    1    5    5    0    0 -0.71116881364E+01 -0.19048813387E+02  0.75854986176E+03  0.75882232847E+03  0.00000000000E+00 0. -1.
         11    1    3    3    0    0 -0.14899150376E+03  0.10158299980E+03  0.35613648938E+03  0.39918764148E+03  0.00000000000E+00 0. -1.
        -12    1    3    3    0    0 -0.45032061762E+02  0.65088332212E+02  0.28799049661E+03  0.29866855160E+03  0.00000000000E+00 0.  1.
          5    1    4    4  501    0  0.79797845876E+02 -0.52610958980E+02  0.12606782228E+03  0.15825984148E+03  0.41800000000E+01 0. -1.
         -5    1    4    4    0  501  0.77737068005E+02 -0.64368482350E+02  0.48969645405E+03  0.50000644273E+03  0.41800000000E+01 0. -1.
</event>
<event>
11    1  0.7105277E-009  0.1351923E+03  0.7561462E-02  0.1113049E+00
         22   -1    0    0    0    0  0.00000000000E+00  0.00000000000E+00  0.10897964279E+03  0.10897964279E+03  0.00000000000E+00 0.  1.
         22   -1    0    0    0    0 -0.00000000000E+00 -0.00000000000E+00 -0.50456593355E+03  0.50456593355E+03  0.00000000000E+00 0.  1.
         24    2    1    2    0    0  0.55534331932E+02 -0.11494715474E+02 -0.19913485566E+03  0.22174790166E+03  0.79380417247E+02 0.  0.
         25    2    1    2    0    0 -0.44909953424E+02 -0.21390393638E+02 -0.25450819580E+03  0.28791759027E+03  0.12509062396E+03 0.  0.
        -24    2    1    2    0    0 -0.10624378507E+02  0.32885109112E+02  0.58056760709E+02  0.10388008441E+03  0.78906125580E+02 0.  0.
        -11    1    3    3    0    0  0.69996363828E+02  0.96298065611E+01 -0.12893053195E+03  0.14702144807E+03  0.00000000000E+00 0.  1.
         12    1    3    3    0    0 -0.14462031896E+02 -0.21124522036E+02 -0.70204323708E+02  0.74726453583E+02  0.00000000000E+00 0. -1.
         11    1    5    5    0    0 -0.20881459207E+02  0.94220812995E-01 -0.13247904536E+02  0.24729561071E+02  0.00000000000E+00 0. -1.
        -12    1    5    5    0    0  0.10257080700E+02  0.32790888299E+02  0.71304665245E+02  0.79150523344E+02  0.00000000000E+00 0.  1.
          5    1    4    4  501    0 -0.42995357451E+02  0.27053137551E+02 -0.22566677966E+03  0.23135133641E+03  0.41800000000E+01 0.  1.
         -5    1    4    4    0  501 -0.19145959734E+01 -0.48443531188E+02 -0.28841416140E+02  0.56566253869E+02  0.41800000000E+01 0.  1.
</event>
<event>
11    1  0.7105277E-009  0.1853532E+03  0.7561462E-02  0.1065393E+00
         22   -1    0    0    0    0  0.00000000000E+00  0.00000000000E+00  0.35524831434E+04  0.35524831434E+04  0.00000000000E+00 0.  1.
         22   -1    0    0    0    0 -0.00000000000E+00 -0.00000000000E+00 -0.42893433472E+03  0.42893433472E+03  0.00000000000E+00 0.  1.
        -24    2    1    2    0    0 -0.42292119468E+02 -0.21543404504E+02 -0.32297606287E+03  0.33617340817E+03  0.80288738521E+02 0.  0.
         25    2    1    2    0    0  0.19497536318E+02 -0.11384715233E+03 -0.23219967269E+02  0.17183813615E+03  0.12509136716E+03 0.  0.
         24    2    1    2    0    0  0.22794583150E+02  0.13539055683E+03  0.34697448388E+04  0.34734059338E+04  0.81051456223E+02 0.  0.
        -11    1    5    5    0    0  0.22804288127E+02  0.79357066304E+02  0.28322369813E+04  0.28334402936E+04  0.00000000000E+00 0.  1.
         12    1    5    5    0    0 -0.97049776051E-02  0.56033490529E+02  0.63750785752E+03  0.63996564014E+03  0.00000000000E+00 0. -1.
         13    1    3    3    0    0 -0.44367030463E+02  0.56477857717E+01 -0.79847347371E+02  0.91520105761E+02  0.00000000000E+00 0. -1.
        -14    1    3    3    0    0  0.20749109956E+01 -0.27191190276E+02 -0.24312871549E+03  0.24465330241E+03  0.00000000000E+00 0.  1.
          5    1    4    4  501    0  0.50586802657E+02 -0.43455239945E+02 -0.56872395385E+02  0.87745793281E+02  0.41800000000E+01 0. -1.
         -5    1    4    4    0  501 -0.31089266338E+02 -0.70391912383E+02  0.33652428116E+02  0.84092342865E+02  0.41800000000E+01 0. -1.
</event>
<event>
11    1  0.7105277E-009  0.1508312E+03  0.7561462E-02  0.1096033E+00
         22   -1    0    0    0    0  0.00000000000E+00  0.00000000000E+00  0.20807869930E+03  0.20807869930E+03  0.00000000000E+00 0.  1.
         22   -1    0    0    0    0 -0.00000000000E+00 -0.00000000000E+00 -0.98299460855E+03  0.98299460855E+03  0.00000000000E+00 0. -1.
         24    2    1    2    0    0  0.54968478884E+02 -0.66622113929E+02 -0.85528312505E+03  0.86334755717E+03  0.79998379650E+02 0.  0.
         25    2    1    2    0    0 -0.12658800248E+02  0.67029764793E+02 -0.64496747278E+02  0.15640411769E+03  0.12509669472E+03 0.  0.
        -24    2    1    2    0    0 -0.42309678636E+02 -0.40765086393E+00  0.14486396308E+03  0.17132163299E+03  0.81087971029E+02 0.  0.
        -13    1    3    3    0    0  0.63202984847E+02 -0.32394032651E+02 -0.36775672508E+03  0.37455173139E+03  0.00000000000E+00 0.  1.
         14    1    3    3    0    0 -0.82345059629E+01 -0.34228081277E+02 -0.48752639997E+03  0.48879582578E+03  0.00000000000E+00 0. -1.
         11    1    5    5    0    0  0.21265742859E+02  0.90058632108E+01  0.63933186114E+02  0.67976390594E+02  0.00000000000E+00 0. -1.
        -12    1    5    5    0    0 -0.63575421495E+02 -0.94135140747E+01  0.80930776965E+02  0.10334524239E+03  0.00000000000E+00 0.  1.
          5    1    4    4  501    0 -0.80618822763E+01 -0.34859613433E+02 -0.70086587793E+00  0.36029851617E+02  0.41800000000E+01 0.  1.
         -5    1    4    4    0  501 -0.45969179716E+01  0.10188937823E+03 -0.63795881400E+02  0.12037426608E+03  0.41800000000E+01 0.  1.
</event>
<event>
11    1  0.7105277E-009  0.1931524E+03  0.7561462E-02  0.1059474E+00
         22   -1    0    0    0    0  0.00000000000E+00  0.00000000000E+00  0.65697007206E+02  0.65697007206E+02  0.00000000000E+00 0. -1.
         22   -1    0    0    0    0 -0.00000000000E+00 -0.00000000000E+00 -0.33392883796E+04  0.33392883796E+04  0.00000000000E+00 0.  1.
         24    2    1    2    0    0 -0.39541691652E+02 -0.15344536696E+03 -0.25734833857E+04  0.25795407423E+04  0.78132441486E+02 0.  0.
         25    2    1    2    0    0  0.78994992221E+02  0.88618803411E+02 -0.69287523198E+03  0.71401587478E+03  0.12509628786E+03 0.  0.
        -24    2    1    2    0    0 -0.39453300569E+02  0.64826563545E+02 -0.72327546649E+01  0.11142876973E+03  0.81271223175E+02 0.  0.
        -13    1    3    3    0    0 -0.10297468323E+02 -0.13799842151E+03 -0.17812177329E+04  0.17865850705E+04  0.00000000000E+00 0.  1.
         14    1    3    3    0    0 -0.29244223329E+02 -0.15446945445E+02 -0.79226565279E+03  0.79295567172E+03  0.00000000000E+00 0. -1.
         13    1    5    5    0    0 -0.36553691980E+02  0.75096536166E+02 -0.27992706237E+02  0.88086626363E+02  0.00000000000E+00 0. -1.
        -14    1    5    5    0    0 -0.28996085891E+01 -0.10269972621E+02  0.20759951573E+02  0.23342143366E+02  0.00000000000E+00 0.  1.
          5    1    4    4  501    0  0.38641258274E+02 -0.15761661528E+02 -0.73729723348E+02  0.84824060973E+02  0.41800000000E+01 0. -1.
         -5    1    4    4    0  501  0.40353733947E+02  0.10438046494E+03 -0.61914550863E+03  0.62919181381E+03  0.41800000000E+01 0. -1.
</event>
<event>
11    1  0.7105277E-009  0.1860000E+03  0.7561462E-02  0.1064890E+00
         22   -1    0    0    0    0  0.00000000000E+00  0.00000000000E+00  0.17563407423E+04  0.17563407423E+04  0.00000000000E+00 0.  1.
         22   -1    0    0    0    0 -0.00000000000E+00 -0.00000000000E+00 -0.89570002038E+02  0.89570002038E+02  0.00000000000E+00 0.  1.
        -24    2    1    2    0    0  0.70005819811E+01 -0.12427378724E+03  0.56353474466E+02  0.15539078072E+03  0.74010798569E+02 0.  0.
         25    2    1    2    0    0 -0.31436714345E+02  0.17381698043E+03  0.26748631494E+03  0.34408688889E+03  0.12508496605E+03 0.  0.
         24    2    1    2    0    0  0.24436132364E+02 -0.49543193192E+02  0.13429309509E+04  0.13464330748E+04  0.79792439483E+02 0.  0.
        -13    1    5    5    0    0  0.84741861684E+01 -0.17072426669E+02  0.11488609714E+04  0.11490190647E+04  0.00000000000E+00 0.  1.
         14    1    5    5    0    0  0.15961946196E+02 -0.32470766522E+02  0.19406997954E+03  0.19741401005E+03  0.00000000000E+00 0. -1.
         13    1    3    3    0    0 -0.25282315664E+02 -0.12064602628E+02  0.95064517219E+01  0.29582473633E+02  0.00000000000E+00 0. -1.
        -14    1    3    3    0    0  0.32282897645E+02 -0.11220918461E+03  0.46847022744E+02  0.12580830709E+03  0.00000000000E+00 0.  1.
          5    1    4    4  501    0 -0.55888868346E+02  0.49568765287E+02  0.16483635974E+03  0.18102244609E+03  0.41800000000E+01 0.  1.
         -5    1    4    4    0  501  0.24452154000E+02  0.12424821515E+03  0.10264995520E+03  0.16306444280E+03  0.41800000000E+01 0.  1.
</event>
<event>
11    1  0.7105277E-009  0.1636408E+03  0.7561462E-02  0.1083702E+00
         22   -1    0    0    0    0  0.00000000000E+00  0.00000000000E+00  0.17037891605E+04  0.17037891605E+04  0.00000000000E+00 0.  1.
         22   -1    0    0    0    0 -0.00000000000E+00 -0.00000000000E+00 -0.54316768226E+02  0.54316768226E+02  0.00000000000E+00 0.  1.
        -24    2    1    2    0    0  0.87751655096E+02 -0.56144112579E+02  0.63787375789E+02  0.14568103072E+03  0.79382737751E+02 0.  0.
         25    2    1    2    0    0 -0.10705117312E+03  0.42497191257E+02  0.61080789088E+03  0.63403415660E+03  0.12508823781E+03 0.  0.
         24    2    1    2    0    0  0.19299518024E+02  0.13646921322E+02  0.97487712563E+03  0.97839074143E+03  0.79399766898E+02 0.  0.
        -11    1    5    5    0    0  0.19091994313E+02 -0.30607417650E+02  0.55979793187E+03  0.56095903842E+03  0.00000000000E+00 0.  1.
         12    1    5    5    0    0  0.20752371168E+00  0.44254338972E+02  0.41507919376E+03  0.41743170301E+03  0.00000000000E+00 0. -1.
         11    1    3    3    0    0  0.48944984614E+02 -0.48104379096E+02  0.77710878108E+02  0.10367556792E+03  0.00000000000E+00 0. -1.
        -12    1    3    3    0    0  0.38806670483E+02 -0.80397334829E+01 -0.13923502319E+02  0.42005462803E+02  0.00000000000E+00 0.  1.
          5    1    4    4  501    0 -0.81539889037E+02  0.39817223555E+02  0.17249760855E+03  0.19495400009E+03  0.41800000000E+01 0. -1.
         -5    1    4    4    0  501 -0.25511284084E+02  0.26799677024E+01  0.43831028233E+03  0.43908015651E+03  0.41800000000E+01 0. -1.
</event>
<event>
11    1  0.7105277E-009  0.1507090E+03  0.7561462E-02  0.1096157E+00
         22   -1    0    0    0    0  0.00000000000E+00  0.00000000000E+00  0.34957626946E+04  0.34957626946E+04  0.00000000000E+00 0. -1.
         22   -1    0    0    0    0 -0.00000000000E+00 -0.00000000000E+00 -0.45590290292E+02  0.45590290292E+02  0.00000000000E+00 0.  1.
        -24    2    1    2    0    0 -0.54325995143E+01  0.76160123862E+02  0.79678878233E+02  0.13518104918E+03  0.78072497188E+02 0.  0.
         25    2    1    2    0    0  0.22356693531E+02 -0.11259540591E+03  0.40278623698E+03  0.43710715755E+03  0.12509343431E+03 0.  0.
         24    2    1    2    0    0 -0.16924094017E+02  0.36435282052E+02  0.29677072891E+04  0.29690647782E+04  0.80281681522E+02 0.  0.
        -11    1    5    5    0    0  0.22484428045E+02 -0.47694231830E+01  0.16058367503E+04  0.16060012346E+04  0.00000000000E+00 0.  1.
         12    1    5    5    0    0 -0.39408522062E+02  0.41204705235E+02  0.13618705389E+04  0.13630635436E+04  0.00000000000E+00 0. -1.
         13    1    3    3    0    0 -0.36125705596E+02  0.55783314101E+02  0.71158687788E+02  0.97367364063E+02  0.00000000000E+00 0. -1.
        -14    1    3    3    0    0  0.30693106082E+02  0.20376809761E+02  0.85201904447E+01  0.37813685118E+02  0.00000000000E+00 0.  1.
          5    1    4    4  501    0  0.11870397350E+02  0.23708409489E+02  0.31242431446E+02  0.41189281815E+02  0.41800000000E+01 0.  1.
         -5    1    4    4    0  501  0.10486296182E+02 -0.13630381540E+03  0.37154380553E+03  0.39591787574E+03  0.41800000000E+01 0.  1.
</event>
<event>
11    1  0.7105277E-009  0.1761782E+03  0.7561462E-02  0.1072777E+00
         22   -1    0    0    0    0  0.00000000000E+00  0.00000000000E+00  0.59851759182E+03  0.59851759182E+03  0.00000000000E+00 0. -1.
         22   -1    0    0    0    0 -0.00000000000E+00 -0.00000000000E+00 -0.13134462665E+04  0.13134462665E+04  0.00000000000E+00 0. -1.
         24    2    1    2    0    0  0.50074104988E+02 -0.67999334171E+02 -0.12442616813E+04  0.12497082819E+04  0.80326414279E+02 0.  0.
         25    2    1    2    0    0  0.67477322718E+01 -0.62195140872E+02  0.42339257673E+02  0.14612338383E+03  0.12508262518E+03 0.  0.
        -24    2    1    2    0    0 -0.56821837260E+02  0.13019447504E+03  0.48699374895E+03  0.51613219261E+03  0.95132571803E+02 0.  0.
        -13    1    3    3    0    0  0.18725946343E+02 -0.28516828106E+02 -0.13306997285E+03  0.13737353539E+03  0.00000000000E+00 0.  1.
         14    1    3    3    0    0  0.31348158645E+02 -0.39482506065E+02 -0.11111917085E+04  0.11123347465E+04  0.00000000000E+00 0. -1.
         11    1    5    5    0    0 -0.65471182105E+02  0.40541945231E+02  0.27989699869E+03  0.29029718374E+03  0.00000000000E+00 0. -1.
        -12    1    5    5    0    0  0.86493448454E+01  0.89652529812E+02  0.20709675025E+03  0.22583500888E+03  0.00000000000E+00 0.  1.
          5    1    4    4  501    0 -0.54613329459E+02 -0.85986749009E+01  0.31663297258E+02  0.63848177405E+02  0.41800000000E+01 0.  1.
         -5    1    4    4    0  501  0.61361061731E+02 -0.53596465971E+02  0.10675960415E+02  0.82275206424E+02  0.41800000000E+01 0.  1.
</event>
<event>
11    1  0.7105277E-009  0.1540236E+03  0.7561462E-02  0.1092837E+00
         22   -1    0    0    0    0  0.00000000000E+00  0.00000000000E+00  0.14453562760E+04  0.14453562760E+04  0.00000000000E+00 0. -1.
         22   -1    0    0    0    0 -0.00000000000E+00 -0.00000000000E+00 -0.30082190758E+03  0.30082190758E+03  0.00000000000E+00 0. -1.
         24    2    1    2    0    0 -0.59905633314E+02  0.12585901311E+02 -0.22131746477E+03  0.24305765164E+03  0.79677550120E+02 0.  0.
         25    2    1    2    0    0  0.12454221035E+03  0.47787526430E+02  0.60920723578E+02  0.19275322366E+03  0.12509220931E+03 0.  0.
        -24    2    1    2    0    0 -0.64636577041E+02 -0.60373427741E+02  0.13049311096E+04  0.13103673083E+04  0.79965266876E+02 0.  0.
        -11    1    3    3    0    0 -0.26338773262E+02 -0.30095141555E+02 -0.54321864450E+02  0.67456011440E+02  0.00000000000E+00 0.  1.
         12    1    3    3    0    0 -0.33566860051E+02  0.42681042866E+02 -0.16699560032E+03  0.17560164020E+03  0.00000000000E+00 0. -1.
         11    1    5    5    0    0 -0.61261003501E+02 -0.69414182620E+02  0.12838337065E+04  0.12871675203E+04  0.00000000000E+00 0. -1.
        -12    1    5    5    0    0 -0.33755735403E+01  0.90407548786E+01  0.21097403108E+02  0.23199788003E+02  0.00000000000E+00 0.  1.
          5    1    4    4  501    0  0.20591877157E+01  0.37503487995E+02 -0.22651276622E+02  0.44060238293E+02  0.41800000000E+01 0.  1.
         -5    1    4    4    0  501  0.12248302264E+03  0.10284038435E+02  0.83572000200E+02  0.14869298537E+03  0.41800000000E+01 0.  1.
</event>
<event>
11    1  0.7105277E-009  0.1443067E+03  0.7561462E-02  0.1102842E+00
         22   -1    0    0    0    0  0.00000000000E+00  0.00000000000E+00  0.21947433400E+03  0.21947433400E+03  0.00000000000E+00 0.  1.
         22   -1    0    0    0    0 -0.00000000000E+00 -0.00000000000E+00 -0.12064811577E+04  0.12064811577E+04  0.00000000000E+00 0. -1.
         24    2    1    2    0    0 -0.69636772159E+02  0.18679109328E+02 -0.10785538807E+04  0.10838835925E+04  0.79542311066E+02 0.  0.
         25    2    1    2    0    0  0.72550581166E+02  0.31746333199E+01 -0.70031928010E+02  0.16070366081E+03  0.12509008966E+03 0.  0.
        -24    2    1    2    0    0 -0.29138090068E+01 -0.21853742648E+02  0.16157898500E+03  0.18136823845E+03  0.79376275873E+02 0.  0.
        -13    1    3    3    0    0 -0.41962420111E+02 -0.84181024842E+01 -0.20247020342E+03  0.20694417707E+03  0.00000000000E+00 0.  1.
         14    1    3    3    0    0 -0.27674352048E+02  0.27097211812E+02 -0.87608367729E+03  0.87693941539E+03  0.00000000000E+00 0. -1.
         13    1    5    5    0    0 -0.23846975402E+02 -0.20799218161E+02  0.18278376852E+02  0.36542916855E+02  0.00000000000E+00 0. -1.
        -14    1    5    5    0    0  0.20933166396E+02 -0.10545244874E+01  0.14330060815E+03  0.14482532159E+03  0.00000000000E+00 0.  1.
          5    1    4    4  501    0  0.29094805588E+02  0.51040314893E+02 -0.75422409382E+02  0.95695525985E+02  0.41800000000E+01 0. -1.
         -5    1    4    4    0  501  0.43455775578E+02 -0.47865681573E+02  0.53904813714E+01  0.65008134821E+02  0.41800000000E+01 0. -1.
</event>
<event>
11    1  0.7105277E-009  0.1767024E+03  0.7561462E-02  0.1072342E+00
         22   -1    0    0    0    0  0.00000000000E+00  0.00000000000E+00  0.22272029007E+04  0.22272029007E+04  0.00000000000E+00 0.  1.
         22   -1    0    0    0    0 -0.00000000000E+00 -0.00000000000E+00 -0.48483161570E+02  0.48483161570E+02  0.00000000000E+00 0.  1.
        -24    2    1    2    0    0 -0.40947438490E+02 -0.48720084127E+02  0.65428993811E+02  0.12250388927E+03  0.81706244182E+02 0.  0.
         25    2    1    2    0    0 -0.89029602878E+02  0.62681512714E+02  0.40217431660E+03  0.43502489785E+03  0.12508892272E+03 0.  0.
         24    2    1    2    0    0  0.12997704137E+03 -0.13961428587E+02  0.17111164287E+04  0.17181572751E+04  0.84000218901E+02 0.  0.
        -13    1    5    5    0    0  0.11707556612E+03  0.18034467956E+02  0.14379658990E+04  0.14428367395E+04  0.00000000000E+00 0.  1.
         14    1    5    5    0    0  0.12901475247E+02 -0.31995896542E+02  0.27315052969E+03  0.27532053561E+03  0.00000000000E+00 0. -1.
         11    1    3    3    0    0  0.16577429351E+01 -0.42760160543E+01  0.60572423230E+02  0.60745788997E+02  0.00000000000E+00 0. -1.
        -12    1    3    3    0    0 -0.42605181426E+02 -0.44444068073E+02  0.48565705804E+01  0.61758100270E+02  0.00000000000E+00 0.  1.
          5    1    4    4  501    0 -0.19835028639E+02 -0.32925723905E+02  0.47735951743E+02  0.61430653135E+02  0.41800000000E+01 0.  1.
         -5    1    4    4    0  501 -0.69194574238E+02  0.95607236619E+02  0.35443836486E+03  0.37359424471E+03  0.41800000000E+01 0.  1.
</event>
<event>
11    1  0.7105277E-009  0.2193818E+03  0.7561462E-02  0.1041605E+00
         22   -1    0    0    0    0  0.00000000000E+00  0.00000000000E+00  0.27275361583E+04  0.27275361583E+04  0.00000000000E+00 0. -1.
         22   -1    0    0    0    0 -0.00000000000E+00 -0.00000000000E+00 -0.32292887510E+04  0.32292887510E+04  0.00000000000E+00 0.  1.
         24    2    1    2    0    0 -0.49478563314E+02  0.11089642867E+03 -0.28986772407E+04  0.29026021092E+04  0.89571825702E+02 0.  0.
         25    2    1    2    0    0 -0.13117809755E+03 -0.10285145320E+03 -0.29160376756E+03  0.35841541943E+03  0.12507094357E+03 0.  0.
        -24    2    1    2    0    0  0.18065666087E+03 -0.80449754746E+01  0.26885284156E+04  0.26958073807E+04  0.80565759264E+02 0.  0.
        -11    1    3    3    0    0 -0.97638341986E+01  0.41297362704E+02 -0.19748857339E+04  0.19753416076E+04  0.00000000000E+00 0.  1.
         12    1    3    3    0    0 -0.39714729115E+02  0.69599065969E+02 -0.92379150680E+03  0.92726050155E+03  0.00000000000E+00 0. -1.
         11    1    5    5    0    0  0.18777567790E+03 -0.74117566893E+01  0.26475043309E+04  0.26541653719E+04  0.00000000000E+00 0. -1.
        -12    1    5    5    0    0 -0.71190170303E+01 -0.63321878533E+00  0.41024084724E+02  0.41642008800E+02  0.00000000000E+00 0.  1.
          5    1    4    4  501    0  0.24687463489E+02 -0.12123618650E+02 -0.44208112769E+02  0.52232964853E+02  0.41800000000E+01 0. -1.
         -5    1    4    4    0  501 -0.15586556104E+03 -0.90727834549E+02 -0.24739565479E+03  0.30618245457E+03  0.41800000000E+01 0. -1.
</event>
<event>
11    1  0.7105277E-009  0.1321231E+03  0.7561462E-02  0.1116688E+00
         22   -1    0    0    0    0  0.00000000000E+00  0.00000000000E+00  0.88927622194E+03  0.88927622194E+03  0.00000000000E+00 0. -1.
         22   -1    0    0    0    0 -0.00000000000E+00 -0.00000000000E+00 -0.94910851080E+03  0.94910851080E+03  0.00000000000E+00 0.  1.
         24    2    1    2    0    0 -0.52341059816E+00  0.25243247942E+02 -0.92532603104E+03  0.92922419200E+03  0.81190145561E+02 0.  0.
         25    2    1    2    0    0 -0.30622716352E+02  0.75559745323E+01  0.20500058334E+03  0.24221154788E+03  0.12508537584E+03 0.  0.
        -24    2    1    2    0    0  0.31146126950E+02 -0.32799222474E+02  0.66049315885E+03  0.66694899287E+03  0.80770514375E+02 0.  0.
        -13    1    3    3    0    0 -0.39406013119E+02  0.46372426156E+01 -0.52161181697E+03  0.52311874894E+03  0.00000000000E+00 0.  1.
         14    1    3    3    0    0  0.38882602521E+02  0.20606005326E+02 -0.40371421407E+03  0.40610544306E+03  0.00000000000E+00 0. -1.
         13    1    5    5    0    0 -0.15946720495E+02  0.95685523645E+01  0.32475565702E+03  0.32528770628E+03  0.00000000000E+00 0. -1.
        -14    1    5    5    0    0  0.47092847445E+02 -0.42367774839E+02  0.33573750182E+03  0.34166128659E+03  0.00000000000E+00 0.  1.
          5    1    4    4  501    0 -0.73941202581E+02 -0.20640177973E+02  0.12993654236E+03  0.15097779912E+03  0.41800000000E+01 0.  1.
         -5    1    4    4    0  501  0.43318486229E+02  0.28196152505E+02  0.75064040976E+02  0.91233748760E+02  0.41800000000E+01 0.  1.
</event>
<event>
11    1  0.7105277E-009  0.1807078E+03  0.7561462E-02  0.1069072E+00
         22   -1    0    0    0    0  0.00000000000E+00  0.00000000000E+00  0.49063648883E+03  0.49063648883E+03  0.00000000000E+00 0.  1.
         22   -1    0    0    0    0 -0.00000000000E+00 -0.00000000000E+00 -0.16969318014E+04  0.16969318014E+04  0.00000000000E+00 0.  1.
         24    2    1    2    0    0 -0.28818023543E+02  0.40027987183E+02 -0.13328037722E+04  0.13361078373E+04  0.79909571048E+02 0.  0.
         25    2    1    2    0    0  0.14774998088E+03  0.12566617742E+02 -0.32277635936E+03  0.37659063870E+03  0.12509178336E+03 0.  0.
        -24    2    1    2    0    0 -0.11893195734E+03 -0.52594604925E+02  0.44928481896E+03  0.47486981423E+03  0.82057839217E+02 0.  0.
        -11    1    3    3    0    0 -0.42231721719E+02  0.50965191104E+02 -0.71381170450E+03  0.71687385118E+03  0.00000000000E+00 0.  1.
         12    1    3    3    0    0  0.13413698176E+02 -0.10937203921E+02 -0.61899206768E+03  0.61923398613E+03  0.00000000000E+00 0. -1.
         11    1    5    5    0    0 -0.34581656586E+02  0.11695915655E+02  0.51085900827E+02  0.62788969402E+02  0.00000000000E+00 0. -1.
        -12    1    5    5    0    0 -0.84350300752E+02 -0.64290520580E+02  0.39819891813E+03  0.41208084483E+03  0.00000000000E+00 0.  1.
          5    1    4    4  501    0  0.13288860287E+03  0.15255303168E+02 -0.14195589572E+03  0.19509242368E+03  0.41800000000E+01 0. -1.
         -5    1    4    4    0  501  0.14861378014E+02 -0.26886854266E+01 -0.18082046364E+03  0.18149821502E+03  0.41800000000E+01 0. -1.
</event>
<event>
11    1  0.7105277E-009  0.1458157E+03  0.7561462E-02  0.1101233E+00
         22   -1    0    0    0    0  0.00000000000E+00  0.00000000000E+00  0.57054260535E+02  0.57054260535E+02  0.00000000000E+00 0.  1.
         22   -1    0    0    0    0 -0.00000000000E+00 -0.00000000000E+00 -0.13538598824E+04  0.13538598824E+04  0.00000000000E+00 0. -1.
        -24    2    1    2    0    0  0.70136676602E+02  0.18819996125E+02 -0.10632254890E+04  0.10688624713E+04  0.82129144478E+02 0.  0.
         25    2    1    2    0    0 -0.94922281540E+02 -0.24905333896E+02 -0.19534532500E+03  0.25186852915E+03  0.12508974692E+03 0.  0.
         24    2    1    2    0    0  0.24785604938E+02  0.60853377708E+01 -0.38234807813E+02  0.90183142468E+02  0.77586990592E+02 0.  0.
        -13    1    5    5    0    0 -0.14316001395E+02  0.93492987305E+00  0.17043379945E+02  0.22277764470E+02  0.00000000000E+00 0.  1.
         14    1    5    5    0    0  0.39101606333E+02  0.51504078978E+01 -0.55278187758E+02  0.67905377999E+02  0.00000000000E+00 0. -1.
         13    1    3    3    0    0  0.56880910834E+02  0.38611166149E+02 -0.97674512419E+03  0.97916152794E+03  0.00000000000E+00 0. -1.
        -14    1    3    3    0    0  0.13255765768E+02 -0.19791170023E+02 -0.86480364851E+02  0.89700943371E+02  0.00000000000E+00 0.  1.
          5    1    4    4  501    0 -0.31413769261E+02 -0.43719459683E+02 -0.98900769689E+01  0.54895373909E+02  0.41800000000E+01 0. -1.
         -5    1    4    4    0  501 -0.63508512279E+02  0.18814125787E+02 -0.18545524803E+03  0.19697315524E+03  0.41800000000E+01 0. -1.
</event>
<event>
11    1  0.7105277E-009  0.1859037E+03  0.7561462E-02  0.1064965E+00
         22   -1    0    0    0    0  0.00000000000E+00  0.00000000000E+00  0.58041387304E+03  0.58041387304E+03  0.00000000000E+00 0. -1.
         22   -1    0    0    0    0 -0.00000000000E+00 -0.00000000000E+00 -0.23121683919E+03  0.23121683919E+03  0.00000000000E+00 0. -1.
        -24    2    1    2    0    0  0.14908688809E+02 -0.36439626115E+02 -0.14674650240E+03  0.17362622307E+03  0.84032220119E+02 0.  0.
         25    2    1    2    0    0  0.89008145826E+02  0.12212289981E+03  0.11865288719E+03  0.22926486289E+03  0.12508963600E+03 0.  0.
         24    2    1    2    0    0 -0.10391683463E+03 -0.85683273694E+02  0.37729064906E+03  0.40873962627E+03  0.81114217625E+02 0.  0.
        -11    1    5    5    0    0  0.15768194949E+01 -0.27354621663E+01 -0.36653466341E+01  0.48377555674E+01  0.00000000000E+00 0.  1.
         12    1    5    5    0    0 -0.10549365413E+03 -0.82947811528E+02  0.38095599569E+03  0.40390187070E+03  0.00000000000E+00 0. -1.
         11    1    3    3    0    0  0.25445707885E+02  0.21631886814E+02 -0.60747502269E+02  0.69323023656E+02  0.00000000000E+00 0. -1.
        -12    1    3    3    0    0 -0.10537019076E+02 -0.58071512929E+02 -0.85999000133E+02  0.10430319942E+03  0.00000000000E+00 0.  1.
          5    1    4    4  501    0  0.49396437808E+02  0.50912749061E+00 -0.68224666956E+01  0.50042838955E+02  0.41800000000E+01 0.  1.
         -5    1    4    4    0  501  0.39611708018E+02  0.12161377232E+03  0.12547535388E+03  0.17922202393E+03  0.41800000000E+01 0.  1.
</event>
<event>
11    1  0.7105277E-009  0.1260887E+03  0.7561462E-02  0.1124170E+00
         22   -1    0    0    0    0  0.00000000000E+00  0.00000000000E+00  0.61397578229E+03  0.61397578229E+03  0.00000000000E+00 0. -1.
         22   -1    0    0    0    0 -0.00000000000E+00 -0.00000000000E+00 -0.70078897200E+03  0.70078897200E+03  0.00000000000E+00 0.  1.
        -24    2    1    2    0    0  0.82403451154E+01  0.13444158307E+02 -0.64902370584E+03  0.65460910431E+03  0.83860956456E+02 0.  0.
         25    2    1    2    0    0  0.36424007948E+01 -0.24351849111E+02  0.42955778031E+02  0.13452867634E+03  0.12508591548E+03 0.  0.
         24    2    1    2    0    0 -0.11882745910E+02  0.10907690804E+02  0.51925473810E+03  0.52562697365E+03  0.79987842945E+02 0.  0.
        -11    1    5    5    0    0  0.22502606147E+02 -0.10541964649E+02  0.65325858980E+02  0.69892547196E+02  0.00000000000E+00 0.  1.
         12    1    5    5    0    0 -0.34385352057E+02  0.21449655454E+02  0.45392887912E+03  0.45573442645E+03  0.00000000000E+00 0. -1.
         11    1    3    3    0    0  0.31779301607E+02  0.15845217545E+02 -0.12221745998E+03  0.12727176613E+03  0.00000000000E+00 0. -1.
        -12    1    3    3    0    0 -0.23538956492E+02 -0.24010592384E+01 -0.52680624586E+03  0.52733733818E+03  0.00000000000E+00 0.  1.
          5    1    4    4  501    0  0.17492349820E+02 -0.31718241216E+02  0.83359598458E+02  0.90985296521E+02  0.41800000000E+01 0.  1.
         -5    1    4    4    0  501 -0.13849949025E+02  0.73663921046E+01 -0.40403820427E+02  0.43543379815E+02  0.41800000000E+01 0.  1.
</event>
<event>
11    1  0.7105277E-009  0.1556922E+03  0.7561462E-02  0.1091200E+00
         22   -1    0    0    0    0  0.00000000000E+00  0.00000000000E+00  0.21135944120E+03  0.21135944120E+03  0.00000000000E+00 0. -1.
         22   -1    0    0    0    0 -0.00000000000E+00 -0.00000000000E+00 -0.10613963423E+04  0.10613963423E+04  0.00000000000E+00 0.  1.
         24    2    1    2    0    0 -0.43261223229E+02 -0.82219908936E+02 -0.93335242351E+03  0.94141729082E+03  0.80548880368E+02 0.  0.
         25    2    1    2    0    0  0.76430240799E+02  0.61405983687E+02 -0.53377261322E+02  0.16762932955E+03  0.12505272311E+03 0.  0.
        -24    2    1    2    0    0 -0.33169017570E+02  0.20813925249E+02  0.13669278370E+03  0.16370916316E+03  0.81131804958E+02 0.  0.
        -11    1    3    3    0    0 -0.46173226229E+02 -0.12998127955E+02 -0.52918399309E+03  0.53135357032E+03  0.00000000000E+00 0.  1.
         12    1    3    3    0    0  0.29120030001E+01 -0.69221780981E+02 -0.40416843042E+03  0.41006372050E+03  0.00000000000E+00 0. -1.
         13    1    5    5    0    0 -0.30666554764E+02 -0.26974742918E+02  0.77395847406E+02  0.87511093766E+02  0.00000000000E+00 0. -1.
        -14    1    5    5    0    0 -0.25024628061E+01  0.47788668167E+02  0.59296936294E+02  0.76198069392E+02  0.00000000000E+00 0.  1.
          5    1    4    4  501    0  0.92144033078E+02  0.36876642685E+02  0.79006496426E+01  0.99650902015E+02  0.41800000000E+01 0.  1.
         -5    1    4    4    0  501 -0.15713792279E+02  0.24529341002E+02 -0.61277910965E+02  0.67978427534E+02  0.41800000000E+01 0.  1.
</event>
<event>
11    1  0.7105277E-009  0.1357358E+03  0.7561462E-02  0.1112416E+00
         22   -1    0    0    0    0  0.00000000000E+00  0.00000000000E+00  0.38529051258E+03  0.38529051258E+03  0.00000000000E+00 0.  1.
         22   -1    0    0    0    0 -0.00000000000E+00 -0.00000000000E+00 -0.48528239423E+03  0.48528239423E+03  0.00000000000E+00 0.  1.
        -24    2    1    2    0    0  0.44590742956E+02 -0.10197875722E+02 -0.41186958992E+03  0.42205413227E+03  0.80005002574E+02 0.  0.
         25    2    1    2    0    0 -0.66445194460E+02 -0.36271790921E+02  0.27714914321E+02  0.14881167121E+03  0.12508473260E+03 0.  0.
         24    2    1    2    0    0  0.21854451504E+02  0.46469666643E+02  0.28416279395E+03  0.29970710334E+03  0.80242179400E+02 0.  0.
        -13    1    5    5    0    0  0.36332996301E+01  0.15060251426E+02  0.24791831820E+03  0.24840190123E+03  0.00000000000E+00 0.  1.
         14    1    5    5    0    0  0.18221151874E+02  0.31409415218E+02  0.36244475755E+02  0.51305202102E+02  0.00000000000E+00 0. -1.
         13    1    3    3    0    0 -0.14459153519E+02 -0.52438892327E+01 -0.23538331477E+03  0.23588529069E+03  0.00000000000E+00 0. -1.
        -14    1    3    3    0    0  0.59049896475E+02 -0.49539864898E+01 -0.17648627515E+03  0.18616884157E+03  0.00000000000E+00 0.  1.
          5    1    4    4  501    0 -0.87571464133E+02  0.11857196455E+02  0.35856110673E+02  0.95459350044E+02  0.41800000000E+01 0. -1.
         -5    1    4    4    0  501  0.21126269673E+02 -0.48128987376E+02 -0.81411963519E+01  0.53352321170E+02  0.41800000000E+01 0. -1.
</event>
<event>
11    1  0.7105277E-009  0.1445301E+03  0.7561462E-02  0.1102603E+00
         22   -1    0    0    0    0  0.00000000000E+00  0.00000000000E+00  0.30926908263E+03  0.30926908263E+03  0.00000000000E+00 0.  1.
         22   -1    0    0    0    0 -0.00000000000E+00 -0.00000000000E+00 -0.19505954553E+03  0.19505954553E+03  0.00000000000E+00 0. -1.
         24    2    1    2    0    0 -0.64766905364E+02 -0.42798823035E+02 -0.13218964311E+03  0.16978167369E+03  0.72974130280E+02 0.  0.
         25    2    1    2    0    0  0.14265878418E+02  0.34044349432E+02  0.11993565911E+03  0.17718711589E+03  0.12509268042E+03 0.  0.
        -24    2    1    2    0    0  0.50501026947E+02  0.87544736032E+01  0.12646352110E+03  0.15735983859E+03  0.78371564362E+02 0.  0.
        -13    1    3    3    0    0 -0.35675956732E+02 -0.62078582152E+02 -0.91166268025E+02  0.11592157986E+03  0.00000000000E+00 0.  1.
         14    1    3    3    0    0 -0.29090948633E+02  0.19279759117E+02 -0.41023375089E+02  0.53860093832E+02  0.00000000000E+00 0. -1.
         11    1    5    5    0    0  0.70721652688E+02  0.28768956129E+01  0.83128829536E+02  0.10917981035E+03  0.00000000000E+00 0. -1.
        -12    1    5    5    0    0 -0.20220625741E+02  0.58775779902E+01  0.43334691564E+02  0.48180028241E+02  0.00000000000E+00 0.  1.
          5    1    4    4  501    0  0.29547823727E+02  0.69380934250E+02  0.11578375404E+03  0.13823942283E+03  0.41800000000E+01 0. -1.
         -5    1    4    4    0  501 -0.15281945309E+02 -0.35336584818E+02  0.41519050698E+01  0.38947693060E+02  0.41800000000E+01 0. -1.
</event>
<event>
11    1  0.7105277E-009  0.1607444E+03  0.7561462E-02  0.1086379E+00
         22   -1    0    0    0    0  0.00000000000E+00  0.00000000000E+00  0.40241189231E+03  0.40241189231E+03  0.00000000000E+00 0.  1.
         22   -1    0    0    0    0 -0.00000000000E+00 -0.00000000000E+00 -0.88171185459E+03  0.88171185459E+03  0.00000000000E+00 0. -1.
        -24    2    1    2    0    0 -0.53142310167E+02  0.67536980680E+02 -0.79869303727E+03  0.80731722100E+03  0.80406334606E+02 0.  0.
         25    2    1    2    0    0 -0.30087100075E+02  0.15478807644E+02  0.28592736906E+01  0.12961382558E+03  0.12508693481E+03 0.  0.
         24    2    1    2    0    0  0.83229410242E+02 -0.83015788325E+02  0.31653380130E+03  0.34719270032E+03  0.80810692064E+02 0.  0.
        -11    1    5    5    0    0  0.56723587384E+02 -0.75488392650E+02  0.30121145984E+03  0.31566502234E+03  0.00000000000E+00 0.  1.
         12    1    5    5    0    0  0.26505822858E+02 -0.75273956745E+01  0.15322341456E+02  0.31527677978E+02  0.00000000000E+00 0. -1.
         13    1    3    3    0    0 -0.47690616361E+02  0.83289622551E+02 -0.57056694992E+03  0.57858292444E+03  0.00000000000E+00 0. -1.
        -14    1    3    3    0    0 -0.54516938066E+01 -0.15752641870E+02 -0.22812608735E+03  0.22873429655E+03  0.00000000000E+00 0.  1.
          5    1    4    4  501    0  0.29437543342E+02  0.51212896163E+02 -0.59012165458E+01  0.59511565667E+02  0.41800000000E+01 0. -1.
         -5    1    4    4    0  501 -0.59524643417E+02 -0.35734088519E+02  0.87604902364E+01  0.70102259916E+02  0.41800000000E+01 0. -1.
</event>
<event>
11    1  0.7105277E-009  0.1816615E+03  0.7561462E-02  0.1068307E+00
         22   -1    0    0    0    0  0.00000000000E+00  0.00000000000E+00  0.22753187003E+03  0.22753187003E+03  0.00000000000E+00 0. -1.
         22   -1    0    0    0    0 -0.00000000000E+00 -0.00000000000E+00 -0.15391181299E+04  0.15391181299E+04  0.00000000000E+00 0.  1.
        -24    2    1    2    0    0  0.11535085568E+02  0.56694400063E+02 -0.10794314556E+04  0.10843543821E+04  0.85468388742E+02 0.  0.
         25    2    1    2    0    0  0.10715466327E+02 -0.18305559953E+03 -0.39945933996E+03  0.45699116235E+03  0.12509590098E+03 0.  0.
         24    2    1    2    0    0 -0.22250551895E+02  0.12636119947E+03  0.16730453571E+03  0.22530445544E+03  0.79429529655E+02 0.  0.
        -11    1    5    5    0    0  0.22480316588E+02  0.70975417750E+02  0.55923335486E+02  0.93114413549E+02  0.00000000000E+00 0.  1.
         12    1    5    5    0    0 -0.44730868483E+02  0.55385781721E+02  0.11138120023E+03  0.13219004190E+03  0.00000000000E+00 0. -1.
         11    1    3    3    0    0 -0.28127451049E+01  0.12043725400E+02 -0.17729516484E+02  0.21617090722E+02  0.00000000000E+00 0. -1.
        -12    1    3    3    0    0  0.14347830673E+02  0.44650674663E+02 -0.10617019391E+04  0.10627372914E+04  0.00000000000E+00 0.  1.
          5    1    4    4  501    0  0.14911883580E+02 -0.16617790514E+03 -0.40518353382E+03  0.43821071291E+03  0.41800000000E+01 0.  1.
         -5    1    4    4    0  501 -0.41964172530E+01 -0.16877694397E+02  0.57241938581E+01  0.18780449442E+02  0.41800000000E+01 0.  1.
</event>
<event>
11    1  0.7105277E-009  0.1564546E+03  0.7561462E-02  0.1090460E+00
         22   -1    0    0    0    0  0.00000000000E+00  0.00000000000E+00  0.73938338276E+03  0.73938338276E+03  0.00000000000E+00 0.  1.
         22   -1    0    0    0    0 -0.00000000000E+00 -0.00000000000E+00 -0.17726856997E+04  0.17726856997E+04  0.00000000000E+00 0. -1.
        -24    2    1    2    0    0  0.14255263874E+02 -0.38875144633E+02 -0.13531400366E+04  0.13560671569E+04  0.78839620901E+02 0.  0.
         25    2    1    2    0    0 -0.75202056588E+02  0.10974188690E+03 -0.39255683534E+03  0.43295302073E+03  0.12509523624E+03 0.  0.
         24    2    1    2    0    0  0.60946792714E+02 -0.70866742267E+02  0.71239455501E+03  0.72304890487E+03  0.80975984848E+02 0.  0.
        -11    1    5    5    0    0  0.59231261665E+02 -0.17967362958E+02  0.51408970118E+03  0.51780246171E+03  0.00000000000E+00 0.  1.
         12    1    5    5    0    0  0.17155310496E+01 -0.52899379310E+02  0.19830485383E+03  0.20524644316E+03  0.00000000000E+00 0. -1.
         11    1    3    3    0    0  0.21396293571E+00 -0.60683468744E+02 -0.10781968329E+04  0.10799032085E+04  0.00000000000E+00 0. -1.
        -12    1    3    3    0    0  0.14041300938E+02  0.21808324110E+02 -0.27494320372E+03  0.27616394842E+03  0.00000000000E+00 0.  1.
          5    1    4    4  501    0 -0.80125999016E+02  0.96087190111E+01 -0.20264499614E+03  0.21816271465E+03  0.41800000000E+01 0. -1.
         -5    1    4    4    0  501  0.49239424278E+01  0.10013316789E+03 -0.18991183920E+03  0.21479030608E+03  0.41800000000E+01 0. -1.
</event>
<event>
11    1  0.7105277E-009  0.1674613E+03  0.7561462E-02  0.1080262E+00
         22   -1    0    0    0    0  0.00000000000E+00  0.00000000000E+00  0.61471220155E+03  0.61471220155E+03  0.00000000000E+00 0.  1.
         22   -1    0    0    0    0 -0.00000000000E+00 -0.00000000000E+00 -0.37239324854E+03  0.37239324854E+03  0.00000000000E+00 0. -1.
        -24    2    1    2    0    0 -0.42465732774E+02  0.66883322336E+02 -0.32107009755E+03  0.34171580463E+03  0.86063734079E+02 0.  0.
         25    2    1    2    0    0 -0.74448304472E+02 -0.89893373573E+02  0.29775782598E+03  0.34341205527E+03  0.12509495643E+03 0.  0.
         24    2    1    2    0    0  0.11691403725E+03  0.23010051237E+02  0.26563122459E+03  0.30197759019E+03  0.80200766419E+02 0.  0.
        -11    1    5    5    0    0  0.11417261594E+03  0.41467531189E+02  0.24870936880E+03  0.27678745004E+03  0.00000000000E+00 0.  1.
         12    1    5    5    0    0  0.27414213084E+01 -0.18457479952E+02  0.16921855789E+02  0.25190140141E+02  0.00000000000E+00 0. -1.
         11    1    3    3    0    0 -0.42985321708E+02  0.26171419255E+02 -0.27772201592E+03  0.28224492767E+03  0.00000000000E+00 0. -1.
        -12    1    3    3    0    0  0.51958893377E+00  0.40711903081E+02 -0.43348081635E+02  0.59470876962E+02  0.00000000000E+00 0.  1.
          5    1    4    4  501    0 -0.39606449267E+02 -0.11324999795E+03  0.16450581919E+03  0.20365134374E+03  0.41800000000E+01 0.  1.
         -5    1    4    4    0  501 -0.34841855205E+02  0.23356624373E+02  0.13325200679E+03  0.13976071154E+03  0.41800000000E+01 0.  1.
</event>
<event>
11    1  0.7105277E-009  0.1596986E+03  0.7561462E-02  0.1087361E+00
         22   -1    0    0    0    0  0.00000000000E+00  0.00000000000E+00  0.20305551551E+03  0.20305551551E+03  0.00000000000E+00 0. -1.
         22   -1    0    0    0    0 -0.00000000000E+00 -0.00000000000E+00 -0.18176770051E+04  0.18176770051E+04  0.00000000000E+00 0.  1.
         24    2    1    2    0    0 -0.11705865674E+02  0.10100827692E+03 -0.15972234587E+04  0.16023752436E+04  0.78383320968E+02 0.  0.
         25    2    1    2    0    0 -0.14635470630E+02 -0.76680091309E+02 -0.18031069041E+03  0.23292276971E+03  0.12508812161E+03 0.  0.
        -24    2    1    2    0    0  0.26341336304E+02 -0.24328185610E+02  0.16291265957E+03  0.18543450725E+03  0.80991945389E+02 0.  0.
        -11    1    3    3    0    0 -0.24056951255E+01  0.70347002584E+02 -0.14499133262E+04  0.14516208671E+04  0.00000000000E+00 0.  1.
         12    1    3    3    0    0 -0.93001705489E+01  0.30661274335E+02 -0.14731013250E+03  0.15075437656E+03  0.00000000000E+00 0. -1.
         13    1    5    5    0    0  0.35066584810E+02  0.19114175240E+02  0.10622130954E+03  0.11348120402E+03  0.00000000000E+00 0. -1.
        -14    1    5    5    0    0 -0.87252485060E+01 -0.43442360850E+02  0.56691350031E+02  0.71953303233E+02  0.00000000000E+00 0.  1.
          5    1    4    4  501    0 -0.17803854031E+02 -0.69332774726E+02 -0.22926938688E+02  0.75280328022E+02  0.41800000000E+01 0.  1.
         -5    1    4    4    0  501  0.31683834017E+01 -0.73473165835E+01 -0.15738375172E+03  0.15764244169E+03  0.41800000000E+01 0.  1.
</event>
<event>
11    1  0.7105277E-009  0.1508563E+03  0.7561462E-02  0.1096007E+00
         22   -1    0    0    0    0  0.00000000000E+00  0.00000000000E+00  0.20349558525E+03  0.20349558525E+03  0.00000000000E+00 0.  1.
         22   -1    0    0    0    0 -0.00000000000E+00 -0.00000000000E+00 -0.11645014426E+04  0.11645014426E+04  0.00000000000E+00 0. -1.
         24    2    1    2    0    0  0.83215646435E+01  0.64824721758E+02 -0.10112201745E+04  0.10163741868E+04  0.78605045754E+02 0.  0.
         25    2    1    2    0    0  0.73009203277E+02 -0.81475535927E+02 -0.74085965689E+02  0.18194778234E+03  0.12509060104E+03 0.  0.
        -24    2    1    2    0    0 -0.81330767921E+02  0.16650814169E+02  0.12430028282E+03  0.16967505876E+03  0.80293971324E+02 0.  0.
        -11    1    3    3    0    0  0.29360412648E+02  0.28036212023E+02 -0.20166821252E+03  0.20571371115E+03  0.00000000000E+00 0.  1.
         12    1    3    3    0    0 -0.21038848004E+02  0.36788509735E+02 -0.80955196197E+03  0.81066047560E+03  0.00000000000E+00 0. -1.
         13    1    5    5    0    0 -0.11995994938E+01  0.20650250684E+02 -0.12012512980E+01  0.20719915466E+02  0.00000000000E+00 0. -1.
        -14    1    5    5    0    0 -0.80131168427E+02 -0.39994365143E+01  0.12550153412E+03  0.14895514329E+03  0.00000000000E+00 0.  1.
          5    1    4    4  501    0  0.23480676802E+02 -0.94704018726E+01  0.34184051889E+02  0.42744034652E+02  0.41800000000E+01 0.  1.
         -5    1    4    4    0  501  0.49528526475E+02 -0.72005134054E+02 -0.10827001758E+03  0.13920374769E+03  0.41800000000E+01 0.  1.
</event>
<event>
11    1  0.7105277E-009  0.1481633E+03  0.7561462E-02  0.1098770E+00
         22   -1    0    0    0    0  0.00000000000E+00  0.00000000000E+00  0.81164016605E+03  0.81164016605E+03  0.00000000000E+00 0.  1.
         22   -1    0    0    0    0 -0.00000000000E+00 -0.00000000000E+00 -0.19182976232E+03  0.19182976232E+03  0.00000000000E+00 0. -1.
         24    2    1    2    0    0  0.74865485939E+02 -0.27830426338E+02 -0.15659676832E+03  0.19557056980E+03  0.85708379450E+02 0.  0.
         25    2    1    2    0    0 -0.66404943057E+02  0.18272666307E+02  0.44006259434E+03  0.46265077639E+03  0.12508855724E+03 0.  0.
        -24    2    1    2    0    0 -0.84605428821E+01  0.95577600305E+01  0.33634457770E+03  0.34524858219E+03  0.76850354547E+02 0.  0.
        -13    1    3    3    0    0  0.88607548316E+02 -0.33710686867E+01 -0.11151599685E+03  0.14247273170E+03  0.00000000000E+00 0.  1.
         14    1    3    3    0    0 -0.13742062378E+02 -0.24459357651E+02 -0.45080771465E+02  0.53097838101E+02  0.00000000000E+00 0. -1.
         13    1    5    5    0    0 -0.28244652199E+02 -0.79037787878E+01  0.52152461504E+02  0.59834014890E+02  0.00000000000E+00 0. -1.
        -14    1    5    5    0    0  0.19784109317E+02  0.17461538818E+02  0.28419211620E+03  0.28541456730E+03  0.00000000000E+00 0.  1.
          5    1    4    4  501    0 -0.44866291710E+02  0.39995506186E+02  0.42320719511E+03  0.42747447531E+03  0.41800000000E+01 0.  1.
         -5    1    4    4    0  501 -0.21538651347E+02 -0.21722839879E+02  0.16855399236E+02  0.35176301080E+02  0.41800000000E+01 0.  1.
</event>
<event>
11    1  0.7105277E-009  0.1413905E+03  0.7561462E-02  0.1106016E+00
         22   -1    0    0    0    0  0.00000000000E+00  0.00000000000E+00  0.22493643187E+04  0.22493643187E+04  0.00000000000E+00 0.  1.
         22   -1    0    0    0    0 -0.00000000000E+00 -0.00000000000E+00 -0.13677300830E+03  0.13677300830E+03  0.00000000000E+00 0. -1.
        -24    2    1    2    0    0 -0.12544419730E+01  0.17770846587E+02 -0.11602948436E+03  0.14169064977E+03  0.79347478712E+02 0.  0.
         25    2    1    2    0    0  0.32136170131E+02  0.44604913779E+02  0.77159173728E+03  0.78359507196E+03  0.12508035814E+03 0.  0.
         24    2    1    2    0    0 -0.30881728158E+02 -0.62375760366E+02  0.14570290574E+04  0.14608516052E+04  0.79431238463E+02 0.  0.
        -13    1    5    5    0    0 -0.21202453841E+02 -0.43147234940E+02  0.13809214038E+04  0.13817579931E+04  0.00000000000E+00 0.  1.
         14    1    5    5    0    0 -0.96792743178E+01 -0.19228525427E+02  0.76107653651E+02  0.79093612167E+02  0.00000000000E+00 0. -1.
         11    1    3    3    0    0  0.33610372729E+02  0.29265959511E+02 -0.61254785476E+02  0.75751582721E+02  0.00000000000E+00 0. -1.
        -12    1    3    3    0    0 -0.34864814702E+02 -0.11495112924E+02 -0.54774698884E+02  0.65939067048E+02  0.00000000000E+00 0.  1.
          5    1    4    4  501    0  0.65216680182E+01 -0.21051543158E+02  0.56170183244E+03  0.56214955358E+03  0.41800000000E+01 0.  1.
         -5    1    4    4    0  501  0.25614502113E+02  0.65656456937E+02  0.20988990484E+03  0.22144551838E+03  0.41800000000E+01 0.  1.
</event>
<event>
11    1  0.7105277E-009  0.1457484E+03  0.7561462E-02  0.1101304E+00
         22   -1    0    0    0    0  0.00000000000E+00  0.00000000000E+00  0.62529912486E+03  0.62529912486E+03  0.00000000000E+00 0.  1.
         22   -1    0    0    0    0 -0.00000000000E+00 -0.00000000000E+00 -0.75526089909E+03  0.75526089909E+03  0.00000000000E+00 0. -1.
        -24    2    1    2    0    0  0.46563866624E+02  0.53023503945E+02 -0.60052576048E+03  0.60979606271E+03  0.78995971152E+02 0.  0.
         25    2    1    2    0    0 -0.11971050732E+03 -0.48868673336E+02 -0.89028298369E+02  0.20072871951E+03  0.12508888092E+03 0.  0.
         24    2    1    2    0    0  0.73146640694E+02 -0.41548306091E+01  0.55959228462E+03  0.57003524173E+03  0.80180784164E+02 0.  0.
        -13    1    5    5    0    0  0.40962022496E+02  0.22844419960E+02  0.45364603621E+03  0.45606411937E+03  0.00000000000E+00 0.  1.
         14    1    5    5    0    0  0.32184618198E+02 -0.26999250569E+02  0.10594624841E+03  0.11397112236E+03  0.00000000000E+00 0. -1.
         11    1    3    3    0    0  0.57147668664E+02  0.32621951755E+02 -0.55409039890E+03  0.55798406601E+03  0.00000000000E+00 0. -1.
        -12    1    3    3    0    0 -0.10583802040E+02  0.20401552191E+02 -0.46435361580E+02  0.51811996704E+02  0.00000000000E+00 0.  1.
          5    1    4    4  501    0 -0.62133101387E+02 -0.31024250663E+01  0.23161298512E+02  0.66513648810E+02  0.41800000000E+01 0.  1.
         -5    1    4    4    0  501 -0.57577405931E+02 -0.45766248270E+02 -0.11218959688E+03  0.13421507070E+03  0.41800000000E+01 0.  1.
</event>
<event>
11    1  0.7105277E-009  0.1945921E+03  0.7561462E-02  0.1058415E+00
         22   -1    0    0    0    0  0.00000000000E+00  0.00000000000E+00  0.26168474583E+04  0.26168474583E+04  0.00000000000E+00 0. -1.
         22   -1    0    0    0    0 -0.00000000000E+00 -0.00000000000E+00 -0.61046168257E+02  0.61046168257E+02  0.00000000000E+00 0. -1.
        -24    2    1    2    0    0  0.73165336446E+02 -0.70452742538E+01  0.23919563341E+02  0.10800915391E+03  0.75438912177E+02 0.  0.
         25    2    1    2    0    0 -0.20198847300E+03  0.45198864314E+02  0.95152037781E+03  0.98176682074E+03  0.12503111755E+03 0.  0.
         24    2    1    2    0    0  0.12882313656E+03 -0.38153590060E+02  0.15803613489E+04  0.15881176519E+04  0.80774911308E+02 0.  0.
        -11    1    5    5    0    0  0.86488583536E+01 -0.34222040969E+02  0.44882694128E+03  0.45021280974E+03  0.00000000000E+00 0.  1.
         12    1    5    5    0    0  0.12017427820E+03 -0.39315490917E+01  0.11315344076E+04  0.11379048421E+04  0.00000000000E+00 0. -1.
         11    1    3    3    0    0  0.86967089074E+02 -0.15660334373E+02  0.15588188203E+02  0.89730219359E+02  0.00000000000E+00 0. -1.
        -12    1    3    3    0    0 -0.13801752628E+02  0.86150601194E+01  0.83313751378E+01  0.18278934547E+02  0.00000000000E+00 0.  1.
          5    1    4    4  501    0  0.14985074210E+02 -0.91940481323E+01  0.74390728923E+02  0.76554137183E+02  0.41800000000E+01 0.  1.
         -5    1    4    4    0  501 -0.21697354721E+03  0.54392912446E+02  0.87712964888E+03  0.90521268355E+03  0.41800000000E+01 0.  1.
</event>
<event>
11    1  0.7105277E-009  0.1555077E+03  0.7561462E-02  0.1091380E+00
         22   -1    0    0    0    0  0.00000000000E+00  0.00000000000E+00  0.43063907003E+03  0.43063907003E+03  0.00000000000E+00 0. -1.
         22   -1    0    0    0    0 -0.00000000000E+00 -0.00000000000E+00 -0.11805611955E+04  0.11805611955E+04  0.00000000000E+00 0. -1.
        -24    2    1    2    0    0  0.73811925235E+01  0.21207617816E+02 -0.99162824335E+03  0.99523557761E+03  0.81627427268E+02 0.  0.
         25    2    1    2    0    0  0.77262405923E+02  0.17753198903E+02 -0.14668706667E+03  0.20844400756E+03  0.12508858188E+03 0.  0.
         24    2    1    2    0    0 -0.84643598446E+02 -0.38960816719E+02  0.38839318459E+03  0.40752068032E+03  0.80878643992E+02 0.  0.
        -13    1    5    5    0    0 -0.14128184164E+02  0.17054171938E+02  0.26230390242E+02  0.34329050970E+02  0.00000000000E+00 0.  1.
         14    1    5    5    0    0 -0.70515414282E+02 -0.56014988657E+02  0.36216279435E+03  0.37319162935E+03  0.00000000000E+00 0. -1.
         11    1    3    3    0    0  0.10427071285E+02 -0.27479793738E+02 -0.57688685655E+03  0.57763509947E+03  0.00000000000E+00 0. -1.
        -12    1    3    3    0    0 -0.30458787612E+01  0.48687411554E+02 -0.41474138680E+03  0.41760047814E+03  0.00000000000E+00 0.  1.
          5    1    4    4  501    0  0.87520600061E+02  0.54333862280E+02 -0.13201498280E+03  0.16750358834E+03  0.41800000000E+01 0.  1.
         -5    1    4    4    0  501 -0.10258194139E+02 -0.36580663377E+02 -0.14672083875E+02  0.40940419213E+02  0.41800000000E+01 0.  1.
</event>
<event>
11    1  0.7105277E-009  0.1722402E+03  0.7561462E-02  0.1076098E+00
         22   -1    0    0    0    0  0.00000000000E+00  0.00000000000E+00  0.86909378561E+03  0.86909378561E+03  0.00000000000E+00 0. -1.
         22   -1    0    0    0    0 -0.00000000000E+00 -0.00000000000E+00 -0.21093687166E+03  0.21093687166E+03  0.00000000000E+00 0.  1.
         24    2    1    2    0    0  0.12254424624E+03  0.45348594179E+01 -0.14415930934E+03  0.20631699665E+03  0.82140972721E+02 0.  0.
         25    2    1    2    0    0 -0.87632223434E+02  0.66611164573E+02  0.19591001181E+03  0.25718645911E+03  0.12509071985E+03 0.  0.
        -24    2    1    2    0    0 -0.34912022809E+02 -0.71146023991E+02  0.60640621148E+03  0.61652720153E+03  0.78081309110E+02 0.  0.
        -13    1    3    3    0    0  0.12984982516E+03  0.68494922531E+01 -0.10705632217E+03  0.16843084264E+03  0.00000000000E+00 0.  1.
         14    1    3    3    0    0 -0.73055789127E+01 -0.23146328352E+01 -0.37102987167E+02  0.37886154002E+02  0.00000000000E+00 0. -1.
         13    1    5    5    0    0 -0.57687405138E+02 -0.59768373664E+02  0.51438978811E+03  0.52105369139E+03  0.00000000000E+00 0. -1.
        -14    1    5    5    0    0  0.22775382329E+02 -0.11377650327E+02  0.92016423369E+02  0.95473510131E+02  0.00000000000E+00 0.  1.
          5    1    4    4  501    0 -0.80622844410E+02  0.25569272669E+02  0.36218957623E+02  0.92103832911E+02  0.41800000000E+01 0. -1.
         -5    1    4    4    0  501 -0.70093790242E+01  0.41041891904E+02  0.15969105418E+03  0.16508262620E+03  0.41800000000E+01 0. -1.
</event>
<event>
11    1  0.7105277E-009  0.1428056E+03  0.7561462E-02  0.1104465E+00
         22   -1    0    0    0    0  0.00000000000E+00  0.00000000000E+00  0.61050491597E+03  0.61050491597E+03  0.00000000000E+00 0. -1.
         22   -1    0    0    0    0 -0.00000000000E+00 -0.00000000000E+00 -0.29206352907E+03  0.29206352907E+03  0.00000000000E+00 0.  1.
        -24    2    1    2    0    0 -0.52799638165E+02  0.47254423993E+02 -0.18150165406E+03  0.21388958264E+03  0.88233331321E+02 0.  0.
         25    2    1    2    0    0  0.93428302533E+01 -0.75979047336E+02 -0.30405187804E+02  0.14977867349E+03  0.12509624885E+03 0.  0.
         24    2    1    2    0    0  0.43456807912E+02  0.28724623343E+02  0.53034822877E+03  0.53890018892E+03  0.80190845596E+02 0.  0.
        -11    1    5    5    0    0 -0.10507486344E+02 -0.16087093658E+02  0.52001858938E+02  0.55438210511E+02  0.00000000000E+00 0.  1.
         12    1    5    5    0    0  0.53964294255E+02  0.44811717001E+02  0.47834636983E+03  0.48346197841E+03  0.00000000000E+00 0. -1.
         13    1    3    3    0    0 -0.27191761469E+02  0.27156579981E+01 -0.22485673514E+01  0.27419386304E+02  0.00000000000E+00 0. -1.
        -14    1    3    3    0    0 -0.25607876696E+02  0.44538765995E+02 -0.17925308671E+03  0.18647019633E+03  0.00000000000E+00 0.  1.
          5    1    4    4  501    0  0.10752180366E+01 -0.73934412075E+02 -0.74278412756E+02  0.10489141235E+03  0.41800000000E+01 0.  1.
         -5    1    4    4    0  501  0.82676122167E+01 -0.20446352612E+01  0.43873224952E+02  0.44887261142E+02  0.41800000000E+01 0.  1.
</event>
<event>
11    1  0.7105277E-009  0.1470645E+03  0.7561462E-02  0.1099917E+00
         22   -1    0    0    0    0  0.00000000000E+00  0.00000000000E+00  0.24192098467E+04  0.24192098467E+04  0.00000000000E+00 0. -1.
         22   -1    0    0    0    0 -0.00000000000E+00 -0.00000000000E+00 -0.39226456727E+02  0.39226456727E+02  0.00000000000E+00 0.  1.
         24    2    1    2    0    0 -0.94192834689E+02  0.40617943786E+01  0.10010531747E+03  0.15990247136E+03  0.81602312957E+02 0.  0.
         25    2    1    2    0    0 -0.10144424876E+02  0.15278597079E+02  0.61382680123E+03  0.62671071067E+03  0.12508648237E+03 0.  0.
        -24    2    1    2    0    0  0.10433725956E+03 -0.19340391457E+02  0.16660512713E+04  0.16718231214E+04  0.89472880121E+02 0.  0.
        -11    1    3    3    0    0 -0.31630877988E+02 -0.16590855610E+02 -0.47856042830E+01  0.36037077303E+02  0.00000000000E+00 0.  1.
         12    1    3    3    0    0 -0.62561956701E+02  0.20652649989E+02  0.10489092176E+03  0.12386539406E+03  0.00000000000E+00 0. -1.
         11    1    5    5    0    0  0.43366336368E+02  0.33767537643E+02  0.85024295973E+03  0.85201759154E+03  0.00000000000E+00 0. -1.
        -12    1    5    5    0    0  0.60970923197E+02 -0.53107929101E+02  0.81580831158E+03  0.81980552989E+03  0.00000000000E+00 0.  1.
          5    1    4    4  501    0  0.21065071543E+02 -0.87102098716E+01  0.17420709397E+02  0.28992387122E+02  0.41800000000E+01 0. -1.
         -5    1    4    4    0  501 -0.31209496419E+02  0.23988806950E+02  0.59640609183E+03  0.59771832354E+03  0.41800000000E+01 0. -1.
</event>
<event>
11    1  0.7105277E-009  0.1395111E+03  0.7561462E-02  0.1108106E+00
         22   -1    0    0    0    0  0.00000000000E+00  0.00000000000E+00  0.30053936017E+03  0.30053936017E+03  0.00000000000E+00 0. -1.
         22   -1    0    0    0    0 -0.00000000000E+00 -0.00000000000E+00 -0.70885229353E+03  0.70885229353E+03  0.00000000000E+00 0.  1.
         24    2    1    2    0    0 -0.20968384288E+02  0.51485879381E+01 -0.60362092733E+03  0.60919596980E+03  0.79343081745E+02 0.  0.
         25    2    1    2    0    0 -0.29920237710E+02  0.33415166147E+02 -0.44061377937E+02  0.13997325184E+03  0.12505723591E+03 0.  0.
        -24    2    1    2    0    0  0.50888621998E+02 -0.38563754085E+02  0.23936937191E+03  0.26022243205E+03  0.79631670571E+02 0.  0.
        -13    1    3    3    0    0 -0.18469137158E+02 -0.13247785058E+02 -0.57255024291E+03  0.57300121596E+03  0.00000000000E+00 0.  1.
         14    1    3    3    0    0 -0.24992471308E+01  0.18396372996E+02 -0.31070684418E+02  0.36194753844E+02  0.00000000000E+00 0. -1.
         13    1    5    5    0    0  0.13113019619E+01 -0.36307321511E+02  0.36994212622E+02  0.51850871503E+02  0.00000000000E+00 0. -1.
        -14    1    5    5    0    0  0.49577320036E+02 -0.22564325745E+01  0.20237515928E+03  0.20837156055E+03  0.00000000000E+00 0.  1.
          5    1    4    4  501    0 -0.48602704534E+02 -0.35483340974E+02 -0.11537786845E+02  0.61415660055E+02  0.41800000000E+01 0.  1.
         -5    1    4    4    0  501  0.18682466825E+02  0.68898507121E+02 -0.32523591092E+02  0.78557591789E+02  0.41800000000E+01 0.  1.
</event>
<event>
11    1  0.7105277E-009  0.3062506E+03  0.7561462E-02  0.9975800E-01
         22   -1    0    0    0    0  0.00000000000E+00  0.00000000000E+00  0.28111423999E+03  0.28111423999E+03  0.00000000000E+00 0. -1.
         22   -1    0    0    0    0 -0.00000000000E+00 -0.00000000000E+00 -0.52475433048E+03  0.52475433048E+03  0.00000000000E+00 0.  1.
        -24    2    1    2    0    0 -0.18435594920E+03  0.24560366491E+02 -0.41057476858E+03  0.45707545294E+03  0.75868316696E+02 0.  0.
         25    2    1    2    0    0  0.32945010749E+02  0.69610290832E+01  0.90722582468E+02  0.15815076300E+03  0.12508895718E+03 0.  0.
         24    2    1    2    0    0  0.15141093845E+03 -0.31521395574E+02  0.76212095618E+02  0.19064235453E+03  0.81347115257E+02 0.  0.
        -11    1    5    5    0    0 -0.23497006884E+01  0.13998621785E+02  0.38037275674E+01  0.14695266197E+02  0.00000000000E+00 0.  1.
         12    1    5    5    0    0  0.15376063914E+03 -0.45520017359E+02  0.72408368051E+02  0.17594708833E+03  0.00000000000E+00 0. -1.
         11    1    3    3    0    0 -0.49933308334E+02 -0.27025518043E+02 -0.10955047468E+03  0.12338970950E+03  0.00000000000E+00 0. -1.
        -12    1    3    3    0    0 -0.13442264087E+03  0.51585884534E+02 -0.30102429389E+03  0.33368574344E+03  0.00000000000E+00 0.  1.
          5    1    4    4  501    0 -0.38781464966E+02  0.30375454435E+02  0.16215632834E+02  0.52029697339E+02  0.41800000000E+01 0. -1.
         -5    1    4    4    0  501  0.71726475715E+02 -0.23414425352E+02  0.74506949635E+02  0.10612106566E+03  0.41800000000E+01 0. -1.
</event>
<event>
11    1  0.7105277E-009  0.1655467E+03  0.7561462E-02  0.1081973E+00
         22   -1    0    0    0    0  0.00000000000E+00  0.00000000000E+00  0.12555682520E+04  0.12555682520E+04  0.00000000000E+00 0.  1.
         22   -1    0    0    0    0 -0.00000000000E+00 -0.00000000000E+00 -0.12458160917E+03  0.12458160917E+03  0.00000000000E+00 0. -1.
        -24    2    1    2    0    0 -0.89741061788E+02 -0.49415191547E+02 -0.47261582554E+02  0.13947685082E+03  0.82004971818E+02 0.  0.
         25    2    1    2    0    0  0.11776986778E+03  0.11108996367E+03  0.35059187823E+03  0.40592209795E+03  0.12508941894E+03 0.  0.
         24    2    1    2    0    0 -0.28028805995E+02 -0.61674772125E+02  0.82765634713E+03  0.83475091238E+03  0.84880299818E+02 0.  0.
        -11    1    5    5    0    0 -0.49770400967E+02 -0.67006322043E+02  0.56357969065E+03  0.56972713445E+03  0.00000000000E+00 0.  1.
         12    1    5    5    0    0  0.21741594972E+02  0.53315499181E+01  0.26407665647E+03  0.26502377793E+03  0.00000000000E+00 0. -1.
         13    1    3    3    0    0 -0.22436543104E+02 -0.51409462846E+02 -0.45323601481E+02  0.72114909608E+02  0.00000000000E+00 0. -1.
        -14    1    3    3    0    0 -0.67304518684E+02  0.19942712993E+01 -0.19379810732E+01  0.67361941213E+02  0.00000000000E+00 0.  1.
          5    1    4    4  501    0  0.10183923698E+03  0.10752484412E+03  0.35805153572E+03  0.38749347985E+03  0.41800000000E+01 0. -1.
         -5    1    4    4    0  501  0.15930630800E+02  0.35651195495E+01 -0.74596574885E+01  0.18428618096E+02  0.41800000000E+01 0. -1.
</event>
<event>
11    1  0.7105277E-009  0.1503892E+03  0.7561462E-02  0.1096482E+00
         22   -1    0    0    0    0  0.00000000000E+00  0.00000000000E+00  0.72575261457E+03  0.72575261457E+03  0.00000000000E+00 0. -1.
         22   -1    0    0    0    0 -0.00000000000E+00 -0.00000000000E+00 -0.11217834595E+04  0.11217834595E+04  0.00000000000E+00 0. -1.
        -24    2    1    2    0    0 -0.42774423016E+02 -0.12810290828E+02 -0.87875415154E+03  0.88354562830E+03  0.80313533222E+02 0.  0.
         25    2    1    2    0    0  0.26100878098E+02  0.94522488190E+02 -0.20882386106E+03  0.26243175816E+03  0.12508903283E+03 0.  0.
         24    2    1    2    0    0  0.16673544918E+02 -0.81712197362E+02  0.69154716771E+03  0.70155868757E+03  0.83619475266E+02 0.  0.
        -13    1    5    5    0    0  0.45451334930E+02 -0.21028767511E+02  0.33784725276E+03  0.34153886911E+03  0.00000000000E+00 0.  1.
         14    1    5    5    0    0 -0.28777790012E+02 -0.60683429851E+02  0.35369991495E+03  0.36001981847E+03  0.00000000000E+00 0. -1.
         11    1    3    3    0    0 -0.64249065407E+02 -0.62231011437E+01 -0.75619939171E+03  0.75894939846E+03  0.00000000000E+00 0. -1.
        -12    1    3    3    0    0  0.21474642391E+02 -0.65871896846E+01 -0.12255475983E+03  0.12459622984E+03  0.00000000000E+00 0.  1.
          5    1    4    4  501    0 -0.23099684275E+02  0.90349612988E+02 -0.18549834722E+03  0.20766260424E+03  0.41800000000E+01 0. -1.
         -5    1    4    4    0  501  0.49200562373E+02  0.41728752024E+01 -0.23325513841E+02  0.54769153921E+02  0.41800000000E+01 0. -1.
</event>
<event>
11    1  0.7105277E-009  0.1375412E+03  0.7561462E-02  0.1110336E+00
         22   -1    0    0    0    0  0.00000000000E+00  0.00000000000E+00  0.19861417235E+04  0.19861417235E+04  0.00000000000E+00 0.  1.
         22   -1    0    0    0    0 -0.00000000000E+00 -0.00000000000E+00 -0.29250012761E+03  0.29250012761E+03  0.00000000000E+00 0. -1.
         24    2    1    2    0    0  0.13950126506E+02  0.50652927364E+02 -0.18847655313E+03  0.21207878548E+03  0.81814883050E+02 0.  0.
         25    2    1    2    0    0  0.72790015629E+01 -0.85916516324E+02 -0.27849910480E+02  0.15445848447E+03  0.12508866564E+03 0.  0.
        -24    2    1    2    0    0 -0.21229128068E+02  0.35263588960E+02  0.19099680595E+04  0.19121045812E+04  0.80447152783E+02 0.  0.
        -11    1    3    3    0    0  0.40581944846E+02  0.47129164805E+02 -0.85953258295E+02  0.10609436853E+03  0.00000000000E+00 0.  1.
         12    1    3    3    0    0 -0.26631818341E+02  0.35237625581E+01 -0.10252329484E+03  0.10598441695E+03  0.00000000000E+00 0. -1.
         13    1    5    5    0    0  0.54048922584E+01  0.39823310822E+02  0.42622184936E+03  0.42811233784E+03  0.00000000000E+00 0. -1.
        -14    1    5    5    0    0 -0.26634020327E+02 -0.45597218615E+01  0.14837462101E+04  0.14839922433E+04  0.00000000000E+00 0.  1.
          5    1    4    4  501    0 -0.75604879886E+01 -0.93151356253E+02  0.26720613809E+02  0.97292341696E+02  0.41800000000E+01 0. -1.
         -5    1    4    4    0  501  0.14839489551E+02  0.72348399295E+01 -0.54570524288E+02  0.57166142777E+02  0.41800000000E+01 0. -1.
</event>
<event>
11    1  0.7105277E-009  0.1412125E+03  0.7561462E-02  0.1106212E+00
         22   -1    0    0    0    0  0.00000000000E+00  0.00000000000E+00  0.93081966931E+03  0.93081966931E+03  0.00000000000E+00 0. -1.
         22   -1    0    0    0    0 -0.00000000000E+00 -0.00000000000E+00 -0.29471290222E+03  0.29471290222E+03  0.00000000000E+00 0. -1.
        -24    2    1    2    0    0 -0.81652841755E+02  0.12368489907E+02 -0.11896746263E+03  0.16546498186E+03  0.80032724232E+02 0.  0.
         25    2    1    2    0    0  0.43685140410E+02 -0.54959347354E+01 -0.12095998058E+03  0.17949666393E+03  0.12509651741E+03 0.  0.
         24    2    1    2    0    0  0.37967701345E+02 -0.68725551718E+01  0.87603421029E+03  0.88057092574E+03  0.80501175742E+02 0.  0.
        -13    1    5    5    0    0 -0.24461500410E+02 -0.10570175246E+02  0.24456562867E+03  0.24601308977E+03  0.00000000000E+00 0.  1.
         14    1    5    5    0    0  0.62429201755E+02  0.36976200741E+01  0.63146858162E+03  0.63455783597E+03  0.00000000000E+00 0. -1.
         13    1    3    3    0    0 -0.89475759539E+02  0.18593939448E+02 -0.12418573696E+03  0.15418736457E+03  0.00000000000E+00 0. -1.
        -14    1    3    3    0    0  0.78229177836E+01 -0.62254495412E+01  0.52182743329E+01  0.11277617286E+02  0.00000000000E+00 0.  1.
          5    1    4    4  501    0  0.30580172150E+02  0.90203042145E+01  0.19509180313E+02  0.37611079927E+02  0.41800000000E+01 0.  1.
         -5    1    4    4    0  501  0.13104968260E+02 -0.14516238950E+02 -0.14046916089E+03  0.14188558400E+03  0.41800000000E+01 0.  1.
</event>
<event>
11    1  0.7105277E-009  0.1343400E+03  0.7561462E-02  0.1114049E+00
         22   -1    0    0    0    0  0.00000000000E+00  0.00000000000E+00  0.39258404457E+03  0.39258404457E+03  0.00000000000E+00 0.  1.
         22   -1    0    0    0    0 -0.00000000000E+00 -0.00000000000E+00 -0.98777255244E+03  0.98777255244E+03  0.00000000000E+00 0. -1.
         24    2    1    2    0    0 -0.11020939536E+02 -0.73151573280E+01 -0.93796874548E+03  0.94230468439E+03  0.89318408475E+02 0.  0.
         25    2    1    2    0    0  0.33926288857E+02 -0.36177009521E+02  0.74310484191E+02  0.15372006849E+03  0.12509213526E+03 0.  0.
        -24    2    1    2    0    0 -0.22905349321E+02  0.43492166849E+02  0.26846975342E+03  0.28433184413E+03  0.79701728221E+02 0.  0.
        -13    1    3    3    0    0 -0.29477447672E+02 -0.29977312471E+02 -0.23517082029E+03  0.23889929656E+03  0.00000000000E+00 0.  1.
         14    1    3    3    0    0  0.18456508136E+02  0.22662155143E+02 -0.70279792519E+03  0.70340538783E+03  0.00000000000E+00 0. -1.
         13    1    5    5    0    0  0.26403275164E+02 -0.13009263912E+01  0.91376053988E+02  0.95123123326E+02  0.00000000000E+00 0. -1.
        -14    1    5    5    0    0 -0.49308624484E+02  0.44793093240E+02  0.17709369943E+03  0.18920872081E+03  0.00000000000E+00 0.  1.
          5    1    4    4  501    0  0.58993701590E+01 -0.39588844130E+02  0.10461641675E+03  0.11208990232E+03  0.41800000000E+01 0. -1.
         -5    1    4    4    0  501  0.28026918698E+02  0.34118346091E+01 -0.30305932562E+02  0.41630166173E+02  0.41800000000E+01 0. -1.
</event>
<event>
11    1  0.7105277E-009  0.1608974E+03  0.7561462E-02  0.1086236E+00
         22   -1    0    0    0    0  0.00000000000E+00  0.00000000000E+00  0.25903961945E+04  0.25903961945E+04  0.00000000000E+00 0.  1.
         22   -1    0    0    0    0 -0.00000000000E+00 -0.00000000000E+00 -0.26314926113E+03  0.26314926113E+03  0.00000000000E+00 0. -1.
         24    2    1    2    0    0 -0.61382605141E+01  0.64793036221E+02 -0.17648328495E+03  0.20737898909E+03  0.87314829575E+02 0.  0.
         25    2    1    2    0    0  0.10149116208E+03 -0.29772568321E+02  0.27034451868E+02  0.16603000210E+03  0.12509291828E+03 0.  0.
        -24    2    1    2    0    0 -0.95352901565E+02 -0.35020467901E+02  0.24766957664E+04  0.24801364644E+04  0.82075293171E+02 0.  0.
        -11    1    3    3    0    0 -0.85378149018E+00 -0.19743538141E+02 -0.61288535826E+02  0.64395814032E+02  0.00000000000E+00 0.  1.
         12    1    3    3    0    0 -0.52844790239E+01  0.84536574362E+02 -0.11519474912E+03  0.14298317505E+03  0.00000000000E+00 0. -1.
         13    1    5    5    0    0 -0.79313310469E+01 -0.39337372622E+02  0.55529694759E+03  0.55674503581E+03  0.00000000000E+00 0. -1.
        -14    1    5    5    0    0 -0.87421570518E+02  0.43169047215E+01  0.19213988188E+04  0.19233914286E+04  0.00000000000E+00 0.  1.
          5    1    4    4  501    0  0.15609342499E+02 -0.40998186593E+02 -0.37559572527E+02  0.57902476334E+02  0.41800000000E+01 0. -1.
         -5    1    4    4    0  501  0.85881819580E+02  0.11225618273E+02  0.64594024395E+02  0.10812752576E+03  0.41800000000E+01 0. -1.
</event>
<event>
11    1  0.7105277E-009  0.1583280E+03  0.7561462E-02  0.1088661E+00
         22   -1    0    0    0    0  0.00000000000E+00  0.00000000000E+00  0.12829376103E+04  0.12829376103E+04  0.00000000000E+00 0.  1.
         22   -1    0    0    0    0 -0.00000000000E+00 -0.00000000000E+00 -0.47401941112E+03  0.47401941112E+03  0.00000000000E+00 0. -1.
         24    2    1    2    0    0 -0.10025354172E+03  0.16634124035E+02 -0.32163513869E+03  0.34713237545E+03  0.82001566638E+02 0.  0.
         25    2    1    2    0    0  0.64977593965E+02 -0.73559058033E+02 -0.90039263297E+02  0.18272660267E+03  0.12509564202E+03 0.  0.
        -24    2    1    2    0    0  0.35275947760E+02  0.56924933999E+02  0.12205926012E+04  0.12270980433E+04  0.10695077953E+03 0.  0.
        -11    1    3    3    0    0  0.71036313368E+01 -0.15335719907E+02 -0.64102488660E+02  0.66293098703E+02  0.00000000000E+00 0.  1.
         12    1    3    3    0    0 -0.10735717306E+03  0.31969843942E+02 -0.25753265003E+03  0.28083927675E+03  0.00000000000E+00 0. -1.
         11    1    5    5    0    0  0.27912030792E+01 -0.31319368429E+02  0.36574446705E+03  0.36709359683E+03  0.00000000000E+00 0. -1.
        -12    1    5    5    0    0  0.32484744681E+02  0.88244302428E+02  0.85484813415E+03  0.86000444651E+03  0.00000000000E+00 0.  1.
          5    1    4    4  501    0 -0.10426242613E+02  0.14182497661E+02  0.17170435164E+02  0.24942855062E+02  0.41800000000E+01 0.  1.
         -5    1    4    4    0  501  0.75403836578E+02 -0.87741555694E+02 -0.10720969846E+03  0.15778374761E+03  0.41800000000E+01 0.  1.
</event>
<event>
11    1  0.7105277E-009  0.1965258E+03  0.7561462E-02  0.1057008E+00
         22   -1    0    0    0    0  0.00000000000E+00  0.00000000000E+00  0.92242302953E+03  0.92242302953E+03  0.00000000000E+00 0. -1.
         22   -1    0    0    0    0 -0.00000000000E+00 -0.00000000000E+00 -0.34902569094E+03  0.34902569094E+03  0.00000000000E+00 0.  1.
         24    2    1    2    0    0 -0.10786263305E+03  0.74653765410E+02 -0.22895514964E+03  0.27377913495E+03  0.72986450041E+02 0.  0.
         25    2    1    2    0    0  0.22933908045E+03 -0.14082998674E+03  0.16318841530E+03  0.33868463964E+03  0.12508927714E+03 0.  0.
        -24    2    1    2    0    0 -0.12147644740E+03  0.66176221327E+02  0.63916407292E+03  0.65898494588E+03  0.81207310254E+02 0.  0.
        -11    1    3    3    0    0 -0.10509510120E+03  0.40480399665E+02 -0.14892734420E+03  0.18671635414E+03  0.00000000000E+00 0.  1.
         12    1    3    3    0    0 -0.27675318501E+01  0.34173365746E+02 -0.80027805439E+02  0.87062780810E+02  0.00000000000E+00 0. -1.
         13    1    5    5    0    0 -0.12956199941E+03  0.67525662524E+02  0.62986792029E+03  0.64659076996E+03  0.00000000000E+00 0. -1.
        -14    1    5    5    0    0  0.80855520128E+01 -0.13494411967E+01  0.92961526364E+01  0.12394175920E+02  0.00000000000E+00 0.  1.
          5    1    4    4  501    0  0.61365251842E+02 -0.84993599732E+02  0.11397764400E+03  0.15491282019E+03  0.41800000000E+01 0.  1.
         -5    1    4    4    0  501  0.16797382861E+03 -0.55836387005E+02  0.49210771299E+02  0.18377181945E+03  0.41800000000E+01 0.  1.
</event>
<event>
11    1  0.7105277E-009  0.1253388E+03  0.7561462E-02  0.1125132E+00
         22   -1    0    0    0    0  0.00000000000E+00  0.00000000000E+00  0.15670360282E+04  0.15670360282E+04  0.00000000000E+00 0. -1.
         22   -1    0    0    0    0 -0.00000000000E+00 -0.00000000000E+00 -0.36889263343E+03  0.36889263343E+03  0.00000000000E+00 0. -1.
        -24    2    1    2    0    0  0.51567703059E+01 -0.20527453722E+00 -0.28907790228E+03  0.30829017751E+03  0.10700544632E+03 0.  0.
         25    2    1    2    0    0 -0.20873267686E+02 -0.21823399072E+02 -0.90012574110E+01  0.12900036510E+03  0.12509243586E+03 0.  0.
         24    2    1    2    0    0  0.15716497380E+02  0.22028673609E+02  0.14962225545E+04  0.14986381190E+04  0.80635032914E+02 0.  0.
        -13    1    5    5    0    0 -0.17354998845E+02  0.38462209449E+02  0.51687743429E+03  0.51859697224E+03  0.00000000000E+00 0.  1.
         14    1    5    5    0    0  0.33071496226E+02 -0.16433535840E+02  0.97934512016E+03  0.98004114676E+03  0.00000000000E+00 0. -1.
         11    1    3    3    0    0 -0.11692694179E+02 -0.61045038514E+01 -0.29010843200E+03  0.29040813759E+03  0.00000000000E+00 0. -1.
        -12    1    3    3    0    0  0.16849464485E+02  0.58992293142E+01  0.10305297161E+01  0.17882039913E+02  0.00000000000E+00 0.  1.
          5    1    4    4  501    0  0.33453287201E+02 -0.31293682095E+02  0.35427766388E+02  0.58060451211E+02  0.41800000000E+01 0.  1.
         -5    1    4    4    0  501 -0.54326554887E+02  0.94702830225E+01 -0.44429023799E+02  0.70939913886E+02  0.41800000000E+01 0.  1.
</event>
<event>
11    1  0.7105277E-009  0.1854620E+03  0.7561462E-02  0.1065308E+00
         22   -1    0    0    0    0  0.00000000000E+00  0.00000000000E+00  0.93536798139E+02  0.93536798139E+02  0.00000000000E+00 0. -1.
         22   -1    0    0    0    0 -0.00000000000E+00 -0.00000000000E+00 -0.15320872229E+04  0.15320872229E+04  0.00000000000E+00 0. -1.
        -24    2    1    2    0    0  0.71930729324E+01  0.12959605476E+03 -0.11210770402E+04  0.11313580915E+04  0.79438803826E+02 0.  0.
         25    2    1    2    0    0 -0.42900196472E+02 -0.18491071561E+03 -0.31808180958E+03  0.39096756329E+03  0.12508876190E+03 0.  0.
         24    2    1    2    0    0  0.35707123539E+02  0.55314660847E+02  0.60842502223E+00  0.10329836619E+03  0.79595677653E+02 0.  0.
        -11    1    5    5    0    0 -0.22632526508E+02  0.13117903264E+02  0.14589855898E+02  0.29952871938E+02  0.00000000000E+00 0.  1.
         12    1    5    5    0    0  0.58339650047E+02  0.42196757583E+02 -0.13981430876E+02  0.73345494255E+02  0.00000000000E+00 0. -1.
         11    1    3    3    0    0 -0.13278404511E+02  0.12993634201E+03 -0.10099317583E+04  0.10183427348E+04  0.00000000000E+00 0. -1.
        -12    1    3    3    0    0  0.20471477443E+02 -0.34028725077E+00 -0.11114528188E+03  0.11301535678E+03  0.00000000000E+00 0.  1.
          5    1    4    4  501    0 -0.49058728850E+02 -0.20149190548E+03 -0.27706579816E+03  0.34610500684E+03  0.41800000000E+01 0.  1.
         -5    1    4    4    0  501  0.61585323782E+01  0.16581189867E+02 -0.41016011422E+02  0.44862556452E+02  0.41800000000E+01 0.  1.
</event>
<event>
11    1  0.7105277E-009  0.1335503E+03  0.7561462E-02  0.1114982E+00
         22   -1    0    0    0    0  0.00000000000E+00  0.00000000000E+00  0.38820464453E+03  0.38820464453E+03  0.00000000000E+00 0. -1.
         22   -1    0    0    0    0 -0.00000000000E+00 -0.00000000000E+00 -0.24814331753E+03  0.24814331753E+03  0.00000000000E+00 0. -1.
         24    2    1    2    0    0 -0.41804960568E+02  0.58598954306E+01 -0.17057763812E+03  0.19547101369E+03  0.85616549012E+02 0.  0.
         25    2    1    2    0    0  0.81474394990E+02 -0.12169322585E+02  0.39116966464E+02  0.15480108951E+03  0.12508825203E+03 0.  0.
        -24    2    1    2    0    0 -0.39669434422E+02  0.63094271542E+01  0.27152199865E+03  0.28607585887E+03  0.80633295700E+02 0.  0.
        -11    1    3    3    0    0  0.14157428276E+02  0.23958536853E+02 -0.21363645928E+02  0.35083466631E+02  0.00000000000E+00 0.  1.
         12    1    3    3    0    0 -0.55962388844E+02 -0.18098641422E+02 -0.14921399219E+03  0.16038754706E+03  0.00000000000E+00 0. -1.
         11    1    5    5    0    0 -0.26353369052E+02 -0.31193000092E+02  0.20094353940E+03  0.20505074821E+03  0.00000000000E+00 0. -1.
        -12    1    5    5    0    0 -0.13316065369E+02  0.37502427246E+02  0.70578459250E+02  0.81025110653E+02  0.00000000000E+00 0.  1.
          5    1    4    4  501    0  0.42515563872E+02 -0.66642929568E+02  0.37713181371E+02  0.87684717494E+02  0.41800000000E+01 0.  1.
         -5    1    4    4    0  501  0.38958831117E+02  0.54473606983E+02  0.14037850928E+01  0.67116372015E+02  0.41800000000E+01 0.  1.
</event>
<event>
11    1  0.7105277E-009  0.1986798E+03  0.7561462E-02  0.1055461E+00
         22   -1    0    0    0    0  0.00000000000E+00  0.00000000000E+00  0.27898760763E+03  0.27898760763E+03  0.00000000000E+00 0.  1.
         22   -1    0    0    0    0 -0.00000000000E+00 -0.00000000000E+00 -0.22238320573E+04  0.22238320573E+04  0.00000000000E+00 0. -1.
         24    2    1    2    0    0 -0.17536771235E+02  0.63932479246E+02 -0.17922476394E+04  0.17952907592E+04  0.80761430235E+02 0.  0.
         25    2    1    2    0    0  0.15662188186E+03  0.48892517053E+01 -0.37462278983E+03  0.42490420405E+03  0.12508808614E+03 0.  0.
        -24    2    1    2    0    0 -0.13908511063E+03 -0.68821730951E+02  0.22202597964E+03  0.28262470168E+03  0.80623121471E+02 0.  0.
        -13    1    3    3    0    0 -0.52856637244E+01 -0.44706840367E+01 -0.99397860514E+03  0.99400271264E+03  0.00000000000E+00 0.  1.
         14    1    3    3    0    0 -0.12251107511E+02  0.68403163283E+02 -0.79826903429E+03  0.80128804652E+03  0.00000000000E+00 0. -1.
         11    1    5    5    0    0  0.75545062882E+01 -0.12437625710E+02  0.65560243922E+01  0.15960781760E+02  0.00000000000E+00 0. -1.
        -12    1    5    5    0    0 -0.14663961692E+03 -0.56384105241E+02  0.21546995525E+03  0.26666391992E+03  0.00000000000E+00 0.  1.
          5    1    4    4  501    0  0.29492650385E+02 -0.39921742917E+02 -0.39198857117E+02  0.63384420669E+02  0.41800000000E+01 0. -1.
         -5    1    4    4    0  501  0.12712923148E+03  0.44810994623E+02 -0.33542393272E+03  0.36151978338E+03  0.41800000000E+01 0. -1.
</event>
<event>
11    1  0.7105277E-009  0.1482345E+03  0.7561462E-02  0.1098697E+00
         22   -1    0    0    0    0  0.00000000000E+00  0.00000000000E+00  0.12395452296E+03  0.12395452296E+03  0.00000000000E+00 0.  1.
         22   -1    0    0    0    0 -0.00000000000E+00 -0.00000000000E+00 -0.11072202520E+04  0.11072202520E+04  0.00000000000E+00 0.  1.
        -24    2    1    2    0    0 -0.43002686830E+02  0.26130851512E+02 -0.91189057498E+03  0.91694504922E+03  0.81925271304E+02 0.  0.
         25    2    1    2    0    0  0.83389372781E+02  0.41747605684E+02 -0.11463841234E+03  0.19361418728E+03  0.12509131808E+03 0.  0.
         24    2    1    2    0    0 -0.40386685950E+02 -0.67878457196E+02  0.43263258259E+02  0.12061553847E+03  0.80236084476E+02 0.  0.
        -13    1    5    5    0    0 -0.61050234576E+02 -0.67646200147E+02  0.40680206852E+02  0.99789873062E+02  0.00000000000E+00 0.  1.
         14    1    5    5    0    0  0.20663548626E+02 -0.23225704873E+00  0.25830514073E+01  0.20825665409E+02  0.00000000000E+00 0. -1.
         13    1    3    3    0    0 -0.20410120362E+02 -0.14690821424E+02 -0.82604432075E+02  0.86347469249E+02  0.00000000000E+00 0. -1.
        -14    1    3    3    0    0 -0.22592566469E+02  0.40821672936E+02 -0.82928614290E+03  0.83059757997E+03  0.00000000000E+00 0.  1.
          5    1    4    4  501    0  0.10948407690E+03  0.47493773695E+02 -0.11607236117E+03  0.16653133958E+03  0.41800000000E+01 0. -1.
         -5    1    4    4    0  501 -0.26094704123E+02 -0.57461680112E+01  0.14339488317E+01  0.27082847696E+02  0.41800000000E+01 0. -1.
</event>
<event>
11    1  0.7105277E-009  0.1904620E+03  0.7561462E-02  0.1061481E+00
         22   -1    0    0    0    0  0.00000000000E+00  0.00000000000E+00  0.54580849104E+03  0.54580849104E+03  0.00000000000E+00 0.  1.
         22   -1    0    0    0    0 -0.00000000000E+00 -0.00000000000E+00 -0.66242333673E+03  0.66242333673E+03  0.00000000000E+00 0. -1.
        -24    2    1    2    0    0 -0.24117721084E+02  0.14025867801E+03 -0.57870312392E+03  0.60136724476E+03  0.80567339540E+02 0.  0.
         25    2    1    2    0    0 -0.26903019126E+02 -0.16982205351E+03  0.10606444951E+03  0.23761415342E+03  0.12509003222E+03 0.  0.
         24    2    1    2    0    0  0.51020740210E+02  0.29563375501E+02  0.35602382873E+03  0.36925042959E+03  0.78203606228E+02 0.  0.
        -11    1    5    5    0    0  0.69351826234E+01 -0.17976250477E+02  0.19065464896E+03  0.19162577465E+03  0.00000000000E+00 0.  1.
         12    1    5    5    0    0  0.44085557587E+02  0.47539625979E+02  0.16536917977E+03  0.17762465494E+03  0.00000000000E+00 0. -1.
         13    1    3    3    0    0 -0.35712527267E+02  0.78391766729E+02 -0.44910727051E+03  0.45729420958E+03  0.00000000000E+00 0. -1.
        -14    1    3    3    0    0  0.11594806182E+02  0.61866911281E+02 -0.12959585342E+03  0.14407303517E+03  0.00000000000E+00 0.  1.
          5    1    4    4  501    0 -0.75532102103E+02 -0.10791356471E+03  0.50345572677E+02  0.14107652173E+03  0.41800000000E+01 0.  1.
         -5    1    4    4    0  501  0.48629082978E+02 -0.61908488803E+02  0.55718876829E+02  0.96537631689E+02  0.41800000000E+01 0.  1.
</event>
<event>
11    1  0.7105277E-009  0.1674405E+03  0.7561462E-02  0.1080281E+00
         22   -1    0    0    0    0  0.00000000000E+00  0.00000000000E+00  0.43837227968E+03  0.43837227968E+03  0.00000000000E+00 0.  1.
         22   -1    0    0    0    0 -0.00000000000E+00 -0.00000000000E+00 -0.16839101561E+04  0.16839101561E+04  0.00000000000E+00 0.  1.
        -24    2    1    2    0    0  0.86063185186E+02 -0.42628898071E+02 -0.13314802760E+04  0.13373736794E+04  0.80650716522E+02 0.  0.
         25    2    1    2    0    0 -0.19315326155E+03  0.23869586895E+02 -0.29829331815E+03  0.37749794822E+03  0.12509139713E+03 0.  0.
         24    2    1    2    0    0  0.10709007637E+03  0.18759311176E+02  0.38423571772E+03  0.40741080819E+03  0.80785417306E+02 0.  0.
        -13    1    5    5    0    0  0.77804660453E+02  0.12301315396E+01  0.35187938800E+03  0.36038060729E+03  0.00000000000E+00 0.  1.
         14    1    5    5    0    0  0.29285415915E+02  0.17529179636E+02  0.32356329718E+02  0.47030200902E+02  0.00000000000E+00 0. -1.
         11    1    3    3    0    0  0.13680937814E+02  0.40723199805E+01 -0.31974225384E+02  0.35015752718E+02  0.00000000000E+00 0. -1.
        -12    1    3    3    0    0  0.72382247372E+02 -0.46701218051E+02 -0.12995060506E+04  0.13023579267E+04  0.00000000000E+00 0.  1.
          5    1    4    4  501    0 -0.15084428361E+03  0.49193399845E+02 -0.13996615496E+03  0.21161754516E+03  0.41800000000E+01 0.  1.
         -5    1    4    4    0  501 -0.42308977945E+02 -0.25323812950E+02 -0.15832716319E+03  0.16588040306E+03  0.41800000000E+01 0.  1.
</event>
<event>
11    1  0.7105277E-009  0.1888701E+03  0.7561462E-02  0.1062686E+00
         22   -1    0    0    0    0  0.00000000000E+00  0.00000000000E+00  0.23574548265E+04  0.23574548265E+04  0.00000000000E+00 0. -1.
         22   -1    0    0    0    0 -0.00000000000E+00 -0.00000000000E+00 -0.39958092561E+02  0.39958092561E+02  0.00000000000E+00 0. -1.
         24    2    1    2    0    0  0.14958650179E+03 -0.15421430861E+02  0.20054733255E+03  0.26210242006E+03  0.76580049390E+02 0.  0.
         25    2    1    2    0    0 -0.10235913095E+03  0.33073527022E+02  0.92902728160E+03  0.94356371093E+03  0.12509810852E+03 0.  0.
        -24    2    1    2    0    0 -0.47227370840E+02 -0.17652096161E+02  0.11879221198E+04  0.11917467880E+04  0.80990265563E+02 0.  0.
        -11    1    3    3    0    0  0.33035814310E+02 -0.88874116530E+01  0.10753043833E+03  0.11284124371E+03  0.00000000000E+00 0.  1.
         12    1    3    3    0    0  0.11655068748E+03 -0.65340192081E+01  0.93016894215E+02  0.14926117636E+03  0.00000000000E+00 0. -1.
         13    1    5    5    0    0 -0.61721577036E+01  0.86111460596E+01  0.87397768062E+03  0.87404189464E+03  0.00000000000E+00 0. -1.
        -14    1    5    5    0    0 -0.41055213136E+02 -0.26263242221E+02  0.31394443913E+03  0.31770489339E+03  0.00000000000E+00 0.  1.
          5    1    4    4  501    0 -0.72444334298E+01  0.20352220880E+02  0.60984635310E+03  0.61024318226E+03  0.41800000000E+01 0.  1.
         -5    1    4    4    0  501 -0.95114697517E+02  0.12721306143E+02  0.31918092850E+03  0.33332052867E+03  0.41800000000E+01 0.  1.
</event>
<event>
11    1  0.7105277E-009  0.2095395E+03  0.7561462E-02  0.1047975E+00
         22   -1    0    0    0    0  0.00000000000E+00  0.00000000000E+00  0.11252616547E+04  0.11252616547E+04  0.00000000000E+00 0.  1.
         22   -1    0    0    0    0 -0.00000000000E+00 -0.00000000000E+00 -0.45676441266E+03  0.45676441266E+03  0.00000000000E+00 0.  1.
         24    2    1    2    0    0 -0.24830816712E+02 -0.51462633933E+01 -0.39510881238E+03  0.40381517559E+03  0.79452306005E+02 0.  0.
         25    2    1    2    0    0  0.15863157559E+03  0.10021271659E+03  0.22005958452E+03  0.31508434677E+03  0.12508141149E+03 0.  0.
        -24    2    1    2    0    0 -0.13380075888E+03 -0.95066453194E+02  0.84354646984E+03  0.86312654495E+03  0.80476780615E+02 0.  0.
        -13    1    3    3    0    0  0.10419850419E+02 -0.60558264003E+01 -0.32606691904E+03  0.32628956773E+03  0.00000000000E+00 0.  1.
         14    1    3    3    0    0 -0.35250667130E+02  0.90956300691E+00 -0.69041893336E+02  0.77525607856E+02  0.00000000000E+00 0. -1.
         13    1    5    5    0    0 -0.26181946966E+01 -0.39752975591E+02  0.15715260967E+03  0.16212370813E+03  0.00000000000E+00 0. -1.
        -14    1    5    5    0    0 -0.13118256418E+03 -0.55313477603E+02  0.68639386018E+03  0.70100283683E+03  0.00000000000E+00 0.  1.
          5    1    4    4  501    0  0.10213807340E+03 -0.59248976000E+01  0.76727232747E+02  0.12795245638E+03  0.41800000000E+01 0.  1.
         -5    1    4    4    0  501  0.56493502191E+02  0.10613761419E+03  0.14333235178E+03  0.18713189039E+03  0.41800000000E+01 0.  1.
</event>
<event>
11    1  0.7105277E-009  0.1502296E+03  0.7561462E-02  0.1096644E+00
         22   -1    0    0    0    0  0.00000000000E+00  0.00000000000E+00  0.36911295549E+03  0.36911295549E+03  0.00000000000E+00 0. -1.
         22   -1    0    0    0    0 -0.00000000000E+00 -0.00000000000E+00 -0.35601145944E+03  0.35601145944E+03  0.00000000000E+00 0. -1.
         24    2    1    2    0    0  0.46037989692E+02  0.24618711171E+02 -0.26337985190E+03  0.27988772666E+03  0.79010225369E+02 0.  0.
         25    2    1    2    0    0 -0.64288221107E+02  0.58320825996E+02  0.81476660389E+01  0.15247411075E+03  0.12509067059E+03 0.  0.
        -24    2    1    2    0    0  0.18250231415E+02 -0.82939537167E+02  0.26833368192E+03  0.29276257753E+03  0.80591092422E+02 0.  0.
        -11    1    3    3    0    0  0.62403725568E+00  0.42427666270E+02 -0.16072899757E+03  0.16623569697E+03  0.00000000000E+00 0.  1.
         12    1    3    3    0    0  0.45413952436E+02 -0.17808955099E+02 -0.10265085434E+03  0.11365202969E+03  0.00000000000E+00 0. -1.
         13    1    5    5    0    0  0.10733393656E+02 -0.90889785488E+02  0.26635998029E+03  0.28164480813E+03  0.00000000000E+00 0. -1.
        -14    1    5    5    0    0  0.75168377591E+01  0.79502483211E+01  0.19737016235E+01  0.11117769397E+02  0.00000000000E+00 0.  1.
          5    1    4    4  501    0 -0.73577922171E+02 -0.13224302973E+02  0.23734728099E+02  0.78545544355E+02  0.41800000000E+01 0. -1.
         -5    1    4    4    0  501  0.92897010643E+01  0.71545128969E+02 -0.15587062060E+02  0.73928566391E+02  0.41800000000E+01 0. -1.
</event>
<event>
11    1  0.7105277E-009  0.1455346E+03  0.7561462E-02  0.1101531E+00
         22   -1    0    0    0    0  0.00000000000E+00  0.00000000000E+00  0.14860307982E+03  0.14860307982E+03  0.00000000000E+00 0. -1.
         22   -1    0    0    0    0 -0.00000000000E+00 -0.00000000000E+00 -0.17366220342E+04  0.17366220342E+04  0.00000000000E+00 0. -1.
        -24    2    1    2    0    0  0.72780544029E+02 -0.19065087790E+02 -0.14322319933E+04  0.14364147569E+04  0.79613980485E+02 0.  0.
         25    2    1    2    0    0 -0.55498174751E+02  0.48953903084E+02 -0.26820934126E+03  0.30505819325E+03  0.12509084099E+03 0.  0.
         24    2    1    2    0    0 -0.17282369279E+02 -0.29888815294E+02  0.11242238019E+03  0.14375216392E+03  0.82667233518E+02 0.  0.
        -11    1    5    5    0    0 -0.22152498972E+02 -0.12839546376E+02 -0.40631805149E+01  0.25924825896E+02  0.00000000000E+00 0.  1.
         12    1    5    5    0    0  0.48701296934E+01 -0.17049268919E+02  0.11648556071E+03  0.11782733803E+03  0.00000000000E+00 0. -1.
         11    1    3    3    0    0  0.69937680921E+01 -0.23199628308E+02 -0.86914501491E+03  0.86948271546E+03  0.00000000000E+00 0. -1.
        -12    1    3    3    0    0  0.65786775937E+02  0.41345405185E+01 -0.56308697840E+03  0.56693204139E+03  0.00000000000E+00 0.  1.
          5    1    4    4  501    0 -0.82708823746E+02  0.10151025458E+02 -0.22792943963E+03  0.24272019837E+03  0.41800000000E+01 0. -1.
         -5    1    4    4    0  501  0.27210648995E+02  0.38802877626E+02 -0.40279901630E+02  0.62337994884E+02  0.41800000000E+01 0. -1.
</event>
<event>
11    1  0.7105277E-009  0.1646268E+03  0.7561462E-02  0.1082805E+00
         22   -1    0    0    0    0  0.00000000000E+00  0.00000000000E+00  0.46418670339E+03  0.46418670339E+03  0.00000000000E+00 0.  1.
         22   -1    0    0    0    0 -0.00000000000E+00 -0.00000000000E+00 -0.17265721582E+04  0.17265721582E+04  0.00000000000E+00 0. -1.
        -24    2    1    2    0    0 -0.41940070251E+02 -0.17066375776E+02 -0.15131282761E+04  0.15146220117E+04  0.49723512479E+02 0.  0.
         25    2    1    2    0    0  0.57816532944E+02 -0.89274410644E+02 -0.16915422932E+03  0.23574000775E+03  0.12509007187E+03 0.  0.
         24    2    1    2    0    0 -0.15876462692E+02  0.10634078642E+03  0.41989705059E+03  0.44039684216E+03  0.77944984246E+02 0.  0.
        -11    1    5    5    0    0  0.24056165779E+02  0.51578830542E+02  0.11829849048E+03  0.13127683620E+03  0.00000000000E+00 0.  1.
         12    1    5    5    0    0 -0.39932628472E+02  0.54761955878E+02  0.30159856011E+03  0.30912000596E+03  0.00000000000E+00 0. -1.
         11    1    3    3    0    0 -0.51854976472E+02 -0.77019879777E+01 -0.13009988677E+04  0.13020546506E+04  0.00000000000E+00 0. -1.
        -12    1    3    3    0    0  0.99149062201E+01 -0.93643877987E+01 -0.21212940834E+03  0.21256736111E+03  0.00000000000E+00 0.  1.
          5    1    4    4  501    0  0.39347631058E+02 -0.10660649438E+03 -0.70485478593E+02  0.13378660548E+03  0.41800000000E+01 0. -1.
         -5    1    4    4    0  501  0.18468901886E+02  0.17332083740E+02 -0.98668750729E+02  0.10195340227E+03  0.41800000000E+01 0. -1.
</event>
<event>
11    1  0.7105277E-009  0.1702407E+03  0.7561462E-02  0.1077822E+00
         22   -1    0    0    0    0  0.00000000000E+00  0.00000000000E+00  0.82117235531E+03  0.82117235531E+03  0.00000000000E+00 0. -1.
         22   -1    0    0    0    0 -0.00000000000E+00 -0.00000000000E+00 -0.55773648397E+03  0.55773648397E+03  0.00000000000E+00 0.  1.
         24    2    1    2    0    0  0.12452837308E+03  0.23674904641E+02 -0.50948554820E+03  0.53114423406E+03  0.80441635598E+02 0.  0.
         25    2    1    2    0    0 -0.87296862408E+02  0.99218064407E+02  0.29701190283E+03  0.34832539890E+03  0.12509814789E+03 0.  0.
        -24    2    1    2    0    0 -0.37231510674E+02 -0.12289296905E+03  0.47590951671E+03  0.49943920632E+03  0.80379011480E+02 0.  0.
        -13    1    3    3    0    0  0.98783968590E+02  0.45571734852E+02 -0.44760492115E+03  0.46063567047E+03  0.00000000000E+00 0.  1.
         14    1    3    3    0    0  0.25744404492E+02 -0.21896830211E+02 -0.61880627050E+02  0.70508563593E+02  0.00000000000E+00 0. -1.
         11    1    5    5    0    0 -0.42808770708E+02 -0.13069014707E+03  0.40116397274E+03  0.42408140541E+03  0.00000000000E+00 0. -1.
        -12    1    5    5    0    0  0.55772600341E+01  0.77971780221E+01  0.74745543968E+02  0.75357800908E+02  0.00000000000E+00 0.  1.
          5    1    4    4  501    0 -0.45002715704E+02  0.12242208429E+03  0.24271859483E+03  0.27557612345E+03  0.41800000000E+01 0. -1.
         -5    1    4    4    0  501 -0.42294146704E+02 -0.23204019884E+02  0.54293308006E+02  0.72749275450E+02  0.41800000000E+01 0. -1.
</event>
<event>
11    1  0.7105277E-009  0.1726546E+03  0.7561462E-02  0.1075744E+00
         22   -1    0    0    0    0  0.00000000000E+00  0.00000000000E+00  0.68791383045E+03  0.68791383045E+03  0.00000000000E+00 0. -1.
         22   -1    0    0    0    0 -0.00000000000E+00 -0.00000000000E+00 -0.83242874661E+03  0.83242874661E+03  0.00000000000E+00 0.  1.
        -24    2    1    2    0    0 -0.95445014104E+02  0.69777532698E+02 -0.73394760403E+03  0.74779959755E+03  0.80910431100E+02 0.  0.
         25    2    1    2    0    0  0.79597705655E+02 -0.11032741844E+03  0.91941485024E+01  0.18503972213E+03  0.12508889796E+03 0.  0.
         24    2    1    2    0    0  0.15847308449E+02  0.40549885738E+02  0.58023853936E+03  0.58750325738E+03  0.81165783716E+02 0.  0.
        -11    1    5    5    0    0  0.30887928857E+02 -0.15149218464E+02  0.21305047745E+03  0.21581026136E+03  0.00000000000E+00 0.  1.
         12    1    5    5    0    0 -0.15040620409E+02  0.55699104201E+02  0.36718806192E+03  0.37169299601E+03  0.00000000000E+00 0. -1.
         11    1    3    3    0    0 -0.28576060439E+01  0.25594886646E+02 -0.33089949089E+03  0.33190019164E+03  0.00000000000E+00 0. -1.
        -12    1    3    3    0    0 -0.92587408060E+02  0.44182646052E+02 -0.40304811313E+03  0.41589940592E+03  0.00000000000E+00 0.  1.
          5    1    4    4  501    0  0.33300368910E+01  0.10096148832E+01 -0.40726098169E+02  0.41087661651E+02  0.41800000000E+01 0. -1.
         -5    1    4    4    0  501  0.76267668764E+02 -0.11133703332E+03  0.49920246671E+02  0.14395206047E+03  0.41800000000E+01 0. -1.
</event>
<event>
11    1  0.7105277E-009  0.1561328E+03  0.7561462E-02  0.1090772E+00
         22   -1    0    0    0    0  0.00000000000E+00  0.00000000000E+00  0.54106803617E+03  0.54106803617E+03  0.00000000000E+00 0.  1.
         22   -1    0    0    0    0 -0.00000000000E+00 -0.00000000000E+00 -0.51832014887E+03  0.51832014887E+03  0.00000000000E+00 0.  1.
        -24    2    1    2    0    0 -0.34602958262E+02  0.88868556504E+02 -0.48394299029E+03  0.49968154448E+03  0.79911469734E+02 0.  0.
         25    2    1    2    0    0  0.21687978298E+02 -0.29295043954E+02  0.21922711764E+03  0.25502260154E+03  0.12508968856E+03 0.  0.
         24    2    1    2    0    0  0.12914979963E+02 -0.59573512549E+02  0.28746375996E+03  0.30468403902E+03  0.80505591349E+02 0.  0.
        -11    1    5    5    0    0  0.37832554808E+02 -0.17293076714E+02  0.20103621824E+03  0.20529469976E+03  0.00000000000E+00 0.  1.
         12    1    5    5    0    0 -0.24917574845E+02 -0.42280435835E+02  0.86427541713E+02  0.99389339253E+02  0.00000000000E+00 0. -1.
         11    1    3    3    0    0 -0.29634281395E+02  0.64426116098E+02 -0.16284040532E+03  0.17761169070E+03  0.00000000000E+00 0. -1.
        -12    1    3    3    0    0 -0.49686768664E+01  0.24442440406E+02 -0.32110258497E+03  0.32206985379E+03  0.00000000000E+00 0.  1.
          5    1    4    4  501    0  0.49702048833E+01  0.33380918820E+02  0.92903065531E+01  0.35252955531E+02  0.41800000000E+01 0.  1.
         -5    1    4    4    0  501  0.16717773415E+02 -0.62675962774E+02  0.20993681109E+03  0.21976964601E+03  0.41800000000E+01 0.  1.
</event>
<event>
11    1  0.7105277E-009  0.2215213E+03  0.7561462E-02  0.1040269E+00
         22   -1    0    0    0    0  0.00000000000E+00  0.00000000000E+00  0.15261503845E+03  0.15261503845E+03  0.00000000000E+00 0. -1.
         22   -1    0    0    0    0 -0.00000000000E+00 -0.00000000000E+00 -0.59751785175E+03  0.59751785175E+03  0.00000000000E+00 0.  1.
        -24    2    1    2    0    0 -0.10919873053E+02 -0.36836381421E+01 -0.27370172819E+03  0.28539348226E+03  0.80024939137E+02 0.  0.
         25    2    1    2    0    0 -0.78167737795E+02  0.16457274847E+03 -0.39047454371E+02  0.22442956155E+03  0.12509812001E+03 0.  0.
         24    2    1    2    0    0  0.89087610848E+02 -0.16088911033E+03 -0.13215363074E+03  0.24030984639E+03  0.80388630578E+02 0.  0.
        -13    1    5    5    0    0  0.72402882893E+02 -0.81374468026E+02 -0.11276966858E+03  0.15678322503E+03  0.00000000000E+00 0.  1.
         14    1    5    5    0    0  0.16684727955E+02 -0.79514642305E+02 -0.19383962156E+02  0.83526621365E+02  0.00000000000E+00 0. -1.
         11    1    3    3    0    0  0.83550821118E+01  0.32245336061E+02 -0.68370170671E+02  0.76052937698E+02  0.00000000000E+00 0. -1.
        -12    1    3    3    0    0 -0.19274955165E+02 -0.35928974204E+02 -0.20533155752E+03  0.20934054456E+03  0.00000000000E+00 0.  1.
          5    1    4    4  501    0 -0.54492155075E+02  0.10210805325E+03 -0.84638708061E+02  0.14344557437E+03  0.41800000000E+01 0.  1.
         -5    1    4    4    0  501 -0.23675582720E+02  0.62464695224E+02  0.45591253690E+02  0.80983987180E+02  0.41800000000E+01 0.  1.
</event>
<event>
11    1  0.7105277E-009  0.1538295E+03  0.7561462E-02  0.1093029E+00
         22   -1    0    0    0    0  0.00000000000E+00  0.00000000000E+00  0.62904688064E+03  0.62904688064E+03  0.00000000000E+00 0. -1.
         22   -1    0    0    0    0 -0.00000000000E+00 -0.00000000000E+00 -0.26004441064E+04  0.26004441064E+04  0.00000000000E+00 0. -1.
         24    2    1    2    0    0 -0.87525196067E+02  0.27573022827E+02 -0.25213769047E+04  0.25244148166E+04  0.83112807887E+02 0.  0.
         25    2    1    2    0    0 -0.33412613210E+01 -0.26414262077E+02 -0.13583570613E+02  0.12861344275E+03  0.12509207408E+03 0.  0.
        -24    2    1    2    0    0  0.90866457388E+02 -0.11587607500E+01  0.56356324957E+03  0.57646272774E+03  0.80297474435E+02 0.  0.
        -11    1    3    3    0    0  0.88069208176E+01  0.87928531487E+01 -0.71657289760E+02  0.72729933978E+02  0.00000000000E+00 0.  1.
         12    1    3    3    0    0 -0.96332116885E+02  0.18780169679E+02 -0.24497196150E+04  0.24516848826E+04  0.00000000000E+00 0. -1.
         13    1    5    5    0    0  0.89863380404E+02  0.16644439080E+02  0.33617428021E+03  0.34837567533E+03  0.00000000000E+00 0. -1.
        -14    1    5    5    0    0  0.10030769836E+01 -0.17803199830E+02  0.22738896936E+03  0.22808705240E+03  0.00000000000E+00 0.  1.
          5    1    4    4  501    0  0.34150437385E+02 -0.53410087219E+02 -0.40150696300E+02  0.75156108227E+02  0.41800000000E+01 0. -1.
         -5    1    4    4    0  501 -0.37491698706E+02  0.26995825142E+02  0.26567125687E+02  0.53457334522E+02  0.41800000000E+01 0. -1.
</event>
<event>
11    1  0.7105277E-009  0.1628647E+03  0.7561462E-02  0.1084413E+00
         22   -1    0    0    0    0  0.00000000000E+00  0.00000000000E+00  0.57093058293E+03  0.57093058293E+03  0.00000000000E+00 0.  1.
         22   -1    0    0    0    0 -0.00000000000E+00 -0.00000000000E+00 -0.30032418037E+03  0.30032418037E+03  0.00000000000E+00 0. -1.
         24    2    1    2    0    0  0.27351797057E+02 -0.54768919877E+02 -0.59250801472E+02  0.11619956580E+03  0.79018518274E+02 0.  0.
         25    2    1    2    0    0 -0.12488551391E+03  0.86694570327E+02 -0.15703534336E+03  0.25183438938E+03  0.12509244782E+03 0.  0.
        -24    2    1    2    0    0  0.97533716852E+02 -0.31925650450E+02  0.48689254739E+03  0.50322080812E+03  0.75065011447E+02 0.  0.
        -11    1    3    3    0    0 -0.91726141252E+01 -0.19533115923E+02  0.14986506810E+02  0.26273082307E+02  0.00000000000E+00 0.  1.
         12    1    3    3    0    0  0.36524411182E+02 -0.35235803954E+02 -0.74237308282E+02  0.89926483493E+02  0.00000000000E+00 0. -1.
         11    1    5    5    0    0 -0.63244849383E+01 -0.83029781341E+01  0.13893694839E+03  0.13932843996E+03  0.00000000000E+00 0. -1.
        -12    1    5    5    0    0  0.10385820179E+03 -0.23622672316E+02  0.34795559901E+03  0.36389236816E+03  0.00000000000E+00 0.  1.
          5    1    4    4  501    0 -0.69872765624E+02  0.46625884890E+02 -0.16296756548E+03  0.18339050225E+03  0.41800000000E+01 0. -1.
         -5    1    4    4    0  501 -0.55012748285E+02  0.40068685437E+02  0.59322221115E+01  0.68443887132E+02  0.41800000000E+01 0. -1.
</event>
<event>
11    1  0.7105277E-009  0.1366115E+03  0.7561462E-02  0.1111402E+00
         22   -1    0    0    0    0  0.00000000000E+00  0.00000000000E+00  0.32870837131E+03  0.32870837131E+03  0.00000000000E+00 0. -1.
         22   -1    0    0    0    0 -0.00000000000E+00 -0.00000000000E+00 -0.41006969361E+03  0.41006969361E+03  0.00000000000E+00 0. -1.
         24    2    1    2    0    0 -0.51921648694E+02  0.55121746362E+01 -0.30541948018E+03  0.32017772520E+03  0.80662724744E+02 0.  0.
         25    2    1    2    0    0  0.10021441745E+03  0.81735589174E+01 -0.14567527423E+02  0.16114883793E+03  0.12508796338E+03 0.  0.
        -24    2    1    2    0    0 -0.48292768753E+02 -0.13685733554E+02  0.23862568530E+03  0.25745150179E+03  0.82580671304E+02 0.  0.
        -11    1    3    3    0    0  0.64955154575E+01 -0.86718472954E+01 -0.21989541644E+01  0.11055679807E+02  0.00000000000E+00 0.  1.
         12    1    3    3    0    0 -0.58417164151E+02  0.14184021932E+02 -0.30322052602E+03  0.30912204539E+03  0.00000000000E+00 0. -1.
         11    1    5    5    0    0 -0.65371997352E+02 -0.30958910907E+02  0.18060754519E+03  0.19455343118E+03  0.00000000000E+00 0. -1.
        -12    1    5    5    0    0  0.17079228600E+02  0.17273177353E+02  0.58018140108E+02  0.62898070614E+02  0.00000000000E+00 0.  1.
          5    1    4    4  501    0  0.18338849270E+02 -0.49942706049E+02 -0.27143235448E+02  0.59873323865E+02  0.41800000000E+01 0. -1.
         -5    1    4    4    0  501  0.81875568176E+02  0.58116264966E+02  0.12575708025E+02  0.10127551407E+03  0.41800000000E+01 0. -1.
</event>
<event>
11    1  0.7105277E-009  0.1293434E+03  0.7561462E-02  0.1120078E+00
         22   -1    0    0    0    0  0.00000000000E+00  0.00000000000E+00  0.89661467662E+03  0.89661467662E+03  0.00000000000E+00 0.  1.
         22   -1    0    0    0    0 -0.00000000000E+00 -0.00000000000E+00 -0.45645922734E+02  0.45645922734E+02  0.00000000000E+00 0.  1.
         24    2    1    2    0    0 -0.30953723183E+02 -0.12782155127E+02  0.35826732587E+02  0.94802836272E+02  0.81132647736E+02 0.  0.
         25    2    1    2    0    0  0.20752773923E+02  0.26395052592E+02  0.31340589847E+03  0.33911364676E+03  0.12508969502E+03 0.  0.
        -24    2    1    2    0    0  0.10200949260E+02 -0.13612897464E+02  0.50173612284E+03  0.50834411632E+03  0.79907654810E+02 0.  0.
        -13    1    3    3    0    0 -0.33113793074E+02  0.12731759020E+02 -0.14508674320E+02  0.38329135263E+02  0.00000000000E+00 0.  1.
         14    1    3    3    0    0  0.21600698912E+01 -0.25513914148E+02  0.50335406907E+02  0.56473701008E+02  0.00000000000E+00 0. -1.
         13    1    5    5    0    0  0.19215171632E+02  0.30055357502E+02  0.27114197228E+03  0.27347854846E+03  0.00000000000E+00 0. -1.
        -14    1    5    5    0    0 -0.90142223723E+01 -0.43668254966E+02  0.23059415055E+03  0.23486556786E+03  0.00000000000E+00 0.  1.
          5    1    4    4  501    0  0.43836382177E+02 -0.33620898193E+02  0.82436378082E+02  0.99323824075E+02  0.41800000000E+01 0.  1.
         -5    1    4    4    0  501 -0.23083608254E+02  0.60015950784E+02  0.23096952038E+03  0.23978982269E+03  0.41800000000E+01 0.  1.
</event>
<event>
11    1  0.7105277E-009  0.1295883E+03  0.7561462E-02  0.1119776E+00
         22   -1    0    0    0    0  0.00000000000E+00  0.00000000000E+00  0.59013006178E+03  0.59013006178E+03  0.00000000000E+00 0.  1.
         22   -1    0    0    0    0 -0.00000000000E+00 -0.00000000000E+00 -0.26742609660E+03  0.26742609660E+03  0.00000000000E+00 0.  1.
        -24    2    1    2    0    0 -0.24795865984E+02  0.24102557033E+02 -0.23987764820E+03  0.25534556365E+03  0.80400886464E+02 0.  0.
         25    2    1    2    0    0 -0.12666529606E+02 -0.17957944746E+02  0.30536125647E+03  0.33072057695E+03  0.12509066439E+03 0.  0.
         24    2    1    2    0    0  0.37462395590E+02 -0.61446122869E+01  0.25722035691E+03  0.27149001778E+03  0.78123814546E+02 0.  0.
        -13    1    5    5    0    0 -0.12369691857E+02 -0.15286917659E+02  0.16586411447E+03  0.16702575728E+03  0.00000000000E+00 0.  1.
         14    1    5    5    0    0  0.49832087447E+02  0.91423053724E+01  0.91356242444E+02  0.10446426049E+03  0.00000000000E+00 0. -1.
         13    1    3    3    0    0  0.20037662800E+02 -0.10432589020E+02 -0.27667290554E+02  0.35718703934E+02  0.00000000000E+00 0. -1.
        -14    1    3    3    0    0 -0.44833528784E+02  0.34535146053E+02 -0.21221035764E+03  0.21962685971E+03  0.00000000000E+00 0.  1.
          5    1    4    4  501    0  0.12448814921E+02 -0.33994640463E+02  0.29735974131E+03  0.29958454020E+03  0.41800000000E+01 0.  1.
         -5    1    4    4    0  501 -0.25115344527E+02  0.16036695716E+02  0.80015151600E+01  0.31136036759E+02  0.41800000000E+01 0.  1.
</event>
<event>
11    1  0.7105277E-009  0.1804917E+03  0.7561462E-02  0.1069246E+00
         22   -1    0    0    0    0  0.00000000000E+00  0.00000000000E+00  0.59546374489E+02  0.59546374489E+02  0.00000000000E+00 0. -1.
         22   -1    0    0    0    0 -0.00000000000E+00 -0.00000000000E+00 -0.25741846704E+04  0.25741846704E+04  0.00000000000E+00 0.  1.
        -24    2    1    2    0    0  0.32087425890E+02 -0.47537912011E+02 -0.19773717424E+04  0.19799759112E+04  0.83762433419E+02 0.  0.
         25    2    1    2    0    0  0.91440478638E+02 -0.23626665241E+02 -0.43632294547E+03  0.46362216050E+03  0.12509282361E+03 0.  0.
         24    2    1    2    0    0 -0.12352790453E+03  0.71164577253E+02 -0.10094360801E+03  0.19013297317E+03  0.75082589439E+02 0.  0.
        -13    1    5    5    0    0  0.94411577650E+01  0.28786477250E+01 -0.14248140405E+02  0.17332962173E+02  0.00000000000E+00 0.  1.
         14    1    5    5    0    0 -0.13296906229E+03  0.68285929527E+02 -0.86695467605E+02  0.17280001100E+03  0.00000000000E+00 0. -1.
         13    1    3    3    0    0  0.14588823611E+02 -0.35909473344E+02 -0.30258405427E+03  0.30505644387E+03  0.00000000000E+00 0. -1.
        -14    1    3    3    0    0  0.17498602279E+02 -0.11628438667E+02 -0.16747876881E+04  0.16749194673E+04  0.00000000000E+00 0.  1.
          5    1    4    4  501    0 -0.10620236417E+02 -0.43973450115E+02 -0.20436803432E+03  0.20935668030E+03  0.41800000000E+01 0. -1.
         -5    1    4    4    0  501  0.10206071505E+03  0.20346784873E+02 -0.23195491115E+03  0.25426548020E+03  0.41800000000E+01 0. -1.
</event>
<event>
11    1  0.7105277E-009  0.1340786E+03  0.7561462E-02  0.1114357E+00
         22   -1    0    0    0    0  0.00000000000E+00  0.00000000000E+00  0.18009995649E+04  0.18009995649E+04  0.00000000000E+00 0. -1.
         22   -1    0    0    0    0 -0.00000000000E+00 -0.00000000000E+00 -0.82824096090E+02  0.82824096090E+02  0.00000000000E+00 0. -1.
        -24    2    1    2    0    0 -0.12893070364E+02  0.17329058748E+02 -0.36924596500E+02  0.91076522921E+02  0.80405097227E+02 0.  0.
         25    2    1    2    0    0  0.41445427161E+02  0.22151350401E+02  0.23862766596E+03  0.27349376343E+03  0.12508904796E+03 0.  0.
         24    2    1    2    0    0 -0.28552356796E+02 -0.39480409150E+02  0.15164723994E+04  0.15192533747E+04  0.77899541474E+02 0.  0.
        -13    1    5    5    0    0 -0.19453288933E+01 -0.31265548884E+02  0.19601498620E+03  0.19850237697E+03  0.00000000000E+00 0.  1.
         14    1    5    5    0    0 -0.26607027903E+02 -0.82148602661E+01  0.13204574132E+04  0.13207509977E+04  0.00000000000E+00 0. -1.
         13    1    3    3    0    0  0.64143393637E-01  0.48749857942E+02 -0.26707986862E+02  0.55586593041E+02  0.00000000000E+00 0. -1.
        -14    1    3    3    0    0 -0.12957213758E+02 -0.31420799193E+02 -0.10216609638E+02  0.35489929879E+02  0.00000000000E+00 0.  1.
          5    1    4    4  501    0  0.20422480772E+02  0.55902316865E+02  0.42299865782E+02  0.73136159298E+02  0.41800000000E+01 0.  1.
         -5    1    4    4    0  501  0.21022946389E+02 -0.33750966464E+02  0.19632780017E+03  0.20035760413E+03  0.41800000000E+01 0.  1.
</event>
<event>
11    1  0.7105277E-009  0.1654378E+03  0.7561462E-02  0.1082071E+00
         22   -1    0    0    0    0  0.00000000000E+00  0.00000000000E+00  0.16039129639E+04  0.16039129639E+04  0.00000000000E+00 0.  1.
         22   -1    0    0    0    0 -0.00000000000E+00 -0.00000000000E+00 -0.15251663389E+03  0.15251663389E+03  0.00000000000E+00 0. -1.
         24    2    1    2    0    0  0.10082933153E+03  0.15159064571E+02 -0.81743989633E+02  0.15332501990E+03  0.80188094825E+02 0.  0.
         25    2    1    2    0    0 -0.16552433138E+03 -0.71057361201E+02  0.34679771048E+03  0.41031887504E+03  0.12508187063E+03 0.  0.
        -24    2    1    2    0    0  0.64694999846E+02  0.55898296631E+02  0.11863426091E+04  0.11927857028E+04  0.89548221757E+02 0.  0.
        -11    1    3    3    0    0  0.10981471447E+02 -0.10981338879E+02  0.12932754046E+02  0.20209865064E+02  0.00000000000E+00 0.  1.
         12    1    3    3    0    0  0.89847860086E+02  0.26140403449E+02 -0.94676743679E+02  0.13311515484E+03  0.00000000000E+00 0. -1.
         13    1    5    5    0    0 -0.73887438758E+01  0.49008179344E+02  0.58588308597E+03  0.58797566753E+03  0.00000000000E+00 0. -1.
        -14    1    5    5    0    0  0.72083743722E+02  0.68901172867E+01  0.60045952317E+03  0.60481003529E+03  0.00000000000E+00 0.  1.
          5    1    4    4  501    0  0.82257531764E+01  0.20361516933E+02  0.27168449885E+02  0.35183113226E+02  0.41800000000E+01 0. -1.
         -5    1    4    4    0  501 -0.17375008456E+03 -0.91418878134E+02  0.31962926060E+03  0.37513576182E+03  0.41800000000E+01 0. -1.
</event>
<event>
11    1  0.7105277E-009  0.1499654E+03  0.7561462E-02  0.1096914E+00
         22   -1    0    0    0    0  0.00000000000E+00  0.00000000000E+00  0.10275075156E+04  0.10275075156E+04  0.00000000000E+00 0.  1.
         22   -1    0    0    0    0 -0.00000000000E+00 -0.00000000000E+00 -0.78575081648E+03  0.78575081648E+03  0.00000000000E+00 0. -1.
        -24    2    1    2    0    0  0.50353284916E+02  0.65578601215E+02 -0.76574196148E+03  0.77433017382E+03  0.79940354425E+02 0.  0.
         25    2    1    2    0    0 -0.46534822759E+02 -0.73890799992E+02  0.43784846414E+03  0.46366318995E+03  0.12508771365E+03 0.  0.
         24    2    1    2    0    0 -0.38184621562E+01  0.83121987772E+01  0.56965019646E+03  0.57526496832E+03  0.79654027811E+02 0.  0.
        -11    1    5    5    0    0  0.25015498610E+02  0.22383687041E+02  0.45422140526E+03  0.45546008565E+03  0.00000000000E+00 0.  1.
         12    1    5    5    0    0 -0.28833960767E+02 -0.14071488263E+02  0.11542879119E+03  0.11980488267E+03  0.00000000000E+00 0. -1.
         11    1    3    3    0    0 -0.16575735749E+01  0.55600948488E+02 -0.51877909224E+03  0.52175277630E+03  0.00000000000E+00 0. -1.
        -12    1    3    3    0    0  0.52010858491E+02  0.99776527269E+01 -0.24696286924E+03  0.25257739752E+03  0.00000000000E+00 0.  1.
          5    1    4    4  501    0 -0.21161917024E+02  0.16966015216E+02  0.16846122503E+02  0.32201500708E+02  0.41800000000E+01 0. -1.
         -5    1    4    4    0  501 -0.25372905735E+02 -0.90856815208E+02  0.42100234164E+03  0.43146168924E+03  0.41800000000E+01 0. -1.
</event>
<event>
11    1  0.7105277E-009  0.1560651E+03  0.7561462E-02  0.1090838E+00
         22   -1    0    0    0    0  0.00000000000E+00  0.00000000000E+00  0.20002440868E+04  0.20002440868E+04  0.00000000000E+00 0. -1.
         22   -1    0    0    0    0 -0.00000000000E+00 -0.00000000000E+00 -0.87734371263E+03  0.87734371263E+03  0.00000000000E+00 0.  1.
        -24    2    1    2    0    0 -0.42438526970E+02  0.56040988276E+02 -0.80337827324E+03  0.81098264439E+03  0.85642154609E+02 0.  0.
         25    2    1    2    0    0  0.12991842390E+03 -0.25380331452E+02  0.53429715082E+02  0.18980219933E+03  0.12508869782E+03 0.  0.
         24    2    1    2    0    0 -0.87479896932E+02 -0.30660656823E+02  0.18728489323E+04  0.18768029557E+04  0.78951903295E+02 0.  0.
        -11    1    5    5    0    0 -0.52201750183E+02 -0.14828658967E+02  0.42667385986E+03  0.43011102583E+03  0.00000000000E+00 0.  1.
         12    1    5    5    0    0 -0.35278146748E+02 -0.15831997856E+02  0.14461750725E+04  0.14466919299E+04  0.00000000000E+00 0. -1.
         11    1    3    3    0    0 -0.10557880198E+02 -0.14811810172E+02 -0.43599464068E+02  0.47241632295E+02  0.00000000000E+00 0. -1.
        -12    1    3    3    0    0 -0.31880646773E+02  0.70852798448E+02 -0.75977880917E+03  0.76374101210E+03  0.00000000000E+00 0.  1.
          5    1    4    4  501    0  0.92015645558E+02 -0.59186477910E+02 -0.82458909898E+01  0.10979701869E+03  0.41800000000E+01 0. -1.
         -5    1    4    4    0  501  0.37902778344E+02  0.33806146458E+02  0.61675606072E+02  0.80005180638E+02  0.41800000000E+01 0. -1.
</event>
<event>
11    1  0.7105277E-009  0.1701573E+03  0.7561462E-02  0.1077895E+00
         22   -1    0    0    0    0  0.00000000000E+00  0.00000000000E+00  0.12136084490E+04  0.12136084490E+04  0.00000000000E+00 0. -1.
         22   -1    0    0    0    0 -0.00000000000E+00 -0.00000000000E+00 -0.46251256015E+03  0.46251256015E+03  0.00000000000E+00 0.  1.
         24    2    1    2    0    0  0.55917519942E+01 -0.18648471797E+02 -0.42383388117E+03  0.43180303290E+03  0.80247537038E+02 0.  0.
         25    2    1    2    0    0  0.11051644180E+03  0.19153951520E+02  0.20764510878E+03  0.26710436922E+03  0.12508994798E+03 0.  0.
        -24    2    1    2    0    0 -0.11610819379E+03 -0.50547972306E+00  0.96728466123E+03  0.97721360703E+03  0.76324633940E+02 0.  0.
        -11    1    3    3    0    0  0.30346024988E+01 -0.21416599389E+02 -0.42658759932E+03  0.42713564524E+03  0.00000000000E+00 0.  1.
         12    1    3    3    0    0  0.25571494954E+01  0.27681275917E+01  0.27537181485E+01  0.46673876577E+01  0.00000000000E+00 0. -1.
         11    1    5    5    0    0 -0.10460709525E+03 -0.28705052034E+02  0.74827851456E+03  0.75610009902E+03  0.00000000000E+00 0. -1.
        -12    1    5    5    0    0 -0.11501098545E+02  0.28199572311E+02  0.21900614667E+03  0.22111350802E+03  0.00000000000E+00 0.  1.
          5    1    4    4  501    0  0.23718534209E+02  0.50756107787E+02  0.14476301117E+03  0.15528217266E+03  0.41800000000E+01 0.  1.
         -5    1    4    4    0  501  0.86797907591E+02 -0.31602156266E+02  0.62882097611E+02  0.11182219656E+03  0.41800000000E+01 0.  1.
</event>
<event>
11    1  0.7105277E-009  0.1350810E+03  0.7561462E-02  0.1113179E+00
         22   -1    0    0    0    0  0.00000000000E+00  0.00000000000E+00  0.49377280983E+03  0.49377280983E+03  0.00000000000E+00 0. -1.
         22   -1    0    0    0    0 -0.00000000000E+00 -0.00000000000E+00 -0.16275273745E+03  0.16275273745E+03  0.00000000000E+00 0. -1.
         24    2    1    2    0    0  0.65288521724E+01 -0.36180124760E+01 -0.11690905891E+03  0.14164066057E+03  0.79615530810E+02 0.  0.
         25    2    1    2    0    0 -0.21677945349E+01  0.53707509248E+02  0.15259321376E+03  0.20450261860E+03  0.12508971279E+03 0.  0.
        -24    2    1    2    0    0 -0.43610576375E+01 -0.50089496772E+02  0.29533591753E+03  0.31038226811E+03  0.81153383568E+02 0.  0.
        -11    1    3    3    0    0  0.64257168175E-01  0.19918244150E+02  0.22155981601E+01  0.20041193931E+02  0.00000000000E+00 0.  1.
         12    1    3    3    0    0  0.64645950042E+01 -0.23536256626E+02 -0.11912465707E+03  0.12159946663E+03  0.00000000000E+00 0. -1.
         11    1    5    5    0    0 -0.75385779579E+01 -0.31087072802E+02  0.28799314277E+03  0.28976419125E+03  0.00000000000E+00 0. -1.
        -12    1    5    5    0    0  0.31775203204E+01 -0.19002423970E+02  0.73427747657E+01  0.20618076859E+02  0.00000000000E+00 0.  1.
          5    1    4    4  501    0  0.44735380402E+02  0.27968480779E+02  0.13958878158E+03  0.14928493065E+03  0.41800000000E+01 0. -1.
         -5    1    4    4    0  501 -0.46903174937E+02  0.25739028468E+02  0.13004432177E+02  0.55217687944E+02  0.41800000000E+01 0. -1.
</event>
<event>
11    1  0.7105277E-009  0.1314280E+03  0.7561462E-02  0.1117527E+00
         22   -1    0    0    0    0  0.00000000000E+00  0.00000000000E+00  0.21296642572E+03  0.21296642572E+03  0.00000000000E+00 0. -1.
         22   -1    0    0    0    0 -0.00000000000E+00 -0.00000000000E+00 -0.98285185167E+03  0.98285185167E+03  0.00000000000E+00 0. -1.
        -24    2    1    2    0    0 -0.43760651342E+01  0.56841799138E+01 -0.82198980384E+03  0.82608786550E+03  0.81868577932E+02 0.  0.
         25    2    1    2    0    0  0.12749550055E+01 -0.45596129218E+02 -0.11859271221E+03  0.17829054078E+03  0.12507059219E+03 0.  0.
         24    2    1    2    0    0  0.31011101286E+01  0.39911949304E+02  0.17069709011E+03  0.19143987112E+03  0.76870976979E+02 0.  0.
        -13    1    5    5    0    0  0.27685276990E+02 -0.28349404561E+01  0.24248803595E+02  0.36912273368E+02  0.00000000000E+00 0.  1.
         14    1    5    5    0    0 -0.24584166861E+02  0.42746889760E+02  0.14644828651E+03  0.15452759775E+03  0.00000000000E+00 0. -1.
         13    1    3    3    0    0 -0.25151565111E+02 -0.28968430234E+02 -0.51901835501E+03  0.52043426484E+03  0.00000000000E+00 0. -1.
        -14    1    3    3    0    0  0.20775499977E+02  0.34652610148E+02 -0.30297144883E+03  0.30565360066E+03  0.00000000000E+00 0.  1.
          5    1    4    4  501    0  0.52950042007E+02  0.44187328422E+01 -0.21683817776E+02  0.57540355420E+02  0.41800000000E+01 0. -1.
         -5    1    4    4    0  501 -0.51675087002E+02 -0.50014862060E+02 -0.96908894433E+02  0.12075018536E+03  0.41800000000E+01 0. -1.
</event>
<event>
11    1  0.7105277E-009  0.1448773E+03  0.7561462E-02  0.1102231E+00
         22   -1    0    0    0    0  0.00000000000E+00  0.00000000000E+00  0.16116411773E+04  0.16116411773E+04  0.00000000000E+00 0.  1.
         22   -1    0    0    0    0 -0.00000000000E+00 -0.00000000000E+00 -0.79355498109E+02  0.79355498109E+02  0.00000000000E+00 0.  1.
         24    2    1    2    0    0 -0.53015062837E+02  0.54548669193E+02 -0.21909872036E+02  0.11271795654E+03  0.80244258589E+02 0.  0.
         25    2    1    2    0    0  0.22698606413E+02 -0.40577560901E+02  0.41849518893E+03  0.43925697397E+03  0.12508677325E+03 0.  0.
        -24    2    1    2    0    0  0.30316456425E+02 -0.13971108292E+02  0.11357003623E+04  0.11390217449E+04  0.80255485944E+02 0.  0.
        -13    1    3    3    0    0 -0.47798180173E+02  0.72571372056E+02 -0.30482979448E+02  0.92089533097E+02  0.00000000000E+00 0.  1.
         14    1    3    3    0    0 -0.52168826641E+01 -0.18022702864E+02  0.85731074111E+01  0.20628423447E+02  0.00000000000E+00 0. -1.
         13    1    5    5    0    0  0.46347382160E+02 -0.70392805556E+01  0.34979458389E+03  0.35292192085E+03  0.00000000000E+00 0. -1.
        -14    1    5    5    0    0 -0.16030925735E+02 -0.69318277360E+01  0.78590577843E+03  0.78609982406E+03  0.00000000000E+00 0.  1.
          5    1    4    4  501    0  0.18597331409E+02  0.44355534063E+02  0.14658070363E+03  0.15432643719E+03  0.41800000000E+01 0.  1.
         -5    1    4    4    0  501  0.41012750040E+01 -0.84933094964E+02  0.27191448530E+03  0.28493053678E+03  0.41800000000E+01 0.  1.
</event>
<event>
11    1  0.7105277E-009  0.1324566E+03  0.7561462E-02  0.1116287E+00
         22   -1    0    0    0    0  0.00000000000E+00  0.00000000000E+00  0.87875031967E+02  0.87875031967E+02  0.00000000000E+00 0. -1.
         22   -1    0    0    0    0 -0.00000000000E+00 -0.00000000000E+00 -0.14307170866E+04  0.14307170866E+04  0.00000000000E+00 0. -1.
         24    2    1    2    0    0 -0.26115783243E+02 -0.57311729740E+01 -0.50779526485E+03  0.51466957992E+03  0.79459832721E+02 0.  0.
         25    2    1    2    0    0 -0.16480287545E+02  0.17674199137E+02 -0.88824222018E+03  0.89733267854E+03  0.12509083533E+03 0.  0.
        -24    2    1    2    0    0  0.42596070788E+02 -0.11943026163E+02  0.53195430423E+02  0.10658986007E+03  0.81083804374E+02 0.  0.
        -11    1    3    3    0    0  0.84055428428E+01  0.10335435224E+02 -0.13699900174E+02  0.19109202928E+02  0.00000000000E+00 0.  1.
         12    1    3    3    0    0 -0.34521326086E+02 -0.16066608198E+02 -0.49409536467E+03  0.49556037699E+03  0.00000000000E+00 0. -1.
         13    1    5    5    0    0  0.19562159772E+02  0.60304813121E+01  0.69968076807E+02  0.72901142460E+02  0.00000000000E+00 0. -1.
        -14    1    5    5    0    0  0.23033911015E+02 -0.17973507475E+02 -0.16772646384E+02  0.33688717612E+02  0.00000000000E+00 0.  1.
          5    1    4    4  501    0 -0.11606157225E+02 -0.39361014738E+02 -0.11888698259E+03  0.12583949855E+03  0.41800000000E+01 0. -1.
         -5    1    4    4    0  501 -0.48741303197E+01  0.57035213876E+02 -0.76935523759E+03  0.77149317999E+03  0.41800000000E+01 0. -1.
</event>
<event>
11    1  0.7105277E-009  0.1410510E+03  0.7561462E-02  0.1106390E+00
         22   -1    0    0    0    0  0.00000000000E+00  0.00000000000E+00  0.23905180669E+03  0.23905180669E+03  0.00000000000E+00 0. -1.
         22   -1    0    0    0    0 -0.00000000000E+00 -0.00000000000E+00 -0.19341954826E+04  0.19341954826E+04  0.00000000000E+00 0. -1.
        -24    2    1    2    0    0 -0.65057867268E+02 -0.83980894566E+01 -0.18702811522E+04  0.18731698601E+04  0.80688799641E+02 0.  0.
         25    2    1    2    0    0  0.41416734820E+02 -0.76780099457E+01  0.36011886066E+02  0.13681475821E+03  0.12508846616E+03 0.  0.
         24    2    1    2    0    0  0.23641132448E+02  0.16076099402E+02  0.13912559028E+03  0.16326267096E+03  0.80507302422E+02 0.  0.
        -11    1    5    5    0    0  0.41814167833E+02 -0.13841819597E+02  0.45589437400E+02  0.63390988348E+02  0.00000000000E+00 0.  1.
         12    1    5    5    0    0 -0.18173035385E+02  0.29917918999E+02  0.93536152880E+02  0.99871682613E+02  0.00000000000E+00 0. -1.
         13    1    3    3    0    0 -0.31668467025E+02  0.17351107757E+02 -0.15096989555E+04  0.15101307523E+04  0.00000000000E+00 0. -1.
        -14    1    3    3    0    0 -0.33389400243E+02 -0.25749197213E+02 -0.36058219676E+03  0.36303910784E+03  0.00000000000E+00 0.  1.
          5    1    4    4  501    0  0.57180315476E+02 -0.50054371459E+02 -0.41136396844E+01  0.76219571053E+02  0.41800000000E+01 0. -1.
         -5    1    4    4    0  501 -0.15763580656E+02  0.42376361513E+02  0.40125525750E+02  0.60595187160E+02  0.41800000000E+01 0. -1.
</event>
<event>
11    1  0.7105277E-009  0.1809083E+03  0.7561462E-02  0.1068910E+00
         22   -1    0    0    0    0  0.00000000000E+00  0.00000000000E+00  0.94899764335E+03  0.94899764335E+03  0.00000000000E+00 0.  1.
         22   -1    0    0    0    0 -0.00000000000E+00 -0.00000000000E+00 -0.17029771154E+03  0.17029771154E+03  0.00000000000E+00 0. -1.
        -24    2    1    2    0    0 -0.64018955024E+02  0.14355946714E+02 -0.10185306388E+03  0.14493167504E+03  0.79540077943E+02 0.  0.
         25    2    1    2    0    0 -0.48009466770E+02  0.71884080964E+02  0.11205173368E+03  0.18887279554E+03  0.12508042165E+03 0.  0.
         24    2    1    2    0    0  0.11202842179E+03 -0.86240027679E+02  0.76850126202E+03  0.78549088431E+03  0.80087639146E+02 0.  0.
        -11    1    5    5    0    0  0.89420613257E+02 -0.36399434630E+02  0.61485273827E+03  0.62238641909E+03  0.00000000000E+00 0.  1.
         12    1    5    5    0    0  0.22607808537E+02 -0.49840593049E+02  0.15364852375E+03  0.16310446522E+03  0.00000000000E+00 0. -1.
         13    1    3    3    0    0 -0.58367806416E+02 -0.17207625473E+02 -0.93902216622E+02  0.11189517187E+03  0.00000000000E+00 0. -1.
        -14    1    3    3    0    0 -0.56511486079E+01  0.31563572188E+02 -0.79508472605E+01  0.33036503174E+02  0.00000000000E+00 0.  1.
          5    1    4    4  501    0 -0.56849032135E+02  0.14788613395E+02  0.11674429916E+03  0.13075633570E+03  0.41800000000E+01 0.  1.
         -5    1    4    4    0  501  0.88395653652E+01  0.57095467570E+02 -0.46925654825E+01  0.58116459834E+02  0.41800000000E+01 0.  1.
</event>
<event>
11    1  0.7105277E-009  0.1522279E+03  0.7561462E-02  0.1094624E+00
         22   -1    0    0    0    0  0.00000000000E+00  0.00000000000E+00  0.23465805087E+03  0.23465805087E+03  0.00000000000E+00 0. -1.
         22   -1    0    0    0    0 -0.00000000000E+00 -0.00000000000E+00 -0.11268640775E+04  0.11268640775E+04  0.00000000000E+00 0. -1.
        -24    2    1    2    0    0 -0.31080650248E+02  0.88388016374E+02 -0.81194217512E+03  0.82133859531E+03  0.81046555390E+02 0.  0.
         25    2    1    2    0    0 -0.46221887012E+02 -0.40045229906E+02 -0.27451947565E+03  0.30781274897E+03  0.12509061771E+03 0.  0.
         24    2    1    2    0    0  0.77302537260E+02 -0.48342786469E+02  0.19425562413E+03  0.23237078410E+03  0.89152826810E+02 0.  0.
        -11    1    5    5    0    0  0.87064663166E+01 -0.16462655348E+02 -0.49645600910E+01  0.19273516382E+02  0.00000000000E+00 0.  1.
         12    1    5    5    0    0  0.68596070944E+02 -0.31880131121E+02  0.19922018422E+03  0.21309726772E+03  0.00000000000E+00 0. -1.
         13    1    3    3    0    0 -0.15898836643E+02  0.44662089156E+02 -0.67740323077E+03  0.67906009474E+03  0.00000000000E+00 0. -1.
        -14    1    3    3    0    0 -0.15181813605E+02  0.43725927219E+02 -0.13453894435E+03  0.14227850057E+03  0.00000000000E+00 0.  1.
          5    1    4    4  501    0  0.13134102597E+01 -0.11235570737E+02  0.11349283446E+02  0.16560245500E+02  0.41800000000E+01 0.  1.
         -5    1    4    4    0  501 -0.47535297272E+02 -0.28809659169E+02 -0.28586875910E+03  0.29125250347E+03  0.41800000000E+01 0.  1.
</event>
<event>
11    1  0.7105277E-009  0.1357256E+03  0.7561462E-02  0.1112428E+00
         22   -1    0    0    0    0  0.00000000000E+00  0.00000000000E+00  0.67717190638E+03  0.67717190638E+03  0.00000000000E+00 0. -1.
         22   -1    0    0    0    0 -0.00000000000E+00 -0.00000000000E+00 -0.15516843501E+03  0.15516843501E+03  0.00000000000E+00 0. -1.
        -24    2    1    2    0    0  0.36802090289E+02  0.28599022168E+02 -0.57829858222E+02  0.11040370872E+03  0.81684689381E+02 0.  0.
         25    2    1    2    0    0 -0.78313943876E+02 -0.90358260997E+01  0.13659526830E+02  0.14849261116E+03  0.12509497567E+03 0.  0.
         24    2    1    2    0    0  0.41511853586E+02 -0.19563196068E+02  0.56617380276E+03  0.57344402151E+03  0.78608639720E+02 0.  0.
        -11    1    5    5    0    0  0.94813619961E+01 -0.15617682400E+02  0.23287182336E+02  0.29599004882E+02  0.00000000000E+00 0.  1.
         12    1    5    5    0    0  0.32030491590E+02 -0.39455136682E+01  0.54288662043E+03  0.54384501662E+03  0.00000000000E+00 0. -1.
         13    1    3    3    0    0  0.22128239033E+02  0.56171085602E+02 -0.25763536000E+02  0.65640000058E+02  0.00000000000E+00 0. -1.
        -14    1    3    3    0    0  0.14673851257E+02 -0.27572063434E+02 -0.32066322221E+02  0.44763708665E+02  0.00000000000E+00 0.  1.
          5    1    4    4  501    0  0.40607975829E+01  0.13913806398E+02  0.52395134027E+02  0.54523449590E+02  0.41800000000E+01 0.  1.
         -5    1    4    4    0  501 -0.82374741459E+02 -0.22949632497E+02 -0.38735607196E+02  0.93969161575E+02  0.41800000000E+01 0.  1.
</event>
<event>
11    1  0.7105277E-009  0.2658413E+03  0.7561462E-02  0.1015783E+00
         22   -1    0    0    0    0  0.00000000000E+00  0.00000000000E+00  0.14041441125E+04  0.14041441125E+04  0.00000000000E+00 0.  1.
         22   -1    0    0    0    0 -0.00000000000E+00 -0.00000000000E+00 -0.54006321274E+03  0.54006321274E+03  0.00000000000E+00 0.  1.
        -24    2    1    2    0    0 -0.37814399081E+02  0.34201009131E+02 -0.44759073860E+03  0.45755916356E+03  0.80145374600E+02 0.  0.
         25    2    1    2    0    0  0.22456390622E+03 -0.16303268218E+03  0.23812515564E+03  0.38647096594E+03  0.12509042462E+03 0.  0.
         24    2    1    2    0    0 -0.18674950714E+03  0.12883167305E+03  0.10735464828E+04  0.11001771958E+04  0.80092653019E+02 0.  0.
        -11    1    5    5    0    0 -0.19025028405E+03  0.10939931541E+03  0.94680932135E+03  0.97191114398E+03  0.00000000000E+00 0.  1.
         12    1    5    5    0    0  0.35007769085E+01  0.19432357638E+02  0.12673716141E+03  0.12826605180E+03  0.00000000000E+00 0. -1.
         13    1    3    3    0    0 -0.16682842606E+01  0.10221994689E+02 -0.28968223709E+01  0.10754716531E+02  0.00000000000E+00 0. -1.
        -14    1    3    3    0    0 -0.36146114820E+02  0.23979014442E+02 -0.44469391623E+03  0.44680444703E+03  0.00000000000E+00 0.  1.
          5    1    4    4  501    0  0.10774517538E+01  0.16899468048E+02  0.14143214015E+02  0.22455641279E+02  0.41800000000E+01 0.  1.
         -5    1    4    4    0  501  0.22348645447E+03 -0.17993215023E+03  0.22398194162E+03  0.36401532466E+03  0.41800000000E+01 0.  1.
</event>
<event>
11    1  0.7105277E-009  0.1528137E+03  0.7561462E-02  0.1094038E+00
         22   -1    0    0    0    0  0.00000000000E+00  0.00000000000E+00  0.15842962642E+04  0.15842962642E+04  0.00000000000E+00 0. -1.
         22   -1    0    0    0    0 -0.00000000000E+00 -0.00000000000E+00 -0.22929818374E+03  0.22929818374E+03  0.00000000000E+00 0.  1.
         24    2    1    2    0    0  0.84505275527E+02 -0.94968626758E+01 -0.17309342871E+03  0.20785296218E+03  0.77525394745E+02 0.  0.
         25    2    1    2    0    0 -0.11136754082E+03 -0.72656675945E+02  0.19386599317E+03  0.26629690670E+03  0.12509315528E+03 0.  0.
        -24    2    1    2    0    0  0.26862265297E+02  0.82153538620E+02  0.13342255160E+04  0.13394445790E+04  0.80518740879E+02 0.  0.
        -11    1    3    3    0    0  0.47541574952E+02 -0.33029551684E+02 -0.14414580541E+03  0.15533565544E+03  0.00000000000E+00 0.  1.
         12    1    3    3    0    0  0.36963700575E+02  0.23532689009E+02 -0.28947623300E+02  0.52517306737E+02  0.00000000000E+00 0. -1.
         13    1    5    5    0    0  0.45978082357E+02  0.17130932045E+02  0.65996341451E+03  0.66178483012E+03  0.00000000000E+00 0. -1.
        -14    1    5    5    0    0 -0.19115817060E+02  0.65022606576E+02  0.67426210147E+03  0.67765974892E+03  0.00000000000E+00 0.  1.
          5    1    4    4  501    0  0.23330686243E+02 -0.53040119153E+01  0.60111253651E+02  0.64832774725E+02  0.41800000000E+01 0. -1.
         -5    1    4    4    0  501 -0.13469822707E+03 -0.67352664029E+02  0.13375473952E+03  0.20146413197E+03  0.41800000000E+01 0. -1.
</event>
<event>
11    1  0.7105277E-009  0.1999171E+03  0.7561462E-02  0.1054582E+00
         22   -1    0    0    0    0  0.00000000000E+00  0.00000000000E+00  0.75725137672E+03  0.75725137672E+03  0.00000000000E+00 0.  1.
         22   -1    0    0    0    0 -0.00000000000E+00 -0.00000000000E+00 -0.77223571311E+03  0.77223571311E+03  0.00000000000E+00 0. -1.
         24    2    1    2    0    0  0.83658283957E+02  0.13136302830E+03 -0.63692135071E+03  0.66052517869E+03  0.79810719934E+02 0.  0.
         25    2    1    2    0    0 -0.14408557078E+03 -0.92926381940E+02 -0.24414224596E+02  0.21363401264E+03  0.12508985900E+03 0.  0.
        -24    2    1    2    0    0  0.60427286826E+02 -0.38436646356E+02  0.64635123892E+03  0.65532789850E+03  0.80968498317E+02 0.  0.
        -11    1    3    3    0    0  0.28991324662E+02  0.31443813764E+02 -0.33704497094E+03  0.33974773401E+03  0.00000000000E+00 0.  1.
         12    1    3    3    0    0  0.54666959295E+02  0.99919214533E+02 -0.29987637977E+03  0.32077744468E+03  0.00000000000E+00 0. -1.
         13    1    5    5    0    0  0.42337385968E+02  0.10742313220E+02  0.15034438800E+03  0.15656080783E+03  0.00000000000E+00 0. -1.
        -14    1    5    5    0    0  0.18089900859E+02 -0.49178959576E+02  0.49600685092E+03  0.49876709067E+03  0.00000000000E+00 0.  1.
          5    1    4    4  501    0 -0.25474842187E+02  0.23749173144E+02  0.21301035994E+02  0.41038973475E+02  0.41800000000E+01 0. -1.
         -5    1    4    4    0  501 -0.11861072860E+03 -0.11667555508E+03 -0.45715260590E+02  0.17259503916E+03  0.41800000000E+01 0. -1.
</event>
<event>
11    1  0.7105277E-009  0.1839648E+03  0.7561462E-02  0.1066480E+00
         22   -1    0    0    0    0  0.00000000000E+00  0.00000000000E+00  0.19748709643E+04  0.19748709643E+04  0.00000000000E+00 0.  1.
         22   -1    0    0    0    0 -0.00000000000E+00 -0.00000000000E+00 -0.23155784488E+03  0.23155784488E+03  0.00000000000E+00 0. -1.
        -24    2    1    2    0    0 -0.11205354038E+02 -0.10426861615E+03 -0.18752813717E+03  0.22948933349E+03  0.80629074669E+02 0.  0.
         25    2    1    2    0    0  0.80848979530E+02 -0.29517710433E+02  0.28909480174E+03  0.32654511217E+03  0.12509217870E+03 0.  0.
         24    2    1    2    0    0 -0.69643625492E+02  0.13378632658E+03  0.16417464549E+04  0.16503943635E+04  0.75638068249E+02 0.  0.
        -13    1    5    5    0    0 -0.61134872694E+02  0.41949017620E+02  0.87076853392E+03  0.87391935120E+03  0.00000000000E+00 0.  1.
         14    1    5    5    0    0 -0.85087527976E+01  0.91837308960E+02  0.77097792094E+03  0.77647501232E+03  0.00000000000E+00 0. -1.
         11    1    3    3    0    0 -0.23484058977E+02 -0.11287703706E+03 -0.15085127667E+03  0.18986530540E+03  0.00000000000E+00 0. -1.
        -12    1    3    3    0    0  0.12278704938E+02  0.86084209161E+01 -0.36676860504E+02  0.39624028089E+02  0.00000000000E+00 0.  1.
          5    1    4    4  501    0  0.52365608876E+02 -0.29575972970E+02  0.29148839146E+03  0.29765726923E+03  0.41800000000E+01 0.  1.
         -5    1    4    4    0  501  0.28483370654E+02  0.58262537075E-01 -0.23935897163E+01  0.28887842946E+02  0.41800000000E+01 0.  1.
</event>
<event>
11    1  0.7105277E-009  0.1550938E+03  0.7561462E-02  0.1091785E+00
         22   -1    0    0    0    0  0.00000000000E+00  0.00000000000E+00  0.96424392579E+02  0.96424392579E+02  0.00000000000E+00 0.  1.
         22   -1    0    0    0    0 -0.00000000000E+00 -0.00000000000E+00 -0.52106506360E+03  0.52106506360E+03  0.00000000000E+00 0. -1.
         24    2    1    2    0    0  0.65318904923E+02  0.32108785799E+01 -0.22781268218E+03  0.25024934138E+03  0.80307195321E+02 0.  0.
         25    2    1    2    0    0 -0.74622965934E+02  0.85534203326E+02 -0.17595196522E+03  0.24390780968E+03  0.12508892268E+03 0.  0.
        -24    2    1    2    0    0  0.93040610109E+01 -0.88745081906E+02 -0.20876023625E+02  0.12333230511E+03  0.82539651124E+02 0.  0.
        -11    1    3    3    0    0 -0.14557139798E+02 -0.41918138615E+01 -0.85969059057E+02  0.87293532049E+02  0.00000000000E+00 0.  1.
         12    1    3    3    0    0  0.79876044721E+02  0.74026924414E+01 -0.14184362312E+03  0.16295580933E+03  0.00000000000E+00 0. -1.
         11    1    5    5    0    0  0.36325242043E+01 -0.65719287860E+02 -0.52226795609E+02  0.84022962389E+02  0.00000000000E+00 0. -1.
        -12    1    5    5    0    0  0.56715368067E+01 -0.23025794046E+02  0.31350771984E+02  0.39309342722E+02  0.00000000000E+00 0.  1.
          5    1    4    4  501    0 -0.86733419859E+02  0.69610207601E+02 -0.60523635036E+02  0.12668405551E+03  0.41800000000E+01 0. -1.
         -5    1    4    4    0  501  0.12110453924E+02  0.15923995725E+02 -0.11542833018E+03  0.11722375417E+03  0.41800000000E+01 0. -1.
</event>
<event>
11    1  0.7105277E-009  0.1313205E+03  0.7561462E-02  0.1117657E+00
         22   -1    0    0    0    0  0.00000000000E+00  0.00000000000E+00  0.12244764019E+03  0.12244764019E+03  0.00000000000E+00 0.  1.
         22   -1    0    0    0    0 -0.00000000000E+00 -0.00000000000E+00 -0.64012849653E+03  0.64012849653E+03  0.00000000000E+00 0.  1.
        -24    2    1    2    0    0  0.17583968042E+02  0.36599745567E+02 -0.51435028728E+03  0.52236513626E+03  0.81611152733E+02 0.  0.
         25    2    1    2    0    0  0.11234194806E+02 -0.40849441583E+02 -0.51591715218E+02  0.14179064862E+03  0.12509196196E+03 0.  0.
         24    2    1    2    0    0 -0.28818162848E+02  0.42496960160E+01  0.48261146152E+02  0.98420351839E+02  0.80677636319E+02 0.  0.
        -13    1    5    5    0    0 -0.19838434035E+02  0.27653127996E+02  0.61338252665E+02  0.70147275021E+02  0.00000000000E+00 0.  1.
         14    1    5    5    0    0 -0.89797288127E+01 -0.23403431980E+02 -0.13077106513E+02  0.28273076818E+02  0.00000000000E+00 0. -1.
         13    1    3    3    0    0 -0.13097852960E+02 -0.15629069576E+02 -0.48778172169E+02  0.52869004606E+02  0.00000000000E+00 0. -1.
        -14    1    3    3    0    0  0.30681821002E+02  0.52228815142E+02 -0.46557211511E+03  0.46949613166E+03  0.00000000000E+00 0.  1.
          5    1    4    4  501    0  0.37538472173E+01  0.27270582598E+02 -0.66004862437E+02  0.71637213161E+02  0.41800000000E+01 0.  1.
         -5    1    4    4    0  501  0.74803475889E+01 -0.68120024180E+02  0.14413147220E+02  0.70153435462E+02  0.41800000000E+01 0.  1.
</event>
<event>
11    1  0.7105277E-009  0.1342098E+03  0.7561462E-02  0.1114202E+00
         22   -1    0    0    0    0  0.00000000000E+00  0.00000000000E+00  0.10936908002E+04  0.10936908002E+04  0.00000000000E+00 0.  1.
         22   -1    0    0    0    0 -0.00000000000E+00 -0.00000000000E+00 -0.73436561517E+02  0.73436561517E+02  0.00000000000E+00 0.  1.
        -24    2    1    2    0    0 -0.39422304703E+01  0.46669143521E+02 -0.23392761844E+01  0.91334558334E+02  0.78377159906E+02 0.  0.
         25    2    1    2    0    0  0.26822739961E+02 -0.53533523575E+02  0.17068860644E+03  0.21992408075E+03  0.12508678347E+03 0.  0.
         24    2    1    2    0    0 -0.22880509491E+02  0.68643800541E+01  0.85190490839E+03  0.85586872260E+03  0.78731568959E+02 0.  0.
        -13    1    5    5    0    0 -0.24767088408E+01 -0.33820182052E+02  0.47851538877E+03  0.47971545326E+03  0.00000000000E+00 0.  1.
         14    1    5    5    0    0 -0.20403800650E+02  0.40684562106E+02  0.37338951962E+03  0.37615326934E+03  0.00000000000E+00 0. -1.
         11    1    3    3    0    0 -0.26128969577E+02  0.16084045855E+02  0.29019332368E+02  0.42231993007E+02  0.00000000000E+00 0. -1.
        -12    1    3    3    0    0  0.22186739106E+02  0.30585097666E+02 -0.31358608553E+02  0.49102565328E+02  0.00000000000E+00 0.  1.
          5    1    4    4  501    0 -0.36904355967E+01 -0.65791556203E+02  0.25144821282E+02  0.70653256257E+02  0.41800000000E+01 0.  1.
         -5    1    4    4    0  501  0.30513175558E+02  0.12258032627E+02  0.14554378516E+03  0.14927082449E+03  0.41800000000E+01 0.  1.
</event>
<event>
11    1  0.7105277E-009  0.1364004E+03  0.7561462E-02  0.1111646E+00
         22   -1    0    0    0    0  0.00000000000E+00  0.00000000000E+00  0.15709199416E+03  0.15709199416E+03  0.00000000000E+00 0.  1.
         22   -1    0    0    0    0 -0.00000000000E+00 -0.00000000000E+00 -0.56552426426E+03  0.56552426426E+03  0.00000000000E+00 0.  1.
        -24    2    1    2    0    0  0.30396480607E+02  0.12422455548E+02 -0.42498596392E+03  0.43407273986E+03  0.82023231596E+02 0.  0.
         25    2    1    2    0    0 -0.22640684522E+01 -0.59583799157E+02 -0.72656568031E+02  0.15646678829E+03  0.12509006288E+03 0.  0.
         24    2    1    2    0    0 -0.28132412155E+02  0.47161343610E+02  0.89210261850E+02  0.13207673028E+03  0.80437347770E+02 0.  0.
        -13    1    5    5    0    0 -0.14378899951E+02  0.27258802026E+01  0.84005954916E+02  0.85271235760E+02  0.00000000000E+00 0.  1.
         14    1    5    5    0    0 -0.13753512204E+02  0.44435463407E+02  0.52043069336E+01  0.46805494515E+02  0.00000000000E+00 0. -1.
         11    1    3    3    0    0 -0.20147571598E+02  0.48881974873E+01 -0.34447815943E+02  0.40205362070E+02  0.00000000000E+00 0. -1.
        -12    1    3    3    0    0  0.50544052205E+02  0.75342580602E+01 -0.39053814798E+03  0.39386737779E+03  0.00000000000E+00 0.  1.
          5    1    4    4  501    0 -0.55266763847E+02  0.38061595457E+01 -0.34130940231E+02  0.65201959462E+02  0.41800000000E+01 0. -1.
         -5    1    4    4    0  501  0.53002695395E+02 -0.63389958703E+02 -0.38525627800E+02  0.91264828827E+02  0.41800000000E+01 0. -1.
</event>
<event>
11    1  0.7105277E-009  0.1580178E+03  0.7561462E-02  0.1088957E+00
         22   -1    0    0    0    0  0.00000000000E+00  0.00000000000E+00  0.79285797286E+02  0.79285797286E+02  0.00000000000E+00 0. -1.
         22   -1    0    0    0    0 -0.00000000000E+00 -0.00000000000E+00 -0.10847258882E+04  0.10847258882E+04  0.00000000000E+00 0.  1.
        -24    2    1    2    0    0  0.77849940136E+02 -0.58853566468E+02 -0.84909405830E+03  0.85808638058E+03  0.76335844947E+02 0.  0.
         25    2    1    2    0    0 -0.76923416565E+02  0.46395987069E+02 -0.16075145774E+03  0.22261622992E+03  0.12508858871E+03 0.  0.
         24    2    1    2    0    0 -0.92652357180E+00  0.12457579399E+02  0.44054251730E+01  0.83309074945E+02  0.82249282470E+02 0.  0.
        -11    1    5    5    0    0  0.81173172271E+00 -0.36546577449E+01 -0.37859293977E+02  0.38043942646E+02  0.00000000000E+00 0.  1.
         12    1    5    5    0    0 -0.17382552945E+01  0.16112237144E+02  0.42264719150E+02  0.45265132299E+02  0.00000000000E+00 0. -1.
         13    1    3    3    0    0  0.51918760412E+02 -0.69056013847E+01 -0.21287892175E+03  0.21922746256E+03  0.00000000000E+00 0. -1.
        -14    1    3    3    0    0  0.25931179724E+02 -0.51947965083E+02 -0.63621513655E+03  0.63885891802E+03  0.00000000000E+00 0.  1.
          5    1    4    4  501    0 -0.36690883335E+02  0.25100716773E+02  0.10079606707E+02  0.45774859626E+02  0.41800000000E+01 0.  1.
         -5    1    4    4    0  501 -0.40232533229E+02  0.21295270296E+02 -0.17083106445E+03  0.17684137029E+03  0.41800000000E+01 0.  1.
</event>
<event>
11    1  0.7105277E-009  0.1345954E+03  0.7561462E-02  0.1113748E+00
         22   -1    0    0    0    0  0.00000000000E+00  0.00000000000E+00  0.13846146383E+04  0.13846146383E+04  0.00000000000E+00 0.  1.
         22   -1    0    0    0    0 -0.00000000000E+00 -0.00000000000E+00 -0.70856704386E+03  0.70856704386E+03  0.00000000000E+00 0.  1.
        -24    2    1    2    0    0 -0.49735174395E+02  0.14411928039E+02 -0.59999374048E+03  0.60766101346E+03  0.81105655929E+02 0.  0.
         25    2    1    2    0    0  0.30400256379E+02  0.60452699027E+01 -0.63132920476E+02  0.14350596212E+03  0.12508986625E+03 0.  0.
         24    2    1    2    0    0  0.19334918016E+02 -0.20457197942E+02  0.13391742554E+04  0.13420147066E+04  0.82604178917E+02 0.  0.
        -13    1    5    5    0    0  0.12805867161E+02  0.74777797458E+00  0.12518539993E+04  0.12519197199E+04  0.00000000000E+00 0.  1.
         14    1    5    5    0    0  0.65290508547E+01 -0.21204975917E+02  0.87320256073E+02  0.90094986705E+02  0.00000000000E+00 0. -1.
         13    1    3    3    0    0  0.12237614505E+02 -0.11528992043E+02 -0.36615149366E+02  0.40290768538E+02  0.00000000000E+00 0. -1.
        -14    1    3    3    0    0 -0.61972788900E+02  0.25940920082E+02 -0.56337859112E+03  0.56737024492E+03  0.00000000000E+00 0.  1.
          5    1    4    4  501    0  0.48236852641E+01  0.53890755774E+02 -0.70097268514E+02  0.88648637613E+02  0.41800000000E+01 0. -1.
         -5    1    4    4    0  501  0.25576571115E+02 -0.47845485872E+02  0.69643480378E+01  0.54857324505E+02  0.41800000000E+01 0. -1.
</event>
<event>
11    1  0.7105277E-009  0.1400323E+03  0.7561462E-02  0.1107522E+00
         22   -1    0    0    0    0  0.00000000000E+00  0.00000000000E+00  0.50007606582E+03  0.50007606582E+03  0.00000000000E+00 0. -1.
         22   -1    0    0    0    0 -0.00000000000E+00 -0.00000000000E+00 -0.45135525082E+03  0.45135525082E+03  0.00000000000E+00 0. -1.
         24    2    1    2    0    0 -0.33279040562E+02  0.71818751033E+02 -0.29852731577E+03  0.31662723452E+03  0.69776929096E+02 0.  0.
         25    2    1    2    0    0  0.51169660126E+00 -0.12465195412E+02 -0.10910978865E+03  0.16645752144E+03  0.12509003771E+03 0.  0.
        -24    2    1    2    0    0  0.32767343961E+02 -0.59353555621E+02  0.45635791942E+03  0.46834656068E+03  0.80556855006E+02 0.  0.
        -13    1    3    3    0    0 -0.40530905090E+02  0.26466462690E+02 -0.81486655571E+02  0.94780287776E+02  0.00000000000E+00 0.  1.
         14    1    3    3    0    0  0.72518645279E+01  0.45352288343E+02 -0.21704066020E+03  0.22184694674E+03  0.00000000000E+00 0. -1.
         11    1    5    5    0    0 -0.12131439560E+02 -0.23693097451E+02  0.31026638947E+03  0.31140611286E+03  0.00000000000E+00 0. -1.
        -12    1    5    5    0    0  0.44898783521E+02 -0.35660458170E+02  0.14609152995E+03  0.15694044782E+03  0.00000000000E+00 0.  1.
          5    1    4    4  501    0 -0.35012032523E+01 -0.49708901991E+02 -0.11762687520E+03  0.12781544324E+03  0.41800000000E+01 0. -1.
         -5    1    4    4    0  501  0.40128998535E+01  0.37243706580E+02  0.85170865425E+01  0.38642078207E+02  0.41800000000E+01 0. -1.
</event>
<event>
11    1  0.7105277E-009  0.1746689E+03  0.7561462E-02  0.1074039E+00
         22   -1    0    0    0    0  0.00000000000E+00  0.00000000000E+00  0.67814548599E+03  0.67814548599E+03  0.00000000000E+00 0. -1.
         22   -1    0    0    0    0 -0.00000000000E+00 -0.00000000000E+00 -0.16327611790E+04  0.16327611790E+04  0.00000000000E+00 0. -1.
         24    2    1    2    0    0 -0.15557559096E+02 -0.30003852515E+02 -0.11690525421E+04  0.11723381928E+04  0.80936539191E+02 0.  0.
         25    2    1    2    0    0 -0.50084125948E+02 -0.73416808931E+02 -0.44110944817E+03  0.46703629826E+03  0.12508761376E+03 0.  0.
        -24    2    1    2    0    0  0.65641685044E+02  0.10342066145E+03  0.65554629719E+03  0.67153217397E+03  0.78802594485E+02 0.  0.
        -13    1    3    3    0    0  0.20665653069E+02 -0.35419156376E+02 -0.88282033468E+03  0.88377221567E+03  0.00000000000E+00 0.  1.
         14    1    3    3    0    0 -0.36223212165E+02  0.54153038604E+01 -0.28623220737E+03  0.28856597712E+03  0.00000000000E+00 0. -1.
         11    1    5    5    0    0  0.64497250358E+02  0.11552369103E+03  0.62013152238E+03  0.63408889246E+03  0.00000000000E+00 0. -1.
        -12    1    5    5    0    0  0.11444346858E+01 -0.12103029584E+02  0.35414774805E+02  0.37443281512E+02  0.00000000000E+00 0.  1.
          5    1    4    4  501    0  0.17241131870E+02 -0.62538552972E+02 -0.10085762332E+03  0.11999191564E+03  0.41800000000E+01 0. -1.
         -5    1    4    4    0  501 -0.67325257818E+02 -0.10878255959E+02 -0.34025182485E+03  0.34704438262E+03  0.41800000000E+01 0. -1.
</event>
<event>
11    1  0.7105277E-009  0.1809087E+03  0.7561462E-02  0.1068910E+00
         22   -1    0    0    0    0  0.00000000000E+00  0.00000000000E+00  0.44019654773E+03  0.44019654773E+03  0.00000000000E+00 0. -1.
         22   -1    0    0    0    0 -0.00000000000E+00 -0.00000000000E+00 -0.21337554864E+03  0.21337554864E+03  0.00000000000E+00 0. -1.
         24    2    1    2    0    0 -0.90289159980E+02 -0.86580716548E+02  0.10260961420E+03  0.17396311217E+03  0.63922441908E+02 0.  0.
         25    2    1    2    0    0 -0.46167931830E+02  0.13087649166E+03 -0.91877231039E+02  0.20820295527E+03  0.12508761329E+03 0.  0.
        -24    2    1    2    0    0  0.13645709181E+03 -0.44295775112E+02  0.21608861592E+03  0.27140602894E+03  0.79901746013E+02 0.  0.
        -13    1    3    3    0    0 -0.75770740966E+02 -0.77057080335E+02  0.50976943321E+02  0.11948911066E+03  0.00000000000E+00 0.  1.
         14    1    3    3    0    0 -0.14518419014E+02 -0.95236362128E+01  0.51632670883E+02  0.54474001505E+02  0.00000000000E+00 0. -1.
         13    1    5    5    0    0  0.11465910282E+03 -0.48558225863E+02  0.12052131344E+03  0.17329165632E+03  0.00000000000E+00 0. -1.
        -14    1    5    5    0    0  0.21797988995E+02  0.42624507514E+01  0.95567302482E+02  0.98114372618E+02  0.00000000000E+00 0.  1.
          5    1    4    4  501    0 -0.36569279236E+02  0.80619274646E+02 -0.12038041129E+03  0.14948476662E+03  0.41800000000E+01 0.  1.
         -5    1    4    4    0  501 -0.95986525943E+01  0.50257217013E+02  0.28503180252E+02  0.58718188647E+02  0.41800000000E+01 0.  1.
</event>
<event>
11    1  0.7105277E-009  0.1387947E+03  0.7561462E-02  0.1108912E+00
         22   -1    0    0    0    0  0.00000000000E+00  0.00000000000E+00  0.29709556113E+03  0.29709556113E+03  0.00000000000E+00 0.  1.
         22   -1    0    0    0    0 -0.00000000000E+00 -0.00000000000E+00 -0.39913433317E+03  0.39913433317E+03  0.00000000000E+00 0.  1.
         24    2    1    2    0    0  0.52172037411E+02 -0.36697353829E+02 -0.28666035008E+03  0.30473620341E+03  0.81371863034E+02 0.  0.
         25    2    1    2    0    0 -0.49527403218E+02 -0.11143251333E+01 -0.48009824390E+02  0.14284995623E+03  0.12508781463E+03 0.  0.
        -24    2    1    2    0    0 -0.26446341930E+01  0.37811678962E+02  0.23263140243E+03  0.24864373466E+03  0.79180933518E+02 0.  0.
        -11    1    3    3    0    0  0.39188386920E+02 -0.35808387375E+02 -0.28685020109E+03  0.29172077084E+03  0.00000000000E+00 0.  1.
         12    1    3    3    0    0  0.12983650491E+02 -0.88896645467E+00  0.18985101051E+00  0.13015432564E+02  0.00000000000E+00 0. -1.
         13    1    5    5    0    0  0.84848775493E+01  0.51054197131E+02  0.81624509829E+02  0.96649287616E+02  0.00000000000E+00 0. -1.
        -14    1    5    5    0    0 -0.11129511742E+02 -0.13242518169E+02  0.15100689260E+03  0.15199444705E+03  0.00000000000E+00 0.  1.
          5    1    4    4  501    0  0.35993390831E+02 -0.53624711844E+01  0.11613006919E+02  0.38426743427E+02  0.41800000000E+01 0.  1.
         -5    1    4    4    0  501 -0.85520794049E+02  0.42481460511E+01 -0.59622831309E+02  0.10442321281E+03  0.41800000000E+01 0.  1.
</event>
<event>
11    1  0.7105277E-009  0.2002171E+03  0.7561462E-02  0.1054370E+00
         22   -1    0    0    0    0  0.00000000000E+00  0.00000000000E+00  0.27481754623E+04  0.27481754623E+04  0.00000000000E+00 0. -1.
         22   -1    0    0    0    0 -0.00000000000E+00 -0.00000000000E+00 -0.31078954645E+03  0.31078954645E+03  0.00000000000E+00 0. -1.
         24    2    1    2    0    0  0.14826672399E+03 -0.45674132787E+02 -0.26419510742E+03  0.31691238234E+03  0.81026263952E+02 0.  0.
         25    2    1    2    0    0 -0.20817537070E+03 -0.22163257545E+02  0.79522979223E+03  0.83178435614E+03  0.12508636106E+03 0.  0.
        -24    2    1    2    0    0  0.59908646704E+02  0.67837390333E+02  0.19063512311E+04  0.19102682703E+04  0.82212473678E+02 0.  0.
        -13    1    3    3    0    0 -0.22972470709E+01 -0.15249074966E+01 -0.56726126055E+02  0.56793098738E+02  0.00000000000E+00 0.  1.
         14    1    3    3    0    0  0.15056397106E+03 -0.44149225291E+02 -0.20746898136E+03  0.26011928361E+03  0.00000000000E+00 0. -1.
         11    1    5    5    0    0  0.75841458118E+02  0.70832126518E+02  0.17512713634E+04  0.17543433259E+04  0.00000000000E+00 0. -1.
        -12    1    5    5    0    0 -0.15932811414E+02 -0.29947361853E+01  0.15507986765E+03  0.15592494436E+03  0.00000000000E+00 0.  1.
          5    1    4    4  501    0 -0.71323314208E+02  0.51627882389E+02  0.27195392878E+03  0.28588260732E+03  0.41800000000E+01 0. -1.
         -5    1    4    4    0  501 -0.13685205649E+03 -0.73791139934E+02  0.52327586344E+03  0.54590174881E+03  0.41800000000E+01 0. -1.
</event>
<event>
11    1  0.7105277E-009  0.1632208E+03  0.7561462E-02  0.1084087E+00
         22   -1    0    0    0    0  0.00000000000E+00  0.00000000000E+00  0.89696987789E+03  0.89696987789E+03  0.00000000000E+00 0.  1.
         22   -1    0    0    0    0 -0.00000000000E+00 -0.00000000000E+00 -0.45290505641E+03  0.45290505641E+03  0.00000000000E+00 0.  1.
         24    2    1    2    0    0  0.29682467661E+02 -0.36149737565E+02 -0.36284032492E+03  0.37462783306E+03  0.80653949059E+02 0.  0.
         25    2    1    2    0    0 -0.41522007922E+02  0.13776981837E+03  0.36642109120E+02  0.19415032509E+03  0.12508838706E+03 0.  0.
        -24    2    1    2    0    0  0.11839540260E+02 -0.10162008080E+03  0.77026303729E+03  0.78109677616E+03  0.79625445493E+02 0.  0.
        -11    1    3    3    0    0  0.33445766502E+02 -0.18044609122E+02 -0.35013565086E+03  0.35219199483E+03  0.00000000000E+00 0.  1.
         12    1    3    3    0    0 -0.37632988406E+01 -0.18105128443E+02 -0.12704674058E+02  0.22435838229E+02  0.00000000000E+00 0. -1.
         13    1    5    5    0    0 -0.27783943476E+02 -0.76049093749E+02  0.42685492904E+03  0.43446581295E+03  0.00000000000E+00 0. -1.
        -14    1    5    5    0    0  0.39623483736E+02 -0.25570987052E+02  0.34340810825E+03  0.34663096320E+03  0.00000000000E+00 0.  1.
          5    1    4    4  501    0  0.29023821771E+02  0.96318745661E+02  0.47819348854E+02  0.11146230538E+03  0.41800000000E+01 0. -1.
         -5    1    4    4    0  501 -0.70545829692E+02  0.41451072705E+02 -0.11177239733E+02  0.82688019709E+02  0.41800000000E+01 0. -1.
</event>
<event>
11    1  0.7105277E-009  0.1756182E+03  0.7561462E-02  0.1073243E+00
         22   -1    0    0    0    0  0.00000000000E+00  0.00000000000E+00  0.35535893339E+03  0.35535893339E+03  0.00000000000E+00 0. -1.
         22   -1    0    0    0    0 -0.00000000000E+00 -0.00000000000E+00 -0.87329066464E+03  0.87329066464E+03  0.00000000000E+00 0. -1.
        -24    2    1    2    0    0 -0.12227153030E+02 -0.41542781296E+02 -0.39762559271E+03  0.40759695735E+03  0.78446553230E+02 0.  0.
         25    2    1    2    0    0 -0.10611201931E+03  0.41684910559E+01 -0.43962626499E+03  0.46924825608E+03  0.12508211706E+03 0.  0.
         24    2    1    2    0    0  0.11833917234E+03  0.37374290241E+02  0.31932012645E+03  0.35180438460E+03  0.79999903655E+02 0.  0.
        -13    1    5    5    0    0  0.17243065810E+02 -0.91721149136E+01  0.78545505777E+01  0.21051008891E+02  0.00000000000E+00 0.  1.
         14    1    5    5    0    0  0.10109610653E+03  0.46546405154E+02  0.31146557587E+03  0.33075337571E+03  0.00000000000E+00 0. -1.
         13    1    3    3    0    0  0.31968315185E+02 -0.22573867277E+02 -0.13307234593E+03  0.13870761302E+03  0.00000000000E+00 0. -1.
        -14    1    3    3    0    0 -0.44195468214E+02 -0.18968914019E+02 -0.26455324679E+03  0.26888934433E+03  0.00000000000E+00 0.  1.
          5    1    4    4  501    0 -0.20580007751E+02  0.43639085591E+02 -0.55228980140E+02  0.73454878379E+02  0.41800000000E+01 0.  1.
         -5    1    4    4    0  501 -0.85532011563E+02 -0.39470594535E+02 -0.38439728485E+03  0.39579337770E+03  0.41800000000E+01 0.  1.
</event>
<event>
11    1  0.7105277E-009  0.1427897E+03  0.7561462E-02  0.1104483E+00
         22   -1    0    0    0    0  0.00000000000E+00  0.00000000000E+00  0.33865313463E+03  0.33865313463E+03  0.00000000000E+00 0.  1.
         22   -1    0    0    0    0 -0.00000000000E+00 -0.00000000000E+00 -0.17743473135E+04  0.17743473135E+04  0.00000000000E+00 0.  1.
         24    2    1    2    0    0  0.54669011736E+02 -0.42234593946E+02 -0.16614032473E+04  0.16645665313E+04  0.75819031145E+02 0.  0.
         25    2    1    2    0    0 -0.27063666556E+02  0.65929563498E+02 -0.54950679778E+02  0.15409517742E+03  0.12508635859E+03 0.  0.
        -24    2    1    2    0    0 -0.27605345180E+02 -0.23694969553E+02  0.28065974814E+03  0.29433873941E+03  0.80881967258E+02 0.  0.
        -11    1    3    3    0    0  0.20142155761E+02 -0.60259206246E+02 -0.99641574671E+03  0.99843939158E+03  0.00000000000E+00 0.  1.
         12    1    3    3    0    0  0.34526855974E+02  0.18024612300E+02 -0.66498750054E+03  0.66612713975E+03  0.00000000000E+00 0. -1.
         11    1    5    5    0    0 -0.26315600817E+01  0.21023408576E+02  0.21572102870E+02  0.30236806029E+02  0.00000000000E+00 0. -1.
        -12    1    5    5    0    0 -0.24973785098E+02 -0.44718378129E+02  0.25908764527E+03  0.26410193338E+03  0.00000000000E+00 0.  1.
          5    1    4    4  501    0 -0.22581786556E+01 -0.15819503909E+02 -0.65833305000E+02  0.67873798494E+02  0.41800000000E+01 0. -1.
         -5    1    4    4    0  501 -0.24805487900E+02  0.81749067408E+02  0.10882625221E+02  0.86221378925E+02  0.41800000000E+01 0. -1.
</event>
<event>
11    1  0.7105277E-009  0.1594450E+03  0.7561462E-02  0.1087600E+00
         22   -1    0    0    0    0  0.00000000000E+00  0.00000000000E+00  0.33630875569E+03  0.33630875569E+03  0.00000000000E+00 0.  1.
         22   -1    0    0    0    0 -0.00000000000E+00 -0.00000000000E+00 -0.10704508415E+04  0.10704508415E+04  0.00000000000E+00 0.  1.
        -24    2    1    2    0    0 -0.64397044405E+02  0.82787156956E+01 -0.96456475200E+03  0.97006973988E+03  0.80216101748E+02 0.  0.
         25    2    1    2    0    0  0.13954645761E+03 -0.57166231581E+02  0.23189392549E+02  0.19729822228E+03  0.12509056209E+03 0.  0.
         24    2    1    2    0    0 -0.75149413200E+02  0.48887515886E+02  0.20723327365E+03  0.23939163502E+03  0.79531765323E+02 0.  0.
        -13    1    5    5    0    0 -0.58373630268E+02  0.63530754780E+02  0.19663595517E+03  0.21473084636E+03  0.00000000000E+00 0.  1.
         14    1    5    5    0    0 -0.16775782932E+02 -0.14643238895E+02  0.10597318484E+02  0.24660788661E+02  0.00000000000E+00 0. -1.
         13    1    3    3    0    0 -0.34849840756E+02  0.39429118516E+02 -0.34184235634E+03  0.34586899742E+03  0.00000000000E+00 0. -1.
        -14    1    3    3    0    0 -0.29547203650E+02 -0.31150402821E+02 -0.62272239566E+03  0.62420074247E+03  0.00000000000E+00 0.  1.
          5    1    4    4  501    0 -0.23469443901E+02 -0.91269867430E+01  0.73513457601E+01  0.26563722791E+02  0.41800000000E+01 0.  1.
         -5    1    4    4    0  501  0.16301590151E+03 -0.48039244838E+02  0.15838046788E+02  0.17073449949E+03  0.41800000000E+01 0.  1.
</event>
<event>
11    1  0.7105277E-009  0.1483448E+03  0.7561462E-02  0.1098582E+00
         22   -1    0    0    0    0  0.00000000000E+00  0.00000000000E+00  0.39078949408E+03  0.39078949408E+03  0.00000000000E+00 0.  1.
         22   -1    0    0    0    0 -0.00000000000E+00 -0.00000000000E+00 -0.39834885501E+03  0.39834885501E+03  0.00000000000E+00 0.  1.
        -24    2    1    2    0    0 -0.72051494269E+01 -0.36272334585E+02 -0.31419471539E+03  0.32689167120E+03  0.82293675865E+02 0.  0.
         25    2    1    2    0    0 -0.55662159285E+02 -0.19034863133E+02  0.41295704091E+01  0.13829162502E+03  0.12508764211E+03 0.  0.
         24    2    1    2    0    0  0.62867308712E+02  0.55307197718E+02  0.30250578405E+03  0.32395505286E+03  0.80161975181E+02 0.  0.
        -11    1    5    5    0    0  0.73472789884E+02  0.22833290765E+02  0.24770004017E+03  0.25937409261E+03  0.00000000000E+00 0.  1.
         12    1    5    5    0    0 -0.10605481172E+02  0.32473906953E+02  0.54805743886E+02  0.64580960248E+02  0.00000000000E+00 0. -1.
         13    1    3    3    0    0 -0.59891476688E+01  0.15781663149E+02 -0.13204551814E+02  0.21431074872E+02  0.00000000000E+00 0. -1.
        -14    1    3    3    0    0 -0.12160017581E+01 -0.52053997735E+02 -0.30099016357E+03  0.30546059633E+03  0.00000000000E+00 0.  1.
          5    1    4    4  501    0 -0.76509784274E+02 -0.46032718621E+02  0.31060669372E+02  0.94630839873E+02  0.41800000000E+01 0. -1.
         -5    1    4    4    0  501  0.20847624988E+02  0.26997855489E+02 -0.26931098963E+02  0.43660785151E+02  0.41800000000E+01 0. -1.
</event>
<event>
11    1  0.7105277E-009  0.1501884E+03  0.7561462E-02  0.1096686E+00
         22   -1    0    0    0    0  0.00000000000E+00  0.00000000000E+00  0.12868268530E+04  0.12868268530E+04  0.00000000000E+00 0.  1.
         22   -1    0    0    0    0 -0.00000000000E+00 -0.00000000000E+00 -0.10200536864E+03  0.10200536864E+03  0.00000000000E+00 0.  1.
         24    2    1    2    0    0 -0.19472402580E+02  0.72626931705E+02 -0.98140476849E+01  0.11081203663E+03  0.80803132726E+02 0.  0.
         25    2    1    2    0    0  0.13026705833E+01 -0.11370478877E+03  0.14057085297E+03  0.21987641277E+03  0.12511992746E+03 0.  0.
        -24    2    1    2    0    0  0.18169731997E+02  0.41077857067E+02  0.10540646791E+04  0.10581437722E+04  0.81230324095E+02 0.  0.
        -13    1    3    3    0    0 -0.24176859759E+02  0.89574465392E+02 -0.87482918432E+01  0.93191405228E+02  0.00000000000E+00 0.  1.
         14    1    3    3    0    0  0.47044571787E+01 -0.16947533687E+02 -0.10657558418E+01  0.17620631400E+02  0.00000000000E+00 0. -1.
         11    1    5    5    0    0 -0.71916752014E+00  0.16831937350E+02  0.37454613784E+02  0.41069202702E+02  0.00000000000E+00 0. -1.
        -12    1    5    5    0    0  0.18888899517E+02  0.24245919718E+02  0.10166100653E+04  0.10170745695E+04  0.00000000000E+00 0.  1.
          5    1    4    4  501    0 -0.33978379048E+01  0.13002435724E+02 -0.14039796665E+02  0.19879560548E+02  0.41800000000E+01 0. -1.
         -5    1    4    4    0  501  0.47005084881E+01 -0.12670722450E+03  0.15461064963E+03  0.19999685222E+03  0.41800000000E+01 0. -1.
</event>
<event>
11    1  0.7105277E-009  0.1416111E+03  0.7561462E-02  0.1105773E+00
         22   -1    0    0    0    0  0.00000000000E+00  0.00000000000E+00  0.27261650589E+03  0.27261650589E+03  0.00000000000E+00 0.  1.
         22   -1    0    0    0    0 -0.00000000000E+00 -0.00000000000E+00 -0.18098087415E+03  0.18098087415E+03  0.00000000000E+00 0.  1.
         24    2    1    2    0    0 -0.68854781946E+00  0.11854052664E+02 -0.10512396021E+03  0.13235118384E+03  0.79528587243E+02 0.  0.
         25    2    1    2    0    0 -0.59596091446E+02  0.19958657819E+02  0.70201840898E+02  0.15661613184E+03  0.12510104776E+03 0.  0.
        -24    2    1    2    0    0  0.60284639265E+02 -0.31812710483E+02  0.12655775106E+03  0.16463006437E+03  0.80249034027E+02 0.  0.
        -13    1    3    3    0    0  0.25345427554E+02  0.36131324914E+02 -0.66625202518E+02  0.79917338222E+02  0.00000000000E+00 0.  1.
         14    1    3    3    0    0 -0.26033975373E+02 -0.24277272250E+02 -0.38498757696E+02  0.52433845614E+02  0.00000000000E+00 0. -1.
         13    1    5    5    0    0  0.38761363973E+02 -0.20996712037E+02  0.94679798379E+01  0.45088223469E+02  0.00000000000E+00 0. -1.
        -14    1    5    5    0    0  0.21523275292E+02 -0.10815998446E+02  0.11708977122E+03  0.11954184090E+03  0.00000000000E+00 0.  1.
          5    1    4    4  501    0 -0.42425473672E+02 -0.33997091758E+02  0.82147272932E+02  0.98597007634E+02  0.41800000000E+01 0. -1.
         -5    1    4    4    0  501 -0.17170617774E+02  0.53955749576E+02 -0.11945432034E+02  0.58019124206E+02  0.41800000000E+01 0. -1.
</event>
<event>
11    1  0.7105277E-009  0.1613713E+03  0.7561462E-02  0.1085795E+00
         22   -1    0    0    0    0  0.00000000000E+00  0.00000000000E+00  0.18184756163E+03  0.18184756163E+03  0.00000000000E+00 0.  1.
         22   -1    0    0    0    0 -0.00000000000E+00 -0.00000000000E+00 -0.12939204880E+04  0.12939204880E+04  0.00000000000E+00 0. -1.
         24    2    1    2    0    0  0.36514287065E+02 -0.64915852114E+02 -0.10407069044E+04  0.10467766086E+04  0.84398141814E+02 0.  0.
         25    2    1    2    0    0 -0.37829237612E+02  0.15914745623E+03 -0.17307109589E+03  0.26899865443E+03  0.12509079827E+03 0.  0.
        -24    2    1    2    0    0  0.13149505467E+01 -0.94231604115E+02  0.10170507392E+03  0.15999278664E+03  0.79827598025E+02 0.  0.
        -11    1    3    3    0    0 -0.22773529514E+02 -0.43345540642E+02 -0.50467918295E+03  0.50704886080E+03  0.00000000000E+00 0.  1.
         12    1    3    3    0    0  0.59287816579E+02 -0.21570311473E+02 -0.53602772145E+03  0.53972774775E+03  0.00000000000E+00 0. -1.
         11    1    5    5    0    0 -0.83510720891E+01 -0.82006049984E+01 -0.12210474633E+02  0.16914077514E+02  0.00000000000E+00 0. -1.
        -12    1    5    5    0    0  0.96660226358E+01 -0.86030999117E+02  0.11391554855E+03  0.14307870913E+03  0.00000000000E+00 0.  1.
          5    1    4    4  501    0  0.36862684732E+01  0.12144808324E+03 -0.17458374592E+03  0.21274440589E+03  0.41800000000E+01 0.  1.
         -5    1    4    4    0  501 -0.41515506085E+02  0.37699372987E+02  0.15126500319E+01  0.56254248544E+02  0.41800000000E+01 0.  1.
</event>
<event>
11    1  0.7105277E-009  0.1936301E+03  0.7561462E-02  0.1059122E+00
         22   -1    0    0    0    0  0.00000000000E+00  0.00000000000E+00  0.44453030912E+03  0.44453030912E+03  0.00000000000E+00 0.  1.
         22   -1    0    0    0    0 -0.00000000000E+00 -0.00000000000E+00 -0.91454086837E+03  0.91454086837E+03  0.00000000000E+00 0. -1.
        -24    2    1    2    0    0 -0.45263230807E+02  0.20031979352E+02 -0.83619252786E+03  0.84225560975E+03  0.87900672627E+02 0.  0.
         25    2    1    2    0    0  0.68612830028E+02  0.13017796319E+03  0.18431447064E+03  0.26697039794E+03  0.12508935504E+03 0.  0.
         24    2    1    2    0    0 -0.23349599221E+02 -0.15020994254E+03  0.18186749797E+03  0.24984516980E+03  0.78984754423E+02 0.  0.
        -11    1    5    5    0    0 -0.39135656951E+02 -0.10310717896E+03  0.16279111733E+03  0.19663071449E+03  0.00000000000E+00 0.  1.
         12    1    5    5    0    0  0.15786057730E+02 -0.47102763582E+02  0.19076380640E+02  0.53214455312E+02  0.00000000000E+00 0. -1.
         11    1    3    3    0    0  0.20410377532E+02  0.21141222257E+02 -0.40774796118E+03  0.40880549731E+03  0.00000000000E+00 0. -1.
        -12    1    3    3    0    0 -0.65673608339E+02 -0.11092429051E+01 -0.42844456668E+03  0.43345011244E+03  0.00000000000E+00 0.  1.
          5    1    4    4  501    0  0.18575188174E+02  0.22525091331E+02 -0.16394501720E+02  0.33744176413E+02  0.41800000000E+01 0.  1.
         -5    1    4    4    0  501  0.50037641855E+02  0.10765287186E+03  0.20070897236E+03  0.23322622153E+03  0.41800000000E+01 0.  1.
</event>
<event>
11    1  0.7105277E-009  0.1573318E+03  0.7561462E-02  0.1089614E+00
         22   -1    0    0    0    0  0.00000000000E+00  0.00000000000E+00  0.29338628065E+03  0.29338628065E+03  0.00000000000E+00 0.  1.
         22   -1    0    0    0    0 -0.00000000000E+00 -0.00000000000E+00 -0.37550776562E+03  0.37550776562E+03  0.00000000000E+00 0.  1.
         24    2    1    2    0    0  0.42028843133E+02 -0.61739242634E+02 -0.27104737169E+03  0.29228505819E+03  0.79910698922E+02 0.  0.
         25    2    1    2    0    0 -0.49317992136E+02  0.14171110080E+03  0.58751830030E+02  0.20399520140E+03  0.12509182317E+03 0.  0.
        -24    2    1    2    0    0  0.72891490030E+01 -0.79971858167E+02  0.13017405669E+03  0.17261378667E+03  0.80010027632E+02 0.  0.
        -11    1    3    3    0    0 -0.77577384037E+01 -0.50615441232E+02 -0.18774844546E+03  0.19460622849E+03  0.00000000000E+00 0.  1.
         12    1    3    3    0    0  0.49786581536E+02 -0.11123801401E+02 -0.83298926234E+02  0.97678829694E+02  0.00000000000E+00 0. -1.
         11    1    5    5    0    0 -0.17952633570E+02 -0.38151480124E+02  0.10642993143E+02  0.43486846181E+02  0.00000000000E+00 0. -1.
        -12    1    5    5    0    0  0.25241782573E+02 -0.41820378043E+02  0.11953106355E+03  0.12912694049E+03  0.00000000000E+00 0.  1.
          5    1    4    4  501    0  0.90564831905E+01  0.13537436426E+03  0.32714432896E+02  0.13962788012E+03  0.41800000000E+01 0.  1.
         -5    1    4    4    0  501 -0.58374475326E+02  0.63367365389E+01  0.26037397134E+02  0.64367321282E+02  0.41800000000E+01 0.  1.
</event>
<event>
11    1  0.7105277E-009  0.2546518E+03  0.7561462E-02  0.1021450E+00
         22   -1    0    0    0    0  0.00000000000E+00  0.00000000000E+00  0.52302659970E+03  0.52302659970E+03  0.00000000000E+00 0. -1.
         22   -1    0    0    0    0 -0.00000000000E+00 -0.00000000000E+00 -0.15124329874E+04  0.15124329874E+04  0.00000000000E+00 0.  1.
         24    2    1    2    0    0 -0.84710372777E+02  0.20484566154E+03 -0.14302679537E+04  0.14495817051E+04  0.80517750330E+02 0.  0.
         25    2    1    2    0    0  0.20368994848E+02 -0.23611693838E+03  0.24962977346E+03  0.36623523200E+03  0.12508843600E+03 0.  0.
        -24    2    1    2    0    0  0.64341377930E+02  0.31271276844E+02  0.19123179255E+03  0.21964264998E+03  0.80966595206E+02 0.  0.
        -13    1    3    3    0    0 -0.85539304773E+02  0.20627239801E+03 -0.12818879256E+04  0.13011925026E+04  0.00000000000E+00 0.  1.
         14    1    3    3    0    0  0.82893199557E+00 -0.14267364728E+01 -0.14838002804E+03  0.14838920253E+03  0.00000000000E+00 0. -1.
         13    1    5    5    0    0  0.72713059258E+02  0.44614771074E+02  0.12347652929E+03  0.15008037870E+03  0.00000000000E+00 0. -1.
        -14    1    5    5    0    0 -0.83716813285E+01 -0.13343494230E+02  0.67755263261E+02  0.69562271283E+02  0.00000000000E+00 0.  1.
          5    1    4    4  501    0  0.36244366147E+02 -0.23538552507E+03  0.25500236040E+03  0.34894652269E+03  0.41800000000E+01 0.  1.
         -5    1    4    4    0  501 -0.15875371299E+02 -0.73141331644E+00 -0.53725869382E+01  0.17288709314E+02  0.41800000000E+01 0.  1.
</event>
<event>
11    1  0.7105277E-009  0.1455997E+03  0.7561462E-02  0.1101462E+00
         22   -1    0    0    0    0  0.00000000000E+00  0.00000000000E+00  0.11256605984E+04  0.11256605984E+04  0.00000000000E+00 0.  1.
         22   -1    0    0    0    0 -0.00000000000E+00 -0.00000000000E+00 -0.10615236880E+03  0.10615236880E+03  0.00000000000E+00 0. -1.
        -24    2    1    2    0    0  0.68481388618E+02 -0.11819310415E+00 -0.42310276626E+02  0.11422336960E+03  0.81037670857E+02 0.  0.
         25    2    1    2    0    0 -0.13073180632E+03 -0.58486436427E+01  0.31046116130E+03  0.35938489581E+03  0.12508540620E+03 0.  0.
         24    2    1    2    0    0  0.62250417697E+02  0.59668367469E+01  0.75135734497E+03  0.75820470184E+03  0.80161040442E+02 0.  0.
        -13    1    5    5    0    0  0.79252639860E+02 -0.79198427540E+01  0.57725292535E+03  0.58272175578E+03  0.00000000000E+00 0.  1.
         14    1    5    5    0    0 -0.17002222163E+02  0.13886679501E+02  0.17410441963E+03  0.17548294606E+03  0.00000000000E+00 0. -1.
         13    1    3    3    0    0  0.50205936178E+02 -0.21279769676E+01 -0.66805950499E+02  0.83595450448E+02  0.00000000000E+00 0. -1.
        -14    1    3    3    0    0  0.18275452440E+02  0.20097838635E+01  0.24495673873E+02  0.30627919152E+02  0.00000000000E+00 0.  1.
          5    1    4    4  501    0 -0.59468539995E+02 -0.55340381121E+02  0.21722452534E+03  0.23195480560E+03  0.41800000000E+01 0. -1.
         -5    1    4    4    0  501 -0.71263266320E+02  0.49491737479E+02  0.93236635959E+02  0.12743009021E+03  0.41800000000E+01 0. -1.
</event>
<event>
11    1  0.7105277E-009  0.2298521E+03  0.7561462E-02  0.1035216E+00
         22   -1    0    0    0    0  0.00000000000E+00  0.00000000000E+00  0.50848130868E+03  0.50848130868E+03  0.00000000000E+00 0. -1.
         22   -1    0    0    0    0 -0.00000000000E+00 -0.00000000000E+00 -0.21478066148E+04  0.21478066148E+04  0.00000000000E+00 0. -1.
         24    2    1    2    0    0  0.15292112659E+03  0.11729639107E+03 -0.20372850127E+04  0.20480835958E+04  0.83503761353E+02 0.  0.
         25    2    1    2    0    0 -0.17621792927E+03 -0.91283778339E+02  0.37825163754E+02  0.23762274662E+03  0.12509332481E+03 0.  0.
        -24    2    1    2    0    0  0.23296802683E+02 -0.26012612734E+02  0.36013454277E+03  0.37058158110E+03  0.80090088740E+02 0.  0.
        -13    1    3    3    0    0  0.47868395687E+02  0.40520342118E+02 -0.33409267759E+03  0.33992822574E+03  0.00000000000E+00 0.  1.
         14    1    3    3    0    0  0.10505273090E+03  0.76776048955E+02 -0.17031923351E+04  0.17081553700E+04  0.00000000000E+00 0. -1.
         11    1    5    5    0    0  0.62256497256E+01 -0.41202903931E+02  0.33071539925E+03  0.33333033662E+03  0.00000000000E+00 0. -1.
        -12    1    5    5    0    0  0.17071152957E+02  0.15190291196E+02  0.29419143523E+02  0.37251244483E+02  0.00000000000E+00 0.  1.
          5    1    4    4  501    0 -0.13320858183E+03 -0.17730746189E+02 -0.18036580649E+02  0.13565285207E+03  0.41800000000E+01 0. -1.
         -5    1    4    4    0  501 -0.43009347442E+02 -0.73553032150E+02  0.55861744402E+02  0.10196989454E+03  0.41800000000E+01 0. -1.
</event>
<event>
11    1  0.7105277E-009  0.1281840E+03  0.7561462E-02  0.1121521E+00
         22   -1    0    0    0    0  0.00000000000E+00  0.00000000000E+00  0.57013998163E+03  0.57013998163E+03  0.00000000000E+00 0. -1.
         22   -1    0    0    0    0 -0.00000000000E+00 -0.00000000000E+00 -0.24396201107E+03  0.24396201107E+03  0.00000000000E+00 0. -1.
         24    2    1    2    0    0  0.21836600089E+02  0.21186168522E+02 -0.20171330090E+03  0.21938385738E+03  0.80717595841E+02 0.  0.
         25    2    1    2    0    0 -0.33366025270E+02  0.56946029336E+01  0.11780840765E+03  0.17513370610E+03  0.12508906408E+03 0.  0.
        -24    2    1    2    0    0  0.11529425180E+02 -0.26880771456E+02  0.41008286381E+03  0.41958442922E+03  0.83830987907E+02 0.  0.
        -13    1    3    3    0    0  0.13468490504E+02  0.47838712270E+02 -0.77486853939E+02  0.92055174550E+02  0.00000000000E+00 0.  1.
         14    1    3    3    0    0  0.83681095858E+01 -0.26652543748E+02 -0.12422644696E+03  0.12732868283E+03  0.00000000000E+00 0. -1.
         11    1    5    5    0    0 -0.21006834539E+02 -0.37500923941E+02  0.32570989521E+03  0.32853392858E+03  0.00000000000E+00 0. -1.
        -12    1    5    5    0    0  0.32536259720E+02  0.10620152485E+02  0.84372968600E+02  0.91050500634E+02  0.00000000000E+00 0.  1.
          5    1    4    4  501    0 -0.83881779083E+01 -0.14057282265E+02  0.13678828331E+03  0.13782770246E+03  0.41800000000E+01 0. -1.
         -5    1    4    4    0  501 -0.24977847361E+02  0.19751885198E+02 -0.18979875659E+02  0.37306003642E+02  0.41800000000E+01 0. -1.
</event>
<event>
11    1  0.7105277E-009  0.1485794E+03  0.7561462E-02  0.1098339E+00
         22   -1    0    0    0    0  0.00000000000E+00  0.00000000000E+00  0.13075307823E+04  0.13075307823E+04  0.00000000000E+00 0. -1.
         22   -1    0    0    0    0 -0.00000000000E+00 -0.00000000000E+00 -0.14151133641E+03  0.14151133641E+03  0.00000000000E+00 0. -1.
         24    2    1    2    0    0 -0.72735171912E+02 -0.40561002030E+02 -0.82805526793E+02  0.14247311736E+03  0.80661228509E+02 0.  0.
         25    2    1    2    0    0  0.74119310799E+02 -0.15243004072E+02  0.17417657522E+03  0.22740089353E+03  0.12509062961E+03 0.  0.
        -24    2    1    2    0    0 -0.13841388875E+01  0.55804006103E+02  0.10746483975E+04  0.10791681078E+04  0.81354925134E+02 0.  0.
        -11    1    3    3    0    0 -0.14406692409E+00 -0.24645408572E+02  0.72723810370E+01  0.25696389725E+02  0.00000000000E+00 0.  1.
         12    1    3    3    0    0 -0.72591104988E+02 -0.15915593458E+02 -0.90077907830E+02  0.11677672764E+03  0.00000000000E+00 0. -1.
         11    1    5    5    0    0 -0.11867215785E+01 -0.56429317891E+01  0.65684337206E+03  0.65686868277E+03  0.00000000000E+00 0. -1.
        -12    1    5    5    0    0 -0.19741730896E+00  0.61446937892E+02  0.41780502540E+03  0.42229942505E+03  0.00000000000E+00 0.  1.
          5    1    4    4  501    0  0.26133563784E+02  0.18792321156E+02  0.16445318277E+03  0.16762588169E+03  0.41800000000E+01 0. -1.
         -5    1    4    4    0  501  0.47985747015E+02 -0.34035325228E+02  0.97233924597E+01  0.59775011844E+02  0.41800000000E+01 0. -1.
</event>
<event>
11    1  0.7105277E-009  0.1277587E+03  0.7561462E-02  0.1122054E+00
         22   -1    0    0    0    0  0.00000000000E+00  0.00000000000E+00  0.46669250478E+02  0.46669250478E+02  0.00000000000E+00 0. -1.
         22   -1    0    0    0    0 -0.00000000000E+00 -0.00000000000E+00 -0.93716762244E+03  0.93716762244E+03  0.00000000000E+00 0. -1.
        -24    2    1    2    0    0 -0.10835750259E+02  0.11215034124E+02 -0.44245655329E+03  0.45014840810E+03  0.81379341923E+02 0.  0.
         25    2    1    2    0    0  0.63384300038E+01 -0.35737767792E+02 -0.42528577769E+03  0.44478245616E+03  0.12508427902E+03 0.  0.
         24    2    1    2    0    0  0.44973202549E+01  0.24522733668E+02 -0.22756040986E+02  0.88906008664E+02  0.82248711960E+02 0.  0.
        -13    1    5    5    0    0  0.25501965001E+02  0.46612169017E+02 -0.24213236546E+02  0.58389428353E+02  0.00000000000E+00 0.  1.
         14    1    5    5    0    0 -0.21004644746E+02 -0.22089435349E+02  0.14571955599E+01  0.30516580311E+02  0.00000000000E+00 0. -1.
         13    1    3    3    0    0 -0.35514746157E+02 -0.11911059560E+02 -0.34423333955E+03  0.34626545105E+03  0.00000000000E+00 0. -1.
        -14    1    3    3    0    0  0.24678995899E+02  0.23126093684E+02 -0.98223213736E+02  0.10388295704E+03  0.00000000000E+00 0.  1.
          5    1    4    4  501    0 -0.53687035659E+02 -0.83615408375E+01 -0.11144496801E+03  0.12405509444E+03  0.41800000000E+01 0. -1.
         -5    1    4    4    0  501  0.60025465662E+02 -0.27376226955E+02 -0.31384080968E+03  0.32072736172E+03  0.41800000000E+01 0. -1.
</event>
<event>
11    1  0.7105277E-009  0.1481893E+03  0.7561462E-02  0.1098743E+00
         22   -1    0    0    0    0  0.00000000000E+00  0.00000000000E+00  0.45008738274E+03  0.45008738274E+03  0.00000000000E+00 0.  1.
         22   -1    0    0    0    0 -0.00000000000E+00 -0.00000000000E+00 -0.27752937891E+04  0.27752937891E+04  0.00000000000E+00 0. -1.
        -24    2    1    2    0    0 -0.74727031087E+02  0.26525831594E+02 -0.26650936964E+04  0.26673815859E+04  0.76891904008E+02 0.  0.
         25    2    1    2    0    0  0.68713780751E+02 -0.63281291810E+02 -0.45719620602E+02  0.16268996823E+03  0.12510650061E+03 0.  0.
         24    2    1    2    0    0  0.60132503356E+01  0.36755460216E+02  0.38560691063E+03  0.39530961780E+03  0.78675799090E+02 0.  0.
        -13    1    5    5    0    0  0.36895555187E+02 -0.26201880043E+01  0.16763714589E+03  0.17166933349E+03  0.00000000000E+00 0.  1.
         14    1    5    5    0    0 -0.30882304851E+02  0.39375648220E+02  0.21796976474E+03  0.22364028431E+03  0.00000000000E+00 0. -1.
         11    1    3    3    0    0 -0.86049212399E+02  0.51946902455E+01 -0.20339491313E+04  0.20357751646E+04  0.00000000000E+00 0. -1.
        -12    1    3    3    0    0  0.11322181312E+02  0.21331141349E+02 -0.63114456508E+03  0.63160642129E+03  0.00000000000E+00 0.  1.
          5    1    4    4  501    0  0.17116409077E+01 -0.55705481894E+02 -0.71174722757E+02  0.90494994266E+02  0.41800000000E+01 0.  1.
         -5    1    4    4    0  501  0.67002139843E+02 -0.75758099165E+01  0.25455102155E+02  0.72194973961E+02  0.41800000000E+01 0.  1.
</event>
<event>
11    1  0.7105277E-009  0.1847208E+03  0.7561462E-02  0.1065887E+00
         22   -1    0    0    0    0  0.00000000000E+00  0.00000000000E+00  0.95101686978E+03  0.95101686978E+03  0.00000000000E+00 0.  1.
         22   -1    0    0    0    0 -0.00000000000E+00 -0.00000000000E+00 -0.52881518252E+03  0.52881518252E+03  0.00000000000E+00 0. -1.
         24    2    1    2    0    0 -0.13511598141E+01 -0.43998806757E+02 -0.44486729627E+03  0.45446955406E+03  0.81840965609E+02 0.  0.
         25    2    1    2    0    0 -0.10545185061E+03  0.12388117475E+03  0.76336297980E+02  0.21895442090E+03  0.12508864772E+03 0.  0.
        -24    2    1    2    0    0  0.10680301042E+03 -0.79882367994E+02  0.79073268554E+03  0.80640807733E+03  0.85133609378E+02 0.  0.
        -11    1    3    3    0    0  0.32967291817E+01 -0.57856834061E+02 -0.17786506584E+03  0.18706753678E+03  0.00000000000E+00 0.  1.
         12    1    3    3    0    0 -0.46478889958E+01  0.13858027303E+02 -0.26700223043E+03  0.26740201728E+03  0.00000000000E+00 0. -1.
         13    1    5    5    0    0  0.96413245394E+02 -0.42427992635E+02  0.39613558427E+03  0.40990126807E+03  0.00000000000E+00 0. -1.
        -14    1    5    5    0    0  0.10389765030E+02 -0.37454375359E+02  0.39459710128E+03  0.39650680926E+03  0.00000000000E+00 0.  1.
          5    1    4    4  501    0  0.18111490846E+01  0.58826502831E+02 -0.18279746254E+02  0.61769403586E+02  0.41800000000E+01 0. -1.
         -5    1    4    4    0  501 -0.10726299969E+03  0.65054671921E+02  0.94616044234E+02  0.15718501732E+03  0.41800000000E+01 0. -1.
</event>
<event>
11    1  0.7105277E-009  0.2128406E+03  0.7561462E-02  0.1045797E+00
         22   -1    0    0    0    0  0.00000000000E+00  0.00000000000E+00  0.53003212508E+03  0.53003212508E+03  0.00000000000E+00 0.  1.
         22   -1    0    0    0    0 -0.00000000000E+00 -0.00000000000E+00 -0.67960314969E+03  0.67960314969E+03  0.00000000000E+00 0.  1.
        -24    2    1    2    0    0 -0.64224781637E+02  0.18076363283E+03 -0.56733778264E+03  0.60419912963E+03  0.79900657734E+02 0.  0.
         25    2    1    2    0    0  0.76810324409E+02 -0.64772773320E+02 -0.26742834868E+01  0.16046782548E+03  0.12508970031E+03 0.  0.
         24    2    1    2    0    0 -0.12585542772E+02 -0.11599085951E+03  0.42044104152E+03  0.44496831965E+03  0.87257439348E+02 0.  0.
        -13    1    5    5    0    0 -0.40949039182E+02 -0.31873644020E+02  0.21491198101E+03  0.22108801997E+03  0.00000000000E+00 0.  1.
         14    1    5    5    0    0  0.28363496410E+02 -0.84117215492E+02  0.20552906050E+03  0.22388029968E+03  0.00000000000E+00 0. -1.
         11    1    3    3    0    0  0.17835304659E+02  0.40157382572E+02 -0.97157630986E+02  0.10663169663E+03  0.00000000000E+00 0. -1.
        -12    1    3    3    0    0 -0.82060086296E+02  0.14060625026E+03 -0.47018015166E+03  0.49756743300E+03  0.00000000000E+00 0.  1.
          5    1    4    4  501    0  0.68464587494E+02 -0.92263627273E+02  0.27901511929E+02  0.11830445227E+03  0.41800000000E+01 0.  1.
         -5    1    4    4    0  501  0.83457369153E+01  0.27490853953E+02 -0.30575795416E+02  0.42163373217E+02  0.41800000000E+01 0.  1.
</event>
<event>
11    1  0.7105277E-009  0.1418502E+03  0.7561462E-02  0.1105510E+00
         22   -1    0    0    0    0  0.00000000000E+00  0.00000000000E+00  0.11663069640E+04  0.11663069640E+04  0.00000000000E+00 0. -1.
         22   -1    0    0    0    0 -0.00000000000E+00 -0.00000000000E+00 -0.10575038833E+04  0.10575038833E+04  0.00000000000E+00 0. -1.
         24    2    1    2    0    0 -0.56558164671E+02 -0.36239509676E+02 -0.10357446970E+04  0.10404816170E+04  0.72957452931E+02 0.  0.
         25    2    1    2    0    0  0.26767051613E+02  0.27564262577E+02  0.22929747754E+03  0.26400928796E+03  0.12508919737E+03 0.  0.
        -24    2    1    2    0    0  0.29791113058E+02  0.86752470988E+01  0.91525030018E+03  0.91931994236E+03  0.80642880108E+02 0.  0.
        -13    1    3    3    0    0 -0.15195407587E+02  0.14750523861E+02 -0.89892833808E+02  0.92353667691E+02  0.00000000000E+00 0.  1.
         14    1    3    3    0    0 -0.41362757084E+02 -0.50990033537E+02 -0.94585186316E+03  0.94812794930E+03  0.00000000000E+00 0. -1.
         13    1    5    5    0    0  0.10691889574E+02  0.22214962863E+02  0.84322258788E+03  0.84358292644E+03  0.00000000000E+00 0. -1.
        -14    1    5    5    0    0  0.19099223484E+02 -0.13539715765E+02  0.72027712307E+02  0.75737015922E+02  0.00000000000E+00 0.  1.
          5    1    4    4  501    0 -0.16420439014E+02  0.27033322121E+02  0.21640183279E+03  0.21874107286E+03  0.41800000000E+01 0.  1.
         -5    1    4    4    0  501  0.43187490627E+02  0.53094045630E+00  0.12895644748E+02  0.45268215095E+02  0.41800000000E+01 0.  1.
</event>
<event>
11    1  0.7105277E-009  0.1268681E+03  0.7561462E-02  0.1123178E+00
         22   -1    0    0    0    0  0.00000000000E+00  0.00000000000E+00  0.11240955208E+03  0.11240955208E+03  0.00000000000E+00 0.  1.
         22   -1    0    0    0    0 -0.00000000000E+00 -0.00000000000E+00 -0.21052030507E+04  0.21052030507E+04  0.00000000000E+00 0. -1.
         24    2    1    2    0    0 -0.11725793623E+01  0.20639132843E+02 -0.18450275029E+04  0.18468935955E+04  0.80387300532E+02 0.  0.
         25    2    1    2    0    0  0.10161187876E+02 -0.28058649247E+02 -0.22509592294E+03  0.25924803068E+03  0.12510327474E+03 0.  0.
        -24    2    1    2    0    0 -0.89886085134E+01  0.74195164037E+01  0.77329927143E+02  0.11147097662E+03  0.79435613485E+02 0.  0.
        -13    1    3    3    0    0 -0.34854498620E+02 -0.10190506833E+02 -0.67594433385E+03  0.67691906825E+03  0.00000000000E+00 0.  1.
         14    1    3    3    0    0  0.33681919258E+02  0.30829639676E+02 -0.11690831690E+04  0.11699745273E+04  0.00000000000E+00 0. -1.
         11    1    5    5    0    0  0.12762622538E+02 -0.10853780946E+02 -0.10085577946E+02  0.19555254469E+02  0.00000000000E+00 0. -1.
        -12    1    5    5    0    0 -0.21751231051E+02  0.18273297349E+02  0.87415505089E+02  0.91915722150E+02  0.00000000000E+00 0.  1.
          5    1    4    4  501    0  0.22092362890E+02  0.14609018205E+02 -0.21081232767E+03  0.21251071928E+03  0.41800000000E+01 0. -1.
         -5    1    4    4    0  501 -0.11931175014E+02 -0.42667667452E+02 -0.14283595267E+02  0.46737311399E+02  0.41800000000E+01 0. -1.
</event>
<event>
11    1  0.7105277E-009  0.1872924E+03  0.7561462E-02  0.1063892E+00
         22   -1    0    0    0    0  0.00000000000E+00  0.00000000000E+00  0.22508462918E+04  0.22508462918E+04  0.00000000000E+00 0.  1.
         22   -1    0    0    0    0 -0.00000000000E+00 -0.00000000000E+00 -0.24769169675E+03  0.24769169675E+03  0.00000000000E+00 0.  1.
        -24    2    1    2    0    0  0.28100323724E+02 -0.24996065708E+02 -0.21968071176E+03  0.23676113401E+03  0.79886093678E+02 0.  0.
         25    2    1    2    0    0 -0.10525556906E+03  0.13210940031E+03  0.69437797785E+03  0.72549274351E+03  0.12508923333E+03 0.  0.
         24    2    1    2    0    0  0.77155245341E+02 -0.10711333460E+03  0.15284573289E+04  0.15362841110E+04  0.80999166521E+02 0.  0.
        -11    1    5    5    0    0  0.86633976972E+02 -0.56604355708E+02  0.10202102075E+04  0.10254454479E+04  0.00000000000E+00 0.  1.
         12    1    5    5    0    0 -0.94787316315E+01 -0.50508978897E+02  0.50824712138E+03  0.51083866308E+03  0.00000000000E+00 0. -1.
         11    1    3    3    0    0 -0.21223723750E+02  0.13642003857E+02 -0.53173924344E+02  0.58855899868E+02  0.00000000000E+00 0. -1.
        -12    1    3    3    0    0  0.49324047474E+02 -0.38638069565E+02 -0.16650678742E+03  0.17790523414E+03  0.00000000000E+00 0.  1.
          5    1    4    4  501    0 -0.78310520769E+02  0.26563060918E+02  0.45485590287E+03  0.46233050802E+03  0.41800000000E+01 0. -1.
         -5    1    4    4    0  501 -0.26945048296E+02  0.10554633939E+03  0.23952207497E+03  0.26316223549E+03  0.41800000000E+01 0. -1.
</event>
<event>
11    1  0.7105277E-009  0.1582565E+03  0.7561462E-02  0.1088729E+00
         22   -1    0    0    0    0  0.00000000000E+00  0.00000000000E+00  0.41710928423E+03  0.41710928423E+03  0.00000000000E+00 0.  1.
         22   -1    0    0    0    0 -0.00000000000E+00 -0.00000000000E+00 -0.31320419684E+03  0.31320419684E+03  0.00000000000E+00 0.  1.
         24    2    1    2    0    0  0.10308792728E+03  0.26326243023E+02 -0.21872222606E+03  0.25604466159E+03  0.79995404471E+02 0.  0.
         25    2    1    2    0    0 -0.53043162398E+02  0.71844887504E+02  0.38353571252E+02  0.15838481503E+03  0.12505793964E+03 0.  0.
        -24    2    1    2    0    0 -0.50044764885E+02 -0.98171130527E+02  0.28427374219E+03  0.31588400444E+03  0.82638334942E+02 0.  0.
        -13    1    3    3    0    0  0.80497123410E+02  0.53387421846E+02 -0.14360973883E+03  0.17307154814E+03  0.00000000000E+00 0.  1.
         14    1    3    3    0    0  0.22590803873E+02 -0.27061178823E+02 -0.75112487231E+02  0.82973113458E+02  0.00000000000E+00 0. -1.
         11    1    5    5    0    0 -0.24531939352E+02  0.90059106945E+01  0.74306235968E+02  0.78767627739E+02  0.00000000000E+00 0. -1.
        -12    1    5    5    0    0 -0.25512825534E+02 -0.10717704122E+03  0.20996750622E+03  0.23711637670E+03  0.00000000000E+00 0.  1.
          5    1    4    4  501    0  0.28523207757E+00  0.18395619759E+02  0.72861364898E+02  0.75264407780E+02  0.41800000000E+01 0.  1.
         -5    1    4    4    0  501 -0.53328394475E+02  0.53449267745E+02 -0.34507793646E+02  0.83120407254E+02  0.41800000000E+01 0.  1.
</event>
<event>
11    1  0.7105277E-009  0.1765025E+03  0.7561462E-02  0.1072508E+00
         22   -1    0    0    0    0  0.00000000000E+00  0.00000000000E+00  0.61508588857E+03  0.61508588857E+03  0.00000000000E+00 0. -1.
         22   -1    0    0    0    0 -0.00000000000E+00 -0.00000000000E+00 -0.11396453128E+04  0.11396453128E+04  0.00000000000E+00 0. -1.
        -24    2    1    2    0    0  0.49871924914E+02 -0.11310226619E+03 -0.10704726405E+04  0.10805274417E+04  0.79677768042E+02 0.  0.
         25    2    1    2    0    0 -0.48700133556E+02  0.14716655588E+03  0.10463365554E+03  0.22500235307E+03  0.12509260105E+03 0.  0.
         24    2    1    2    0    0 -0.11717913576E+01 -0.34064289688E+02  0.44127956072E+03  0.44920140659E+03  0.76762647515E+02 0.  0.
        -11    1    5    5    0    0 -0.32178865268E+02 -0.36028104240E+01  0.28997077030E+03  0.29177304064E+03  0.00000000000E+00 0.  1.
         12    1    5    5    0    0  0.31007073911E+02 -0.30461479264E+02  0.15130879042E+03  0.15742836596E+03  0.00000000000E+00 0. -1.
         11    1    3    3    0    0  0.26654035593E+02 -0.87194482736E+02 -0.96852779733E+03  0.97281005836E+03  0.00000000000E+00 0. -1.
        -12    1    3    3    0    0  0.23217889321E+02 -0.25907783457E+02 -0.10194484313E+03  0.10771738332E+03  0.00000000000E+00 0.  1.
          5    1    4    4  501    0 -0.86799991335E+02  0.11027373847E+03  0.50772631532E+02  0.14929791828E+03  0.41800000000E+01 0.  1.
         -5    1    4    4    0  501  0.38099857778E+02  0.36892817415E+02  0.53861024011E+02  0.75704434792E+02  0.41800000000E+01 0.  1.
</event>
<event>
11    1  0.7105277E-009  0.1735330E+03  0.7561462E-02  0.1074997E+00
         22   -1    0    0    0    0  0.00000000000E+00  0.00000000000E+00  0.11970218714E+04  0.11970218714E+04  0.00000000000E+00 0. -1.
         22   -1    0    0    0    0 -0.00000000000E+00 -0.00000000000E+00 -0.55405465130E+03  0.55405465130E+03  0.00000000000E+00 0.  1.
         24    2    1    2    0    0 -0.35993122709E+02  0.18148102010E+02 -0.47530691032E+03  0.48366483785E+03  0.79938463096E+02 0.  0.
         25    2    1    2    0    0 -0.67457366926E+02 -0.82097709592E+02  0.26844519567E+02  0.16630967188E+03  0.12509096074E+03 0.  0.
        -24    2    1    2    0    0  0.10345048964E+03  0.63949607582E+02  0.10914296108E+04  0.11011020129E+04  0.80096762687E+02 0.  0.
        -11    1    3    3    0    0 -0.77341754441E+01  0.47848336689E+02 -0.24856606855E+03  0.25324764802E+03  0.00000000000E+00 0.  1.
         12    1    3    3    0    0 -0.28258947265E+02 -0.29700234679E+02 -0.22674084177E+03  0.23041718983E+03  0.00000000000E+00 0. -1.
         13    1    5    5    0    0  0.69880364474E+02 -0.29655949592E+01  0.58566297857E+03  0.58982470663E+03  0.00000000000E+00 0. -1.
        -14    1    5    5    0    0  0.33570125162E+02  0.66915202542E+02  0.50576663225E+03  0.51127730629E+03  0.00000000000E+00 0.  1.
          5    1    4    4  501    0 -0.39430063228E+02  0.23849575039E+02  0.32417202618E+02  0.56496721509E+02  0.41800000000E+01 0.  1.
         -5    1    4    4    0  501 -0.28027303698E+02 -0.10594728463E+03 -0.55726830513E+01  0.10981295037E+03  0.41800000000E+01 0.  1.
</event>
<event>
11    1  0.7105277E-009  0.1490436E+03  0.7561462E-02  0.1097860E+00
         22   -1    0    0    0    0  0.00000000000E+00  0.00000000000E+00  0.56842328594E+03  0.56842328594E+03  0.00000000000E+00 0.  1.
         22   -1    0    0    0    0 -0.00000000000E+00 -0.00000000000E+00 -0.37338879358E+03  0.37338879358E+03  0.00000000000E+00 0. -1.
        -24    2    1    2    0    0 -0.68655431037E+02  0.47445975189E+02 -0.33219673477E+03  0.35179609399E+03  0.80256665658E+02 0.  0.
         25    2    1    2    0    0  0.34398143864E+02 -0.20325196976E+02  0.14109561913E+03  0.19274673877E+03  0.12508791163E+03 0.  0.
         24    2    1    2    0    0  0.34257287174E+02 -0.27120778213E+02  0.38613560800E+03  0.39726924676E+03  0.82541191644E+02 0.  0.
        -11    1    5    5    0    0  0.25259752499E+02 -0.47758524100E+02  0.13931922761E+03  0.14942817306E+03  0.00000000000E+00 0.  1.
         12    1    5    5    0    0  0.89975346748E+01  0.20637745886E+02  0.24681638039E+03  0.24784107370E+03  0.00000000000E+00 0. -1.
         13    1    3    3    0    0 -0.73845919600E+02  0.19000705658E+02 -0.29492918783E+03  0.30462677573E+03  0.00000000000E+00 0. -1.
        -14    1    3    3    0    0  0.51904885630E+01  0.28445269531E+02 -0.37267546934E+02  0.47169318255E+02  0.00000000000E+00 0.  1.
          5    1    4    4  501    0 -0.41531162966E+02 -0.25876961474E+02  0.28555023358E+02  0.56809474486E+02  0.41800000000E+01 0.  1.
         -5    1    4    4    0  501  0.75929306830E+02  0.55517644987E+01  0.11254059577E+03  0.13593726428E+03  0.41800000000E+01 0.  1.
</event>
<event>
11    1  0.7105277E-009  0.1478047E+03  0.7561462E-02  0.1099143E+00
         22   -1    0    0    0    0  0.00000000000E+00  0.00000000000E+00  0.18823858534E+03  0.18823858534E+03  0.00000000000E+00 0.  1.
         22   -1    0    0    0    0 -0.00000000000E+00 -0.00000000000E+00 -0.37352944192E+03  0.37352944192E+03  0.00000000000E+00 0.  1.
        -24    2    1    2    0    0 -0.72897873594E-01  0.22443632465E+01 -0.21631735500E+03  0.23127828298E+03  0.81801000134E+02 0.  0.
         25    2    1    2    0    0  0.67052816610E+02  0.39475715617E+02 -0.82464016816E+02  0.16882688591E+03  0.12509113077E+03 0.  0.
         24    2    1    2    0    0 -0.66979918737E+02 -0.41720078863E+02  0.11349051524E+03  0.16166285836E+03  0.83832620323E+02 0.  0.
        -13    1    5    5    0    0 -0.68574144727E+02 -0.18802493385E+02  0.11845682730E+03  0.13815920894E+03  0.00000000000E+00 0.  1.
         14    1    5    5    0    0  0.15942259898E+01 -0.22917585479E+02 -0.49663120555E+01  0.23503649421E+02  0.00000000000E+00 0. -1.
         11    1    3    3    0    0  0.27113771505E+02  0.67072908913E+01 -0.23498189813E+02  0.36500812057E+02  0.00000000000E+00 0. -1.
        -12    1    3    3    0    0 -0.27186669379E+02 -0.44629276448E+01 -0.19281916519E+03  0.19477747093E+03  0.00000000000E+00 0.  1.
          5    1    4    4  501    0 -0.12849178161E+02  0.51381989157E+02 -0.68579709829E+02  0.86751710008E+02  0.41800000000E+01 0. -1.
         -5    1    4    4    0  501  0.79901994771E+02 -0.11906273540E+02 -0.13884306987E+02  0.82075175897E+02  0.41800000000E+01 0. -1.
</event>
<event>
11    1  0.7105277E-009  0.1296340E+03  0.7561462E-02  0.1119719E+00
         22   -1    0    0    0    0  0.00000000000E+00  0.00000000000E+00  0.85741130810E+03  0.85741130810E+03  0.00000000000E+00 0. -1.
         22   -1    0    0    0    0 -0.00000000000E+00 -0.00000000000E+00 -0.19643313538E+03  0.19643313538E+03  0.00000000000E+00 0.  1.
         24    2    1    2    0    0 -0.18486276629E+02 -0.29407040979E+02 -0.16989140211E+03  0.19094737980E+03  0.79945586879E+02 0.  0.
         25    2    1    2    0    0 -0.18362810411E+01  0.14948228309E+02  0.30292729000E+03  0.32808734496E+03  0.12509812724E+03 0.  0.
        -24    2    1    2    0    0  0.20322557670E+02  0.14458812670E+02  0.52794228483E+03  0.53480971871E+03  0.81708723531E+02 0.  0.
        -13    1    3    3    0    0 -0.17453963690E+02 -0.56330890049E+02 -0.13068906778E+03  0.14337866808E+03  0.00000000000E+00 0.  1.
         14    1    3    3    0    0 -0.10323129383E+01  0.26923849070E+02 -0.39202334328E+02  0.47568711728E+02  0.00000000000E+00 0. -1.
         11    1    5    5    0    0 -0.11537081908E+02 -0.39410429239E+01  0.43019561323E+03  0.43036833262E+03  0.00000000000E+00 0. -1.
        -12    1    5    5    0    0  0.31859639577E+02  0.18399855594E+02  0.97746671601E+02  0.10444138609E+03  0.00000000000E+00 0.  1.
          5    1    4    4  501    0  0.18046757262E+02  0.67307837539E+02  0.16445887965E+03  0.17866232378E+03  0.41800000000E+01 0. -1.
         -5    1    4    4    0  501 -0.19883038303E+02 -0.52359609230E+02  0.13846841035E+03  0.14942502119E+03  0.41800000000E+01 0. -1.
</event>
<event>
11    1  0.7105277E-009  0.1374940E+03  0.7561462E-02  0.1110389E+00
         22   -1    0    0    0    0  0.00000000000E+00  0.00000000000E+00  0.41978648493E+03  0.41978648493E+03  0.00000000000E+00 0. -1.
         22   -1    0    0    0    0 -0.00000000000E+00 -0.00000000000E+00 -0.18099059427E+03  0.18099059427E+03  0.00000000000E+00 0.  1.
         24    2    1    2    0    0  0.51635370664E+01  0.57158194202E+02 -0.10066061682E+03  0.14114484907E+03  0.80595206809E+02 0.  0.
         25    2    1    2    0    0 -0.13125851835E+02 -0.54664630068E+02  0.29988955056E+02  0.14038203618E+03  0.12508904384E+03 0.  0.
        -24    2    1    2    0    0  0.79623147690E+01 -0.24935641343E+01  0.30946755243E+03  0.31925019395E+03  0.77980151416E+02 0.  0.
        -11    1    3    3    0    0  0.24237453228E+02 -0.22590419106E+00 -0.68482356104E+02  0.72645290758E+02  0.00000000000E+00 0.  1.
         12    1    3    3    0    0 -0.19073916161E+02  0.57384098393E+02 -0.32178260715E+02  0.68499558311E+02  0.00000000000E+00 0. -1.
         11    1    5    5    0    0  0.29885091950E+01  0.34974249176E+02  0.20862020524E+03  0.21155263961E+03  0.00000000000E+00 0. -1.
        -12    1    5    5    0    0  0.49738055740E+01 -0.37467813310E+02  0.10084734719E+03  0.10769755434E+03  0.00000000000E+00 0.  1.
          5    1    4    4  501    0  0.72930443258E+01 -0.90840550523E+02  0.36245901812E+02  0.98165329486E+02  0.41800000000E+01 0.  1.
         -5    1    4    4    0  501 -0.20418896161E+02  0.36175920455E+02 -0.62569467569E+01  0.42216706692E+02  0.41800000000E+01 0.  1.
</event>
<event>
11    1  0.7105277E-009  0.1740765E+03  0.7561462E-02  0.1074538E+00
         22   -1    0    0    0    0  0.00000000000E+00  0.00000000000E+00  0.36308011469E+03  0.36308011469E+03  0.00000000000E+00 0.  1.
         22   -1    0    0    0    0 -0.00000000000E+00 -0.00000000000E+00 -0.57656340949E+03  0.57656340949E+03  0.00000000000E+00 0. -1.
        -24    2    1    2    0    0 -0.10936144659E+03 -0.49708888458E+02 -0.48332827172E+03  0.50481098365E+03  0.82443989351E+02 0.  0.
         25    2    1    2    0    0  0.16094620387E+03 -0.24197403667E+02  0.14532501279E+03  0.25150895078E+03  0.12509275796E+03 0.  0.
         24    2    1    2    0    0 -0.51584757278E+02  0.73906292125E+02  0.12451996412E+03  0.18332358975E+03  0.99895895291E+02 0.  0.
        -11    1    5    5    0    0 -0.78908943233E+02  0.37997027825E+02  0.67298800423E+02  0.11045145533E+03  0.00000000000E+00 0.  1.
         12    1    5    5    0    0  0.27324185955E+02  0.35909264300E+02  0.57221163699E+02  0.72872134426E+02  0.00000000000E+00 0. -1.
         11    1    3    3    0    0 -0.61283952139E+02 -0.55897887944E+02 -0.39911178119E+03  0.40764017289E+03  0.00000000000E+00 0. -1.
        -12    1    3    3    0    0 -0.48077494456E+02  0.61889994863E+01 -0.84216490528E+02  0.97170810764E+02  0.00000000000E+00 0.  1.
          5    1    4    4  501    0  0.11729737142E+03  0.25483695578E+02  0.39100279027E+02  0.12631071333E+03  0.41800000000E+01 0. -1.
         -5    1    4    4    0  501  0.43648832452E+02 -0.49681099245E+02  0.10622473376E+03  0.12519823744E+03  0.41800000000E+01 0. -1.
</event>
<event>
11    1  0.7105277E-009  0.1342251E+03  0.7561462E-02  0.1114184E+00
         22   -1    0    0    0    0  0.00000000000E+00  0.00000000000E+00  0.32467634095E+03  0.32467634095E+03  0.00000000000E+00 0. -1.
         22   -1    0    0    0    0 -0.00000000000E+00 -0.00000000000E+00 -0.12913519333E+04  0.12913519333E+04  0.00000000000E+00 0. -1.
         24    2    1    2    0    0  0.65654789387E+01 -0.76200030387E+02 -0.11583289562E+04  0.11635335889E+04  0.78961328870E+02 0.  0.
         25    2    1    2    0    0  0.78381721036E+01  0.21704413174E+02 -0.82512739368E+02  0.15161945437E+03  0.12509032054E+03 0.  0.
        -24    2    1    2    0    0 -0.14403651042E+02  0.54495617213E+02  0.27416610321E+03  0.30087523104E+03  0.11037035402E+03 0.  0.
        -11    1    3    3    0    0 -0.13508336784E+02 -0.34104921854E+02 -0.16147169505E+03  0.16558601741E+03  0.00000000000E+00 0.  1.
         12    1    3    3    0    0  0.20073815723E+02 -0.42095108533E+02 -0.99685726116E+03  0.99794757145E+03  0.00000000000E+00 0. -1.
         11    1    5    5    0    0  0.54937268803E+01  0.67676947712E+02  0.26765843562E+03  0.27613653950E+03  0.00000000000E+00 0. -1.
        -12    1    5    5    0    0 -0.19897377923E+02 -0.13181330499E+02  0.65076675872E+01  0.24738691545E+02  0.00000000000E+00 0.  1.
          5    1    4    4  501    0 -0.10790282824E+02 -0.50064000565E+02 -0.45542418974E+02  0.68661624522E+02  0.41800000000E+01 0. -1.
         -5    1    4    4    0  501  0.18628454928E+02  0.71768413739E+02 -0.36970320394E+02  0.82957829851E+02  0.41800000000E+01 0. -1.
</event>
<event>
11    1  0.7105277E-009  0.1764527E+03  0.7561462E-02  0.1072549E+00
         22   -1    0    0    0    0  0.00000000000E+00  0.00000000000E+00  0.68867827843E+03  0.68867827843E+03  0.00000000000E+00 0.  1.
         22   -1    0    0    0    0 -0.00000000000E+00 -0.00000000000E+00 -0.11617061057E+04  0.11617061057E+04  0.00000000000E+00 0.  1.
        -24    2    1    2    0    0  0.12301157632E+03  0.52165867359E+01 -0.10139913824E+04  0.10246042775E+04  0.80475717562E+02 0.  0.
         25    2    1    2    0    0 -0.14387870553E+03  0.56914549227E+02 -0.66271967729E+02  0.20971265514E+03  0.12508827363E+03 0.  0.
         24    2    1    2    0    0  0.20867129215E+02 -0.62131135962E+02  0.60723552287E+03  0.61606745153E+03  0.80674713838E+02 0.  0.
        -11    1    5    5    0    0  0.28573045586E+02 -0.34652471272E+02  0.55264692512E+03  0.55446896807E+03  0.00000000000E+00 0.  1.
         12    1    5    5    0    0 -0.77059163715E+01 -0.27478664691E+02  0.54588597749E+02  0.61598483460E+02  0.00000000000E+00 0. -1.
         13    1    3    3    0    0  0.73838284167E+02 -0.13707152197E+02 -0.32337723758E+03  0.33198315623E+03  0.00000000000E+00 0. -1.
        -14    1    3    3    0    0  0.49173292152E+02  0.18923738933E+02 -0.69061414483E+03  0.69262112124E+03  0.00000000000E+00 0.  1.
          5    1    4    4  501    0  0.33336824389E+01  0.44366673307E+02 -0.39208825778E+02  0.59450143463E+02  0.41800000000E+01 0.  1.
         -5    1    4    4    0  501 -0.14721238797E+03  0.12547875920E+02 -0.27063141951E+02  0.15026251168E+03  0.41800000000E+01 0.  1.
</event>
<event>
11    1  0.7105277E-009  0.1697881E+03  0.7561462E-02  0.1078216E+00
         22   -1    0    0    0    0  0.00000000000E+00  0.00000000000E+00  0.73817488851E+03  0.73817488851E+03  0.00000000000E+00 0. -1.
         22   -1    0    0    0    0 -0.00000000000E+00 -0.00000000000E+00 -0.24411463735E+03  0.24411463735E+03  0.00000000000E+00 0.  1.
        -24    2    1    2    0    0  0.84228497348E+02 -0.81742521025E+02 -0.77427270172E+02  0.16810576648E+03  0.92131900278E+02 0.  0.
         25    2    1    2    0    0 -0.13283110468E+03  0.14203956522E+01 -0.42952329698E+02  0.18745318645E+03  0.12509066548E+03 0.  0.
         24    2    1    2    0    0  0.48602607336E+02  0.80322125373E+02  0.61443985103E+03  0.62673057293E+03  0.80255985784E+02 0.  0.
        -11    1    5    5    0    0 -0.10326879781E+02  0.60324044189E+02  0.29347270832E+03  0.29978636607E+03  0.00000000000E+00 0.  1.
         12    1    5    5    0    0  0.58929487117E+02  0.19998081184E+02  0.32096714271E+03  0.32694420687E+03  0.00000000000E+00 0. -1.
         11    1    3    3    0    0  0.24558371605E+02 -0.37819232413E+02  0.16901794032E+02  0.48156812578E+02  0.00000000000E+00 0. -1.
        -12    1    3    3    0    0  0.59670125743E+02 -0.43923288612E+02 -0.94329064204E+02  0.11994895390E+03  0.00000000000E+00 0.  1.
          5    1    4    4  501    0 -0.14323715697E+03 -0.26539477995E+01 -0.46617302355E+00  0.14332346735E+03  0.41800000000E+01 0.  1.
         -5    1    4    4    0  501  0.10406052289E+02  0.40743434517E+01 -0.42486156675E+02  0.44129719100E+02  0.41800000000E+01 0.  1.
</event>
<event>
11    1  0.7105277E-009  0.1519673E+03  0.7561462E-02  0.1094885E+00
         22   -1    0    0    0    0  0.00000000000E+00  0.00000000000E+00  0.10303000591E+04  0.10303000591E+04  0.00000000000E+00 0.  1.
         22   -1    0    0    0    0 -0.00000000000E+00 -0.00000000000E+00 -0.29131149480E+03  0.29131149480E+03  0.00000000000E+00 0.  1.
        -24    2    1    2    0    0  0.36407426488E+02  0.25910117458E+02 -0.22441603580E+03  0.24196123198E+03  0.78650147929E+02 0.  0.
         25    2    1    2    0    0  0.44366940738E+02  0.12031094548E+02  0.27665233911E+02  0.13611085300E+03  0.12509047314E+03 0.  0.
         24    2    1    2    0    0 -0.80774367227E+02 -0.37941212006E+02  0.93573936624E+03  0.94353946897E+03  0.81820132024E+02 0.  0.
        -13    1    5    5    0    0 -0.74467363437E+02 -0.50928699684E+02  0.90599977860E+03  0.91048048825E+03  0.00000000000E+00 0.  1.
         14    1    5    5    0    0 -0.63070037897E+01  0.12987487677E+02  0.29739587637E+02  0.33058980713E+02  0.00000000000E+00 0. -1.
         11    1    3    3    0    0  0.13941470522E+02  0.47048004307E+02 -0.76662689033E+02  0.91022234643E+02  0.00000000000E+00 0. -1.
        -12    1    3    3    0    0  0.22465955967E+02 -0.21137886848E+02 -0.14775334676E+03  0.15093899734E+03  0.00000000000E+00 0.  1.
          5    1    4    4  501    0  0.25494577225E+01 -0.97400657722E+01 -0.46703179009E+02  0.47958606584E+02  0.41800000000E+01 0. -1.
         -5    1    4    4    0  501  0.41817483016E+02  0.21771160320E+02  0.74368412919E+02  0.88152246413E+02  0.41800000000E+01 0. -1.
</event>
<event>
11    1  0.7105277E-009  0.1740026E+03  0.7561462E-02  0.1074600E+00
         22   -1    0    0    0    0  0.00000000000E+00  0.00000000000E+00  0.12889583965E+04  0.12889583965E+04  0.00000000000E+00 0. -1.
         22   -1    0    0    0    0 -0.00000000000E+00 -0.00000000000E+00 -0.96553763990E+02  0.96553763990E+02  0.00000000000E+00 0.  1.
        -24    2    1    2    0    0  0.43979392536E+02  0.11728963545E+03  0.13986481219E+01  0.14868172411E+03  0.80082790380E+02 0.  0.
         25    2    1    2    0    0 -0.13318752114E+03 -0.32170960152E+02  0.66110410669E+03  0.68664416373E+03  0.12509069208E+03 0.  0.
         24    2    1    2    0    0  0.89208128601E+02 -0.85118675296E+02  0.52990187766E+03  0.55018627262E+03  0.81888067077E+02 0.  0.
        -13    1    5    5    0    0  0.51928158022E+02 -0.34898022998E+02  0.11797749804E+03  0.13354061422E+03  0.00000000000E+00 0.  1.
         14    1    5    5    0    0  0.37279970579E+02 -0.50220652299E+02  0.41192437963E+03  0.41664565839E+03  0.00000000000E+00 0. -1.
         13    1    3    3    0    0  0.12016972730E+02  0.10803464391E+03  0.20051567516E+02  0.11053486906E+03  0.00000000000E+00 0. -1.
        -14    1    3    3    0    0  0.31962419805E+02  0.92549915431E+01 -0.18652919394E+02  0.38146855050E+02  0.00000000000E+00 0.  1.
          5    1    4    4  501    0 -0.55755909529E+02 -0.77311805417E+02  0.36297921105E+03  0.37530949463E+03  0.41800000000E+01 0. -1.
         -5    1    4    4    0  501 -0.77431611608E+02  0.45140845264E+02  0.29812489563E+03  0.31133466910E+03  0.41800000000E+01 0. -1.
</event>
<event>
11    1  0.7105277E-009  0.1413565E+03  0.7561462E-02  0.1106053E+00
         22   -1    0    0    0    0  0.00000000000E+00  0.00000000000E+00  0.51183265837E+03  0.51183265837E+03  0.00000000000E+00 0.  1.
         22   -1    0    0    0    0 -0.00000000000E+00 -0.00000000000E+00 -0.74774393802E+03  0.74774393802E+03  0.00000000000E+00 0. -1.
         24    2    1    2    0    0  0.48382688521E+02 -0.44976291016E+02 -0.69440815376E+03  0.70169467366E+03  0.76216663147E+02 0.  0.
         25    2    1    2    0    0 -0.54986925323E+02  0.27548488975E+02  0.61389767654E+02  0.15231327195E+03  0.12509255789E+03 0.  0.
        -24    2    1    2    0    0  0.66042368020E+01  0.17427802041E+02  0.39710710646E+03  0.40556865077E+03  0.80277844128E+02 0.  0.
        -13    1    3    3    0    0  0.60274761853E+02 -0.27329943181E+02 -0.32477480189E+03  0.33144930933E+03  0.00000000000E+00 0.  1.
         14    1    3    3    0    0 -0.11892073332E+02 -0.17646347835E+02 -0.36963335187E+03  0.37024536434E+03  0.00000000000E+00 0. -1.
         13    1    5    5    0    0  0.23729986170E+02  0.17227994626E+02  0.49457925162E+02  0.57497846949E+02  0.00000000000E+00 0. -1.
        -14    1    5    5    0    0 -0.17125749368E+02  0.19980741482E+00  0.34764918130E+03  0.34807080382E+03  0.00000000000E+00 0.  1.
          5    1    4    4  501    0 -0.15587078594E+02  0.73388341006E+02  0.16567395194E+02  0.76946452798E+02  0.41800000000E+01 0. -1.
         -5    1    4    4    0  501 -0.39399846729E+02 -0.45839852031E+02  0.44822372459E+02  0.75366819154E+02  0.41800000000E+01 0. -1.
</event>
<event>
11    1  0.7105277E-009  0.1502023E+03  0.7561462E-02  0.1096672E+00
         22   -1    0    0    0    0  0.00000000000E+00  0.00000000000E+00  0.14691158771E+04  0.14691158771E+04  0.00000000000E+00 0. -1.
         22   -1    0    0    0    0 -0.00000000000E+00 -0.00000000000E+00 -0.14079565741E+04  0.14079565741E+04  0.00000000000E+00 0. -1.
         24    2    1    2    0    0  0.42254563235E+02 -0.71443508798E+02 -0.13751700248E+04  0.13800131187E+04  0.80336713598E+02 0.  0.
         25    2    1    2    0    0 -0.41085749792E+02  0.86857383190E+02  0.18578703641E+03  0.24371434062E+03  0.12509041959E+03 0.  0.
        -24    2    1    2    0    0 -0.11688134435E+01 -0.15413874392E+02  0.12505422914E+04  0.12533449919E+04  0.82332815552E+02 0.  0.
        -11    1    3    3    0    0 -0.12727856391E+02 -0.18392029239E+02 -0.96320158317E+02  0.98882950836E+02  0.00000000000E+00 0.  1.
         12    1    3    3    0    0  0.54982419626E+02 -0.53051479559E+02 -0.12788498665E+04  0.12811301679E+04  0.00000000000E+00 0. -1.
         13    1    5    5    0    0 -0.10213699259E+02  0.30314298416E+02  0.73622880354E+03  0.73692342038E+03  0.00000000000E+00 0. -1.
        -14    1    5    5    0    0  0.90448858153E+01 -0.45728172808E+02  0.51431348789E+03  0.51642157157E+03  0.00000000000E+00 0.  1.
          5    1    4    4  501    0 -0.83396232106E+02  0.35591661694E+02  0.98944377563E+02  0.13427270818E+03  0.41800000000E+01 0. -1.
         -5    1    4    4    0  501  0.42310482314E+02  0.51265721496E+02  0.86842658848E+02  0.10944163243E+03  0.41800000000E+01 0. -1.
</event>
<event>
11    1  0.7105277E-009  0.7567070E+03  0.7561462E-02  0.8952672E-01
         22   -1    0    0    0    0  0.00000000000E+00  0.00000000000E+00  0.50232570403E+03  0.50232570403E+03  0.00000000000E+00 0.  1.
         22   -1    0    0    0    0 -0.00000000000E+00 -0.00000000000E+00 -0.30378172712E+04  0.30378172712E+04  0.00000000000E+00 0. -1.
        -24    2    1    2    0    0  0.75125299249E+03  0.34894427924E+02 -0.23248316811E+04  0.24447103728E+04  0.78535223768E+02 0.  0.
         25    2    1    2    0    0 -0.72131863319E+03 -0.99446480155E+02 -0.42733806946E+03  0.85349636395E+03  0.12509214466E+03 0.  0.
         24    2    1    2    0    0 -0.29934359304E+02  0.64552052231E+02  0.21667818341E+03  0.24193623852E+03  0.80750696774E+02 0.  0.
        -13    1    5    5    0    0 -0.32729973570E+02  0.12841794791E+02  0.16526326809E+03  0.16896186151E+03  0.00000000000E+00 0.  1.
         14    1    5    5    0    0  0.27956142665E+01  0.51710257439E+02  0.51414915322E+02  0.72974377018E+02  0.00000000000E+00 0. -1.
         13    1    3    3    0    0  0.57304748054E+03  0.52153105303E+02 -0.18400956333E+04  0.19279666234E+04  0.00000000000E+00 0. -1.
        -14    1    3    3    0    0  0.17820551195E+03 -0.17258677378E+02 -0.48473604782E+03  0.51674374935E+03  0.00000000000E+00 0.  1.
          5    1    4    4  501    0 -0.44726834835E+03 -0.11236629636E+03 -0.22885463362E+03  0.51484665263E+03  0.41800000000E+01 0. -1.
         -5    1    4    4    0  501 -0.27405028484E+03  0.12919816206E+02 -0.19848343585E+03  0.33864971132E+03  0.41800000000E+01 0. -1.
</event>
<event>
11    1  0.7105277E-009  0.1469624E+03  0.7561462E-02  0.1100024E+00
         22   -1    0    0    0    0  0.00000000000E+00  0.00000000000E+00  0.26510257037E+03  0.26510257037E+03  0.00000000000E+00 0. -1.
         22   -1    0    0    0    0 -0.00000000000E+00 -0.00000000000E+00 -0.38745122342E+03  0.38745122342E+03  0.00000000000E+00 0.  1.
         24    2    1    2    0    0  0.28675854882E+02 -0.68863362519E+02 -0.26603249362E+03  0.28779777999E+03  0.80559339319E+02 0.  0.
         25    2    1    2    0    0 -0.30175531463E+02  0.85852899129E+02 -0.42959207846E+02  0.16054358281E+03  0.12508982954E+03 0.  0.
        -24    2    1    2    0    0  0.14996765809E+01 -0.16989536610E+02  0.18664304842E+03  0.20421243100E+03  0.81093748636E+02 0.  0.
        -11    1    3    3    0    0 -0.42418977794E+01 -0.80698463745E+01 -0.16571623626E+03  0.16596682523E+03  0.00000000000E+00 0.  1.
         12    1    3    3    0    0  0.32917752661E+02 -0.60793516144E+02 -0.10031625737E+03  0.12183095476E+03  0.00000000000E+00 0. -1.
         13    1    5    5    0    0  0.24824039535E+02 -0.10302621025E+02  0.17544030737E+03  0.17748712175E+03  0.00000000000E+00 0. -1.
        -14    1    5    5    0    0 -0.23324362954E+02 -0.66869155848E+01  0.11202741049E+02  0.26725309246E+02  0.00000000000E+00 0.  1.
          5    1    4    4  501    0 -0.34694966981E+02 -0.59637200219E+00 -0.62583246566E+02  0.71681458859E+02  0.41800000000E+01 0. -1.
         -5    1    4    4    0  501  0.45194355180E+01  0.86449271131E+02  0.19624038721E+02  0.88862123946E+02  0.41800000000E+01 0. -1.
</event>
<event>
11    1  0.7105277E-009  0.3443016E+03  0.7561462E-02  0.9830097E-01
         22   -1    0    0    0    0  0.00000000000E+00  0.00000000000E+00  0.29443166070E+03  0.29443166070E+03  0.00000000000E+00 0. -1.
         22   -1    0    0    0    0 -0.00000000000E+00 -0.00000000000E+00 -0.68334545903E+03  0.68334545903E+03  0.00000000000E+00 0. -1.
        -24    2    1    2    0    0 -0.10259476670E+03  0.11077759651E+03 -0.36345080674E+03  0.40170510146E+03  0.80455811356E+02 0.  0.
         25    2    1    2    0    0 -0.76512067546E+02  0.72555959949E+02 -0.19725086235E+03  0.25626904579E+03  0.12508979707E+03 0.  0.
         24    2    1    2    0    0  0.17910683425E+03 -0.18333355646E+03  0.17178787075E+03  0.31980297248E+03  0.84097667441E+02 0.  0.
        -11    1    5    5    0    0  0.60165845786E+01 -0.51725504544E+02  0.28066605078E+02  0.59156245916E+02  0.00000000000E+00 0.  1.
         12    1    5    5    0    0  0.17309024967E+03 -0.13160805192E+03  0.14372126567E+03  0.26064672656E+03  0.00000000000E+00 0. -1.
         13    1    3    3    0    0 -0.15537342004E+02  0.75605374962E+02 -0.16577075519E+03  0.18285930383E+03  0.00000000000E+00 0. -1.
        -14    1    3    3    0    0 -0.87057424700E+02  0.35172221550E+02 -0.19768005154E+03  0.21884579763E+03  0.00000000000E+00 0.  1.
          5    1    4    4  501    0 -0.75367463249E+02  0.96559539179E+02 -0.10673181943E+03  0.16252123800E+03  0.41800000000E+01 0.  1.
         -5    1    4    4    0  501 -0.11446042965E+01 -0.24003579231E+02 -0.90519042917E+02  0.93747807790E+02  0.41800000000E+01 0.  1.
</event>
<event>
11    1  0.7105277E-009  0.1536475E+03  0.7561462E-02  0.1093209E+00
         22   -1    0    0    0    0  0.00000000000E+00  0.00000000000E+00  0.22011494033E+04  0.22011494033E+04  0.00000000000E+00 0.  1.
         22   -1    0    0    0    0 -0.00000000000E+00 -0.00000000000E+00 -0.38474290719E+02  0.38474290719E+02  0.00000000000E+00 0.  1.
         24    2    1    2    0    0 -0.79377658302E+02  0.49180401477E+02  0.11774375571E+03  0.17095079710E+03  0.81492689823E+02 0.  0.
         25    2    1    2    0    0  0.53780194330E+02 -0.54571905547E+02  0.49082162368E+03  0.51226924110E+03  0.12507400580E+03 0.  0.
        -24    2    1    2    0    0  0.25597463972E+02  0.53915040697E+01  0.15541097331E+04  0.15564036558E+04  0.80317984078E+02 0.  0.
        -13    1    3    3    0    0 -0.80450803001E+02  0.62078220420E+01  0.71453385898E+02  0.10777966002E+03  0.00000000000E+00 0.  1.
         14    1    3    3    0    0  0.10731446990E+01  0.42972579435E+02  0.46290369813E+02  0.63171137083E+02  0.00000000000E+00 0. -1.
         13    1    5    5    0    0  0.37327781456E+02 -0.24640971799E+02  0.56463733274E+03  0.56640608955E+03  0.00000000000E+00 0. -1.
        -14    1    5    5    0    0 -0.11730317484E+02  0.30032475868E+02  0.98947240041E+03  0.98999756623E+03  0.00000000000E+00 0.  1.
          5    1    4    4  501    0  0.31240292097E+02 -0.81724428735E+02  0.18839292616E+03  0.20775996999E+03  0.41800000000E+01 0.  1.
         -5    1    4    4    0  501  0.22539902233E+02  0.27152523188E+02  0.30242869752E+03  0.30450927111E+03  0.41800000000E+01 0.  1.
</event>
<event>
11    1  0.7105277E-009  0.1453558E+03  0.7561462E-02  0.1101721E+00
         22   -1    0    0    0    0  0.00000000000E+00  0.00000000000E+00  0.24373396096E+03  0.24373396096E+03  0.00000000000E+00 0.  1.
         22   -1    0    0    0    0 -0.00000000000E+00 -0.00000000000E+00 -0.45276222453E+03  0.45276222453E+03  0.00000000000E+00 0.  1.
         24    2    1    2    0    0 -0.10113360590E+02  0.15865049824E+02 -0.33170039217E+03  0.34175185156E+03  0.80094931248E+02 0.  0.
         25    2    1    2    0    0  0.78315799216E+02  0.11396840308E+02 -0.42247437519E+02  0.15392720272E+03  0.12508191470E+03 0.  0.
        -24    2    1    2    0    0 -0.68202438626E+02 -0.27261890132E+02  0.16491956612E+03  0.20081713122E+03  0.87944719081E+02 0.  0.
        -11    1    3    3    0    0  0.79878365360E+01  0.91263308569E+01 -0.31761525170E+03  0.31784672966E+03  0.00000000000E+00 0.  1.
         12    1    3    3    0    0 -0.18101197126E+02  0.67387189668E+01 -0.14085140468E+02  0.23905121893E+02  0.00000000000E+00 0. -1.
         11    1    5    5    0    0  0.86970529972E+01 -0.10264711723E+02 -0.43365742769E+01  0.14135378101E+02  0.00000000000E+00 0. -1.
        -12    1    5    5    0    0 -0.76899491623E+02 -0.16997178408E+02  0.16925614039E+03  0.18668175312E+03  0.00000000000E+00 0.  1.
          5    1    4    4  501    0  0.34302561101E+02  0.64655532125E+02 -0.42439779031E+02  0.84708976955E+02  0.41800000000E+01 0.  1.
         -5    1    4    4    0  501  0.44013238115E+02 -0.53258691818E+02  0.19234151260E+00  0.69218225770E+02  0.41800000000E+01 0.  1.
</event>
<event>
11    1  0.7105277E-009  0.2075421E+03  0.7561462E-02  0.1049315E+00
         22   -1    0    0    0    0  0.00000000000E+00  0.00000000000E+00  0.88401262623E+03  0.88401262623E+03  0.00000000000E+00 0.  1.
         22   -1    0    0    0    0 -0.00000000000E+00 -0.00000000000E+00 -0.51849498307E+03  0.51849498307E+03  0.00000000000E+00 0. -1.
        -24    2    1    2    0    0 -0.47242374685E+02 -0.12748641785E+02 -0.38150324873E+03  0.39294351227E+03  0.80408365270E+02 0.  0.
         25    2    1    2    0    0 -0.44238244015E+02 -0.12887824748E+03 -0.49318572459E+02  0.19143269330E+03  0.12509008581E+03 0.  0.
         24    2    1    2    0    0  0.91480618700E+02  0.14162688926E+03  0.79633946435E+03  0.81813140373E+03  0.82192286250E+02 0.  0.
        -13    1    5    5    0    0  0.63004644831E+02  0.12414524954E+03  0.47278740560E+03  0.49285855897E+03  0.00000000000E+00 0.  1.
         14    1    5    5    0    0  0.28475973868E+02  0.17481639726E+02  0.32355205875E+03  0.32527284476E+03  0.00000000000E+00 0. -1.
         11    1    3    3    0    0 -0.58029046644E+01 -0.73612025706E+01 -0.30987455688E+03  0.31001629313E+03  0.00000000000E+00 0. -1.
        -12    1    3    3    0    0 -0.41439470020E+02 -0.53874392143E+01 -0.71628691855E+02  0.82927219137E+02  0.00000000000E+00 0.  1.
          5    1    4    4  501    0  0.30681914648E+02 -0.85327990811E+02 -0.52037891245E+02  0.10463106818E+03  0.41800000000E+01 0.  1.
         -5    1    4    4    0  501 -0.74920158663E+02 -0.43550256668E+02  0.27193187855E+01  0.86801625126E+02  0.41800000000E+01 0.  1.
</event>
<event>
11    1  0.7105277E-009  0.1343254E+03  0.7561462E-02  0.1114066E+00
         22   -1    0    0    0    0  0.00000000000E+00  0.00000000000E+00  0.43176222013E+03  0.43176222013E+03  0.00000000000E+00 0. -1.
         22   -1    0    0    0    0 -0.00000000000E+00 -0.00000000000E+00 -0.18189994039E+04  0.18189994039E+04  0.00000000000E+00 0.  1.
        -24    2    1    2    0    0  0.45586927043E+02  0.18855372852E+02 -0.17207220591E+04  0.17233359060E+04  0.81046575701E+02 0.  0.
         25    2    1    2    0    0 -0.37052169870E+02 -0.35139474310E+01 -0.46587345860E+02  0.13857292952E+03  0.12508742896E+03 0.  0.
         24    2    1    2    0    0 -0.85347571727E+01 -0.15341425421E+02  0.38007222118E+03  0.38885278845E+03  0.80270769016E+02 0.  0.
        -13    1    5    5    0    0  0.14661456499E+02  0.22453342837E+02  0.59958136826E+02  0.65681725638E+02  0.00000000000E+00 0.  1.
         14    1    5    5    0    0 -0.23196213671E+02 -0.37794768259E+02  0.32011408436E+03  0.32317106281E+03  0.00000000000E+00 0. -1.
         11    1    3    3    0    0 -0.25695046520E+01  0.36178114984E+02 -0.40558081150E+03  0.40719927924E+03  0.00000000000E+00 0. -1.
        -12    1    3    3    0    0  0.48156431695E+02 -0.17322742132E+02 -0.13151412476E+04  0.13161366268E+04  0.00000000000E+00 0.  1.
          5    1    4    4  501    0 -0.79166043457E+02 -0.24458704612E+02 -0.34345287033E+02  0.89791769162E+02  0.41800000000E+01 0.  1.
         -5    1    4    4    0  501  0.42113873587E+02  0.20944757181E+02 -0.12242058828E+02  0.48781160361E+02  0.41800000000E+01 0.  1.
</event>
<event>
11    1  0.7105277E-009  0.1588546E+03  0.7561462E-02  0.1088160E+00
         22   -1    0    0    0    0  0.00000000000E+00  0.00000000000E+00  0.70487759905E+03  0.70487759905E+03  0.00000000000E+00 0.  1.
         22   -1    0    0    0    0 -0.00000000000E+00 -0.00000000000E+00 -0.15241998720E+04  0.15241998720E+04  0.00000000000E+00 0.  1.
        -24    2    1    2    0    0  0.91394148792E+02 -0.38781411851E+02 -0.13950039984E+04  0.14007405355E+04  0.78619362451E+02 0.  0.
         25    2    1    2    0    0 -0.75950785855E+02  0.17849353540E+02 -0.79614024430E+02  0.16755050912E+03  0.12509060287E+03 0.  0.
         24    2    1    2    0    0 -0.15443362937E+02  0.20932058310E+02  0.65529574987E+03  0.66078642635E+03  0.80929184586E+02 0.  0.
        -13    1    5    5    0    0 -0.12125965404E+02 -0.29548299082E+02  0.33512454524E+03  0.33664313722E+03  0.00000000000E+00 0.  1.
         14    1    5    5    0    0 -0.33173975329E+01  0.50480357392E+02  0.32017120464E+03  0.32414328913E+03  0.00000000000E+00 0. -1.
         11    1    3    3    0    0 -0.93311463419E+01 -0.87189974990E+00 -0.28422185394E+02  0.29927430959E+02  0.00000000000E+00 0. -1.
        -12    1    3    3    0    0  0.10072529513E+03 -0.37909512101E+02 -0.13665818130E+04  0.13708131046E+04  0.00000000000E+00 0.  1.
          5    1    4    4  501    0 -0.28759599742E+02 -0.35417708054E+02 -0.84473686244E+02  0.96097891178E+02  0.41800000000E+01 0. -1.
         -5    1    4    4    0  501 -0.47191186113E+02  0.53267061594E+02  0.48596618141E+01  0.71452617941E+02  0.41800000000E+01 0. -1.
</event>
<event>
11    1  0.7105277E-009  0.1558921E+03  0.7561462E-02  0.1091006E+00
         22   -1    0    0    0    0  0.00000000000E+00  0.00000000000E+00  0.50284461761E+03  0.50284461761E+03  0.00000000000E+00 0.  1.
         22   -1    0    0    0    0 -0.00000000000E+00 -0.00000000000E+00 -0.13937138961E+04  0.13937138961E+04  0.00000000000E+00 0.  1.
        -24    2    1    2    0    0  0.43837767233E+02  0.81531054484E+02 -0.12121659700E+04  0.12183674580E+04  0.80646520939E+02 0.  0.
         25    2    1    2    0    0 -0.11874389505E+02 -0.10504726280E+03 -0.13565541056E+03  0.21266387635E+03  0.12509038868E+03 0.  0.
         24    2    1    2    0    0 -0.31963377728E+02  0.23516208321E+02  0.45695210208E+03  0.46552717930E+03  0.79596868668E+02 0.  0.
        -11    1    5    5    0    0 -0.28251279776E+02  0.38286763498E+02  0.44067396424E+03  0.44323532557E+03  0.00000000000E+00 0.  1.
         12    1    5    5    0    0 -0.37120979513E+01 -0.14770555177E+02  0.16278137837E+02  0.22291853734E+02  0.00000000000E+00 0. -1.
         13    1    3    3    0    0  0.39713763626E+02  0.95180861702E+02 -0.90256707522E+03  0.90844036939E+03  0.00000000000E+00 0. -1.
        -14    1    3    3    0    0  0.41240036065E+01 -0.13649807219E+02 -0.30959889475E+03  0.30992708864E+03  0.00000000000E+00 0.  1.
          5    1    4    4  501    0  0.25829701695E+02  0.96254546709E+01  0.38399993772E+01  0.28143220542E+02  0.41800000000E+01 0. -1.
         -5    1    4    4    0  501 -0.37704091200E+02 -0.11467271748E+03 -0.13949540994E+03  0.18452065581E+03  0.41800000000E+01 0. -1.
</event>
<event>
11    1  0.7105277E-009  0.2196877E+03  0.7561462E-02  0.1041413E+00
         22   -1    0    0    0    0  0.00000000000E+00  0.00000000000E+00  0.66470932149E+03  0.66470932149E+03  0.00000000000E+00 0. -1.
         22   -1    0    0    0    0 -0.00000000000E+00 -0.00000000000E+00 -0.64910349533E+03  0.64910349533E+03  0.00000000000E+00 0. -1.
        -24    2    1    2    0    0 -0.47531428554E+02 -0.41771323102E+01 -0.55741422077E+03  0.56519773203E+03  0.80381450842E+02 0.  0.
         25    2    1    2    0    0  0.14308795747E+02  0.18244244087E+03  0.11601868210E+03  0.25019544077E+03  0.12508972029E+03 0.  0.
         24    2    1    2    0    0  0.33222632807E+02 -0.17826530856E+03  0.45700136483E+03  0.49841964402E+03  0.81790161518E+02 0.  0.
        -13    1    5    5    0    0  0.33074221910E+01 -0.22565833709E+02  0.11490696378E+02  0.25538049960E+02  0.00000000000E+00 0.  1.
         14    1    5    5    0    0  0.29915210616E+02 -0.15569947485E+03  0.44551066845E+03  0.47288159406E+03  0.00000000000E+00 0. -1.
         13    1    3    3    0    0  0.97501227874E+01 -0.13698498893E+02 -0.33196515797E+03  0.33239070365E+03  0.00000000000E+00 0. -1.
        -14    1    3    3    0    0 -0.57281551342E+02  0.95213665831E+01 -0.22544906280E+03  0.23280702838E+03  0.00000000000E+00 0.  1.
          5    1    4    4  501    0  0.62485769281E+02  0.67700189377E+02  0.75701954725E+02  0.11931489996E+03  0.41800000000E+01 0. -1.
         -5    1    4    4    0  501 -0.48176973533E+02  0.11474225149E+03  0.40316727376E+02  0.13088054081E+03  0.41800000000E+01 0. -1.
</event>
<event>
11    1  0.7105277E-009  0.1653709E+03  0.7561462E-02  0.1082132E+00
         22   -1    0    0    0    0  0.00000000000E+00  0.00000000000E+00  0.55399935196E+03  0.55399935196E+03  0.00000000000E+00 0. -1.
         22   -1    0    0    0    0 -0.00000000000E+00 -0.00000000000E+00 -0.32726597814E+03  0.32726597814E+03  0.00000000000E+00 0. -1.
        -24    2    1    2    0    0  0.37229062089E+02  0.99884080215E+02 -0.18067373074E+03  0.22623242846E+03  0.84707037291E+02 0.  0.
         25    2    1    2    0    0 -0.54195246455E+02 -0.99234084192E+02 -0.61131876658E+02  0.17935649799E+03  0.12508844401E+03 0.  0.
         24    2    1    2    0    0  0.16966184366E+02 -0.64999602312E+00  0.46853898121E+03  0.47567640364E+03  0.80318056249E+02 0.  0.
        -13    1    5    5    0    0 -0.22105927124E+02  0.26300769454E+02  0.17793955811E+03  0.18122607105E+03  0.00000000000E+00 0.  1.
         14    1    5    5    0    0  0.39072111490E+02 -0.26950765477E+02  0.29059942311E+03  0.29445033259E+03  0.00000000000E+00 0. -1.
         13    1    3    3    0    0  0.56932876265E+01  0.45390085467E+02 -0.14878009362E+03  0.15565407043E+03  0.00000000000E+00 0. -1.
        -14    1    3    3    0    0  0.31535774463E+02  0.54493994749E+02 -0.31893637111E+02  0.70578358034E+02  0.00000000000E+00 0.  1.
          5    1    4    4  501    0 -0.56099348588E+02 -0.97261116069E-01 -0.56913772908E+02  0.80023723472E+02  0.41800000000E+01 0. -1.
         -5    1    4    4    0  501  0.19041021325E+01 -0.99136823076E+02 -0.42181037508E+01  0.99332774520E+02  0.41800000000E+01 0. -1.
</event>
<event>
11    1  0.7105277E-009  0.1258571E+03  0.7561462E-02  0.1124467E+00
         22   -1    0    0    0    0  0.00000000000E+00  0.00000000000E+00  0.84725692897E+03  0.84725692897E+03  0.00000000000E+00 0.  1.
         22   -1    0    0    0    0 -0.00000000000E+00 -0.00000000000E+00 -0.39085697034E+03  0.39085697034E+03  0.00000000000E+00 0.  1.
         24    2    1    2    0    0 -0.13023132123E+02 -0.10371756113E+02 -0.33836359235E+03  0.34824271715E+03  0.80659122999E+02 0.  0.
         25    2    1    2    0    0  0.22398903044E+02  0.19483750884E+02  0.46184610285E+02  0.13660677871E+03  0.12508823428E+03 0.  0.
        -24    2    1    2    0    0 -0.93757709202E+01 -0.91119947707E+01  0.74857894070E+03  0.75326440346E+03  0.82860711652E+02 0.  0.
        -13    1    3    3    0    0 -0.50078118582E+01  0.35430503667E+02 -0.13965842184E+03  0.14416959999E+03  0.00000000000E+00 0.  1.
         14    1    3    3    0    0 -0.80153202651E+01 -0.45802259780E+02 -0.19870517050E+03  0.20407311715E+03  0.00000000000E+00 0. -1.
         13    1    5    5    0    0  0.29128200516E+02 -0.24660613789E+02  0.24252346175E+03  0.24550810056E+03  0.00000000000E+00 0. -1.
        -14    1    5    5    0    0 -0.38503971436E+02  0.15548619018E+02  0.50605547894E+03  0.50775630290E+03  0.00000000000E+00 0.  1.
          5    1    4    4  501    0 -0.33347300533E+01  0.70396341814E+02  0.18089247678E+02  0.72879754712E+02  0.41800000000E+01 0. -1.
         -5    1    4    4    0  501  0.25733633097E+02 -0.50912590930E+02  0.28095362607E+02  0.63727023998E+02  0.41800000000E+01 0. -1.
</event>
<event>
11    1  0.7105277E-009  0.1410263E+03  0.7561462E-02  0.1106418E+00
         22   -1    0    0    0    0  0.00000000000E+00  0.00000000000E+00  0.46713823212E+03  0.46713823212E+03  0.00000000000E+00 0. -1.
         22   -1    0    0    0    0 -0.00000000000E+00 -0.00000000000E+00 -0.19053632287E+03  0.19053632287E+03  0.00000000000E+00 0.  1.
        -24    2    1    2    0    0 -0.41641406838E+02 -0.51472912318E+02 -0.81271369617E+02  0.13144389371E+03  0.79303179063E+02 0.  0.
         25    2    1    2    0    0  0.51991674093E+02  0.37399199440E+02 -0.17353691977E+02  0.14160329210E+03  0.12509399431E+03 0.  0.
         24    2    1    2    0    0 -0.10350267255E+02  0.14073712877E+02  0.37522697085E+03  0.38462736918E+03  0.82690604348E+02 0.  0.
        -11    1    5    5    0    0  0.85926874987E+01  0.20661607054E+02  0.23945432749E+02  0.32773770519E+02  0.00000000000E+00 0.  1.
         12    1    5    5    0    0 -0.18942954753E+02 -0.65878941765E+01  0.35128153810E+03  0.35185359866E+03  0.00000000000E+00 0. -1.
         13    1    3    3    0    0 -0.35612473325E+02  0.76810197754E+01 -0.83914947378E+01  0.37385338103E+02  0.00000000000E+00 0. -1.
        -14    1    3    3    0    0 -0.60289335134E+01 -0.59153932093E+02 -0.72879874879E+02  0.94058555612E+02  0.00000000000E+00 0.  1.
          5    1    4    4  501    0  0.18883811530E+02 -0.37077488075E+00  0.52222633192E+02  0.55690318991E+02  0.41800000000E+01 0.  1.
         -5    1    4    4    0  501  0.33107862563E+02  0.37769974321E+02 -0.69576325168E+02  0.85912973105E+02  0.41800000000E+01 0.  1.
</event>
<event>
11    1  0.7105277E-009  0.1315696E+03  0.7561462E-02  0.1117355E+00
         22   -1    0    0    0    0  0.00000000000E+00  0.00000000000E+00  0.47728879114E+03  0.47728879114E+03  0.00000000000E+00 0. -1.
         22   -1    0    0    0    0 -0.00000000000E+00 -0.00000000000E+00 -0.20225786716E+03  0.20225786716E+03  0.00000000000E+00 0.  1.
        -24    2    1    2    0    0  0.21366178448E+02  0.15140656886E+02 -0.12652734597E+03  0.15237256224E+03  0.80761843546E+02 0.  0.
         25    2    1    2    0    0  0.52726077946E+01  0.18489355320E+02  0.12169612013E+02  0.12714357537E+03  0.12509089754E+03 0.  0.
         24    2    1    2    0    0 -0.26638786242E+02 -0.33630012206E+02  0.38938865794E+03  0.40003052068E+03  0.80995604177E+02 0.  0.
        -13    1    5    5    0    0 -0.12802402274E+02 -0.18819548584E+02  0.20642205811E+02  0.30727472621E+02  0.00000000000E+00 0.  1.
         14    1    5    5    0    0 -0.13836383968E+02 -0.14810463621E+02  0.36874645213E+03  0.36930304806E+03  0.00000000000E+00 0. -1.
         11    1    3    3    0    0  0.91135015425E+00  0.89626008239E+00  0.11773895829E+02  0.11843076637E+02  0.00000000000E+00 0. -1.
        -12    1    3    3    0    0  0.20454828294E+02  0.14244396803E+02 -0.13830124180E+03  0.14052948560E+03  0.00000000000E+00 0.  1.
          5    1    4    4  501    0 -0.19684454055E+02  0.68008627996E+02  0.81082514230E+01  0.71385344115E+02  0.41800000000E+01 0. -1.
         -5    1    4    4    0  501  0.24957061850E+02 -0.49519272676E+02  0.40613605901E+01  0.55758231252E+02  0.41800000000E+01 0. -1.
</event>
<event>
11    1  0.7105277E-009  0.1771776E+03  0.7561462E-02  0.1071949E+00
         22   -1    0    0    0    0  0.00000000000E+00  0.00000000000E+00  0.65137767267E+03  0.65137767267E+03  0.00000000000E+00 0. -1.
         22   -1    0    0    0    0 -0.00000000000E+00 -0.00000000000E+00 -0.36229619251E+03  0.36229619251E+03  0.00000000000E+00 0. -1.
        -24    2    1    2    0    0  0.67031862894E+02 -0.37022483052E+02 -0.30873091978E+03  0.32782611090E+03  0.79317357912E+02 0.  0.
         25    2    1    2    0    0 -0.16121634456E+03  0.13150106394E+02  0.41958012653E+03  0.46675345752E+03  0.12509065701E+03 0.  0.
         24    2    1    2    0    0  0.94184481662E+02  0.23872376658E+02  0.17823227341E+03  0.21909429677E+03  0.82431551254E+02 0.  0.
        -13    1    5    5    0    0  0.63869978744E+02 -0.17616302543E+02  0.56916366519E+02  0.87345183483E+02  0.00000000000E+00 0.  1.
         14    1    5    5    0    0  0.30314502918E+02  0.41488679201E+02  0.12131590689E+03  0.13174911329E+03  0.00000000000E+00 0. -1.
         13    1    3    3    0    0  0.41921229449E+02 -0.66272960640E+01 -0.26724510376E+03  0.27059426457E+03  0.00000000000E+00 0. -1.
        -14    1    3    3    0    0  0.25110633446E+02 -0.30395186988E+02 -0.41485816013E+02  0.57231846330E+02  0.00000000000E+00 0.  1.
          5    1    4    4  501    0 -0.12179327726E+03 -0.48038683544E+02  0.28602002623E+03  0.31458901015E+03  0.41800000000E+01 0.  1.
         -5    1    4    4    0  501 -0.39423067301E+02  0.61188789938E+02  0.13356010030E+03  0.15216444736E+03  0.41800000000E+01 0.  1.
</event>
<event>
11    1  0.7105277E-009  0.2547157E+03  0.7561462E-02  0.1021417E+00
         22   -1    0    0    0    0  0.00000000000E+00  0.00000000000E+00  0.13956554052E+04  0.13956554052E+04  0.00000000000E+00 0. -1.
         22   -1    0    0    0    0 -0.00000000000E+00 -0.00000000000E+00 -0.29346010211E+03  0.29346010211E+03  0.00000000000E+00 0. -1.
         24    2    1    2    0    0 -0.53597038517E+02 -0.17923910046E+02 -0.21909371214E+03  0.24397778621E+03  0.91264431056E+02 0.  0.
         25    2    1    2    0    0  0.11814225426E+03 -0.19436393587E+03  0.29885607649E+03  0.39585027848E+03  0.12509019428E+03 0.  0.
        -24    2    1    2    0    0 -0.64545215748E+02  0.21228784592E+03  0.10224329388E+04  0.10492874426E+04  0.80017551846E+02 0.  0.
        -13    1    3    3    0    0 -0.50256654862E+02 -0.49958483379E+02 -0.11562900601E+03  0.13561581195E+03  0.00000000000E+00 0.  1.
         14    1    3    3    0    0 -0.33403836551E+01  0.32034573333E+02 -0.10346470613E+03  0.10836197426E+03  0.00000000000E+00 0. -1.
         13    1    5    5    0    0 -0.65334236916E+02  0.88728968374E+02  0.55258525603E+03  0.56346415816E+03  0.00000000000E+00 0. -1.
        -14    1    5    5    0    0  0.78902116771E+00  0.12355887755E+03  0.46984768272E+03  0.48582328447E+03  0.00000000000E+00 0.  1.
          5    1    4    4  501    0  0.11318244577E+02 -0.55116327289E+01  0.10198718944E+03  0.10284619567E+03  0.41800000000E+01 0. -1.
         -5    1    4    4    0  501  0.10682400969E+03 -0.18885230315E+03  0.19686888705E+03  0.29300408280E+03  0.41800000000E+01 0. -1.
</event>
<event>
11    1  0.7105277E-009  0.1567736E+03  0.7561462E-02  0.1090152E+00
         22   -1    0    0    0    0  0.00000000000E+00  0.00000000000E+00  0.17638698444E+04  0.17638698444E+04  0.00000000000E+00 0.  1.
         22   -1    0    0    0    0 -0.00000000000E+00 -0.00000000000E+00 -0.99172048512E+03  0.99172048512E+03  0.00000000000E+00 0.  1.
         24    2    1    2    0    0 -0.68028970235E+02 -0.64826544868E+02 -0.96007433556E+03  0.96775962756E+03  0.77366305548E+02 0.  0.
         25    2    1    2    0    0  0.11954390696E+03  0.81101969949E+02  0.32288851938E+03  0.37519751103E+03  0.12509157091E+03 0.  0.
        -24    2    1    2    0    0 -0.51514936729E+02 -0.16275425081E+02  0.14093351754E+04  0.14126331909E+04  0.79926323430E+02 0.  0.
        -13    1    3    3    0    0 -0.36270654894E+02 -0.56761770014E+02 -0.32846428064E+03  0.33530022755E+03  0.00000000000E+00 0.  1.
         14    1    3    3    0    0 -0.31758315341E+02 -0.80647748542E+01 -0.63161005492E+03  0.63245940001E+03  0.00000000000E+00 0. -1.
         11    1    5    5    0    0 -0.11952497553E+02  0.22129787200E+02  0.15019282920E+03  0.15228419360E+03  0.00000000000E+00 0. -1.
        -12    1    5    5    0    0 -0.39562439175E+02 -0.38405212282E+02  0.12591423462E+04  0.12603489973E+04  0.00000000000E+00 0.  1.
          5    1    4    4  501    0 -0.48732163279E+01 -0.30246743200E+01 -0.86582248849E+01  0.11195273569E+02  0.41800000000E+01 0. -1.
         -5    1    4    4    0  501  0.12441712329E+03  0.84126644269E+02  0.33154674427E+03  0.36400223746E+03  0.41800000000E+01 0. -1.
</event>
<event>
11    1  0.7105277E-009  0.4615340E+03  0.7561462E-02  0.9483836E-01
         22   -1    0    0    0    0  0.00000000000E+00  0.00000000000E+00  0.35895533616E+03  0.35895533616E+03  0.00000000000E+00 0.  1.
         22   -1    0    0    0    0 -0.00000000000E+00 -0.00000000000E+00 -0.17243063637E+04  0.17243063637E+04  0.00000000000E+00 0. -1.
        -24    2    1    2    0    0  0.18902752921E+02  0.73978742986E+02 -0.70477229430E+03  0.71331796113E+03  0.79299170086E+02 0.  0.
         25    2    1    2    0    0  0.42369938002E+03 -0.12719475756E+03 -0.77604463031E+03  0.90199345765E+03  0.12508900204E+03 0.  0.
         24    2    1    2    0    0 -0.44260213294E+03  0.53216014573E+02  0.11546589703E+03  0.46795028112E+03  0.83165497217E+02 0.  0.
        -13    1    5    5    0    0 -0.26350840919E+03  0.62208352692E+02  0.97336614875E+02  0.28771683554E+03  0.00000000000E+00 0.  1.
         14    1    5    5    0    0 -0.17909372375E+03 -0.89923381194E+01  0.18129282157E+02  0.18023344558E+03  0.00000000000E+00 0. -1.
         11    1    3    3    0    0 -0.22314677146E+01  0.71487676949E+02 -0.65866272823E+03  0.66253457039E+03  0.00000000000E+00 0. -1.
        -12    1    3    3    0    0  0.21134220635E+02  0.24910660372E+01 -0.46109566074E+02  0.50783390744E+02  0.00000000000E+00 0.  1.
          5    1    4    4  501    0  0.22923249835E+03 -0.10103754876E+03 -0.32714405160E+03  0.41206410600E+03  0.41800000000E+01 0. -1.
         -5    1    4    4    0  501  0.19446688167E+03 -0.26157208799E+02 -0.44890057871E+03  0.48992935165E+03  0.41800000000E+01 0. -1.
</event>
<event>
11    1  0.7105277E-009  0.1348670E+03  0.7561462E-02  0.1113430E+00
         22   -1    0    0    0    0  0.00000000000E+00  0.00000000000E+00  0.72811829210E+03  0.72811829210E+03  0.00000000000E+00 0. -1.
         22   -1    0    0    0    0 -0.00000000000E+00 -0.00000000000E+00 -0.21702133952E+03  0.21702133952E+03  0.00000000000E+00 0. -1.
        -24    2    1    2    0    0  0.41518806180E+02 -0.40006963764E+02 -0.14175147448E+03  0.17234328998E+03  0.79273959588E+02 0.  0.
         25    2    1    2    0    0 -0.33106382752E+01  0.20391787893E+02  0.14059051877E+02  0.12756701049E+03  0.12509556302E+03 0.  0.
         24    2    1    2    0    0 -0.38208167905E+02  0.19615175871E+02  0.63878937517E+03  0.64522933116E+03  0.80152384429E+02 0.  0.
        -11    1    5    5    0    0 -0.32030471131E+02 -0.49440585553E+00  0.81889844104E+02  0.87932599674E+02  0.00000000000E+00 0.  1.
         12    1    5    5    0    0 -0.61776967735E+01  0.20109581726E+02  0.55689953107E+03  0.55729673148E+03  0.00000000000E+00 0. -1.
         11    1    3    3    0    0  0.32448541899E+02 -0.53207279663E+01 -0.13077881843E+03  0.13484923940E+03  0.00000000000E+00 0. -1.
        -12    1    3    3    0    0  0.90702642805E+01 -0.34686235797E+02 -0.10972656044E+02  0.37494050576E+02  0.00000000000E+00 0.  1.
          5    1    4    4  501    0 -0.24452134853E+02  0.63113247371E+02  0.33842694954E+02  0.75789110659E+02  0.41800000000E+01 0.  1.
         -5    1    4    4    0  501  0.21141496578E+02 -0.42721459478E+02 -0.19783643077E+02  0.51777899831E+02  0.41800000000E+01 0.  1.
</event>
<event>
11    1  0.7105277E-009  0.1943553E+03  0.7561462E-02  0.1058589E+00
         22   -1    0    0    0    0  0.00000000000E+00  0.00000000000E+00  0.14244359229E+04  0.14244359229E+04  0.00000000000E+00 0.  1.
         22   -1    0    0    0    0 -0.00000000000E+00 -0.00000000000E+00 -0.12588368517E+03  0.12588368517E+03  0.00000000000E+00 0.  1.
         24    2    1    2    0    0  0.12932994750E+03 -0.79528009839E+02 -0.50737638141E+01  0.17300801196E+03  0.82795467585E+02 0.  0.
         25    2    1    2    0    0 -0.11983276108E+03  0.71723256650E+02  0.21290822546E+03  0.28369334931E+03  0.12509151769E+03 0.  0.
        -24    2    1    2    0    0 -0.94971864228E+01  0.78047531895E+01  0.10907177760E+04  0.10936182468E+04  0.78641540911E+02 0.  0.
        -13    1    3    3    0    0  0.88931751888E+02 -0.53645289077E+02 -0.42439985372E+02  0.11219548071E+03  0.00000000000E+00 0.  1.
         14    1    3    3    0    0  0.40398195617E+02 -0.25882720762E+02  0.37366221558E+02  0.60812531247E+02  0.00000000000E+00 0. -1.
         13    1    5    5    0    0 -0.69258160250E+01  0.30588618936E+02  0.18715881810E+03  0.18976842132E+03  0.00000000000E+00 0. -1.
        -14    1    5    5    0    0 -0.25713703978E+01 -0.22783865747E+02  0.90355895794E+03  0.90384982545E+03  0.00000000000E+00 0.  1.
          5    1    4    4  501    0 -0.11671226434E+03  0.13399053289E+02  0.18410948024E+03  0.21843777235E+03  0.41800000000E+01 0. -1.
         -5    1    4    4    0  501 -0.31204967431E+01  0.58324203361E+02  0.28798745227E+02  0.65255576959E+02  0.41800000000E+01 0. -1.
</event>
<event>
11    1  0.7105277E-009  0.1581532E+03  0.7561462E-02  0.1088827E+00
         22   -1    0    0    0    0  0.00000000000E+00  0.00000000000E+00  0.84776124707E+03  0.84776124707E+03  0.00000000000E+00 0. -1.
         22   -1    0    0    0    0 -0.00000000000E+00 -0.00000000000E+00 -0.23136696695E+03  0.23136696695E+03  0.00000000000E+00 0.  1.
         24    2    1    2    0    0 -0.81272225179E+02 -0.37755347418E+02 -0.15514986496E+03  0.19719440593E+03  0.82362080389E+02 0.  0.
         25    2    1    2    0    0 -0.15047409629E+02  0.75337985264E+02  0.60724320151E+02  0.15885919161E+03  0.12508622282E+03 0.  0.
        -24    2    1    2    0    0  0.96319634808E+02 -0.37582637846E+02  0.71081982493E+03  0.72307461648E+03  0.82958729300E+02 0.  0.
        -11    1    3    3    0    0 -0.66224612742E+02  0.89869566150E+01 -0.11803268184E+03  0.13563988612E+03  0.00000000000E+00 0.  1.
         12    1    3    3    0    0 -0.15047612437E+02 -0.46742304033E+02 -0.37117183119E+02  0.61554519810E+02  0.00000000000E+00 0. -1.
         13    1    5    5    0    0  0.61484452375E+02 -0.63956941977E+02  0.49210076469E+03  0.50003398976E+03  0.00000000000E+00 0. -1.
        -14    1    5    5    0    0  0.34835182432E+02  0.26374304131E+02  0.21871906024E+03  0.22304062672E+03  0.00000000000E+00 0.  1.
          5    1    4    4  501    0 -0.38836942738E+02  0.87595348572E+01  0.76462001655E+02  0.86307286304E+02  0.41800000000E+01 0. -1.
         -5    1    4    4    0  501  0.23789533109E+02  0.66578450407E+02 -0.15737681504E+02  0.72551905304E+02  0.41800000000E+01 0. -1.
</event>
<event>
11    1  0.7105277E-009  0.1916193E+03  0.7561462E-02  0.1060613E+00
         22   -1    0    0    0    0  0.00000000000E+00  0.00000000000E+00  0.71440787853E+03  0.71440787853E+03  0.00000000000E+00 0.  1.
         22   -1    0    0    0    0 -0.00000000000E+00 -0.00000000000E+00 -0.64392720307E+03  0.64392720307E+03  0.00000000000E+00 0.  1.
         24    2    1    2    0    0 -0.14522812126E+02 -0.35849437554E+02 -0.38050453184E+03  0.39082746209E+03  0.80413382751E+02 0.  0.
         25    2    1    2    0    0  0.24191113069E+02  0.17921179050E+03 -0.19920446797E+03  0.29670249857E+03  0.12509147369E+03 0.  0.
        -24    2    1    2    0    0 -0.96683009438E+01 -0.14336235295E+03  0.65018967527E+03  0.67080512095E+03  0.81158216964E+02 0.  0.
        -11    1    3    3    0    0  0.17038490339E+02 -0.50144507489E+02 -0.26491226797E+03  0.27015419949E+03  0.00000000000E+00 0.  1.
         12    1    3    3    0    0 -0.31561302465E+02  0.14295069935E+02 -0.11559226387E+03  0.12067326259E+03  0.00000000000E+00 0. -1.
         13    1    5    5    0    0  0.22644213330E+02 -0.27765822941E+02  0.73632842090E+02  0.81887097611E+02  0.00000000000E+00 0. -1.
        -14    1    5    5    0    0 -0.32312514274E+02 -0.11559653000E+03  0.57655683318E+03  0.58891802334E+03  0.00000000000E+00 0.  1.
          5    1    4    4  501    0  0.18044305590E+02  0.75169334435E+02 -0.66397343072E+01  0.77701893641E+02  0.41800000000E+01 0.  1.
         -5    1    4    4    0  501  0.61468074797E+01  0.10404245606E+03 -0.19256473367E+03  0.21900060492E+03  0.41800000000E+01 0.  1.
</event>
<event>
11    1  0.8573234E-009  0.2186975E+03  0.7561462E-02  0.1042036E+00
         22   -1    0    0    0    0  0.00000000000E+00  0.00000000000E+00  0.24667580554E+04  0.24667580554E+04  0.00000000000E+00 0.  1.
         22   -1    0    0    0    0 -0.00000000000E+00 -0.00000000000E+00 -0.17822200982E+04  0.17822200982E+04  0.00000000000E+00 0.  1.
        -24    2    1    2    0    0 -0.19549890815E+02  0.25147824905E+02 -0.12830064520E+04  0.12859207858E+04  0.80449364784E+02 0.  0.
         25    2    1    2    0    0 -0.69257749246E+02 -0.18089998685E+03 -0.46679505778E+03  0.52064065009E+03  0.12509044522E+03 0.  0.
         24    2    1    2    0    0  0.88807640061E+02  0.15575216195E+03  0.24343394670E+04  0.24424167176E+04  0.85119029756E+02 0.  0.
        -13    1    5    5    0    0  0.64496553242E+02  0.15239328971E+03  0.17964938964E+04  0.18040991768E+04  0.00000000000E+00 0.  1.
         14    1    5    5    0    0  0.24311086819E+02  0.33588722423E+01  0.63784557056E+03  0.63831754076E+03  0.00000000000E+00 0. -1.
         13    1    3    3    0    0 -0.20663399219E+01  0.14803705447E+02 -0.39270503855E+02  0.42018947258E+02  0.00000000000E+00 0. -1.
        -14    1    3    3    0    0 -0.17483550893E+02  0.10344119457E+02 -0.12437359481E+04  0.12439018386E+04  0.00000000000E+00 0.  1.
          5    1    4    4  501    0 -0.35010994138E+02 -0.18376709739E+03 -0.32827436360E+03  0.37785929391E+03  0.41800000000E+01 0. -1.
         -5    1    4    4    0  501 -0.34246755108E+02  0.28671105373E+01 -0.13852069418E+03  0.14278135618E+03  0.41800000000E+01 0. -1.
</event>
<event>
11    1  0.7105277E-009  0.1949270E+03  0.7561462E-02  0.1058170E+00
         22   -1    0    0    0    0  0.00000000000E+00  0.00000000000E+00  0.11922426561E+04  0.11922426561E+04  0.00000000000E+00 0. -1.
         22   -1    0    0    0    0 -0.00000000000E+00 -0.00000000000E+00 -0.51070244094E+03  0.51070244094E+03  0.00000000000E+00 0. -1.
        -24    2    1    2    0    0  0.14431029560E+03 -0.43123052466E+02 -0.47926699600E+03  0.50832490614E+03  0.77539007493E+02 0.  0.
         25    2    1    2    0    0 -0.68518590719E+02  0.71794854716E+02  0.81462069794E+03  0.83012199212E+03  0.12508533825E+03 0.  0.
         24    2    1    2    0    0 -0.75791704878E+02 -0.28671802250E+02  0.34618651317E+03  0.36449819874E+03  0.80295580269E+02 0.  0.
        -13    1    5    5    0    0 -0.20679751065E+02  0.27705027777E+02  0.12445046489E+03  0.12916322572E+03  0.00000000000E+00 0.  1.
         14    1    5    5    0    0 -0.55111953813E+02 -0.56376830027E+02  0.22173604828E+03  0.23533497302E+03  0.00000000000E+00 0. -1.
         11    1    3    3    0    0  0.15127033218E+03 -0.48109540444E+02 -0.46790907918E+03  0.49410135363E+03  0.00000000000E+00 0. -1.
        -12    1    3    3    0    0 -0.69600365868E+01  0.49864879779E+01 -0.11357916823E+02  0.14223552517E+02  0.00000000000E+00 0.  1.
          5    1    4    4  501    0 -0.10210301775E+03  0.31264118228E+02  0.54163429108E+03  0.55207576382E+03  0.41800000000E+01 0.  1.
         -5    1    4    4    0  501  0.33584427036E+02  0.40530736488E+02  0.27298640686E+03  0.27804622830E+03  0.41800000000E+01 0.  1.
</event>
<event>
11    1  0.7105277E-009  0.1426962E+03  0.7561462E-02  0.1104584E+00
         22   -1    0    0    0    0  0.00000000000E+00  0.00000000000E+00  0.46463609110E+03  0.46463609110E+03  0.00000000000E+00 0. -1.
         22   -1    0    0    0    0 -0.00000000000E+00 -0.00000000000E+00 -0.67625163700E+03  0.67625163700E+03  0.00000000000E+00 0.  1.
         24    2    1    2    0    0  0.38967313906E+02 -0.31533743178E+02 -0.60493655300E+03  0.61237180402E+03  0.80858918449E+02 0.  0.
         25    2    1    2    0    0  0.33972067238E+02  0.34406066870E+02  0.15777355175E+02  0.13503496186E+03  0.12509051602E+03 0.  0.
        -24    2    1    2    0    0 -0.72939381145E+02 -0.28723236915E+01  0.37754365193E+03  0.39348096222E+03  0.83424546447E+02 0.  0.
        -11    1    3    3    0    0  0.49018469236E+02 -0.36324073095E+02 -0.59268403724E+03  0.59581592510E+03  0.00000000000E+00 0.  1.
         12    1    3    3    0    0 -0.10051155330E+02  0.47903299168E+01 -0.12252515762E+02  0.16555878916E+02  0.00000000000E+00 0. -1.
         13    1    5    5    0    0 -0.84763973826E+02 -0.10755790421E+02  0.36384187421E+03  0.37373991988E+03  0.00000000000E+00 0. -1.
        -14    1    5    5    0    0  0.11824592681E+02  0.78834667293E+01  0.13701777721E+02  0.19741042335E+02  0.00000000000E+00 0.  1.
          5    1    4    4  501    0  0.46951763931E+02  0.75590749483E+02  0.20449456919E+02  0.91400668662E+02  0.41800000000E+01 0. -1.
         -5    1    4    4    0  501 -0.12979696692E+02 -0.41184682614E+02 -0.46721017440E+01  0.43634293198E+02  0.41800000000E+01 0. -1.
</event>
<event>
11    1  0.7105277E-009  0.2302464E+03  0.7561462E-02  0.1034982E+00
         22   -1    0    0    0    0  0.00000000000E+00  0.00000000000E+00  0.35033455822E+03  0.35033455822E+03  0.00000000000E+00 0. -1.
         22   -1    0    0    0    0 -0.00000000000E+00 -0.00000000000E+00 -0.42923314198E+03  0.42923314198E+03  0.00000000000E+00 0. -1.
         24    2    1    2    0    0 -0.23758126247E+03  0.12183827041E+02 -0.23035852657E+03  0.34109542481E+03  0.81778579985E+02 0.  0.
         25    2    1    2    0    0  0.13594762318E+03 -0.23324401897E+02 -0.55007465274E+02  0.19416217480E+03  0.12508934772E+03 0.  0.
        -24    2    1    2    0    0  0.10163363929E+03  0.11140574856E+02  0.20646740808E+03  0.24431010059E+03  0.81271923848E+02 0.  0.
        -11    1    3    3    0    0 -0.36188391338E+02 -0.28147345791E+02 -0.48865157397E+02  0.67005047199E+02  0.00000000000E+00 0.  1.
         12    1    3    3    0    0 -0.20139287113E+03  0.40331172832E+02 -0.18149336918E+03  0.27409037761E+03  0.00000000000E+00 0. -1.
         13    1    5    5    0    0  0.76125634840E+02  0.81389327484E+01  0.20471941732E+03  0.21856668166E+03  0.00000000000E+00 0. -1.
        -14    1    5    5    0    0  0.25508004451E+02  0.30016421078E+01  0.17479907672E+01  0.25743418929E+02  0.00000000000E+00 0.  1.
          5    1    4    4  501    0  0.26297422654E+02  0.12968887839E+02 -0.71522141809E+02  0.77412115712E+02  0.41800000000E+01 0. -1.
         -5    1    4    4    0  501  0.10965020053E+03 -0.36293289737E+02  0.16514676535E+02  0.11675005909E+03  0.41800000000E+01 0. -1.
</event>
<event>
11    1  0.7105277E-009  0.1397747E+03  0.7561462E-02  0.1107810E+00
         22   -1    0    0    0    0  0.00000000000E+00  0.00000000000E+00  0.15043845496E+04  0.15043845496E+04  0.00000000000E+00 0.  1.
         22   -1    0    0    0    0 -0.00000000000E+00 -0.00000000000E+00 -0.35838248494E+03  0.35838248494E+03  0.00000000000E+00 0. -1.
        -24    2    1    2    0    0 -0.59546879140E+02  0.14190560401E+02 -0.31425610451E+03  0.33084669465E+03  0.83399240521E+02 0.  0.
         25    2    1    2    0    0  0.78256099589E+02 -0.43072704964E+02  0.13703096535E+03  0.20592075764E+03  0.12508636187E+03 0.  0.
         24    2    1    2    0    0 -0.18709220449E+02  0.28882144563E+02  0.13232272038E+04  0.13259995822E+04  0.78488508647E+02 0.  0.
        -11    1    5    5    0    0  0.24202064770E+02  0.31654195135E+02  0.80763040897E+03  0.80861276610E+03  0.00000000000E+00 0.  1.
         12    1    5    5    0    0 -0.42911285218E+02 -0.27720505713E+01  0.51559679482E+03  0.51738681612E+03  0.00000000000E+00 0. -1.
         11    1    3    3    0    0 -0.67195608253E+02 -0.13755829336E+02 -0.26469836345E+03  0.27344048022E+03  0.00000000000E+00 0. -1.
        -12    1    3    3    0    0  0.76487291129E+01  0.27946389737E+02 -0.49557741059E+02  0.57406214430E+02  0.00000000000E+00 0.  1.
          5    1    4    4  501    0  0.41895318071E+02 -0.86719397539E+02  0.92726053150E+02  0.13375748547E+03  0.41800000000E+01 0.  1.
         -5    1    4    4    0  501  0.36360781518E+02  0.43646692575E+02  0.44304912196E+02  0.72163272168E+02  0.41800000000E+01 0.  1.
</event>
<event>
11    1  0.7105277E-009  0.1333937E+03  0.7561462E-02  0.1115168E+00
         22   -1    0    0    0    0  0.00000000000E+00  0.00000000000E+00  0.10132574455E+04  0.10132574455E+04  0.00000000000E+00 0. -1.
         22   -1    0    0    0    0 -0.00000000000E+00 -0.00000000000E+00 -0.16645613177E+04  0.16645613177E+04  0.00000000000E+00 0.  1.
         24    2    1    2    0    0  0.46783677478E+02 -0.99842999559E+01 -0.14667456614E+04  0.14698332671E+04  0.82332248146E+02 0.  0.
         25    2    1    2    0    0 -0.28059696507E+02 -0.96647512850E+01 -0.17321218065E+03  0.21570939473E+03  0.12508928598E+03 0.  0.
        -24    2    1    2    0    0 -0.18723980971E+02  0.19649051241E+02  0.98865396983E+03  0.99227610148E+03  0.80240369200E+02 0.  0.
        -11    1    3    3    0    0 -0.22146223704E+01  0.24133367054E+01 -0.10539281724E+04  0.10539332623E+04  0.00000000000E+00 0.  1.
         12    1    3    3    0    0  0.48998299848E+02 -0.12397636661E+02 -0.41281748899E+03  0.41590000481E+03  0.00000000000E+00 0. -1.
         11    1    5    5    0    0 -0.43060366235E+02  0.32373764934E+02  0.77399211484E+03  0.77586471091E+03  0.00000000000E+00 0. -1.
        -12    1    5    5    0    0  0.24336385264E+02 -0.12724713693E+02  0.21466185498E+03  0.21641139058E+03  0.00000000000E+00 0.  1.
          5    1    4    4  501    0  0.16486567862E+02  0.30574257193E+02 -0.29318592709E+01  0.35109262617E+02  0.41800000000E+01 0.  1.
         -5    1    4    4    0  501 -0.44546264369E+02 -0.40239008478E+02 -0.17028032138E+03  0.18060013212E+03  0.41800000000E+01 0.  1.
</event>
<event>
11    1  0.7105277E-009  0.1683158E+03  0.7561462E-02  0.1079507E+00
         22   -1    0    0    0    0  0.00000000000E+00  0.00000000000E+00  0.23511038458E+04  0.23511038458E+04  0.00000000000E+00 0.  1.
         22   -1    0    0    0    0 -0.00000000000E+00 -0.00000000000E+00 -0.58750670008E+02  0.58750670008E+02  0.00000000000E+00 0. -1.
         24    2    1    2    0    0  0.63887654915E+02  0.26260965761E+02  0.14615867861E+02  0.10719841596E+03  0.80663535858E+02 0.  0.
         25    2    1    2    0    0 -0.13846296461E+03 -0.87027144924E+02  0.11198499899E+04  0.11386206560E+04  0.12508909619E+03 0.  0.
        -24    2    1    2    0    0  0.74575309698E+02  0.60766179162E+02  0.11578873181E+04  0.11640354438E+04  0.70862315891E+02 0.  0.
        -11    1    3    3    0    0 -0.81950956328E+01  0.50958597582E+00  0.28276494749E+02  0.29444514355E+02  0.00000000000E+00 0.  1.
         12    1    3    3    0    0  0.72082750548E+02  0.25751379786E+02 -0.13660626888E+02  0.77753901602E+02  0.00000000000E+00 0. -1.
         13    1    5    5    0    0  0.17971521146E+02 -0.10563257746E+02  0.95288931651E+02  0.97542495774E+02  0.00000000000E+00 0. -1.
        -14    1    5    5    0    0  0.56603788552E+02  0.71329436908E+02  0.10625983864E+04  0.10664929481E+04  0.00000000000E+00 0.  1.
          5    1    4    4  501    0  0.16549954078E+02 -0.12903097405E+02  0.41830261219E+02  0.46985466436E+02  0.41800000000E+01 0.  1.
         -5    1    4    4    0  501 -0.15501291869E+03 -0.74124047518E+02  0.10780197286E+04  0.10916351896E+04  0.41800000000E+01 0.  1.
</event>
<event>
11    1  0.7105277E-009  0.1540809E+03  0.7561462E-02  0.1092780E+00
         22   -1    0    0    0    0  0.00000000000E+00  0.00000000000E+00  0.14985043556E+03  0.14985043556E+03  0.00000000000E+00 0.  1.
         22   -1    0    0    0    0 -0.00000000000E+00 -0.00000000000E+00 -0.66097852383E+03  0.66097852383E+03  0.00000000000E+00 0.  1.
        -24    2    1    2    0    0 -0.23322581697E+02  0.39452736663E+02 -0.51201076127E+03  0.52033944484E+03  0.80608045250E+02 0.  0.
         25    2    1    2    0    0  0.10634012706E+03 -0.24095177504E+02 -0.34857247056E+02  0.16956616891E+03  0.12509539465E+03 0.  0.
         24    2    1    2    0    0 -0.83017545363E+02 -0.15357559158E+02  0.35739920053E+02  0.12092334563E+03  0.78850150109E+02 0.  0.
        -13    1    5    5    0    0 -0.71256722232E+02  0.79532118720E+01  0.53401959999E+02  0.89401025576E+02  0.00000000000E+00 0.  1.
         14    1    5    5    0    0 -0.11760823131E+02 -0.23310771030E+02 -0.17662039945E+02  0.31522320057E+02  0.00000000000E+00 0. -1.
         13    1    3    3    0    0  0.77240701925E+01 -0.15907529813E+02 -0.35926394952E+02  0.40042684967E+02  0.00000000000E+00 0. -1.
        -14    1    3    3    0    0 -0.31046651889E+02  0.55360266476E+02 -0.47608436631E+03  0.48029675988E+03  0.00000000000E+00 0.  1.
          5    1    4    4  501    0  0.68289721050E+02 -0.74390794086E+02 -0.96836430734E+01  0.10153187474E+03  0.41800000000E+01 0. -1.
         -5    1    4    4    0  501  0.38050406010E+02  0.50295616582E+02 -0.25173603983E+02  0.68034294164E+02  0.41800000000E+01 0. -1.
</event>
<event>
11    1  0.7105277E-009  0.1393863E+03  0.7561462E-02  0.1108246E+00
         22   -1    0    0    0    0  0.00000000000E+00  0.00000000000E+00  0.12283484580E+04  0.12283484580E+04  0.00000000000E+00 0.  1.
         22   -1    0    0    0    0 -0.00000000000E+00 -0.00000000000E+00 -0.40153504020E+03  0.40153504020E+03  0.00000000000E+00 0.  1.
         24    2    1    2    0    0  0.56439067055E+02  0.27277993716E+02 -0.37427863702E+03  0.38662750239E+03  0.73938286711E+02 0.  0.
         25    2    1    2    0    0 -0.23811304604E+02  0.53343600381E+01  0.19587473713E+03  0.23369298302E+03  0.12510021600E+03 0.  0.
        -24    2    1    2    0    0 -0.32627762452E+02 -0.32612353754E+02  0.10052173177E+04  0.10095630128E+04  0.81409363899E+02 0.  0.
        -13    1    3    3    0    0  0.24580018924E+02 -0.14605936953E+02 -0.25050568663E+03  0.25213212758E+03  0.00000000000E+00 0.  1.
         14    1    3    3    0    0  0.31859048131E+02  0.41883930670E+02 -0.12377295039E+03  0.13449537481E+03  0.00000000000E+00 0. -1.
         11    1    5    5    0    0 -0.32614546541E+01  0.20718234661E+02  0.93874232443E+02  0.96188636806E+02  0.00000000000E+00 0. -1.
        -12    1    5    5    0    0 -0.29366307797E+02 -0.53330588416E+02  0.91134308525E+03  0.91337437599E+03  0.00000000000E+00 0.  1.
          5    1    4    4  501    0  0.51621703421E+02  0.25730590937E+01  0.80614514988E+02  0.95851934378E+02  0.41800000000E+01 0. -1.
         -5    1    4    4    0  501 -0.75433008025E+02  0.27613009444E+01  0.11526022214E+03  0.13784104864E+03  0.41800000000E+01 0. -1.
</event>
<event>
11    1  0.7105277E-009  0.1265708E+03  0.7561462E-02  0.1123556E+00
         22   -1    0    0    0    0  0.00000000000E+00  0.00000000000E+00  0.38983813070E+03  0.38983813070E+03  0.00000000000E+00 0. -1.
         22   -1    0    0    0    0 -0.00000000000E+00 -0.00000000000E+00 -0.21031639542E+03  0.21031639542E+03  0.00000000000E+00 0. -1.
        -24    2    1    2    0    0 -0.13353194426E+02  0.13499081570E+02 -0.16412859509E+03  0.18473459580E+03  0.82632573202E+02 0.  0.
         25    2    1    2    0    0  0.27544476000E+01 -0.28523777064E+02  0.11396115938E+03  0.17163388878E+03  0.12509937286E+03 0.  0.
         24    2    1    2    0    0  0.10598746826E+02  0.15024695494E+02  0.22968917099E+03  0.24378604154E+03  0.79601783100E+02 0.  0.
        -11    1    5    5    0    0 -0.22135015067E+02  0.36398658854E+02  0.11873895426E+03  0.12614975433E+03  0.00000000000E+00 0.  1.
         12    1    5    5    0    0  0.32733761893E+02 -0.21373963360E+02  0.11095021673E+03  0.11763628722E+03  0.00000000000E+00 0. -1.
         13    1    3    3    0    0 -0.28613464458E+02  0.85668959030E+01 -0.16592944933E+03  0.16859627578E+03  0.00000000000E+00 0. -1.
        -14    1    3    3    0    0  0.15260270032E+02  0.49321856670E+01  0.18008542387E+01  0.16138320015E+02  0.00000000000E+00 0.  1.
          5    1    4    4  501    0 -0.11701432090E+02  0.12871279392E+02 -0.22208401725E+02  0.28518044346E+02  0.41800000000E+01 0.  1.
         -5    1    4    4    0  501  0.14455879690E+02 -0.41395056456E+02  0.13616956111E+03  0.14311584444E+03  0.41800000000E+01 0.  1.
</event>
<event>
11    1  0.7105277E-009  0.1365602E+03  0.7561462E-02  0.1111461E+00
         22   -1    0    0    0    0  0.00000000000E+00  0.00000000000E+00  0.76429617630E+03  0.76429617630E+03  0.00000000000E+00 0.  1.
         22   -1    0    0    0    0 -0.00000000000E+00 -0.00000000000E+00 -0.26930295336E+03  0.26930295336E+03  0.00000000000E+00 0.  1.
         24    2    1    2    0    0 -0.21982120122E+02  0.16656729393E+00 -0.22112394920E+03  0.23653063422E+03  0.81041339226E+02 0.  0.
         25    2    1    2    0    0  0.45484328172E+02 -0.48399011931E+02  0.10338106617E+03  0.17534669509E+03  0.12509008822E+03 0.  0.
        -24    2    1    2    0    0 -0.23502208049E+02  0.48232444637E+02  0.61273610598E+03  0.62172180035E+03  0.90629680336E+02 0.  0.
        -11    1    3    3    0    0 -0.29274632301E+02 -0.16467988214E+02 -0.21462910955E+03  0.21724146335E+03  0.00000000000E+00 0.  1.
         12    1    3    3    0    0  0.72925121787E+01  0.16634555508E+02 -0.64948396570E+01  0.19289170874E+02  0.00000000000E+00 0. -1.
         11    1    5    5    0    0  0.23614206083E+02  0.11811366126E+02  0.57164592351E+02  0.62967687883E+02  0.00000000000E+00 0. -1.
        -12    1    5    5    0    0 -0.47116414133E+02  0.36421078511E+02  0.55557151363E+03  0.55875411246E+03  0.00000000000E+00 0.  1.
          5    1    4    4  501    0  0.35394323492E+02  0.32362035989E+02  0.62335622796E+01  0.48542653486E+02  0.41800000000E+01 0.  1.
         -5    1    4    4    0  501  0.10090004680E+02 -0.80761047919E+02  0.97147503887E+02  0.12680404160E+03  0.41800000000E+01 0.  1.
</event>
<event>
11    1  0.7105277E-009  0.1377860E+03  0.7561462E-02  0.1110056E+00
         22   -1    0    0    0    0  0.00000000000E+00  0.00000000000E+00  0.52000775181E+03  0.52000775181E+03  0.00000000000E+00 0.  1.
         22   -1    0    0    0    0 -0.00000000000E+00 -0.00000000000E+00 -0.30405082633E+03  0.30405082633E+03  0.00000000000E+00 0. -1.
         24    2    1    2    0    0 -0.47638159165E+02  0.33588514345E+02 -0.25395446396E+03  0.27733539799E+03  0.94997214228E+02 0.  0.
         25    2    1    2    0    0  0.86695487110E+02  0.45618778426E+02  0.19646440989E+03  0.25267154798E+03  0.12508983323E+03 0.  0.
        -24    2    1    2    0    0 -0.39057327945E+02 -0.79207292771E+02  0.27344697955E+03  0.29405163217E+03  0.62400654314E+02 0.  0.
        -13    1    3    3    0    0  0.22020060299E+02  0.19542493075E+02 -0.28611420680E+02  0.41053690266E+02  0.00000000000E+00 0.  1.
         14    1    3    3    0    0 -0.69658219464E+02  0.14046021270E+02 -0.22534304328E+03  0.23628170773E+03  0.00000000000E+00 0. -1.
         13    1    5    5    0    0  0.37224929799E+01  0.89782904673E+01  0.18196316281E+02  0.20629410556E+02  0.00000000000E+00 0. -1.
        -14    1    5    5    0    0 -0.42779820925E+02 -0.88185583238E+02  0.25525066327E+03  0.27342222161E+03  0.00000000000E+00 0.  1.
          5    1    4    4  501    0  0.40513970229E+02  0.77058651605E+02  0.16927887110E+03  0.19040017377E+03  0.41800000000E+01 0.  1.
         -5    1    4    4    0  501  0.46181516880E+02 -0.31439873179E+02  0.27185538785E+02  0.62271374209E+02  0.41800000000E+01 0.  1.
</event>
<event>
11    1  0.7105277E-009  0.2919491E+03  0.7561462E-02  0.1003657E+00
         22   -1    0    0    0    0  0.00000000000E+00  0.00000000000E+00  0.64433029046E+03  0.64433029046E+03  0.00000000000E+00 0.  1.
         22   -1    0    0    0    0 -0.00000000000E+00 -0.00000000000E+00 -0.72943542000E+03  0.72943542000E+03  0.00000000000E+00 0. -1.
        -24    2    1    2    0    0 -0.38548498570E+02 -0.52700649659E+02 -0.40384026831E+03  0.41741081838E+03  0.82954709150E+02 0.  0.
         25    2    1    2    0    0 -0.11222808983E+03  0.26632863904E+03 -0.19748881891E+03  0.37171757423E+03  0.12508410481E+03 0.  0.
         24    2    1    2    0    0  0.15077658840E+03 -0.21362798938E+03  0.51622395769E+03  0.58463731785E+03  0.83325395121E+02 0.  0.
        -11    1    5    5    0    0  0.83895846880E+02 -0.14795897617E+03  0.24982345978E+03  0.30222861018E+03  0.00000000000E+00 0.  1.
         12    1    5    5    0    0  0.66880741524E+02 -0.65669013210E+02  0.26640049791E+03  0.28240870767E+03  0.00000000000E+00 0. -1.
         13    1    3    3    0    0  0.12165746206E+02 -0.44035018858E+02 -0.27340053292E+03  0.27719116087E+03  0.00000000000E+00 0. -1.
        -14    1    3    3    0    0 -0.50714244775E+02 -0.86656308008E+01 -0.13043973539E+03  0.14021965750E+03  0.00000000000E+00 0.  1.
          5    1    4    4  501    0  0.18852185823E+02  0.10345477190E+03 -0.76726070992E+02  0.13024076593E+03  0.41800000000E+01 0. -1.
         -5    1    4    4    0  501 -0.13108027566E+03  0.16287386714E+03 -0.12076274792E+03  0.24147680830E+03  0.41800000000E+01 0. -1.
</event>
<event>
11    1  0.7105277E-009  0.1342030E+03  0.7561462E-02  0.1114210E+00
         22   -1    0    0    0    0  0.00000000000E+00  0.00000000000E+00  0.70311944643E+03  0.70311944643E+03  0.00000000000E+00 0. -1.
         22   -1    0    0    0    0 -0.00000000000E+00 -0.00000000000E+00 -0.21828572274E+03  0.21828572274E+03  0.00000000000E+00 0.  1.
         24    2    1    2    0    0 -0.44172534711E+02 -0.23076482842E+02 -0.64888427458E+02  0.11646625877E+03  0.82886335005E+02 0.  0.
         25    2    1    2    0    0  0.23423014607E+02  0.47377734355E+02 -0.87810111089E+02  0.16171140234E+03  0.12508666880E+03 0.  0.
        -24    2    1    2    0    0  0.20749520104E+02 -0.24301251513E+02  0.63753226223E+03  0.64322750806E+03  0.79203209068E+02 0.  0.
        -13    1    3    3    0    0 -0.40294959585E+02 -0.48369752243E+02 -0.22311682968E+02  0.66791675356E+02  0.00000000000E+00 0.  1.
         14    1    3    3    0    0 -0.38775751255E+01  0.25293269401E+02 -0.42576744490E+02  0.49674583413E+02  0.00000000000E+00 0. -1.
         13    1    5    5    0    0  0.14637990317E+02 -0.52285725836E+02  0.48492994766E+03  0.48796016438E+03  0.00000000000E+00 0. -1.
        -14    1    5    5    0    0  0.61115297860E+01  0.27984474323E+02  0.15260231457E+03  0.15526734368E+03  0.00000000000E+00 0.  1.
          5    1    4    4  501    0  0.33090337512E+02 -0.19441364309E+01  0.22594536327E+02  0.40332810154E+02  0.41800000000E+01 0. -1.
         -5    1    4    4    0  501 -0.96673229050E+01  0.49321870786E+02 -0.11040464742E+03  0.12137859219E+03  0.41800000000E+01 0. -1.
</event>
<event>
11    1  0.7105277E-009  0.1259222E+03  0.7561462E-02  0.1124383E+00
         22   -1    0    0    0    0  0.00000000000E+00  0.00000000000E+00  0.16151480271E+03  0.16151480271E+03  0.00000000000E+00 0. -1.
         22   -1    0    0    0    0 -0.00000000000E+00 -0.00000000000E+00 -0.38899779654E+03  0.38899779654E+03  0.00000000000E+00 0. -1.
        -24    2    1    2    0    0  0.67260071515E+01  0.13793035482E+02 -0.22941651656E+03  0.24341786975E+03  0.79905157810E+02 0.  0.
         25    2    1    2    0    0  0.52268527834E+02 -0.15027656275E+02 -0.10561647494E+03  0.17251298236E+03  0.12509220539E+03 0.  0.
         24    2    1    2    0    0 -0.58994534986E+02  0.12346207932E+01  0.10754999765E+03  0.13458174714E+03  0.55347675851E+02 0.  0.
        -13    1    5    5    0    0 -0.30248513235E+02  0.22894992629E+02  0.27632719086E+02  0.46933148248E+02  0.00000000000E+00 0.  1.
         14    1    5    5    0    0 -0.28746021751E+02 -0.21660371836E+02  0.79917278568E+02  0.87648598895E+02  0.00000000000E+00 0. -1.
         13    1    3    3    0    0  0.17516454969E+01  0.33155522745E+02 -0.21775975163E+03  0.22027634094E+03  0.00000000000E+00 0. -1.
        -14    1    3    3    0    0  0.49743616547E+01 -0.19362487263E+02 -0.11656764928E+02  0.23141528806E+02  0.00000000000E+00 0.  1.
          5    1    4    4  501    0  0.44803893805E+02 -0.65513739806E+02 -0.39118253562E+02  0.88584136081E+02  0.41800000000E+01 0. -1.
         -5    1    4    4    0  501  0.74646340292E+01  0.50486083531E+02 -0.66498221373E+02  0.83928846277E+02  0.41800000000E+01 0. -1.
</event>
<event>
11    1  0.7105277E-009  0.1767933E+03  0.7561462E-02  0.1072267E+00
         22   -1    0    0    0    0  0.00000000000E+00  0.00000000000E+00  0.88139713935E+02  0.88139713935E+02  0.00000000000E+00 0. -1.
         22   -1    0    0    0    0 -0.00000000000E+00 -0.00000000000E+00 -0.67370172022E+03  0.67370172022E+03  0.00000000000E+00 0. -1.
         24    2    1    2    0    0 -0.11379149884E+03  0.46697038756E+02 -0.37307992464E+03  0.40017795688E+03  0.76319383991E+02 0.  0.
         25    2    1    2    0    0  0.12351944685E+03 -0.40191560207E+02 -0.21426162983E+03  0.28004805573E+03  0.12508577953E+03 0.  0.
        -24    2    1    2    0    0 -0.97279480085E+01 -0.65054785482E+01  0.17795481796E+01  0.81615421538E+02  0.80752436605E+02 0.  0.
        -13    1    3    3    0    0 -0.86548724076E+02  0.10435051550E+02 -0.15884003190E+03  0.18118975598E+03  0.00000000000E+00 0.  1.
         14    1    3    3    0    0 -0.27242774761E+02  0.36261987205E+02 -0.21423989274E+03  0.21898820090E+03  0.00000000000E+00 0. -1.
         13    1    5    5    0    0 -0.48794944811E+01  0.19000801535E+02  0.34595769296E+02  0.39770682399E+02  0.00000000000E+00 0. -1.
        -14    1    5    5    0    0 -0.48484535273E+01 -0.25506280083E+02 -0.32816221116E+02  0.41844739139E+02  0.00000000000E+00 0.  1.
          5    1    4    4  501    0  0.75055279502E+02 -0.24524060776E+02 -0.23396635069E+02  0.82459683910E+02  0.41800000000E+01 0. -1.
         -5    1    4    4    0  501  0.48464167344E+02 -0.15667499432E+02 -0.19086499476E+03  0.19758837182E+03  0.41800000000E+01 0. -1.
</event>
<event>
11    1  0.7105277E-009  0.1402492E+03  0.7561462E-02  0.1107280E+00
         22   -1    0    0    0    0  0.00000000000E+00  0.00000000000E+00  0.10904670618E+03  0.10904670618E+03  0.00000000000E+00 0. -1.
         22   -1    0    0    0    0 -0.00000000000E+00 -0.00000000000E+00 -0.22756350495E+04  0.22756350495E+04  0.00000000000E+00 0. -1.
        -24    2    1    2    0    0  0.57708478344E+01 -0.66304314088E+02 -0.19535446917E+04  0.19563489786E+04  0.80838720625E+02 0.  0.
         25    2    1    2    0    0 -0.15497143894E+02  0.30651597029E+02 -0.28523505578E+03  0.31334710147E+03  0.12509071543E+03 0.  0.
         24    2    1    2    0    0  0.97262960596E+01  0.35652717059E+02  0.72191404167E+02  0.11498567562E+03  0.81513125892E+02 0.  0.
        -13    1    5    5    0    0 -0.13904340579E+01  0.15314343595E+01 -0.17895195316E+02  0.18014344658E+02  0.00000000000E+00 0.  1.
         14    1    5    5    0    0  0.11116730118E+02  0.34121282700E+02  0.90086599482E+02  0.96971330959E+02  0.00000000000E+00 0. -1.
         13    1    3    3    0    0 -0.10829946710E+02 -0.80869031583E+02 -0.14134313589E+04  0.14157843389E+04  0.00000000000E+00 0. -1.
        -14    1    3    3    0    0  0.16600794545E+02  0.14564717495E+02 -0.54011333284E+03  0.54056463970E+03  0.00000000000E+00 0.  1.
          5    1    4    4  501    0 -0.39053230382E+02 -0.23307303687E+02 -0.38755321025E+02  0.59898518480E+02  0.41800000000E+01 0.  1.
         -5    1    4    4    0  501  0.23556086488E+02  0.53958900716E+02 -0.24647973475E+03  0.25344858299E+03  0.41800000000E+01 0.  1.
</event>
<event>
11    1  0.7105277E-009  0.1267324E+03  0.7561462E-02  0.1123350E+00
         22   -1    0    0    0    0  0.00000000000E+00  0.00000000000E+00  0.11751879355E+04  0.11751879355E+04  0.00000000000E+00 0.  1.
         22   -1    0    0    0    0 -0.00000000000E+00 -0.00000000000E+00 -0.24524061725E+02  0.24524061725E+02  0.00000000000E+00 0.  1.
        -24    2    1    2    0    0  0.26909466920E+02  0.18107923222E+02  0.18215242913E+03  0.20314558374E+03  0.83884470918E+02 0.  0.
         25    2    1    2    0    0  0.78456619132E+01 -0.63333845408E+01  0.35028091257E+03  0.37207998862E+03  0.12508051026E+03 0.  0.
         24    2    1    2    0    0 -0.34755128833E+02 -0.11774538681E+02  0.61823053207E+03  0.62448642487E+03  0.80173220711E+02 0.  0.
        -13    1    5    5    0    0 -0.30290735034E+02 -0.23658794205E+02  0.60474611233E+03  0.60596627592E+03  0.00000000000E+00 0.  1.
         14    1    5    5    0    0 -0.44643937994E+01  0.11884255524E+02  0.13484419737E+02  0.18520148946E+02  0.00000000000E+00 0. -1.
         13    1    3    3    0    0 -0.15592722620E+02  0.31880353176E+01  0.14173605406E+03  0.14262680529E+03  0.00000000000E+00 0. -1.
        -14    1    3    3    0    0  0.42502189540E+02  0.14919887904E+02  0.40416375075E+02  0.60518778449E+02  0.00000000000E+00 0.  1.
          5    1    4    4  501    0  0.63039077935E+02  0.16453497716E+02  0.19642612774E+03  0.20699115680E+03  0.41800000000E+01 0. -1.
         -5    1    4    4    0  501 -0.55193416022E+02 -0.22786882257E+02  0.15385478484E+03  0.16508883182E+03  0.41800000000E+01 0. -1.
</event>
<event>
11    1  0.7105277E-009  0.1445741E+03  0.7561462E-02  0.1102556E+00
         22   -1    0    0    0    0  0.00000000000E+00  0.00000000000E+00  0.18298421173E+04  0.18298421173E+04  0.00000000000E+00 0. -1.
         22   -1    0    0    0    0 -0.00000000000E+00 -0.00000000000E+00 -0.81418218487E+03  0.81418218487E+03  0.00000000000E+00 0.  1.
        -24    2    1    2    0    0 -0.67190176135E+02 -0.29859539919E+02 -0.64476635556E+03  0.65346735316E+03  0.76745139907E+02 0.  0.
         25    2    1    2    0    0  0.79538904282E+02 -0.27130456867E+02 -0.12906743725E+03  0.19841525561E+03  0.12509081227E+03 0.  0.
         24    2    1    2    0    0 -0.12348728147E+02  0.56989996787E+02  0.17894937253E+04  0.17921416934E+04  0.77998113577E+02 0.  0.
        -13    1    5    5    0    0  0.11722902713E+02  0.14538099343E+02  0.88547953619E+02  0.90495982621E+02  0.00000000000E+00 0.  1.
         14    1    5    5    0    0 -0.24071630859E+02  0.42451897444E+02  0.17009457717E+04  0.17016457108E+04  0.00000000000E+00 0. -1.
         11    1    3    3    0    0 -0.41274846823E+02  0.13962061807E+01 -0.11577943987E+03  0.12292453404E+03  0.00000000000E+00 0. -1.
        -12    1    3    3    0    0 -0.25915329312E+02 -0.31255746100E+02 -0.52898691568E+03  0.53054281912E+03  0.00000000000E+00 0.  1.
          5    1    4    4  501    0  0.34519882610E+02 -0.30165389749E+02  0.14183023600E+02  0.48168491699E+02  0.41800000000E+01 0.  1.
         -5    1    4    4    0  501  0.45019021672E+02  0.30349328819E+01 -0.14325046085E+03  0.15024676391E+03  0.41800000000E+01 0.  1.
</event>
<event>
11    1  0.7105277E-009  0.1719158E+03  0.7561462E-02  0.1076376E+00
         22   -1    0    0    0    0  0.00000000000E+00  0.00000000000E+00  0.43925436102E+03  0.43925436102E+03  0.00000000000E+00 0.  1.
         22   -1    0    0    0    0 -0.00000000000E+00 -0.00000000000E+00 -0.26767271848E+03  0.26767271848E+03  0.00000000000E+00 0. -1.
         24    2    1    2    0    0  0.37955182272E+02  0.18085952892E+01 -0.19762416561E+03  0.21692138001E+03  0.80967323011E+02 0.  0.
         25    2    1    2    0    0 -0.14224869017E+03 -0.19265804495E+01  0.19310711344E+03  0.27051074892E+03  0.12508919398E+03 0.  0.
        -24    2    1    2    0    0  0.10429350790E+03  0.11798516027E+00  0.17609869470E+03  0.21949495057E+03  0.79310360875E+02 0.  0.
        -11    1    3    3    0    0  0.12735088563E+02 -0.30637582685E+02 -0.31360892662E+02  0.45654677110E+02  0.00000000000E+00 0.  1.
         12    1    3    3    0    0  0.25220093708E+02  0.32446177974E+02 -0.16626327295E+03  0.17126670290E+03  0.00000000000E+00 0. -1.
         13    1    5    5    0    0 -0.13289589688E+02  0.12590856718E-02  0.14853093164E+02  0.19930568787E+02  0.00000000000E+00 0. -1.
        -14    1    5    5    0    0  0.11758309759E+03  0.11672607459E+00  0.16124560153E+03  0.19956438179E+03  0.00000000000E+00 0.  1.
          5    1    4    4  501    0 -0.47446550096E+02 -0.59535431933E+02  0.99145887754E+02  0.12507206814E+03  0.41800000000E+01 0.  1.
         -5    1    4    4    0  501 -0.94802140076E+02  0.57608851483E+02  0.93961225689E+02  0.14543868077E+03  0.41800000000E+01 0.  1.
</event>
<event>
11    1  0.7105277E-009  0.1570180E+03  0.7561462E-02  0.1089916E+00
         22   -1    0    0    0    0  0.00000000000E+00  0.00000000000E+00  0.57984970582E+03  0.57984970582E+03  0.00000000000E+00 0.  1.
         22   -1    0    0    0    0 -0.00000000000E+00 -0.00000000000E+00 -0.45784769382E+03  0.45784769382E+03  0.00000000000E+00 0.  1.
        -24    2    1    2    0    0 -0.13807561485E+02  0.84243285446E+02 -0.15286624656E+03  0.19241115430E+03  0.79789617514E+02 0.  0.
         25    2    1    2    0    0 -0.53618384189E+01  0.10854212014E+02 -0.26397333243E+03  0.29236328239E+03  0.12509118844E+03 0.  0.
         24    2    1    2    0    0  0.19169399903E+02 -0.95097497460E+02  0.53884159099E+03  0.55292296296E+03  0.77217503619E+02 0.  0.
        -13    1    5    5    0    0  0.24840082808E+02 -0.10734526449E+03  0.46672247650E+03  0.47955177572E+03  0.00000000000E+00 0.  1.
         14    1    5    5    0    0 -0.56706829048E+01  0.12247767030E+02  0.72119114489E+02  0.73371187237E+02  0.00000000000E+00 0. -1.
         11    1    3    3    0    0  0.14538890570E+02  0.77942458655E+02 -0.74336286137E+02  0.10868435783E+03  0.00000000000E+00 0. -1.
        -12    1    3    3    0    0 -0.28346452055E+02  0.63008267910E+01 -0.78529960423E+02  0.83726796465E+02  0.00000000000E+00 0.  1.
          5    1    4    4  501    0 -0.25505264118E+02  0.59402912749E+02 -0.92228397691E+02  0.11270658491E+03  0.41800000000E+01 0.  1.
         -5    1    4    4    0  501  0.20143425699E+02 -0.48548700736E+02 -0.17174493474E+03  0.17965669748E+03  0.41800000000E+01 0.  1.
</event>
<event>
11    1  0.7105277E-009  0.1833514E+03  0.7561462E-02  0.1066964E+00
         22   -1    0    0    0    0  0.00000000000E+00  0.00000000000E+00  0.17453102097E+04  0.17453102097E+04  0.00000000000E+00 0. -1.
         22   -1    0    0    0    0 -0.00000000000E+00 -0.00000000000E+00 -0.14186340171E+03  0.14186340171E+03  0.00000000000E+00 0. -1.
        -24    2    1    2    0    0 -0.35274071238E+02  0.49027365696E+02 -0.59547028466E+02  0.11852433073E+03  0.82790251155E+02 0.  0.
         25    2    1    2    0    0  0.16360056000E+03 -0.17728436598E+02  0.17210027753E+03  0.26897141647E+03  0.12509067373E+03 0.  0.
         24    2    1    2    0    0 -0.12832648876E+03 -0.31298929098E+02  0.14908935590E+04  0.14996778643E+04  0.93929663558E+02 0.  0.
        -11    1    5    5    0    0 -0.13875539186E+03 -0.43949384261E+02  0.13203918101E+04  0.13283896790E+04  0.00000000000E+00 0.  1.
         12    1    5    5    0    0  0.10428903096E+02  0.12650455163E+02  0.17050174888E+03  0.17128818525E+03  0.00000000000E+00 0. -1.
         11    1    3    3    0    0 -0.17580034481E+02  0.69103359034E+02 -0.26660494513E+02  0.76125644890E+02  0.00000000000E+00 0. -1.
        -12    1    3    3    0    0 -0.17694036757E+02 -0.20075993338E+02 -0.32886533953E+02  0.42398685837E+02  0.00000000000E+00 0.  1.
          5    1    4    4  501    0  0.11162024066E+03  0.25397245418E+02  0.41416974163E+02  0.12180696347E+03  0.41800000000E+01 0. -1.
         -5    1    4    4    0  501  0.51980319338E+02 -0.43125682016E+02  0.13068330337E+03  0.14716445300E+03  0.41800000000E+01 0. -1.
</event>
<event>
11    1  0.7105277E-009  0.1363406E+03  0.7561462E-02  0.1111715E+00
         22   -1    0    0    0    0  0.00000000000E+00  0.00000000000E+00  0.84011983019E+03  0.84011983019E+03  0.00000000000E+00 0. -1.
         22   -1    0    0    0    0 -0.00000000000E+00 -0.00000000000E+00 -0.20096227046E+03  0.20096227046E+03  0.00000000000E+00 0.  1.
        -24    2    1    2    0    0  0.52602426539E+02  0.61908991164E+01 -0.16808225255E+03  0.19387157328E+03  0.80803470186E+02 0.  0.
         25    2    1    2    0    0 -0.98249642396E+02 -0.24349844387E+02  0.48061728088E+03  0.50684590777E+03  0.12511553215E+03 0.  0.
         24    2    1    2    0    0  0.45647215857E+02  0.18158945271E+02  0.32662253139E+03  0.34036461960E+03  0.82172870546E+02 0.  0.
        -13    1    5    5    0    0  0.19033237577E+02  0.28429451534E+02  0.41346939136E+02  0.53666257770E+02  0.00000000000E+00 0.  1.
         14    1    5    5    0    0  0.26613978281E+02 -0.10270506263E+02  0.28527559226E+03  0.28669836183E+03  0.00000000000E+00 0. -1.
         11    1    3    3    0    0  0.65236087477E+02 -0.18344850710E+02 -0.10438423071E+03  0.12445219274E+03  0.00000000000E+00 0. -1.
        -12    1    3    3    0    0 -0.12633660938E+02  0.24535749827E+02 -0.63698021834E+02  0.69419380535E+02  0.00000000000E+00 0.  1.
          5    1    4    4  501    0 -0.86201664265E+02 -0.36350673451E+01  0.47376294446E+03  0.48157319338E+03  0.41800000000E+01 0. -1.
         -5    1    4    4    0  501 -0.12047978131E+02 -0.20714777042E+02  0.68543364257E+01  0.25272714393E+02  0.41800000000E+01 0. -1.
</event>
<event>
11    1  0.7105277E-009  0.2839565E+03  0.7561462E-02  0.1007219E+00
         22   -1    0    0    0    0  0.00000000000E+00  0.00000000000E+00  0.75169938050E+03  0.75169938050E+03  0.00000000000E+00 0. -1.
         22   -1    0    0    0    0 -0.00000000000E+00 -0.00000000000E+00 -0.18588327160E+03  0.18588327160E+03  0.00000000000E+00 0.  1.
        -24    2    1    2    0    0  0.25029605473E+03 -0.28958392874E+02  0.63060157624E+02  0.27223013230E+03  0.81522744807E+02 0.  0.
         25    2    1    2    0    0 -0.25641015257E+03  0.42726828792E+02  0.19882821834E+03  0.35036248636E+03  0.12509781454E+03 0.  0.
         24    2    1    2    0    0  0.61140978353E+01 -0.13768435918E+02  0.30392773293E+03  0.31499003343E+03  0.81361552943E+02 0.  0.
        -11    1    5    5    0    0 -0.37152326191E+02  0.20516146296E+00  0.12811966631E+03  0.13339784979E+03  0.00000000000E+00 0.  1.
         12    1    5    5    0    0  0.43266424027E+02 -0.13973597381E+02  0.17580806662E+03  0.18159218364E+03  0.00000000000E+00 0. -1.
         13    1    3    3    0    0  0.37033687798E+02 -0.34697257681E+02  0.20240433615E+02  0.54635783837E+02  0.00000000000E+00 0. -1.
        -14    1    3    3    0    0  0.21326236693E+03  0.57388648073E+01  0.42819724009E+02  0.21759434846E+03  0.00000000000E+00 0.  1.
          5    1    4    4  501    0 -0.21366514235E+03 -0.14269666994E+02  0.16977621596E+03  0.27330907844E+03  0.41800000000E+01 0. -1.
         -5    1    4    4    0  501 -0.42745010217E+02  0.56996495786E+02  0.29052002384E+02  0.77053407925E+02  0.41800000000E+01 0. -1.
</event>
<event>
11    1  0.7105277E-009  0.1326281E+03  0.7561462E-02  0.1116081E+00
         22   -1    0    0    0    0  0.00000000000E+00  0.00000000000E+00  0.68862675995E+02  0.68862675995E+02  0.00000000000E+00 0. -1.
         22   -1    0    0    0    0 -0.00000000000E+00 -0.00000000000E+00 -0.76207446136E+03  0.76207446136E+03  0.00000000000E+00 0. -1.
         24    2    1    2    0    0  0.24584044556E+02  0.56072850288E+01 -0.29968154719E+03  0.31129975963E+03  0.80390880873E+02 0.  0.
         25    2    1    2    0    0 -0.55729018925E+02 -0.33643362403E+02 -0.40306779504E+03  0.42703898068E+03  0.12514409392E+03 0.  0.
        -24    2    1    2    0    0  0.31144974369E+02  0.28036077374E+02  0.95375568547E+01  0.92598397048E+02  0.82021138020E+02 0.  0.
        -11    1    3    3    0    0  0.39566592585E+02  0.33621286129E+02 -0.16802186816E+03  0.17586146340E+03  0.00000000000E+00 0.  1.
         12    1    3    3    0    0 -0.14982548029E+02 -0.28014001100E+02 -0.13165967902E+03  0.13543829622E+03  0.00000000000E+00 0. -1.
         13    1    5    5    0    0  0.16543678203E+01 -0.10771394062E+02  0.35667222984E+02  0.37294914645E+02  0.00000000000E+00 0. -1.
        -14    1    5    5    0    0  0.29490606549E+02  0.38807471436E+02 -0.26129666130E+02  0.55303482403E+02  0.00000000000E+00 0.  1.
          5    1    4    4  501    0  0.25317934495E+02 -0.51411737125E+02 -0.14696218503E+03  0.15779581981E+03  0.41800000000E+01 0. -1.
         -5    1    4    4    0  501 -0.81046953420E+02  0.17768374722E+02 -0.25610561001E+03  0.26924316087E+03  0.41800000000E+01 0. -1.
</event>
<event>
11    1  0.7105277E-009  0.1401903E+03  0.7561462E-02  0.1107346E+00
         22   -1    0    0    0    0  0.00000000000E+00  0.00000000000E+00  0.22650276091E+04  0.22650276091E+04  0.00000000000E+00 0. -1.
         22   -1    0    0    0    0 -0.00000000000E+00 -0.00000000000E+00 -0.44053206489E+03  0.44053206489E+03  0.00000000000E+00 0.  1.
        -24    2    1    2    0    0  0.62732365388E+02  0.12387095526E+02 -0.41024012541E+03  0.42296329055E+03  0.80698171295E+02 0.  0.
         25    2    1    2    0    0 -0.47717962676E+02  0.23874270288E+02  0.17905072941E+03  0.22484264104E+03  0.12509222511E+03 0.  0.
         24    2    1    2    0    0 -0.15014402713E+02 -0.36261365815E+02  0.20556849402E+04  0.20577537424E+04  0.83483962750E+02 0.  0.
        -13    1    5    5    0    0  0.20446162533E+02 -0.49932870232E+02  0.12849712199E+04  0.12861035624E+04  0.00000000000E+00 0.  1.
         14    1    5    5    0    0 -0.35460565246E+02  0.13671504418E+02  0.77071372029E+03  0.77165018005E+03  0.00000000000E+00 0. -1.
         13    1    3    3    0    0  0.25073700343E+02 -0.30861195209E+02 -0.10283366088E+03  0.11025364224E+03  0.00000000000E+00 0. -1.
        -14    1    3    3    0    0  0.37658665045E+02  0.43248290736E+02 -0.30740646454E+03  0.31270964831E+03  0.00000000000E+00 0.  1.
          5    1    4    4  501    0 -0.70872406850E+02  0.41734073652E+02  0.17701377429E+03  0.19523314176E+03  0.41800000000E+01 0.  1.
         -5    1    4    4    0  501  0.23154444175E+02 -0.17859803364E+02  0.20369551286E+01  0.29609499277E+02  0.41800000000E+01 0.  1.
</event>
<event>
11    1  0.7105277E-009  0.1398077E+03  0.7561462E-02  0.1107773E+00
         22   -1    0    0    0    0  0.00000000000E+00  0.00000000000E+00  0.67230865500E+02  0.67230865500E+02  0.00000000000E+00 0. -1.
         22   -1    0    0    0    0 -0.00000000000E+00 -0.00000000000E+00 -0.94096063435E+03  0.94096063435E+03  0.00000000000E+00 0. -1.
        -24    2    1    2    0    0  0.53894016268E+02 -0.31366219173E+02 -0.59338489731E+03  0.60190402168E+03  0.79337319488E+02 0.  0.
         25    2    1    2    0    0 -0.49187310810E+02  0.39900574223E+02 -0.29232433842E+03  0.32421077483E+03  0.12509060841E+03 0.  0.
         24    2    1    2    0    0 -0.47067054580E+01 -0.85343550495E+01  0.11979466880E+02  0.82076703343E+02  0.80610727032E+02 0.  0.
        -11    1    5    5    0    0 -0.63779025865E+01 -0.25972918957E+02 -0.27821128328E+02  0.38591259918E+02  0.00000000000E+00 0.  1.
         12    1    5    5    0    0  0.16711971285E+01  0.17438563908E+02  0.39800595208E+02  0.43485443426E+02  0.00000000000E+00 0. -1.
         13    1    3    3    0    0  0.14594030678E+02 -0.32442781925E+01 -0.45640290918E+03  0.45664770511E+03  0.00000000000E+00 0. -1.
        -14    1    3    3    0    0  0.39299985590E+02 -0.28121940981E+02 -0.13698198813E+03  0.14525631657E+03  0.00000000000E+00 0.  1.
          5    1    4    4  501    0 -0.40855286375E+01  0.71668932206E+02 -0.22948580593E+03  0.24048770220E+03  0.41800000000E+01 0. -1.
         -5    1    4    4    0  501 -0.45101782172E+02 -0.31768357983E+02 -0.62838532487E+02  0.83723072622E+02  0.41800000000E+01 0. -1.
</event>
<event>
11    1  0.7105277E-009  0.1329999E+03  0.7561462E-02  0.1115637E+00
         22   -1    0    0    0    0  0.00000000000E+00  0.00000000000E+00  0.40523316889E+03  0.40523316889E+03  0.00000000000E+00 0. -1.
         22   -1    0    0    0    0 -0.00000000000E+00 -0.00000000000E+00 -0.62293708778E+03  0.62293708778E+03  0.00000000000E+00 0. -1.
        -24    2    1    2    0    0 -0.13868450319E+01 -0.48758233933E+02 -0.57617229782E+03  0.58392134038E+03  0.81303912927E+02 0.  0.
         25    2    1    2    0    0 -0.37003311784E+02  0.15181354968E+02  0.89596595000E+02  0.15897915443E+03  0.12508838109E+03 0.  0.
         24    2    1    2    0    0  0.38390156816E+02  0.33576878965E+02  0.26887178392E+03  0.28526976186E+03  0.80533160269E+02 0.  0.
        -11    1    5    5    0    0 -0.13909753500E+02  0.39464907671E+02  0.13824286419E+03  0.14443700939E+03  0.00000000000E+00 0.  1.
         12    1    5    5    0    0  0.52299910315E+02 -0.58880287058E+01  0.13062891973E+03  0.14083275248E+03  0.00000000000E+00 0. -1.
         13    1    3    3    0    0 -0.35464602112E+02 -0.35843756052E+02 -0.44273503910E+03  0.44559715854E+03  0.00000000000E+00 0. -1.
        -14    1    3    3    0    0  0.34077757080E+02 -0.12914477881E+02 -0.13343725872E+03  0.13832418184E+03  0.00000000000E+00 0.  1.
          5    1    4    4  501    0 -0.23766577753E+02  0.61879181922E+02  0.87979635888E+02  0.11023507656E+03  0.41800000000E+01 0. -1.
         -5    1    4    4    0  501 -0.13236734030E+02 -0.46697826954E+02  0.16169591128E+01  0.48744077864E+02  0.41800000000E+01 0. -1.
</event>
<event>
11    1  0.7105277E-009  0.2873283E+03  0.7561462E-02  0.1005701E+00
         22   -1    0    0    0    0  0.00000000000E+00  0.00000000000E+00  0.31001469668E+04  0.31001469668E+04  0.00000000000E+00 0. -1.
         22   -1    0    0    0    0 -0.00000000000E+00 -0.00000000000E+00 -0.46378146634E+03  0.46378146634E+03  0.00000000000E+00 0. -1.
         24    2    1    2    0    0  0.29566141967E+02 -0.86203888988E+02 -0.34498512618E+03  0.36570279526E+03  0.80115728469E+02 0.  0.
         25    2    1    2    0    0 -0.14739338777E+03 -0.14823514452E+03  0.43279658682E+02  0.24742495893E+03  0.12509001806E+03 0.  0.
        -24    2    1    2    0    0  0.11782724580E+03  0.23443903351E+03  0.29380709679E+04  0.29508006789E+04  0.78222208792E+02 0.  0.
        -13    1    3    3    0    0 -0.11440448028E+02  0.66214102211E+01 -0.94846216699E+02  0.95762893370E+02  0.00000000000E+00 0.  1.
         14    1    3    3    0    0  0.41006589995E+02 -0.92825299209E+02 -0.25013890948E+03  0.26993990189E+03  0.00000000000E+00 0. -1.
         11    1    5    5    0    0  0.45815691235E+02  0.11290273217E+03  0.17759499240E+04  0.17801247813E+04  0.00000000000E+00 0. -1.
        -12    1    5    5    0    0  0.72011554567E+02  0.12153630133E+03  0.11621210439E+04  0.11706758976E+04  0.00000000000E+00 0.  1.
          5    1    4    4  501    0 -0.28446006069E+01 -0.82508748283E+02  0.30332877447E+02  0.88053058721E+02  0.41800000000E+01 0.  1.
         -5    1    4    4    0  501 -0.14454878716E+03 -0.65726396234E+02  0.12946781236E+02  0.15937190021E+03  0.41800000000E+01 0.  1.
</event>
<event>
11    1  0.7105277E-009  0.1739987E+03  0.7561462E-02  0.1074603E+00
         22   -1    0    0    0    0  0.00000000000E+00  0.00000000000E+00  0.37036393068E+04  0.37036393068E+04  0.00000000000E+00 0. -1.
         22   -1    0    0    0    0 -0.00000000000E+00 -0.00000000000E+00 -0.46903374660E+03  0.46903374660E+03  0.00000000000E+00 0. -1.
        -24    2    1    2    0    0  0.52723703739E+02  0.11224709607E+03 -0.44364380592E+03  0.46768477286E+03  0.80808543612E+02 0.  0.
         25    2    1    2    0    0 -0.59406840249E+02  0.10418775834E+02  0.39895156657E+03  0.42243018013E+03  0.12508869275E+03 0.  0.
         24    2    1    2    0    0  0.66831365103E+01 -0.12266587190E+03  0.32792977996E+04  0.32825581005E+04  0.79385414338E+02 0.  0.
        -11    1    5    5    0    0  0.17221783099E+02  0.26322527680E+01  0.67713589386E+03  0.67735997617E+03  0.00000000000E+00 0.  1.
         12    1    5    5    0    0 -0.10538646589E+02 -0.12529812467E+03  0.26021619057E+04  0.26051981243E+04  0.00000000000E+00 0. -1.
         11    1    3    3    0    0  0.30717244726E+02  0.53382950236E+02 -0.93607727706E+02  0.11205219849E+03  0.00000000000E+00 0. -1.
        -12    1    3    3    0    0  0.22006459012E+02  0.58864145834E+02 -0.35003607821E+03  0.35563257437E+03  0.00000000000E+00 0.  1.
          5    1    4    4  501    0  0.13902430376E+02 -0.20391200046E+02  0.26801148527E+03  0.26917783573E+03  0.41800000000E+01 0. -1.
         -5    1    4    4    0  501 -0.73309270625E+02  0.30809975880E+02  0.13094008130E+03  0.15325234440E+03  0.41800000000E+01 0. -1.
</event>
<event>
11    1  0.7105277E-009  0.1678294E+03  0.7561462E-02  0.1079936E+00
         22   -1    0    0    0    0  0.00000000000E+00  0.00000000000E+00  0.78971202371E+03  0.78971202371E+03  0.00000000000E+00 0. -1.
         22   -1    0    0    0    0 -0.00000000000E+00 -0.00000000000E+00 -0.31561217128E+03  0.31561217128E+03  0.00000000000E+00 0. -1.
        -24    2    1    2    0    0 -0.29720001699E+02  0.77594704223E+01 -0.18942516754E+03  0.20721706673E+03  0.78189070624E+02 0.  0.
         25    2    1    2    0    0 -0.63955527927E+02 -0.71028082509E+02 -0.54651686418E+02  0.16663636949E+03  0.12508227193E+03 0.  0.
         24    2    1    2    0    0  0.93675529626E+02  0.63268612087E+02  0.71817670639E+03  0.73147075877E+03  0.80583293603E+02 0.  0.
        -11    1    5    5    0    0  0.57289507401E+02  0.11044456057E+02  0.17261614810E+03  0.18220977540E+03  0.00000000000E+00 0.  1.
         12    1    5    5    0    0  0.36386022226E+02  0.52224156030E+02  0.54556055829E+03  0.54926098337E+03  0.00000000000E+00 0. -1.
         13    1    3    3    0    0 -0.44141749619E+02  0.29573995916E+02 -0.15585753322E+03  0.16466537570E+03  0.00000000000E+00 0. -1.
        -14    1    3    3    0    0  0.14421747920E+02 -0.21814525494E+02 -0.33567634321E+02  0.42551691030E+02  0.00000000000E+00 0.  1.
          5    1    4    4  501    0 -0.64790019738E+02 -0.70958698648E+02  0.14576472567E+02  0.97277076045E+02  0.41800000000E+01 0.  1.
         -5    1    4    4    0  501  0.83449181011E+00 -0.69383861070E-01 -0.69228158984E+02  0.69359293444E+02  0.41800000000E+01 0.  1.
</event>
<event>
11    1  0.7105277E-009  0.1366232E+03  0.7561462E-02  0.1111389E+00
         22   -1    0    0    0    0  0.00000000000E+00  0.00000000000E+00  0.79147272419E+02  0.79147272419E+02  0.00000000000E+00 0. -1.
         22   -1    0    0    0    0 -0.00000000000E+00 -0.00000000000E+00 -0.63330197946E+03  0.63330197946E+03  0.00000000000E+00 0.  1.
        -24    2    1    2    0    0 -0.24470970231E+02 -0.20457144443E+02 -0.43405625170E+03  0.44258471635E+03  0.80368391560E+02 0.  0.
         25    2    1    2    0    0 -0.44254733047E+01 -0.36607610906E+02 -0.10230729612E+03  0.16575140858E+03  0.12508814738E+03 0.  0.
         24    2    1    2    0    0  0.28896443536E+02  0.57064755350E+02 -0.17791159213E+02  0.10411312695E+03  0.80197425797E+02 0.  0.
        -13    1    5    5    0    0 -0.22845636791E+02  0.39222425029E+02 -0.19387520050E+02  0.49357853267E+02  0.00000000000E+00 0.  1.
         14    1    5    5    0    0  0.51742080327E+02  0.17842330321E+02  0.15963608363E+01  0.54755273680E+02  0.00000000000E+00 0. -1.
         11    1    3    3    0    0 -0.44690381281E+02  0.58993947155E+01 -0.15097474683E+03  0.15756080483E+03  0.00000000000E+00 0. -1.
        -12    1    3    3    0    0  0.20219411050E+02 -0.26356539159E+02 -0.28308150487E+03  0.28502391152E+03  0.00000000000E+00 0.  1.
          5    1    4    4  501    0 -0.14742730743E+02 -0.80408617879E+02 -0.83103367666E+02  0.11664705764E+03  0.41800000000E+01 0.  1.
         -5    1    4    4    0  501  0.10317257438E+02  0.43801006973E+02 -0.19203928459E+02  0.49104350939E+02  0.41800000000E+01 0.  1.
</event>
<event>
11    1  0.7105277E-009  0.1555315E+03  0.7561462E-02  0.1091357E+00
         22   -1    0    0    0    0  0.00000000000E+00  0.00000000000E+00  0.41345627795E+03  0.41345627795E+03  0.00000000000E+00 0.  1.
         22   -1    0    0    0    0 -0.00000000000E+00 -0.00000000000E+00 -0.21295747882E+04  0.21295747882E+04  0.00000000000E+00 0.  1.
        -24    2    1    2    0    0 -0.73573546705E+02  0.61180352202E+02 -0.19888704571E+04  0.19929133964E+04  0.83318715043E+02 0.  0.
         25    2    1    2    0    0 -0.14776807431E+02 -0.63499174069E+02 -0.90597495683E+02  0.16765119907E+03  0.12509404134E+03 0.  0.
         24    2    1    2    0    0  0.88350354136E+02  0.23188218675E+01  0.36334944253E+03  0.38246647065E+03  0.80290857354E+02 0.  0.
        -13    1    5    5    0    0  0.68738904411E+02 -0.30940893048E+02  0.18092356129E+03  0.19599926243E+03  0.00000000000E+00 0.  1.
         14    1    5    5    0    0  0.19611449726E+02  0.33259714916E+02  0.18242588124E+03  0.18646720822E+03  0.00000000000E+00 0. -1.
         13    1    3    3    0    0  0.57868435886E+01  0.41962609816E+02 -0.89360033956E+03  0.89460377545E+03  0.00000000000E+00 0. -1.
        -14    1    3    3    0    0 -0.79360390294E+02  0.19217742386E+02 -0.10952701176E+04  0.10983096210E+04  0.00000000000E+00 0.  1.
          5    1    4    4  501    0 -0.16279345276E+02 -0.54804118551E+02 -0.12198370967E+03  0.13478132777E+03  0.41800000000E+01 0. -1.
         -5    1    4    4    0  501  0.15025378442E+01 -0.86950555181E+01  0.31386213983E+02  0.32869871290E+02  0.41800000000E+01 0. -1.
</event>
<event>
11    1  0.7105277E-009  0.1331398E+03  0.7561462E-02  0.1115470E+00
         22   -1    0    0    0    0  0.00000000000E+00  0.00000000000E+00  0.19687431234E+04  0.19687431234E+04  0.00000000000E+00 0. -1.
         22   -1    0    0    0    0 -0.00000000000E+00 -0.00000000000E+00 -0.20846463746E+03  0.20846463746E+03  0.00000000000E+00 0. -1.
         24    2    1    2    0    0  0.87131969968E+01  0.44989534437E+02 -0.18509641396E+03  0.20674490759E+03  0.79892404789E+02 0.  0.
         25    2    1    2    0    0  0.13854805969E+02 -0.40999292954E+02  0.37288410007E+03  0.39567903727E+03  0.12508577369E+03 0.  0.
        -24    2    1    2    0    0 -0.22568002966E+02 -0.39902414833E+01  0.15724907998E+04  0.15747838160E+04  0.81801679672E+02 0.  0.
        -13    1    3    3    0    0  0.34633085588E+02 -0.19892772962E+01 -0.45672091007E+02  0.57352835488E+02  0.00000000000E+00 0.  1.
         14    1    3    3    0    0 -0.25919888591E+02  0.46978811733E+02 -0.13942432295E+03  0.14939207210E+03  0.00000000000E+00 0. -1.
         11    1    5    5    0    0 -0.28793482436E+02 -0.34048340333E+02  0.12600516789E+04  0.12608404291E+04  0.00000000000E+00 0. -1.
        -12    1    5    5    0    0  0.62254794696E+01  0.30058098849E+02  0.31243912093E+03  0.31394338692E+03  0.00000000000E+00 0.  1.
          5    1    4    4  501    0 -0.39023256126E+02 -0.59063932910E+02  0.15090693560E+03  0.16673853275E+03  0.41800000000E+01 0. -1.
         -5    1    4    4    0  501  0.52878062095E+02  0.18064639956E+02  0.22197716446E+03  0.22894050452E+03  0.41800000000E+01 0. -1.
</event>
<event>
11    1  0.7105277E-009  0.1438604E+03  0.7561462E-02  0.1103323E+00
         22   -1    0    0    0    0  0.00000000000E+00  0.00000000000E+00  0.64171763005E+03  0.64171763005E+03  0.00000000000E+00 0. -1.
         22   -1    0    0    0    0 -0.00000000000E+00 -0.00000000000E+00 -0.23288383641E+04  0.23288383641E+04  0.00000000000E+00 0.  1.
        -24    2    1    2    0    0 -0.11042921064E+02 -0.24263871774E+02 -0.23010853765E+04  0.23026447175E+04  0.80424519076E+02 0.  0.
         25    2    1    2    0    0 -0.58306305905E+02  0.43071188808E+02  0.46073807086E+03  0.48289238181E+03  0.12510287712E+03 0.  0.
         24    2    1    2    0    0  0.69349226970E+02 -0.18807317034E+02  0.15322657161E+03  0.18501889488E+03  0.74770172922E+02 0.  0.
        -13    1    5    5    0    0  0.26314796329E+02  0.28887073151E+02  0.50374103574E+02  0.63753288636E+02  0.00000000000E+00 0.  1.
         14    1    5    5    0    0  0.43034430641E+02 -0.47694390186E+02  0.10285246804E+03  0.12126560624E+03  0.00000000000E+00 0. -1.
         13    1    3    3    0    0 -0.39746534070E+02 -0.39025119164E+01 -0.67625519457E+03  0.67743346887E+03  0.00000000000E+00 0. -1.
        -14    1    3    3    0    0  0.28703613006E+02 -0.20361359857E+02 -0.16248301820E+04  0.16252112486E+04  0.00000000000E+00 0.  1.
          5    1    4    4  501    0 -0.57598635427E+02  0.73803476861E+02  0.20650877231E+03  0.22677720662E+03  0.41800000000E+01 0.  1.
         -5    1    4    4    0  501 -0.70767047813E+00 -0.30732288053E+02  0.25422929855E+03  0.25611517520E+03  0.41800000000E+01 0.  1.
</event>
<event>
11    1  0.7105277E-009  0.1558540E+03  0.7561462E-02  0.1091043E+00
         22   -1    0    0    0    0  0.00000000000E+00  0.00000000000E+00  0.11995778220E+04  0.11995778220E+04  0.00000000000E+00 0.  1.
         22   -1    0    0    0    0 -0.00000000000E+00 -0.00000000000E+00 -0.45566285388E+03  0.45566285388E+03  0.00000000000E+00 0. -1.
        -24    2    1    2    0    0 -0.19828802714E+02  0.97192409358E+02 -0.35006801761E+03  0.37289986176E+03  0.81652581649E+02 0.  0.
         25    2    1    2    0    0  0.17029307980E+02 -0.61630224398E+02 -0.39087605452E+02  0.14582593028E+03  0.12509627953E+03 0.  0.
         24    2    1    2    0    0  0.27994947344E+01 -0.35562184960E+02  0.11330705912E+04  0.11365148838E+04  0.80898766642E+02 0.  0.
        -11    1    5    5    0    0 -0.16450934076E+02 -0.56752322766E+02  0.82703808330E+03  0.82914621786E+03  0.00000000000E+00 0.  1.
         12    1    5    5    0    0  0.19250428810E+02  0.21190137806E+02  0.30603250788E+03  0.30736866598E+03  0.00000000000E+00 0. -1.
         11    1    3    3    0    0 -0.24307835534E+02  0.23558450035E+02 -0.22627628854E+03  0.22879429668E+03  0.00000000000E+00 0. -1.
        -12    1    3    3    0    0  0.44790328195E+01  0.73633959323E+02 -0.12379172907E+03  0.14410556508E+03  0.00000000000E+00 0.  1.
          5    1    4    4  501    0 -0.43089690916E+02 -0.48202801057E+02 -0.51602700942E+02  0.82828392701E+02  0.41800000000E+01 0. -1.
         -5    1    4    4    0  501  0.60118998895E+02 -0.13427423341E+02  0.12515095490E+02  0.62997537578E+02  0.41800000000E+01 0. -1.
</event>
<event>
11    1  0.7105277E-009  0.1497595E+03  0.7561462E-02  0.1097125E+00
         22   -1    0    0    0    0  0.00000000000E+00  0.00000000000E+00  0.15581323509E+04  0.15581323509E+04  0.00000000000E+00 0.  1.
         22   -1    0    0    0    0 -0.00000000000E+00 -0.00000000000E+00 -0.67477369060E+02  0.67477369060E+02  0.00000000000E+00 0.  1.
         24    2    1    2    0    0  0.49186005998E+02  0.12169850185E+02 -0.15287219153E+02  0.96490583736E+02  0.80680637335E+02 0.  0.
         25    2    1    2    0    0 -0.98467588854E+02  0.35420385752E+02  0.10086325580E+04  0.10217312057E+04  0.12507817473E+03 0.  0.
        -24    2    1    2    0    0  0.49281582856E+02 -0.47590235937E+02  0.49730964297E+03  0.50738793054E+03  0.73702958532E+02 0.  0.
        -11    1    3    3    0    0 -0.14943769502E+02  0.25459955526E+02 -0.80502677430E+01  0.30599548903E+02  0.00000000000E+00 0.  1.
         12    1    3    3    0    0  0.64129775500E+02 -0.13290105341E+02 -0.72369514096E+01  0.65891034833E+02  0.00000000000E+00 0. -1.
         13    1    5    5    0    0 -0.48373780146E+01  0.65614774569E+01  0.20677178746E+03  0.20693241724E+03  0.00000000000E+00 0. -1.
        -14    1    5    5    0    0  0.54118960871E+02 -0.54151713393E+02  0.29053785551E+03  0.30045551330E+03  0.00000000000E+00 0.  1.
          5    1    4    4  501    0 -0.34286984852E+02  0.21495519011E+02  0.83587548463E+03  0.83686495498E+03  0.41800000000E+01 0.  1.
         -5    1    4    4    0  501 -0.64180604002E+02  0.13924866740E+02  0.17275707338E+03  0.18486625069E+03  0.41800000000E+01 0.  1.
</event>
<event>
11    1  0.7105277E-009  0.1686607E+03  0.7561462E-02  0.1079203E+00
         22   -1    0    0    0    0  0.00000000000E+00  0.00000000000E+00  0.73538127184E+03  0.73538127184E+03  0.00000000000E+00 0. -1.
         22   -1    0    0    0    0 -0.00000000000E+00 -0.00000000000E+00 -0.23990437365E+03  0.23990437365E+03  0.00000000000E+00 0. -1.
        -24    2    1    2    0    0  0.19816413970E+02  0.12307782522E+02 -0.16714186206E+03  0.18847116111E+03  0.83909503292E+02 0.  0.
         25    2    1    2    0    0  0.60410113943E+02 -0.92982415308E+02  0.75240675210E+02  0.18331343374E+03  0.12509014493E+03 0.  0.
         24    2    1    2    0    0 -0.80226527913E+02  0.80674632786E+02  0.58737808503E+03  0.60350105065E+03  0.79093686210E+02 0.  0.
        -11    1    5    5    0    0 -0.15629355508E+02 -0.27929352608E+01  0.16310490400E+02  0.22762015246E+02  0.00000000000E+00 0.  1.
         12    1    5    5    0    0 -0.64597172405E+02  0.83467568047E+02  0.57106759463E+03  0.58073903540E+03  0.00000000000E+00 0. -1.
         11    1    3    3    0    0  0.13407149567E+02  0.29889044200E+02 -0.16655812355E+03  0.16974897686E+03  0.00000000000E+00 0. -1.
        -12    1    3    3    0    0  0.64092644029E+01 -0.17581261678E+02 -0.58373850609E+00  0.18722184248E+02  0.00000000000E+00 0.  1.
          5    1    4    4  501    0  0.25031500966E+02  0.20646461223E+02 -0.12892544632E+02  0.35164506377E+02  0.41800000000E+01 0.  1.
         -5    1    4    4    0  501  0.35378612977E+02 -0.11362887653E+03  0.88133219843E+02  0.14814892736E+03  0.41800000000E+01 0.  1.
</event>
<event>
11    1  0.7105277E-009  0.2024593E+03  0.7561462E-02  0.1052798E+00
         22   -1    0    0    0    0  0.00000000000E+00  0.00000000000E+00  0.77298914013E+03  0.77298914013E+03  0.00000000000E+00 0.  1.
         22   -1    0    0    0    0 -0.00000000000E+00 -0.00000000000E+00 -0.17874249103E+03  0.17874249103E+03  0.00000000000E+00 0.  1.
        -24    2    1    2    0    0  0.78273648678E+02  0.38625344461E+02 -0.64566279929E+02  0.13398274866E+03  0.78510452316E+02 0.  0.
         25    2    1    2    0    0 -0.20509009035E+03  0.42266706210E+02  0.16354172524E+03  0.29367014398E+03  0.12509131847E+03 0.  0.
         24    2    1    2    0    0  0.12681644167E+03 -0.80892050671E+02  0.49527120379E+03  0.52407873853E+03  0.82091565508E+02 0.  0.
        -13    1    5    5    0    0  0.97358518185E+02 -0.53631659331E+02  0.45023758303E+03  0.46375523406E+03  0.00000000000E+00 0.  1.
         14    1    5    5    0    0  0.29457923483E+02 -0.27260391339E+02  0.45033620769E+02  0.60323504469E+02  0.00000000000E+00 0. -1.
         11    1    3    3    0    0 -0.14275156453E+02  0.17014540157E+02 -0.14945718740E+02  0.26770304017E+02  0.00000000000E+00 0. -1.
        -12    1    3    3    0    0  0.92548805131E+02  0.21610804304E+02 -0.49620561188E+02  0.10721244464E+03  0.00000000000E+00 0.  1.
          5    1    4    4  501    0 -0.96068955036E+02 -0.30069245413E+02  0.26549901894E+02  0.10419104248E+03  0.41800000000E+01 0.  1.
         -5    1    4    4    0  501 -0.10902113531E+03  0.72335951623E+02  0.13699182335E+03  0.18947910150E+03  0.41800000000E+01 0.  1.
</event>
<event>
11    1  0.7105277E-009  0.1366983E+03  0.7561462E-02  0.1111302E+00
         22   -1    0    0    0    0  0.00000000000E+00  0.00000000000E+00  0.15226881061E+03  0.15226881061E+03  0.00000000000E+00 0.  1.
         22   -1    0    0    0    0 -0.00000000000E+00 -0.00000000000E+00 -0.41526550388E+03  0.41526550388E+03  0.00000000000E+00 0.  1.
        -24    2    1    2    0    0  0.56364298852E+02 -0.25234234571E+02 -0.30277015609E+03  0.31898063291E+03  0.79152864606E+02 0.  0.
         25    2    1    2    0    0 -0.89471107113E+01  0.15787783273E+02 -0.31571803905E+02  0.13028253632E+03  0.12508979006E+03 0.  0.
         24    2    1    2    0    0 -0.47417188141E+02  0.94464512979E+01  0.71345266720E+02  0.11827114526E+03  0.80995626703E+02 0.  0.
        -13    1    5    5    0    0 -0.27760411249E+02 -0.13130148480E+02  0.81154336283E+02  0.86770199546E+02  0.00000000000E+00 0.  1.
         14    1    5    5    0    0 -0.19656776892E+02  0.22576599778E+02 -0.98090695631E+01  0.31500945716E+02  0.00000000000E+00 0. -1.
         11    1    3    3    0    0  0.23297393222E+01 -0.10433623990E+02 -0.21229353326E+03  0.21256253776E+03  0.00000000000E+00 0. -1.
        -12    1    3    3    0    0  0.54034559530E+02 -0.14800610581E+02 -0.90476622824E+02  0.10641809515E+03  0.00000000000E+00 0.  1.
          5    1    4    4  501    0  0.48944629363E+02  0.33316321559E+02 -0.36118652611E+02  0.69480813842E+02  0.41800000000E+01 0. -1.
         -5    1    4    4    0  501 -0.57891740074E+02 -0.17528538286E+02  0.45468487066E+01  0.60801722479E+02  0.41800000000E+01 0. -1.
</event>
<event>
11    1  0.7105277E-009  0.1504485E+03  0.7561462E-02  0.1096421E+00
         22   -1    0    0    0    0  0.00000000000E+00  0.00000000000E+00  0.61006712393E+03  0.61006712393E+03  0.00000000000E+00 0.  1.
         22   -1    0    0    0    0 -0.00000000000E+00 -0.00000000000E+00 -0.15588923879E+04  0.15588923879E+04  0.00000000000E+00 0.  1.
        -24    2    1    2    0    0  0.12887149581E+02  0.82686492495E+02 -0.15077871329E+04  0.15122620022E+04  0.80691947909E+02 0.  0.
         25    2    1    2    0    0 -0.70594020488E+02 -0.67300098731E+02  0.97470352278E+02  0.18617322402E+03  0.12508869153E+03 0.  0.
         24    2    1    2    0    0  0.57706870907E+02 -0.15386393764E+02  0.46149151668E+03  0.47052428560E+03  0.69655289169E+02 0.  0.
        -13    1    5    5    0    0  0.43289926537E+02 -0.28918027512E+02  0.43132409629E+03  0.43445453858E+03  0.00000000000E+00 0.  1.
         14    1    5    5    0    0  0.14416944371E+02  0.13531633748E+02  0.30167420385E+02  0.36069747013E+02  0.00000000000E+00 0. -1.
         11    1    3    3    0    0  0.91234294443E+01 -0.72466501612E+01 -0.58038101998E+03  0.58049795801E+03  0.00000000000E+00 0. -1.
        -12    1    3    3    0    0  0.37637201366E+01  0.89933142656E+02 -0.92740611292E+03  0.93176404418E+03  0.00000000000E+00 0.  1.
          5    1    4    4  501    0 -0.15769811756E+02 -0.62542750468E+02  0.11181346043E+03  0.12915109343E+03  0.41800000000E+01 0.  1.
         -5    1    4    4    0  501 -0.54824208732E+02 -0.47573482630E+01 -0.14343108156E+02  0.57022130591E+02  0.41800000000E+01 0.  1.
</event>
<event>
11    1  0.7105277E-009  0.1438850E+03  0.7561462E-02  0.1103296E+00
         22   -1    0    0    0    0  0.00000000000E+00  0.00000000000E+00  0.12638742479E+04  0.12638742479E+04  0.00000000000E+00 0.  1.
         22   -1    0    0    0    0 -0.00000000000E+00 -0.00000000000E+00 -0.79417084685E+02  0.79417084685E+02  0.00000000000E+00 0.  1.
        -24    2    1    2    0    0 -0.17977633868E+02 -0.56435576923E+02  0.24788441261E+02  0.10257793656E+03  0.79997478628E+02 0.  0.
         25    2    1    2    0    0  0.80406887437E+02  0.20863688464E+02  0.11210397399E+03  0.18739268017E+03  0.12509258394E+03 0.  0.
         24    2    1    2    0    0 -0.62429253569E+02  0.35571888459E+02  0.10475647480E+04  0.10533207159E+04  0.83245770476E+02 0.  0.
        -11    1    5    5    0    0 -0.51190684488E+02  0.16008143984E+02  0.99059465787E+03  0.99204562549E+03  0.00000000000E+00 0.  1.
         12    1    5    5    0    0 -0.11238569082E+02  0.19563744475E+02  0.56970090104E+02  0.61275090366E+02  0.00000000000E+00 0. -1.
         13    1    3    3    0    0  0.82975182181E+01 -0.38931871588E+02  0.48754221719E+02  0.62940555839E+02  0.00000000000E+00 0. -1.
        -14    1    3    3    0    0 -0.26275152086E+02 -0.17503705335E+02 -0.23965780458E+02  0.39637380722E+02  0.00000000000E+00 0.  1.
          5    1    4    4  501    0  0.31285245798E+02 -0.51194955908E+02  0.63524081596E+02  0.87478405665E+02  0.41800000000E+01 0.  1.
         -5    1    4    4    0  501  0.49121641639E+02  0.72058644372E+02  0.48579892390E+02  0.99914274509E+02  0.41800000000E+01 0.  1.
</event>
<event>
11    1  0.7105277E-009  0.1548580E+03  0.7561462E-02  0.1092016E+00
         22   -1    0    0    0    0  0.00000000000E+00  0.00000000000E+00  0.17817712574E+03  0.17817712574E+03  0.00000000000E+00 0. -1.
         22   -1    0    0    0    0 -0.00000000000E+00 -0.00000000000E+00 -0.12303325784E+04  0.12303325784E+04  0.00000000000E+00 0. -1.
        -24    2    1    2    0    0  0.87852965690E+02 -0.26987404942E+02 -0.10040641437E+04  0.10114626764E+04  0.80408193666E+02 0.  0.
         25    2    1    2    0    0 -0.93050108586E+02 -0.11792115474E+02 -0.17950906947E+03  0.23805155830E+03  0.12509061391E+03 0.  0.
         24    2    1    2    0    0  0.51971428967E+01  0.38779520416E+02  0.13141776044E+03  0.15899546944E+03  0.80486458778E+02 0.  0.
        -11    1    5    5    0    0 -0.24130237298E+02  0.32140382213E+02  0.22619690581E+02  0.46118574597E+02  0.00000000000E+00 0.  1.
         12    1    5    5    0    0  0.29327380195E+02  0.66391382025E+01  0.10879806986E+03  0.11287689485E+03  0.00000000000E+00 0. -1.
         13    1    3    3    0    0  0.77780033795E+02 -0.52764532931E+02 -0.73719906576E+03  0.74316639601E+03  0.00000000000E+00 0. -1.
        -14    1    3    3    0    0  0.10072931894E+02  0.25777127989E+02 -0.26686507791E+03  0.26829628043E+03  0.00000000000E+00 0.  1.
          5    1    4    4  501    0 -0.24367576490E+02  0.54752306084E+02 -0.79078454290E+02  0.99309959916E+02  0.41800000000E+01 0. -1.
         -5    1    4    4    0  501 -0.68682532096E+02 -0.66544421558E+02 -0.10043061518E+03  0.13874159838E+03  0.41800000000E+01 0. -1.
</event>
<event>
11    1  0.7105277E-009  0.1470809E+03  0.7561462E-02  0.1099899E+00
         22   -1    0    0    0    0  0.00000000000E+00  0.00000000000E+00  0.45890331932E+02  0.45890331932E+02  0.00000000000E+00 0. -1.
         22   -1    0    0    0    0 -0.00000000000E+00 -0.00000000000E+00 -0.22059804951E+04  0.22059804951E+04  0.00000000000E+00 0. -1.
         24    2    1    2    0    0 -0.45940090514E+02 -0.61759150001E+02 -0.14087206228E+04  0.14130329876E+04  0.79017379624E+02 0.  0.
         25    2    1    2    0    0  0.99317994413E+02  0.17040960925E+02 -0.70589379433E+03  0.72393897971E+03  0.12508852508E+03 0.  0.
        -24    2    1    2    0    0 -0.53377903900E+02  0.44718189076E+02 -0.45475746024E+02  0.11489885976E+03  0.79276651277E+02 0.  0.
        -11    1    3    3    0    0 -0.44127623735E+02 -0.27431607742E+02 -0.35807459988E+03  0.36182476333E+03  0.00000000000E+00 0.  1.
         12    1    3    3    0    0 -0.18124667783E+01 -0.34327542259E+02 -0.10506460229E+04  0.10512082242E+04  0.00000000000E+00 0. -1.
         13    1    5    5    0    0 -0.28953621559E+02  0.60625525169E+01  0.19511850231E+02  0.35436972837E+02  0.00000000000E+00 0. -1.
        -14    1    5    5    0    0 -0.24424282341E+02  0.38655636559E+02 -0.64987596255E+02  0.79461886919E+02  0.00000000000E+00 0.  1.
          5    1    4    4  501    0  0.96244889652E+02 -0.36161857298E+02 -0.37977752882E+03  0.39347071366E+03  0.41800000000E+01 0. -1.
         -5    1    4    4    0  501  0.30731047612E+01  0.53202818223E+02 -0.32611626550E+03  0.33046826605E+03  0.41800000000E+01 0. -1.
</event>
<event>
11    1  0.7105277E-009  0.1487773E+03  0.7561462E-02  0.1098135E+00
         22   -1    0    0    0    0  0.00000000000E+00  0.00000000000E+00  0.18428243877E+04  0.18428243877E+04  0.00000000000E+00 0.  1.
         22   -1    0    0    0    0 -0.00000000000E+00 -0.00000000000E+00 -0.61531368370E+03  0.61531368370E+03  0.00000000000E+00 0.  1.
        -24    2    1    2    0    0  0.78734468120E+02  0.12046381598E+02 -0.58125594980E+03  0.59175675619E+03  0.77287434570E+02 0.  0.
         25    2    1    2    0    0 -0.14231572323E+03  0.23714717079E+02  0.31282886376E+03  0.36650783722E+03  0.12509973564E+03 0.  0.
         24    2    1    2    0    0  0.63581255107E+02 -0.35761098676E+02  0.14959377900E+04  0.14998734780E+04  0.80431002283E+02 0.  0.
        -11    1    5    5    0    0  0.35977719992E+01 -0.46961691825E+02  0.72123447831E+03  0.72277072240E+03  0.00000000000E+00 0.  1.
         12    1    5    5    0    0  0.59983483108E+02  0.11200593148E+02  0.77470331173E+03  0.77710275558E+03  0.00000000000E+00 0. -1.
         13    1    3    3    0    0  0.17319666787E+02 -0.27894542024E+02 -0.10853694845E+03  0.11339464499E+03  0.00000000000E+00 0. -1.
        -14    1    3    3    0    0  0.61414801333E+02  0.39940923622E+02 -0.47271900135E+03  0.47836211121E+03  0.00000000000E+00 0.  1.
          5    1    4    4  501    0 -0.41570309342E+02  0.26682485785E+02  0.23201818611E+03  0.23725504579E+03  0.41800000000E+01 0. -1.
         -5    1    4    4    0  501 -0.10074541388E+03 -0.29677687063E+01  0.80810677648E+02  0.12925279143E+03  0.41800000000E+01 0. -1.
</event>
<event>
11    1  0.7105277E-009  0.1684295E+03  0.7561462E-02  0.1079406E+00
         22   -1    0    0    0    0  0.00000000000E+00  0.00000000000E+00  0.23809420096E+03  0.23809420096E+03  0.00000000000E+00 0. -1.
         22   -1    0    0    0    0 -0.00000000000E+00 -0.00000000000E+00 -0.94768615555E+03  0.94768615555E+03  0.00000000000E+00 0. -1.
        -24    2    1    2    0    0 -0.18404446924E+02  0.55771676281E+01 -0.84455673625E+03  0.84862809230E+03  0.80769609549E+02 0.  0.
         25    2    1    2    0    0  0.69281810440E+01 -0.11605813309E+03  0.59808814575E+02  0.18094541133E+03  0.12508660053E+03 0.  0.
         24    2    1    2    0    0  0.11476265881E+02  0.11048096546E+03  0.75155967082E+02  0.15620685289E+03  0.80090031176E+02 0.  0.
        -11    1    5    5    0    0  0.53721693369E+01 -0.12551000456E+02  0.93600673691E+01  0.16552905394E+02  0.00000000000E+00 0.  1.
         12    1    5    5    0    0  0.61040965436E+01  0.12303196591E+03  0.65795899712E+02  0.13965394749E+03  0.00000000000E+00 0. -1.
         13    1    3    3    0    0 -0.40561218304E+02 -0.15889594625E+02 -0.66621445948E+03  0.66763717517E+03  0.00000000000E+00 0. -1.
        -14    1    3    3    0    0  0.22156771379E+02  0.21466762254E+02 -0.17834227676E+03  0.18099091712E+03  0.00000000000E+00 0.  1.
          5    1    4    4  501    0 -0.41343856128E+02 -0.71201207162E+02 -0.12096227763E+02  0.83322970824E+02  0.41800000000E+01 0.  1.
         -5    1    4    4    0  501  0.48272037172E+02 -0.44856925924E+02  0.71905042338E+02  0.97622440503E+02  0.41800000000E+01 0.  1.
</event>
<event>
11    1  0.7105277E-009  0.1692498E+03  0.7561462E-02  0.1078686E+00
         22   -1    0    0    0    0  0.00000000000E+00  0.00000000000E+00  0.29364660874E+03  0.29364660874E+03  0.00000000000E+00 0. -1.
         22   -1    0    0    0    0 -0.00000000000E+00 -0.00000000000E+00 -0.41533024650E+03  0.41533024650E+03  0.00000000000E+00 0. -1.
        -24    2    1    2    0    0 -0.71237936610E+01  0.78829211767E+02 -0.29191980604E+03  0.31371519977E+03  0.83278210497E+02 0.  0.
         25    2    1    2    0    0  0.11556067871E+03 -0.90184115238E+02  0.20993726818E+02  0.19384560025E+03  0.12509170663E+03 0.  0.
         24    2    1    2    0    0 -0.10843688505E+03  0.11354903471E+02  0.14924244146E+03  0.20141605522E+03  0.80047667638E+02 0.  0.
        -13    1    5    5    0    0 -0.88196830708E+01 -0.21230439433E+02  0.57085107577E+01  0.23687664787E+02  0.00000000000E+00 0.  1.
         14    1    5    5    0    0 -0.99617201975E+02  0.32585342903E+02  0.14353393070E+03  0.17772839043E+03  0.00000000000E+00 0. -1.
         11    1    3    3    0    0 -0.20431041871E+02  0.93093800559E+02 -0.23796439567E+03  0.25634144570E+03  0.00000000000E+00 0. -1.
        -12    1    3    3    0    0  0.13307248210E+02 -0.14264588791E+02 -0.53955410371E+02  0.57373754075E+02  0.00000000000E+00 0.  1.
          5    1    4    4  501    0 -0.16009123242E+02 -0.23308589477E+02 -0.26263282577E+02  0.38817712222E+02  0.41800000000E+01 0.  1.
         -5    1    4    4    0  501  0.13156980195E+03 -0.66875525761E+02  0.47257009395E+02  0.15502788803E+03  0.41800000000E+01 0.  1.
</event>
<event>
11    1  0.7105277E-009  0.1585150E+03  0.7561462E-02  0.1088482E+00
         22   -1    0    0    0    0  0.00000000000E+00  0.00000000000E+00  0.11477144069E+04  0.11477144069E+04  0.00000000000E+00 0.  1.
         22   -1    0    0    0    0 -0.00000000000E+00 -0.00000000000E+00 -0.11838689052E+04  0.11838689052E+04  0.00000000000E+00 0.  1.
        -24    2    1    2    0    0  0.64800502680E+02 -0.20196055035E+02 -0.95347171612E+03  0.95921236288E+03  0.79831434064E+02 0.  0.
         25    2    1    2    0    0 -0.77437875265E+02  0.11627643004E+03 -0.18467802221E+03  0.26319270830E+03  0.12509035577E+03 0.  0.
         24    2    1    2    0    0  0.12637372585E+02 -0.96080375004E+02  0.11019952400E+04  0.11091782409E+04  0.80571208446E+02 0.  0.
        -11    1    5    5    0    0  0.26786119923E+02 -0.69386259371E+02  0.10010397900E+04  0.10037990886E+04  0.00000000000E+00 0.  1.
         12    1    5    5    0    0 -0.14148747338E+02 -0.26694115633E+02  0.10095544997E+03  0.10537915230E+03  0.00000000000E+00 0. -1.
         11    1    3    3    0    0  0.48370124897E+02 -0.46562446704E+02 -0.47350546058E+03  0.47824172928E+03  0.00000000000E+00 0. -1.
        -12    1    3    3    0    0  0.16430377783E+02  0.26366391669E+02 -0.47996625554E+03  0.48097063360E+03  0.00000000000E+00 0.  1.
          5    1    4    4  501    0 -0.39411646064E+02 -0.18670601789E+02 -0.24177903410E+02  0.50039111003E+02  0.41800000000E+01 0. -1.
         -5    1    4    4    0  501 -0.38026229201E+02  0.13494703183E+03 -0.16050011880E+03  0.21315359730E+03  0.41800000000E+01 0. -1.
</event>
<event>
11    1  0.7105277E-009  0.1820166E+03  0.7561462E-02  0.1068023E+00
         22   -1    0    0    0    0  0.00000000000E+00  0.00000000000E+00  0.81194948555E+03  0.81194948555E+03  0.00000000000E+00 0.  1.
         22   -1    0    0    0    0 -0.00000000000E+00 -0.00000000000E+00 -0.55474589980E+03  0.55474589980E+03  0.00000000000E+00 0. -1.
         24    2    1    2    0    0 -0.11185481299E+01  0.87777273719E+02 -0.47211090560E+03  0.48619782232E+03  0.76115138507E+02 0.  0.
         25    2    1    2    0    0 -0.64313347504E+02  0.37803671941E+02  0.13343721580E+02  0.14625638888E+03  0.12509017588E+03 0.  0.
        -24    2    1    2    0    0  0.65431895634E+02 -0.12558094566E+03  0.71597076978E+03  0.73424117414E+03  0.80274851325E+02 0.  0.
        -13    1    3    3    0    0 -0.13616015158E+02  0.42063272729E+02 -0.81476506427E+02  0.92699168718E+02  0.00000000000E+00 0.  1.
         14    1    3    3    0    0  0.12497467028E+02  0.45714000990E+02 -0.39063439918E+03  0.39349865360E+03  0.00000000000E+00 0. -1.
         11    1    5    5    0    0  0.92504524551E+01 -0.36075745082E+02  0.66408251806E+02  0.76138598370E+02  0.00000000000E+00 0. -1.
        -12    1    5    5    0    0  0.56181443179E+02 -0.89505200577E+02  0.64956251797E+03  0.65810257577E+03  0.00000000000E+00 0.  1.
          5    1    4    4  501    0  0.21354903151E+02 -0.24475741256E+02 -0.15748833036E+02  0.36339949650E+02  0.41800000000E+01 0. -1.
         -5    1    4    4    0  501 -0.85668250655E+02  0.62279413197E+02  0.29092554616E+02  0.10991643923E+03  0.41800000000E+01 0. -1.
</event>
<event>
11    1  0.7105277E-009  0.2918651E+03  0.7561462E-02  0.1003694E+00
         22   -1    0    0    0    0  0.00000000000E+00  0.00000000000E+00  0.25474047000E+04  0.25474047000E+04  0.00000000000E+00 0. -1.
         22   -1    0    0    0    0 -0.00000000000E+00 -0.00000000000E+00 -0.25567147619E+03  0.25567147619E+03  0.00000000000E+00 0.  1.
        -24    2    1    2    0    0  0.25730680656E+03  0.32877134916E+02 -0.99956349118E+02  0.28377005920E+03  0.56977855915E+02 0.  0.
         25    2    1    2    0    0 -0.29483296902E+03  0.10124771119E+03  0.40654598894E+03  0.52735626066E+03  0.12508959147E+03 0.  0.
         24    2    1    2    0    0  0.37526162457E+02 -0.13412484611E+03  0.19851435840E+04  0.19919498564E+04  0.87587064619E+02 0.  0.
        -13    1    5    5    0    0 -0.67698675589E+00  0.15626056311E+01 -0.10199899407E+00  0.17060044609E+01  0.00000000000E+00 0.  1.
         14    1    5    5    0    0  0.38203149213E+02 -0.13568745174E+03  0.19852455830E+04  0.19902438519E+04  0.00000000000E+00 0. -1.
         11    1    3    3    0    0  0.89330440903E+02  0.38401454886E+02 -0.30376677732E+02  0.10186923951E+03  0.00000000000E+00 0. -1.
        -12    1    3    3    0    0  0.16797636566E+03 -0.55243199697E+01 -0.69579671387E+02  0.18190081968E+03  0.00000000000E+00 0.  1.
          5    1    4    4  501    0 -0.14500412714E+03 -0.14489115490E+01  0.24240316458E+03  0.28249789881E+03  0.41800000000E+01 0. -1.
         -5    1    4    4    0  501 -0.14982884188E+03  0.10269662274E+03  0.16414282437E+03  0.24485836186E+03  0.41800000000E+01 0. -1.
</event>
<event>
11    1  0.7105277E-009  0.1418177E+03  0.7561462E-02  0.1105545E+00
         22   -1    0    0    0    0  0.00000000000E+00  0.00000000000E+00  0.13225348524E+03  0.13225348524E+03  0.00000000000E+00 0. -1.
         22   -1    0    0    0    0 -0.00000000000E+00 -0.00000000000E+00 -0.97710803655E+03  0.97710803655E+03  0.00000000000E+00 0. -1.
         24    2    1    2    0    0  0.65910474614E+02  0.59511527374E+01 -0.69280577728E+03  0.70061476055E+03  0.80632442576E+02 0.  0.
         25    2    1    2    0    0 -0.69433570648E+02 -0.90929423800E+01 -0.24585871630E+03  0.28460159339E+03  0.12509139156E+03 0.  0.
        -24    2    1    2    0    0  0.35230960345E+01  0.31417896426E+01  0.93809942268E+02  0.12414516786E+03  0.81175331142E+02 0.  0.
        -11    1    3    3    0    0  0.46218211960E+02  0.97410143979E+01 -0.14618756829E+03  0.15362882412E+03  0.00000000000E+00 0.  1.
         12    1    3    3    0    0  0.19692262654E+02 -0.37898616605E+01 -0.54661820899E+03  0.54698593644E+03  0.00000000000E+00 0. -1.
         11    1    5    5    0    0 -0.28103222792E+02 -0.10857996279E+02  0.82384385216E+02  0.87720431725E+02  0.00000000000E+00 0. -1.
        -12    1    5    5    0    0  0.31626318826E+02  0.13999785921E+02  0.11425557052E+02  0.36424736132E+02  0.00000000000E+00 0.  1.
          5    1    4    4  501    0 -0.72904414298E+02 -0.23134253172E+02 -0.57850920065E+02  0.95991919693E+02  0.41800000000E+01 0.  1.
         -5    1    4    4    0  501  0.34708436495E+01  0.14041310792E+02 -0.18800779624E+03  0.18860967369E+03  0.41800000000E+01 0.  1.
</event>
<event>
11    1  0.7105277E-009  0.1619549E+03  0.7561462E-02  0.1085253E+00
         22   -1    0    0    0    0  0.00000000000E+00  0.00000000000E+00  0.13119449129E+04  0.13119449129E+04  0.00000000000E+00 0.  1.
         22   -1    0    0    0    0 -0.00000000000E+00 -0.00000000000E+00 -0.14539254970E+03  0.14539254970E+03  0.00000000000E+00 0.  1.
        -24    2    1    2    0    0 -0.94459465371E+02 -0.29881702851E+02 -0.61499884619E+02  0.14134330768E+03  0.79876079368E+02 0.  0.
         25    2    1    2    0    0  0.10497689204E+03  0.63987245920E+02  0.13997716719E+03  0.22440453519E+03  0.12509705264E+03 0.  0.
         24    2    1    2    0    0 -0.10517426667E+02 -0.34105543069E+02  0.10880750806E+04  0.10915896197E+04  0.79916909730E+02 0.  0.
        -11    1    5    5    0    0  0.29059446711E+02 -0.34820035296E+02  0.71030005004E+03  0.71174647690E+03  0.00000000000E+00 0.  1.
         12    1    5    5    0    0 -0.39576873379E+02  0.71449222652E+00  0.37777503056E+03  0.37984314278E+03  0.00000000000E+00 0. -1.
         13    1    3    3    0    0 -0.51499761392E+01 -0.12621423410E+02  0.16581143365E+02  0.21465248622E+02  0.00000000000E+00 0. -1.
        -14    1    3    3    0    0 -0.89309489231E+02 -0.17260279441E+02 -0.78081027983E+02  0.11987805906E+03  0.00000000000E+00 0.  1.
          5    1    4    4  501    0  0.10754546886E+03  0.57490097842E+02  0.46508515524E+02  0.13058198053E+03  0.41800000000E+01 0. -1.
         -5    1    4    4    0  501 -0.25685768235E+01  0.64971480785E+01  0.93468651664E+02  0.93822554665E+02  0.41800000000E+01 0. -1.
</event>
<event>
11    1  0.7105277E-009  0.1712226E+03  0.7561462E-02  0.1076973E+00
         22   -1    0    0    0    0  0.00000000000E+00  0.00000000000E+00  0.60785572665E+03  0.60785572665E+03  0.00000000000E+00 0.  1.
         22   -1    0    0    0    0 -0.00000000000E+00 -0.00000000000E+00 -0.23207405287E+03  0.23207405287E+03  0.00000000000E+00 0. -1.
        -24    2    1    2    0    0  0.11518211459E+02  0.38719050690E+02 -0.12095660512E+03  0.15090392294E+03  0.80682461252E+02 0.  0.
         25    2    1    2    0    0  0.40035988696E+02  0.70947269749E+02 -0.21030549561E+02  0.15074865947E+03  0.12508588586E+03 0.  0.
         24    2    1    2    0    0 -0.51554200154E+02 -0.10966632044E+03  0.51776882846E+03  0.53827719711E+03  0.83505950776E+02 0.  0.
        -11    1    5    5    0    0 -0.69094842212E+02 -0.87708437568E+02  0.46786867545E+03  0.48100723977E+03  0.00000000000E+00 0.  1.
         12    1    5    5    0    0  0.17540642058E+02 -0.21957882871E+02  0.49900153006E+02  0.57269957343E+02  0.00000000000E+00 0. -1.
         11    1    3    3    0    0 -0.31248579312E+02 -0.98858748791E+00 -0.50778975090E+02  0.59631831477E+02  0.00000000000E+00 0. -1.
        -12    1    3    3    0    0  0.42766790770E+02  0.39707638178E+02 -0.70177630035E+02  0.91272091461E+02  0.00000000000E+00 0.  1.
          5    1    4    4  501    0  0.35550115922E+02  0.35213014849E+01 -0.61953705207E+02  0.71637589958E+02  0.41800000000E+01 0.  1.
         -5    1    4    4    0  501  0.44858727741E+01  0.67425968264E+02  0.40923155646E+02  0.79111069509E+02  0.41800000000E+01 0.  1.
</event>
<event>
11    1  0.7105277E-009  0.1298362E+03  0.7561462E-02  0.1119470E+00
         22   -1    0    0    0    0  0.00000000000E+00  0.00000000000E+00  0.70512555283E+03  0.70512555283E+03  0.00000000000E+00 0. -1.
         22   -1    0    0    0    0 -0.00000000000E+00 -0.00000000000E+00 -0.36483109289E+03  0.36483109289E+03  0.00000000000E+00 0. -1.
        -24    2    1    2    0    0 -0.33401601475E+02 -0.95385053625E+01 -0.33563408537E+03  0.34668712686E+03  0.79593181910E+02 0.  0.
         25    2    1    2    0    0  0.40857841899E+02 -0.23367048748E+02  0.20652771631E+03  0.24601282710E+03  0.12511287416E+03 0.  0.
         24    2    1    2    0    0 -0.74562404237E+01  0.32905554110E+02  0.46940082900E+03  0.47725669175E+03  0.79362715091E+02 0.  0.
        -13    1    5    5    0    0  0.11399393454E+02 -0.23845173490E+02  0.14645820139E+03  0.14882386644E+03  0.00000000000E+00 0.  1.
         14    1    5    5    0    0 -0.18855633878E+02  0.56750727600E+02  0.32294262761E+03  0.32843282531E+03  0.00000000000E+00 0. -1.
         11    1    3    3    0    0 -0.24083487289E+02 -0.40808826217E+02 -0.26048716594E+03  0.26476204086E+03  0.00000000000E+00 0. -1.
        -12    1    3    3    0    0 -0.93181141861E+01  0.31270320854E+02 -0.75146919424E+02  0.81925086007E+02  0.00000000000E+00 0.  1.
          5    1    4    4  501    0 -0.31548102965E+02 -0.22666793622E+02  0.16132462486E+02  0.42270498928E+02  0.41800000000E+01 0.  1.
         -5    1    4    4    0  501  0.72405944864E+02 -0.70025512547E+00  0.19039525383E+03  0.20374232817E+03  0.41800000000E+01 0.  1.
</event>
<event>
11    1  0.7105277E-009  0.1435231E+03  0.7561462E-02  0.1103687E+00
         22   -1    0    0    0    0  0.00000000000E+00  0.00000000000E+00  0.70314974382E+02  0.70314974382E+02  0.00000000000E+00 0. -1.
         22   -1    0    0    0    0 -0.00000000000E+00 -0.00000000000E+00 -0.17587325629E+04  0.17587325629E+04  0.00000000000E+00 0.  1.
        -24    2    1    2    0    0  0.29686706654E+02 -0.21164678388E+02 -0.13001600508E+04  0.13030056293E+04  0.77963249308E+02 0.  0.
         25    2    1    2    0    0 -0.72086243647E+02 -0.34654276218E+02 -0.38475373453E+03  0.41240338168E+03  0.12507504787E+03 0.  0.
         24    2    1    2    0    0  0.42399536994E+02  0.55818954605E+02 -0.35038031786E+01  0.11363852625E+03  0.89375396957E+02 0.  0.
        -11    1    5    5    0    0 -0.99003684116E+00  0.50158719770E+02 -0.33733020122E+02  0.60454892180E+02  0.00000000000E+00 0.  1.
         12    1    5    5    0    0  0.43389573835E+02  0.56602348354E+01  0.30229216943E+02  0.53183634071E+02  0.00000000000E+00 0. -1.
         13    1    3    3    0    0 -0.18093197559E+02  0.90248288020E+01 -0.13813344344E+03  0.13960537071E+03  0.00000000000E+00 0. -1.
        -14    1    3    3    0    0  0.47779904213E+02 -0.30189507190E+02 -0.11620266073E+04  0.11634002586E+04  0.00000000000E+00 0.  1.
          5    1    4    4  501    0 -0.88057554412E+02 -0.50289933347E+02 -0.18206052493E+03  0.20843876180E+03  0.41800000000E+01 0.  1.
         -5    1    4    4    0  501  0.15971310765E+02  0.15635657129E+02 -0.20269320960E+03  0.20396461988E+03  0.41800000000E+01 0.  1.
</event>
<event>
11    1  0.7105277E-009  0.1462770E+03  0.7561462E-02  0.1100745E+00
         22   -1    0    0    0    0  0.00000000000E+00  0.00000000000E+00  0.18506355794E+04  0.18506355794E+04  0.00000000000E+00 0. -1.
         22   -1    0    0    0    0 -0.00000000000E+00 -0.00000000000E+00 -0.14663037428E+03  0.14663037428E+03  0.00000000000E+00 0.  1.
        -24    2    1    2    0    0  0.18968914066E+02  0.54029835481E+02 -0.11776525704E+03  0.15230848395E+03  0.77782875337E+02 0.  0.
         25    2    1    2    0    0  0.40929675997E+02  0.97778739947E+01  0.47672363091E+03  0.49465489706E+03  0.12508877538E+03 0.  0.
         24    2    1    2    0    0 -0.59898590063E+02 -0.63807709476E+02  0.13450468312E+04  0.13503025727E+04  0.80664704950E+02 0.  0.
        -11    1    5    5    0    0 -0.20008921004E+02 -0.61510852168E+02  0.48065880613E+03  0.48499157701E+03  0.00000000000E+00 0.  1.
         12    1    5    5    0    0 -0.39889669059E+02 -0.22968573080E+01  0.86438802511E+03  0.86531099565E+03  0.00000000000E+00 0. -1.
         11    1    3    3    0    0 -0.28888310048E+02  0.17066675322E+02 -0.26165845454E+02  0.42549469237E+02  0.00000000000E+00 0. -1.
        -12    1    3    3    0    0  0.47857224115E+02  0.36963160160E+02 -0.91599411583E+02  0.10975901472E+03  0.00000000000E+00 0.  1.
          5    1    4    4  501    0  0.85012559209E+02  0.17740822298E+02  0.32002849026E+03  0.33162867635E+03  0.41800000000E+01 0. -1.
         -5    1    4    4    0  501 -0.44082883212E+02 -0.79629483036E+01  0.15669514064E+03  0.16302622071E+03  0.41800000000E+01 0. -1.
</event>
<event>
11    1  0.7105277E-009  0.1306436E+03  0.7561462E-02  0.1118481E+00
         22   -1    0    0    0    0  0.00000000000E+00  0.00000000000E+00  0.16919900034E+03  0.16919900034E+03  0.00000000000E+00 0.  1.
         22   -1    0    0    0    0 -0.00000000000E+00 -0.00000000000E+00 -0.95594543727E+03  0.95594543727E+03  0.00000000000E+00 0.  1.
         24    2    1    2    0    0  0.41666179783E+02  0.37948291464E+01 -0.74785482927E+03  0.75360092840E+03  0.82927934719E+02 0.  0.
         25    2    1    2    0    0 -0.83373514800E+01  0.13660526416E+01 -0.17168138837E+03  0.21258602068E+03  0.12508772740E+03 0.  0.
        -24    2    1    2    0    0 -0.33328828303E+02 -0.51608817881E+01  0.13278978070E+03  0.15895748853E+03  0.80603423035E+02 0.  0.
        -13    1    3    3    0    0  0.52959492952E+02 -0.21993632015E+02 -0.34230683663E+03  0.34707693405E+03  0.00000000000E+00 0.  1.
         14    1    3    3    0    0 -0.11293313169E+02  0.25788461161E+02 -0.40554799263E+03  0.40652399435E+03  0.00000000000E+00 0. -1.
         13    1    5    5    0    0 -0.24704277488E+02 -0.19922709228E+02  0.76373257265E+01  0.32642677792E+02  0.00000000000E+00 0. -1.
        -14    1    5    5    0    0 -0.86245508152E+01  0.14761827440E+02  0.12515245498E+03  0.12631481074E+03  0.00000000000E+00 0.  1.
          5    1    4    4  501    0  0.47394203997E+02  0.31482461596E+02 -0.52407556510E+02  0.77468576468E+02  0.41800000000E+01 0.  1.
         -5    1    4    4    0  501 -0.55731555477E+02 -0.30116408954E+02 -0.11927383186E+03  0.13511744421E+03  0.41800000000E+01 0.  1.
</event>
<event>
11    1  0.7105277E-009  0.2490537E+03  0.7561462E-02  0.1024405E+00
         22   -1    0    0    0    0  0.00000000000E+00  0.00000000000E+00  0.23062337765E+04  0.23062337765E+04  0.00000000000E+00 0. -1.
         22   -1    0    0    0    0 -0.00000000000E+00 -0.00000000000E+00 -0.21198206097E+03  0.21198206097E+03  0.00000000000E+00 0.  1.
        -24    2    1    2    0    0 -0.15332479542E+03 -0.13919557122E+03 -0.11213168632E+03  0.24857695173E+03  0.79580688064E+02 0.  0.
         25    2    1    2    0    0  0.13780108258E+03 -0.12422977700E+03  0.61342579381E+03  0.65296300982E+03  0.12508921549E+03 0.  0.
         24    2    1    2    0    0  0.15523712846E+02  0.26342534823E+03  0.15929576080E+04  0.16166758759E+04  0.80579445459E+02 0.  0.
        -11    1    5    5    0    0  0.19461508812E+02  0.84078327316E+02  0.74289200492E+03  0.74788799056E+03  0.00000000000E+00 0.  1.
         12    1    5    5    0    0 -0.39377959656E+01  0.17934702091E+03  0.85006560312E+03  0.86878788537E+03  0.00000000000E+00 0. -1.
         11    1    3    3    0    0 -0.13234368051E+03 -0.10768127799E+03 -0.53544368746E+02  0.17882143839E+03  0.00000000000E+00 0. -1.
        -12    1    3    3    0    0 -0.20981114910E+02 -0.31514293233E+02 -0.58587317578E+02  0.69755513343E+02  0.00000000000E+00 0.  1.
          5    1    4    4  501    0  0.54605848449E+02 -0.97115217359E+02  0.48401321166E+03  0.49668845928E+03  0.41800000000E+01 0. -1.
         -5    1    4    4    0  501  0.83195234129E+02 -0.27114559643E+02  0.12941258216E+03  0.15627455054E+03  0.41800000000E+01 0. -1.
</event>
<event>
11    1  0.7105277E-009  0.1513226E+03  0.7561462E-02  0.1095535E+00
         22   -1    0    0    0    0  0.00000000000E+00  0.00000000000E+00  0.61898898699E+03  0.61898898699E+03  0.00000000000E+00 0. -1.
         22   -1    0    0    0    0 -0.00000000000E+00 -0.00000000000E+00 -0.87594391133E+03  0.87594391133E+03  0.00000000000E+00 0. -1.
        -24    2    1    2    0    0 -0.44447175260E+02 -0.15571844317E+02 -0.84244188781E+03  0.84750514869E+03  0.79615381613E+02 0.  0.
         25    2    1    2    0    0  0.67020584068E+02 -0.65998724427E+02  0.28543933971E+03  0.32553144261E+03  0.12509002024E+03 0.  0.
         24    2    1    2    0    0 -0.22573408808E+02  0.81570568745E+02  0.30004762376E+03  0.32189630702E+03  0.80158215287E+02 0.  0.
        -11    1    5    5    0    0 -0.21471063752E+02  0.33490794409E+02  0.36477509129E+02  0.53974517701E+02  0.00000000000E+00 0.  1.
         12    1    5    5    0    0 -0.11023450558E+01  0.48079774335E+02  0.26357011463E+03  0.26792178932E+03  0.00000000000E+00 0. -1.
         13    1    3    3    0    0 -0.35487704327E+02  0.13967365407E+01 -0.80153378344E+03  0.80232021914E+03  0.00000000000E+00 0. -1.
        -14    1    3    3    0    0 -0.89594709330E+01 -0.16968580858E+02 -0.40908104367E+02  0.45184929552E+02  0.00000000000E+00 0.  1.
          5    1    4    4  501    0  0.27288641774E+02 -0.98746374886E+02  0.16202783863E+03  0.19174464637E+03  0.41800000000E+01 0.  1.
         -5    1    4    4    0  501  0.39731942294E+02  0.32747650458E+02  0.12341150108E+03  0.13378679624E+03  0.41800000000E+01 0.  1.
</event>
<event>
11    1  0.7105277E-009  0.1486608E+03  0.7561462E-02  0.1098255E+00
         22   -1    0    0    0    0  0.00000000000E+00  0.00000000000E+00  0.31748845271E+03  0.31748845271E+03  0.00000000000E+00 0. -1.
         22   -1    0    0    0    0 -0.00000000000E+00 -0.00000000000E+00 -0.32343880525E+03  0.32343880525E+03  0.00000000000E+00 0. -1.
         24    2    1    2    0    0  0.19656139142E+02 -0.84494211651E+02 -0.24572407520E+03  0.27404599536E+03  0.84824824383E+02 0.  0.
         25    2    1    2    0    0  0.50889974019E+02  0.26996750688E+01  0.76246969024E+02  0.15510831411E+03  0.12509161091E+03 0.  0.
        -24    2    1    2    0    0 -0.70546113161E+02  0.81794536582E+02  0.16352675364E+03  0.21177294849E+03  0.80247630880E+02 0.  0.
        -11    1    3    3    0    0  0.36952982896E+02 -0.79196018645E+01 -0.46552280074E+02  0.59961302676E+02  0.00000000000E+00 0.  1.
         12    1    3    3    0    0 -0.17296843754E+02 -0.76574609786E+02 -0.19917179513E+03  0.21408469268E+03  0.00000000000E+00 0. -1.
         11    1    5    5    0    0 -0.80745865354E+02  0.57329606209E+02  0.15499178354E+03  0.18392670140E+03  0.00000000000E+00 0. -1.
        -12    1    5    5    0    0  0.10199752193E+02  0.24464930373E+02  0.85349700915E+01  0.27846247098E+02  0.00000000000E+00 0.  1.
          5    1    4    4  501    0  0.42771655658E+02  0.10185744464E+02  0.11043474166E+03  0.11893892753E+03  0.41800000000E+01 0. -1.
         -5    1    4    4    0  501  0.81183183612E+01 -0.74860693954E+01 -0.34187772632E+02  0.36169386580E+02  0.41800000000E+01 0. -1.
</event>
<event>
11    1  0.7105277E-009  0.1348043E+03  0.7561462E-02  0.1113503E+00
         22   -1    0    0    0    0  0.00000000000E+00  0.00000000000E+00  0.50803686752E+03  0.50803686752E+03  0.00000000000E+00 0. -1.
         22   -1    0    0    0    0 -0.00000000000E+00 -0.00000000000E+00 -0.15693013599E+03  0.15693013599E+03  0.00000000000E+00 0.  1.
        -24    2    1    2    0    0  0.19784098336E+02 -0.39945974659E+02 -0.72794709963E+02  0.11697711247E+03  0.79984270985E+02 0.  0.
         25    2    1    2    0    0 -0.66229703419E+02  0.49488007790E+02  0.44709345814E+02  0.15646141555E+03  0.12508322199E+03 0.  0.
         24    2    1    2    0    0  0.46445605083E+02 -0.95420331311E+01  0.37919209568E+03  0.39152847549E+03  0.85203621201E+02 0.  0.
        -13    1    5    5    0    0 -0.10354402500E+00  0.29455945618E+02  0.20387840288E+03  0.20599530726E+03  0.00000000000E+00 0.  1.
         14    1    5    5    0    0  0.46549149108E+02 -0.38997978749E+02  0.17531369280E+03  0.18553316823E+03  0.00000000000E+00 0. -1.
         13    1    3    3    0    0 -0.52217887478E+01 -0.22924027179E+02  0.12393390192E+02  0.26577701561E+02  0.00000000000E+00 0. -1.
        -14    1    3    3    0    0  0.25005887084E+02 -0.17021947481E+02 -0.85188100155E+02  0.90399410910E+02  0.00000000000E+00 0.  1.
          5    1    4    4  501    0 -0.31008826409E+02  0.64383130332E+02  0.77797833308E+02  0.10571996053E+03  0.41800000000E+01 0. -1.
         -5    1    4    4    0  501 -0.35220877010E+02 -0.14895122542E+02 -0.33088487494E+02  0.50741455020E+02  0.41800000000E+01 0. -1.
</event>
<event>
11    1  0.7105277E-009  0.1328015E+03  0.7561462E-02  0.1115874E+00
         22   -1    0    0    0    0  0.00000000000E+00  0.00000000000E+00  0.47029545441E+02  0.47029545441E+02  0.00000000000E+00 0. -1.
         22   -1    0    0    0    0 -0.00000000000E+00 -0.00000000000E+00 -0.25939758295E+04  0.25939758295E+04  0.00000000000E+00 0.  1.
        -24    2    1    2    0    0 -0.40118996291E+02 -0.47970297804E+01 -0.16711792339E+04  0.16735606246E+04  0.79577553788E+02 0.  0.
         25    2    1    2    0    0  0.63611525829E+02  0.94903113754E+01 -0.87530140139E+03  0.88653115417E+03  0.12509377204E+03 0.  0.
         24    2    1    2    0    0 -0.23492529538E+02 -0.46932815949E+01 -0.46564880776E+00  0.80913596204E+02  0.77284328202E+02 0.  0.
        -11    1    5    5    0    0 -0.57971181163E+01  0.20525487583E+01 -0.38201010309E+02  0.38692851064E+02  0.00000000000E+00 0.  1.
         12    1    5    5    0    0 -0.17695411422E+02 -0.67458303533E+01  0.37735361501E+02  0.42220745140E+02  0.00000000000E+00 0. -1.
         13    1    3    3    0    0 -0.63535079931E+02  0.41331409154E+01 -0.11138761144E+04  0.11156943074E+04  0.00000000000E+00 0. -1.
        -14    1    3    3    0    0  0.23416083640E+02 -0.89301706958E+01 -0.55730311946E+03  0.55786631722E+03  0.00000000000E+00 0.  1.
          5    1    4    4  501    0  0.99824875667E+02 -0.58457344568E+01 -0.67289610630E+03  0.68029833212E+03  0.41800000000E+01 0.  1.
         -5    1    4    4    0  501 -0.36213349838E+02  0.15336045832E+02 -0.20240529509E+03  0.20623282204E+03  0.41800000000E+01 0.  1.
</event>
<event>
11    1  0.7105277E-009  0.1438367E+03  0.7561462E-02  0.1103348E+00
         22   -1    0    0    0    0  0.00000000000E+00  0.00000000000E+00  0.71580398636E+03  0.71580398636E+03  0.00000000000E+00 0.  1.
         22   -1    0    0    0    0 -0.00000000000E+00 -0.00000000000E+00 -0.50843909437E+03  0.50843909437E+03  0.00000000000E+00 0. -1.
         24    2    1    2    0    0 -0.23783845468E+02  0.16237170325E+02 -0.45965959815E+03  0.46771795807E+03  0.81509662751E+02 0.  0.
         25    2    1    2    0    0  0.56610580942E+02 -0.75829318880E+02  0.11564854966E+03  0.19487789247E+03  0.12509181612E+03 0.  0.
        -24    2    1    2    0    0 -0.32826735475E+02  0.59592148556E+02  0.55137594048E+03  0.56164723018E+03  0.82482511480E+02 0.  0.
        -11    1    3    3    0    0  0.42359166754E+01  0.73455736053E+01 -0.14937171386E+01  0.86099728549E+01  0.00000000000E+00 0.  1.
         12    1    3    3    0    0 -0.28019762143E+02  0.88915967194E+01 -0.45816588101E+03  0.45910798521E+03  0.00000000000E+00 0. -1.
         13    1    5    5    0    0  0.51600035048E+01  0.75286688777E+01  0.31641766129E+01  0.96601503548E+01  0.00000000000E+00 0. -1.
        -14    1    5    5    0    0 -0.37986738980E+02  0.52063479678E+02  0.54821176387E+03  0.55198707983E+03  0.00000000000E+00 0.  1.
          5    1    4    4  501    0  0.28568735210E+01 -0.31349497218E+02 -0.23268407573E+02  0.39368056760E+02  0.41800000000E+01 0. -1.
         -5    1    4    4    0  501  0.53753707421E+02 -0.44479821663E+02  0.13891695723E+03  0.15550983571E+03  0.41800000000E+01 0. -1.
</event>
<event>
11    1  0.7105277E-009  0.1696803E+03  0.7561462E-02  0.1078310E+00
         22   -1    0    0    0    0  0.00000000000E+00  0.00000000000E+00  0.64374906371E+03  0.64374906371E+03  0.00000000000E+00 0. -1.
         22   -1    0    0    0    0 -0.00000000000E+00 -0.00000000000E+00 -0.14786859447E+04  0.14786859447E+04  0.00000000000E+00 0. -1.
        -24    2    1    2    0    0  0.11593318263E+01 -0.27523603709E+02 -0.96000006456E+03  0.96370043874E+03  0.79746591542E+02 0.  0.
         25    2    1    2    0    0  0.11164539631E+03  0.47696344089E+02 -0.49432348337E+03  0.52415860912E+03  0.12508759151E+03 0.  0.
         24    2    1    2    0    0 -0.11280472814E+03 -0.20172740380E+02  0.61938666695E+03  0.63457596054E+03  0.76908779380E+02 0.  0.
        -13    1    5    5    0    0 -0.47407211445E+02  0.27893147457E+02  0.20101757235E+03  0.20840713943E+03  0.00000000000E+00 0.  1.
         14    1    5    5    0    0 -0.65397516693E+02 -0.48065887837E+02  0.41836909461E+03  0.42616882111E+03  0.00000000000E+00 0. -1.
         13    1    3    3    0    0 -0.34993000027E+02 -0.13066532219E+02 -0.67761410296E+03  0.67864284925E+03  0.00000000000E+00 0. -1.
        -14    1    3    3    0    0  0.36152331853E+02 -0.14457071490E+02 -0.28238596160E+03  0.28505758949E+03  0.00000000000E+00 0.  1.
          5    1    4    4  501    0  0.13857223537E+03  0.47062713545E+02 -0.43203356248E+03  0.45616623607E+03  0.41800000000E+01 0. -1.
         -5    1    4    4    0  501 -0.26926839054E+02  0.63363054437E+00 -0.62289920885E+02  0.67992373050E+02  0.41800000000E+01 0. -1.
</event>
<event>
11    1  0.7105277E-009  0.1436204E+03  0.7561462E-02  0.1103582E+00
         22   -1    0    0    0    0  0.00000000000E+00  0.00000000000E+00  0.48925492263E+03  0.48925492263E+03  0.00000000000E+00 0. -1.
         22   -1    0    0    0    0 -0.00000000000E+00 -0.00000000000E+00 -0.24563566949E+03  0.24563566949E+03  0.00000000000E+00 0. -1.
        -24    2    1    2    0    0 -0.48134629822E+02 -0.59394742353E+02 -0.19730188428E+03  0.22618107709E+03  0.79907246767E+02 0.  0.
         25    2    1    2    0    0 -0.11674408508E+02  0.14683351428E+02  0.13801307594E+03  0.18720926082E+03  0.12509118907E+03 0.  0.
         24    2    1    2    0    0  0.59809038330E+02  0.44711390925E+02  0.30290806148E+03  0.32150025421E+03  0.77671682138E+02 0.  0.
        -11    1    5    5    0    0 -0.17285000964E+02  0.17209373064E+02  0.94432827970E+02  0.97532008992E+02  0.00000000000E+00 0.  1.
         12    1    5    5    0    0  0.77094039294E+02  0.27502017861E+02  0.20847523351E+03  0.22396824522E+03  0.00000000000E+00 0. -1.
         11    1    3    3    0    0  0.14741290989E+02  0.16225132669E+00 -0.74302161456E+02  0.75750532556E+02  0.00000000000E+00 0. -1.
        -12    1    3    3    0    0 -0.62875920811E+02 -0.59556993680E+02 -0.12299972282E+03  0.15043054453E+03  0.00000000000E+00 0.  1.
          5    1    4    4  501    0 -0.17467746615E+02  0.55291947344E+02  0.18851996371E+02  0.61116215361E+02  0.41800000000E+01 0.  1.
         -5    1    4    4    0  501  0.57933381077E+01 -0.40608595916E+02  0.11916107957E+03  0.12609304546E+03  0.41800000000E+01 0.  1.
</event>
<event>
11    1  0.7105277E-009  0.1323886E+03  0.7561462E-02  0.1116368E+00
         22   -1    0    0    0    0  0.00000000000E+00  0.00000000000E+00  0.55718661028E+02  0.55718661028E+02  0.00000000000E+00 0. -1.
         22   -1    0    0    0    0 -0.00000000000E+00 -0.00000000000E+00 -0.25064455670E+04  0.25064455670E+04  0.00000000000E+00 0. -1.
        -24    2    1    2    0    0  0.28195620779E+02 -0.35222829820E+02 -0.20155060584E+04  0.20174297190E+04  0.75646276912E+02 0.  0.
         25    2    1    2    0    0 -0.37105541927E+02  0.24108746880E+01 -0.43775411591E+03  0.45679172989E+03  0.12508950771E+03 0.  0.
         24    2    1    2    0    0  0.89099211489E+01  0.32811955132E+02  0.25332683324E+01  0.87942779065E+02  0.81064812631E+02 0.  0.
        -11    1    5    5    0    0  0.25912502399E+02 -0.29544058680E+01  0.29997275578E+02  0.39749501087E+02  0.00000000000E+00 0.  1.
         12    1    5    5    0    0 -0.17002581250E+02  0.35766361000E+02 -0.27464007245E+02  0.48193277978E+02  0.00000000000E+00 0. -1.
         11    1    3    3    0    0  0.50402355019E+02 -0.28948631689E+02 -0.17359724497E+04  0.17369452400E+04  0.00000000000E+00 0. -1.
        -12    1    3    3    0    0 -0.22206734241E+02 -0.62741981311E+01 -0.27953360865E+03  0.28048447902E+03  0.00000000000E+00 0.  1.
          5    1    4    4  501    0 -0.54750939647E+02 -0.50079485608E+02 -0.27270623412E+03  0.28265134494E+03  0.41800000000E+01 0. -1.
         -5    1    4    4    0  501  0.17645397720E+02  0.52490360296E+02 -0.16504788179E+03  0.17414038495E+03  0.41800000000E+01 0. -1.
</event>
<event>
11    1  0.7105277E-009  0.2457975E+03  0.7561462E-02  0.1026162E+00
         22   -1    0    0    0    0  0.00000000000E+00  0.00000000000E+00  0.14524099829E+04  0.14524099829E+04  0.00000000000E+00 0.  1.
         22   -1    0    0    0    0 -0.00000000000E+00 -0.00000000000E+00 -0.17842883519E+04  0.17842883519E+04  0.00000000000E+00 0.  1.
        -24    2    1    2    0    0 -0.11259859621E+03 -0.85495764038E+02 -0.17130122429E+04  0.17207103120E+04  0.80281155253E+02 0.  0.
         25    2    1    2    0    0  0.29645911363E+03  0.12957066013E+03  0.48311310631E+03  0.59474729745E+03  0.12509801084E+03 0.  0.
         24    2    1    2    0    0 -0.18386051742E+03 -0.44074896089E+02  0.89802076756E+03  0.92124072541E+03  0.80597077104E+02 0.  0.
        -11    1    5    5    0    0 -0.66374516905E+02 -0.22605546461E+02  0.52253531008E+03  0.52721887059E+03  0.00000000000E+00 0.  1.
         12    1    5    5    0    0 -0.11748600052E+03 -0.21469349628E+02  0.37548545749E+03  0.39402185482E+03  0.00000000000E+00 0. -1.
         13    1    3    3    0    0 -0.38513145575E+02  0.11748313011E+02 -0.44613571318E+03  0.44794905940E+03  0.00000000000E+00 0. -1.
        -14    1    3    3    0    0 -0.74085450631E+02 -0.97244077049E+02 -0.12668765297E+04  0.12727612526E+04  0.00000000000E+00 0.  1.
          5    1    4    4  501    0  0.22350706598E+03  0.13894069263E+03  0.31035298417E+03  0.40693534105E+03  0.41800000000E+01 0. -1.
         -5    1    4    4    0  501  0.72952047646E+02 -0.93700324989E+01  0.17276012214E+03  0.18781195640E+03  0.41800000000E+01 0. -1.
</event>
<event>
11    1  0.7105277E-009  0.1859148E+03  0.7561462E-02  0.1064956E+00
         22   -1    0    0    0    0  0.00000000000E+00  0.00000000000E+00  0.13554742436E+04  0.13554742436E+04  0.00000000000E+00 0. -1.
         22   -1    0    0    0    0 -0.00000000000E+00 -0.00000000000E+00 -0.55723504710E+02  0.55723504710E+02  0.00000000000E+00 0. -1.
         24    2    1    2    0    0  0.40139602461E+02  0.12240071643E+03  0.14370937399E+03  0.20919383575E+03  0.80725173714E+02 0.  0.
         25    2    1    2    0    0 -0.94226886743E+02 -0.14308757731E+03  0.57702061975E+03  0.61477861515E+03  0.12508872476E+03 0.  0.
        -24    2    1    2    0    0  0.54087284282E+02  0.20686860878E+02  0.57902074515E+03  0.58722529742E+03  0.78836197776E+02 0.  0.
        -11    1    3    3    0    0 -0.16819487504E+02  0.31666886013E+02  0.87969062821E+01  0.36919810262E+02  0.00000000000E+00 0.  1.
         12    1    3    3    0    0  0.56959089965E+02  0.90733830422E+02  0.13491246771E+03  0.17227402548E+03  0.00000000000E+00 0. -1.
         11    1    5    5    0    0  0.66440350725E+02  0.32803497046E+02  0.53173734673E+03  0.53687521411E+03  0.00000000000E+00 0. -1.
        -12    1    5    5    0    0 -0.12353066443E+02 -0.12116636168E+02  0.47283398427E+02  0.50350083311E+02  0.00000000000E+00 0.  1.
          5    1    4    4  501    0 -0.40424166653E+02 -0.10151933183E+03  0.50060581473E+03  0.51240993562E+03  0.41800000000E+01 0.  1.
         -5    1    4    4    0  501 -0.53802720090E+02 -0.41568245481E+02  0.76414805019E+02  0.10236867952E+03  0.41800000000E+01 0.  1.
</event>
<event>
11    1  0.7105277E-009  0.3668416E+03  0.7561462E-02  0.9753000E-01
         22   -1    0    0    0    0  0.00000000000E+00  0.00000000000E+00  0.98858099627E+03  0.98858099627E+03  0.00000000000E+00 0.  1.
         22   -1    0    0    0    0 -0.00000000000E+00 -0.00000000000E+00 -0.95420928833E+02  0.95420928833E+02  0.00000000000E+00 0. -1.
         24    2    1    2    0    0 -0.17580699822E+03  0.92193462774E+02  0.20969003470E+03  0.29960638763E+03  0.79914589760E+02 0.  0.
         25    2    1    2    0    0 -0.48405569608E+02 -0.48185242723E+02  0.25848530618E+03  0.29517167643E+03  0.12508696283E+03 0.  0.
        -24    2    1    2    0    0  0.22421256782E+03 -0.44008220051E+02  0.42498472655E+03  0.48922386104E+03  0.80746327488E+02 0.  0.
        -13    1    3    3    0    0 -0.89516414401E+02  0.72500332796E+02  0.16283218328E+03  0.19945878425E+03  0.00000000000E+00 0.  1.
         14    1    3    3    0    0 -0.86290583815E+02  0.19693129978E+02  0.46857851426E+02  0.10014760338E+03  0.00000000000E+00 0. -1.
         11    1    5    5    0    0  0.72759067122E+02 -0.17287633030E+02  0.70332359956E+02  0.10266150672E+03  0.00000000000E+00 0. -1.
        -12    1    5    5    0    0  0.15145350070E+03 -0.26720587021E+02  0.35465236660E+03  0.38656235432E+03  0.00000000000E+00 0.  1.
          5    1    4    4  501    0 -0.56067003455E+02 -0.70475383697E+02  0.98993649566E+02  0.13389362807E+03  0.41800000000E+01 0. -1.
         -5    1    4    4    0  501  0.76614338480E+01  0.22290140974E+02  0.15949165662E+03  0.16127804836E+03  0.41800000000E+01 0. -1.
</event>
<event>
11    1  0.7105277E-009  0.1639460E+03  0.7561462E-02  0.1083424E+00
         22   -1    0    0    0    0  0.00000000000E+00  0.00000000000E+00  0.67298571133E+03  0.67298571133E+03  0.00000000000E+00 0.  1.
         22   -1    0    0    0    0 -0.00000000000E+00 -0.00000000000E+00 -0.23849980438E+03  0.23849980438E+03  0.00000000000E+00 0.  1.
        -24    2    1    2    0    0 -0.73610342948E+01 -0.83846847189E+01 -0.19194154819E+03  0.20781438685E+03  0.78871881526E+02 0.  0.
         25    2    1    2    0    0  0.75545464516E+02 -0.73322658329E+02  0.21428464068E+03  0.26953397363E+03  0.12508927323E+03 0.  0.
         24    2    1    2    0    0 -0.68184430221E+02  0.81707343048E+02  0.41214281447E+03  0.43413715522E+03  0.85370742030E+02 0.  0.
        -13    1    5    5    0    0 -0.79910315639E+02  0.39611351328E+02  0.22666308241E+03  0.24357929023E+03  0.00000000000E+00 0.  1.
         14    1    5    5    0    0  0.11725885418E+02  0.42095991720E+02  0.18547973205E+03  0.19055786499E+03  0.00000000000E+00 0. -1.
         13    1    3    3    0    0 -0.21554048207E+02  0.30666433323E+02 -0.78152273697E+02  0.86676323243E+02  0.00000000000E+00 0. -1.
        -14    1    3    3    0    0  0.14193013912E+02 -0.39051118042E+02 -0.11378927450E+03  0.12113806361E+03  0.00000000000E+00 0.  1.
          5    1    4    4  501    0 -0.28471443188E+02  0.86835389228E+01  0.51467245629E+02  0.59601817909E+02  0.41800000000E+01 0. -1.
         -5    1    4    4    0  501  0.10401690770E+03 -0.82006197252E+02  0.16281739505E+03  0.20993215572E+03  0.41800000000E+01 0. -1.
</event>
<event>
11    1  0.7105277E-009  0.1832545E+03  0.7561462E-02  0.1067040E+00
         22   -1    0    0    0    0  0.00000000000E+00  0.00000000000E+00  0.59708045586E+03  0.59708045586E+03  0.00000000000E+00 0. -1.
         22   -1    0    0    0    0 -0.00000000000E+00 -0.00000000000E+00 -0.11614884215E+04  0.11614884215E+04  0.00000000000E+00 0. -1.
        -24    2    1    2    0    0 -0.19768754125E+02 -0.22732890553E+01 -0.10248706772E+04  0.10281326079E+04  0.79377471018E+02 0.  0.
         25    2    1    2    0    0 -0.11566509908E+03  0.80677367229E+01 -0.64948626947E+02  0.18250957192E+03  0.12509163113E+03 0.  0.
         24    2    1    2    0    0  0.13543385321E+03 -0.57944476676E+01  0.52541133850E+03  0.54792669757E+03  0.76096564096E+02 0.  0.
        -13    1    5    5    0    0 -0.65083238056E+01 -0.94440003391E+01  0.68755272099E+02  0.69705343142E+02  0.00000000000E+00 0.  1.
         14    1    5    5    0    0  0.14194217701E+03  0.36495526714E+01  0.45665606640E+03  0.47822135443E+03  0.00000000000E+00 0. -1.
         11    1    3    3    0    0 -0.16566873376E+02 -0.31089212743E+02 -0.86075516718E+03  0.86147574444E+03  0.00000000000E+00 0. -1.
        -12    1    3    3    0    0 -0.32018807494E+01  0.28815923688E+02 -0.16411551006E+03  0.16665686346E+03  0.00000000000E+00 0.  1.
          5    1    4    4  501    0  0.27128997381E+02  0.17433662433E+00 -0.11903602555E+02  0.29919576300E+02  0.41800000000E+01 0.  1.
         -5    1    4    4    0  501 -0.14279409646E+03  0.78934000986E+01 -0.53045024392E+02  0.15258999562E+03  0.41800000000E+01 0.  1.
</event>
<event>
11    1  0.7105277E-009  0.1278990E+03  0.7561462E-02  0.1121878E+00
         22   -1    0    0    0    0  0.00000000000E+00  0.00000000000E+00  0.16439438004E+04  0.16439438004E+04  0.00000000000E+00 0.  1.
         22   -1    0    0    0    0 -0.00000000000E+00 -0.00000000000E+00 -0.11211792711E+03  0.11211792711E+03  0.00000000000E+00 0.  1.
         24    2    1    2    0    0 -0.43122988439E+01  0.95389330257E+01 -0.86765996314E+02  0.11889098466E+03  0.80604844471E+02 0.  0.
         25    2    1    2    0    0 -0.52473203336E+01 -0.33013539897E+02  0.53936751993E+03  0.55469189683E+03  0.12509336782E+03 0.  0.
        -24    2    1    2    0    0  0.95596191775E+01  0.23474606872E+02  0.10792243497E+04  0.10824788460E+04  0.79955060194E+02 0.  0.
        -13    1    3    3    0    0 -0.28635559027E+02  0.33727533120E+02 -0.63684936264E+02  0.77545553310E+02  0.00000000000E+00 0.  1.
         14    1    3    3    0    0  0.24323260183E+02 -0.24188600094E+02 -0.23081060050E+02  0.41345431349E+02  0.00000000000E+00 0. -1.
         11    1    5    5    0    0  0.37997575781E+02 -0.48976390272E+01  0.33751490075E+03  0.33968236760E+03  0.00000000000E+00 0. -1.
        -12    1    5    5    0    0 -0.28437956604E+02  0.28372245899E+02  0.74170944892E+03  0.74279647841E+03  0.00000000000E+00 0.  1.
          5    1    4    4  501    0 -0.81983455494E+01  0.85800396338E+01 -0.10744076366E+01  0.12627616625E+02  0.41800000000E+01 0.  1.
         -5    1    4    4    0  501  0.29510252158E+01 -0.41593579531E+02  0.54044192756E+03  0.54206428021E+03  0.41800000000E+01 0.  1.
</event>
<event>
11    1  0.7105277E-009  0.1429040E+03  0.7561462E-02  0.1104358E+00
         22   -1    0    0    0    0  0.00000000000E+00  0.00000000000E+00  0.74457488958E+03  0.74457488958E+03  0.00000000000E+00 0. -1.
         22   -1    0    0    0    0 -0.00000000000E+00 -0.00000000000E+00 -0.60885388975E+03  0.60885388975E+03  0.00000000000E+00 0.  1.
        -24    2    1    2    0    0  0.29513882951E+01  0.68068665942E+02 -0.55984173106E+03  0.56980347987E+03  0.81309211426E+02 0.  0.
         25    2    1    2    0    0 -0.48388955311E+02 -0.10051400848E+03  0.13651561217E+03  0.21617009895E+03  0.12509373452E+03 0.  0.
         24    2    1    2    0    0  0.45437567016E+02  0.32445342541E+02  0.55904711872E+03  0.56745520050E+03  0.79714809668E+02 0.  0.
        -13    1    5    5    0    0 -0.10128219899E+02  0.80839905390E+01  0.14136711441E+02  0.19177548115E+02  0.00000000000E+00 0.  1.
         14    1    5    5    0    0  0.55565786915E+02  0.24361352002E+02  0.54491040728E+03  0.54827765239E+03  0.00000000000E+00 0. -1.
         11    1    3    3    0    0  0.12790090463E+02 -0.12027969573E+02 -0.39299452875E+02  0.43043065206E+02  0.00000000000E+00 0. -1.
        -12    1    3    3    0    0 -0.98387021682E+01  0.80096635514E+02 -0.52054227819E+03  0.52676041467E+03  0.00000000000E+00 0.  1.
          5    1    4    4  501    0 -0.51603041461E+02 -0.80642271035E+02  0.20052481119E+02  0.97906200849E+02  0.41800000000E+01 0. -1.
         -5    1    4    4    0  501  0.32140861496E+01 -0.19871737448E+02  0.11646313106E+03  0.11826389810E+03  0.41800000000E+01 0. -1.
</event>
<event>
11    1  0.7105277E-009  0.1454522E+03  0.7561462E-02  0.1101618E+00
         22   -1    0    0    0    0  0.00000000000E+00  0.00000000000E+00  0.11583028068E+04  0.11583028068E+04  0.00000000000E+00 0.  1.
         22   -1    0    0    0    0 -0.00000000000E+00 -0.00000000000E+00 -0.75179770899E+03  0.75179770899E+03  0.00000000000E+00 0.  1.
         24    2    1    2    0    0  0.40696318874E+02 -0.18297180753E+01 -0.52700399360E+03  0.53456726011E+03  0.79808571467E+02 0.  0.
         25    2    1    2    0    0 -0.54276347243E+01  0.67376075791E+02 -0.19521403855E+03  0.24150564869E+03  0.12508981851E+03 0.  0.
        -24    2    1    2    0    0 -0.35268684150E+02 -0.65546357716E+02  0.11287231299E+04  0.11340276070E+04  0.80389702378E+02 0.  0.
        -11    1    3    3    0    0  0.47234450679E+02 -0.18434584181E+02 -0.49756361850E+03  0.50014046195E+03  0.00000000000E+00 0.  1.
         12    1    3    3    0    0 -0.65381318050E+01  0.16604866105E+02 -0.29440375093E+02  0.34426798159E+02  0.00000000000E+00 0. -1.
         13    1    5    5    0    0  0.15673836887E+02 -0.98553862594E+01  0.56148024490E+03  0.56178542453E+03  0.00000000000E+00 0. -1.
        -14    1    5    5    0    0 -0.50942521037E+02 -0.55690971456E+02  0.56724288504E+03  0.57224218246E+03  0.00000000000E+00 0.  1.
          5    1    4    4  501    0 -0.31358617439E+02  0.83561078598E+02 -0.19034418496E+03  0.21027172395E+03  0.41800000000E+01 0. -1.
         -5    1    4    4    0  501  0.25930982715E+02 -0.16185002807E+02 -0.48698535822E+01  0.31233924735E+02  0.41800000000E+01 0. -1.
</event>
<event>
11    1  0.7105277E-009  0.1546821E+03  0.7561462E-02  0.1092188E+00
         22   -1    0    0    0    0  0.00000000000E+00  0.00000000000E+00  0.60413149472E+03  0.60413149472E+03  0.00000000000E+00 0. -1.
         22   -1    0    0    0    0 -0.00000000000E+00 -0.00000000000E+00 -0.43568605952E+03  0.43568605952E+03  0.00000000000E+00 0. -1.
         24    2    1    2    0    0 -0.47666377200E+02  0.47772553414E+02 -0.37628481561E+03  0.39088343470E+03  0.81518689208E+02 0.  0.
         25    2    1    2    0    0  0.13012885921E+03 -0.52998657052E+02  0.15831351938E+03  0.24587186523E+03  0.12508967201E+03 0.  0.
        -24    2    1    2    0    0 -0.82462482014E+02  0.52261036387E+01  0.38641673143E+03  0.40306225431E+03  0.79460162461E+02 0.  0.
        -11    1    3    3    0    0 -0.28683173375E+02 -0.19924576505E+02 -0.14510164113E+03  0.14924543357E+03  0.00000000000E+00 0.  1.
         12    1    3    3    0    0 -0.18983203826E+02  0.67697129919E+02 -0.23118317448E+03  0.24163800113E+03  0.00000000000E+00 0. -1.
         11    1    5    5    0    0 -0.55971669480E+02  0.48863422920E+01  0.36413782425E+03  0.36844682001E+03  0.00000000000E+00 0. -1.
        -12    1    5    5    0    0 -0.26490812534E+02  0.33976134671E+00  0.22278907182E+02  0.34615434299E+02  0.00000000000E+00 0.  1.
          5    1    4    4  501    0  0.14870750590E+03 -0.23047621206E+02  0.11257556073E+03  0.18797830840E+03  0.41800000000E+01 0.  1.
         -5    1    4    4    0  501 -0.18578646686E+02 -0.29951035846E+02  0.45737958652E+02  0.57893556832E+02  0.41800000000E+01 0.  1.
</event>
<event>
11    1  0.7105277E-009  0.2061116E+03  0.7561462E-02  0.1050284E+00
         22   -1    0    0    0    0  0.00000000000E+00  0.00000000000E+00  0.57879839539E+03  0.57879839539E+03  0.00000000000E+00 0.  1.
         22   -1    0    0    0    0 -0.00000000000E+00 -0.00000000000E+00 -0.94605975275E+03  0.94605975275E+03  0.00000000000E+00 0.  1.
         24    2    1    2    0    0  0.12935299742E+03  0.99059476586E+02 -0.81108279074E+03  0.83111809208E+03  0.79730870398E+02 0.  0.
         25    2    1    2    0    0 -0.99105246758E+02 -0.15317967223E+03 -0.17272935482E+02  0.22188348563E+03  0.12509222589E+03 0.  0.
        -24    2    1    2    0    0 -0.30247750660E+02  0.54120195640E+02  0.46109436886E+03  0.47185657043E+03  0.78719019747E+02 0.  0.
        -13    1    3    3    0    0  0.77982487949E+02  0.97592407133E+02 -0.65457343039E+03  0.66638721636E+03  0.00000000000E+00 0.  1.
         14    1    3    3    0    0  0.51370509469E+02  0.14670694532E+01 -0.15650936036E+03  0.16473087572E+03  0.00000000000E+00 0. -1.
         11    1    5    5    0    0 -0.10007330749E+02 -0.10696854736E+02  0.16324438017E+02  0.21933003591E+02  0.00000000000E+00 0. -1.
        -12    1    5    5    0    0 -0.20240419912E+02  0.64817050376E+02  0.44476993084E+03  0.44992356684E+03  0.00000000000E+00 0.  1.
          5    1    4    4  501    0 -0.55104669630E+02 -0.85872811390E+02 -0.71626668065E+02  0.12473378183E+03  0.41800000000E+01 0. -1.
         -5    1    4    4    0  501 -0.44000577128E+02 -0.67306860836E+02  0.54353732584E+02  0.97149703803E+02  0.41800000000E+01 0. -1.
</event>
<event>
11    1  0.7105277E-009  0.1664724E+03  0.7561462E-02  0.1081143E+00
         22   -1    0    0    0    0  0.00000000000E+00  0.00000000000E+00  0.36965939003E+03  0.36965939003E+03  0.00000000000E+00 0.  1.
         22   -1    0    0    0    0 -0.00000000000E+00 -0.00000000000E+00 -0.34093647833E+03  0.34093647833E+03  0.00000000000E+00 0.  1.
        -24    2    1    2    0    0  0.80826048564E+02 -0.47062976902E+02 -0.88512442627E+02  0.15693036088E+03  0.89693432000E+02 0.  0.
         25    2    1    2    0    0 -0.97776423268E+02  0.85071279272E+02 -0.16742510308E+03  0.24591870910E+03  0.12508994699E+03 0.  0.
         24    2    1    2    0    0  0.16950374704E+02 -0.38008302370E+02  0.28466045741E+03  0.30774679838E+03  0.10929121489E+03 0.  0.
        -11    1    5    5    0    0  0.60835171818E+02 -0.21388497517E+02  0.20893550007E+03  0.21866053404E+03  0.00000000000E+00 0.  1.
         12    1    5    5    0    0 -0.43884797114E+02 -0.16619804853E+02  0.75724957341E+02  0.89086264348E+02  0.00000000000E+00 0. -1.
         11    1    3    3    0    0 -0.18754184531E+00 -0.18544400664E+02 -0.65413766256E+02  0.67991843508E+02  0.00000000000E+00 0. -1.
        -12    1    3    3    0    0  0.81013590409E+02 -0.28518576238E+02 -0.23098676371E+02  0.88938517369E+02  0.00000000000E+00 0.  1.
          5    1    4    4  501    0 -0.94137984074E+02  0.77710630957E+02 -0.56437776046E+02  0.13454960860E+03  0.41800000000E+01 0.  1.
         -5    1    4    4    0  501 -0.36384391940E+01  0.73606483154E+01 -0.11098732704E+03  0.11136910050E+03  0.41800000000E+01 0.  1.
</event>
<event>
11    1  0.7105277E-009  0.1588951E+03  0.7561462E-02  0.1088121E+00
         22   -1    0    0    0    0  0.00000000000E+00  0.00000000000E+00  0.83172690615E+03  0.83172690615E+03  0.00000000000E+00 0.  1.
         22   -1    0    0    0    0 -0.00000000000E+00 -0.00000000000E+00 -0.41808308923E+03  0.41808308923E+03  0.00000000000E+00 0. -1.
         24    2    1    2    0    0  0.28116979050E+02  0.36160497510E+02 -0.38347203067E+03  0.39440107030E+03  0.80020371499E+02 0.  0.
         25    2    1    2    0    0 -0.52275381502E+02  0.66237450639E+02  0.24500145857E+03  0.28773145097E+03  0.12507420916E+03 0.  0.
        -24    2    1    2    0    0  0.24158402452E+02 -0.10239794815E+03  0.55211438902E+03  0.56767747412E+03  0.79739876236E+02 0.  0.
        -11    1    3    3    0    0 -0.10160687492E+02 -0.36878250099E+01 -0.49872870019E+01  0.11904312464E+02  0.00000000000E+00 0.  1.
         12    1    3    3    0    0  0.38277666542E+02  0.39848322520E+02 -0.37848474367E+03  0.38249675784E+03  0.00000000000E+00 0. -1.
         13    1    5    5    0    0  0.17943620395E+02 -0.26404047976E+02  0.46852576640E+02  0.56694895716E+02  0.00000000000E+00 0. -1.
        -14    1    5    5    0    0  0.62147820568E+01 -0.75993900172E+02  0.50526181238E+03  0.51098257840E+03  0.00000000000E+00 0.  1.
          5    1    4    4  501    0 -0.24123028892E+01  0.18753834691E+02  0.20904678042E+03  0.20994178795E+03  0.41800000000E+01 0.  1.
         -5    1    4    4    0  501 -0.49863078613E+02  0.47483615948E+02  0.35954678146E+02  0.77789663021E+02  0.41800000000E+01 0.  1.
</event>
<event>
11    1  0.7105277E-009  0.1411508E+03  0.7561462E-02  0.1106280E+00
         22   -1    0    0    0    0  0.00000000000E+00  0.00000000000E+00  0.16491297670E+04  0.16491297670E+04  0.00000000000E+00 0.  1.
         22   -1    0    0    0    0 -0.00000000000E+00 -0.00000000000E+00 -0.12397852143E+04  0.12397852143E+04  0.00000000000E+00 0.  1.
        -24    2    1    2    0    0  0.57181027394E+02  0.24553459638E+02 -0.11179948238E+04  0.11226416681E+04  0.80866225758E+02 0.  0.
         25    2    1    2    0    0 -0.10663953889E+03 -0.66027014933E+02 -0.51151104867E+02  0.18437710097E+03  0.12508765677E+03 0.  0.
         24    2    1    2    0    0  0.49458511499E+02  0.41473555294E+02  0.15784904814E+04  0.15818962122E+04  0.81223311991E+02 0.  0.
        -11    1    5    5    0    0  0.68680373821E+02  0.26641855632E+02  0.13732915436E+04  0.13752659546E+04  0.00000000000E+00 0.  1.
         12    1    5    5    0    0 -0.19221862322E+02  0.14831699663E+02  0.20519893781E+03  0.20663025767E+03  0.00000000000E+00 0. -1.
         13    1    3    3    0    0 -0.41474946629E+01  0.36722601520E+02 -0.30151722981E+03  0.30377358517E+03  0.00000000000E+00 0. -1.
        -14    1    3    3    0    0  0.61328522057E+02 -0.12169141882E+02 -0.81647759403E+03  0.81886808289E+03  0.00000000000E+00 0.  1.
          5    1    4    4  501    0 -0.13811683583E+02  0.25478240559E+02 -0.45165125382E+02  0.53826241705E+02  0.41800000000E+01 0. -1.
         -5    1    4    4    0  501 -0.92827855310E+02 -0.91505255492E+02 -0.59859794856E+01  0.13055085926E+03  0.41800000000E+01 0. -1.
</event>
<event>
11    1  0.7105277E-009  0.1650696E+03  0.7561462E-02  0.1082404E+00
         22   -1    0    0    0    0  0.00000000000E+00  0.00000000000E+00  0.47756484936E+03  0.47756484936E+03  0.00000000000E+00 0.  1.
         22   -1    0    0    0    0 -0.00000000000E+00 -0.00000000000E+00 -0.53047632937E+03  0.53047632937E+03  0.00000000000E+00 0.  1.
        -24    2    1    2    0    0  0.79559992841E+02 -0.52828228350E+02 -0.19062652822E+03  0.22739250032E+03  0.79045947193E+02 0.  0.
         25    2    1    2    0    0 -0.10209379898E+03  0.70265010988E+02 -0.29291982124E+03  0.34177364196E+03  0.12508750978E+03 0.  0.
         24    2    1    2    0    0  0.22533806142E+02 -0.17436782637E+02  0.43063486945E+03  0.43887503646E+03  0.79706292268E+02 0.  0.
        -11    1    5    5    0    0  0.56196973868E+01  0.31484529905E+02  0.19658222542E+03  0.19916683452E+03  0.00000000000E+00 0.  1.
         12    1    5    5    0    0  0.16914108755E+02 -0.48921312542E+02  0.23405264403E+03  0.23970820194E+03  0.00000000000E+00 0. -1.
         13    1    3    3    0    0 -0.10191366609E+01 -0.33951593345E+02 -0.24786782518E+02  0.42049184508E+02  0.00000000000E+00 0. -1.
        -14    1    3    3    0    0  0.80579129502E+02 -0.18876635005E+02 -0.16583974570E+03  0.18534331581E+03  0.00000000000E+00 0.  1.
          5    1    4    4  501    0 -0.68592596721E+02 -0.15164969792E+02 -0.19594459040E+03  0.20819864443E+03  0.41800000000E+01 0. -1.
         -5    1    4    4    0  501 -0.33501202261E+02  0.85429980780E+02 -0.96975230833E+02  0.13357499753E+03  0.41800000000E+01 0. -1.
</event>
<event>
11    1  0.7105277E-009  0.1564860E+03  0.7561462E-02  0.1090430E+00
         22   -1    0    0    0    0  0.00000000000E+00  0.00000000000E+00  0.83061090252E+03  0.83061090252E+03  0.00000000000E+00 0. -1.
         22   -1    0    0    0    0 -0.00000000000E+00 -0.00000000000E+00 -0.67376884922E+03  0.67376884922E+03  0.00000000000E+00 0. -1.
         24    2    1    2    0    0 -0.16339571758E+02 -0.35745330557E+02 -0.62915216988E+03  0.63630086183E+03  0.86611913956E+02 0.  0.
         25    2    1    2    0    0  0.78427792669E+02 -0.37887457772E+02  0.13037698893E+03  0.20057825348E+03  0.12508836239E+03 0.  0.
        -24    2    1    2    0    0 -0.62088220911E+02  0.73632788329E+02  0.65561723426E+03  0.66750063644E+03  0.80289520460E+02 0.  0.
        -11    1    3    3    0    0  0.22293930900E+02 -0.36453115747E+02 -0.16156998397E+03  0.16712482976E+03  0.00000000000E+00 0.  1.
         12    1    3    3    0    0 -0.38633502658E+02  0.70778519011E+00 -0.46758218591E+03  0.46917603207E+03  0.00000000000E+00 0. -1.
         13    1    5    5    0    0 -0.68339582838E+02  0.23145236461E+02  0.31879377808E+03  0.32685696183E+03  0.00000000000E+00 0. -1.
        -14    1    5    5    0    0  0.62513619265E+01  0.50487551868E+02  0.33682345617E+03  0.34064367460E+03  0.00000000000E+00 0.  1.
          5    1    4    4  501    0 -0.17940215737E+02  0.28189104454E+02  0.17032069450E+02  0.37736464333E+02  0.41800000000E+01 0. -1.
         -5    1    4    4    0  501  0.96368008406E+02 -0.66076562225E+02  0.11334491948E+03  0.16284178914E+03  0.41800000000E+01 0. -1.
</event>
<event>
11    1  0.7105277E-009  0.1553313E+03  0.7561462E-02  0.1091552E+00
         22   -1    0    0    0    0  0.00000000000E+00  0.00000000000E+00  0.34553700300E+03  0.34553700300E+03  0.00000000000E+00 0. -1.
         22   -1    0    0    0    0 -0.00000000000E+00 -0.00000000000E+00 -0.64608176507E+03  0.64608176507E+03  0.00000000000E+00 0.  1.
         24    2    1    2    0    0  0.59836907615E+02  0.20671373387E+02 -0.56215404101E+03  0.57165752851E+03  0.82264226018E+02 0.  0.
         25    2    1    2    0    0  0.29982237453E+02 -0.65935412010E+02  0.19653787268E+02  0.14587797259E+03  0.12509076071E+03 0.  0.
        -24    2    1    2    0    0 -0.89819145068E+02  0.45264038623E+02  0.24195549167E+03  0.27408326697E+03  0.80391947797E+02 0.  0.
        -13    1    3    3    0    0  0.56282129204E+02 -0.44302593771E+01 -0.51530806772E+03  0.51839146398E+03  0.00000000000E+00 0.  1.
         14    1    3    3    0    0  0.35547784110E+01  0.25101632764E+02 -0.46845973293E+02  0.53266064532E+02  0.00000000000E+00 0. -1.
         11    1    5    5    0    0 -0.35602903804E+02  0.57804796991E+02  0.17047372810E+03  0.18349455928E+03  0.00000000000E+00 0. -1.
        -12    1    5    5    0    0 -0.54216241264E+02 -0.12540758368E+02  0.71481763570E+02  0.90588707687E+02  0.00000000000E+00 0.  1.
          5    1    4    4  501    0  0.13859027830E+02 -0.91813588250E+02  0.47493819955E+02  0.10437884352E+03  0.41800000000E+01 0. -1.
         -5    1    4    4    0  501  0.16123209623E+02  0.25878176240E+02 -0.27840032687E+02  0.41499129076E+02  0.41800000000E+01 0. -1.
</event>
<event>
11    1  0.7105277E-009  0.1383743E+03  0.7561462E-02  0.1109387E+00
         22   -1    0    0    0    0  0.00000000000E+00  0.00000000000E+00  0.19391381336E+04  0.19391381336E+04  0.00000000000E+00 0. -1.
         22   -1    0    0    0    0 -0.00000000000E+00 -0.00000000000E+00 -0.27239386195E+03  0.27239386195E+03  0.00000000000E+00 0. -1.
         24    2    1    2    0    0  0.54283741789E+02 -0.21928813244E+02 -0.25048673362E+03  0.26871872719E+03  0.77708127953E+02 0.  0.
         25    2    1    2    0    0 -0.94456426744E+02  0.26348907035E+02  0.54207190180E+03  0.56489276987E+03  0.12508242593E+03 0.  0.
        -24    2    1    2    0    0  0.40172684955E+02 -0.44200937914E+01  0.13751591035E+04  0.13779204985E+04  0.77259034924E+02 0.  0.
        -13    1    3    3    0    0  0.59283808175E+01  0.25619252185E+02 -0.42724204520E+02  0.50168211384E+02  0.00000000000E+00 0.  1.
         14    1    3    3    0    0  0.48355360972E+02 -0.47548065429E+02 -0.20776252910E+03  0.21855051580E+03  0.00000000000E+00 0. -1.
         11    1    5    5    0    0  0.56878627318E+02 -0.23745336709E+02  0.98169616163E+03  0.98362918471E+03  0.00000000000E+00 0. -1.
        -12    1    5    5    0    0 -0.16705942364E+02  0.19325242917E+02  0.39346294183E+03  0.39429131377E+03  0.00000000000E+00 0.  1.
          5    1    4    4  501    0 -0.54203158440E+01 -0.15269845811E+02  0.33732846892E+03  0.33774326989E+03  0.41800000000E+01 0. -1.
         -5    1    4    4    0  501 -0.89036110900E+02  0.41618752846E+02  0.20474343288E+03  0.22714949998E+03  0.41800000000E+01 0. -1.
</event>
<event>
11    1  0.7105277E-009  0.1733589E+03  0.7561462E-02  0.1075145E+00
         22   -1    0    0    0    0  0.00000000000E+00  0.00000000000E+00  0.27267153335E+03  0.27267153335E+03  0.00000000000E+00 0. -1.
         22   -1    0    0    0    0 -0.00000000000E+00 -0.00000000000E+00 -0.24223825124E+03  0.24223825124E+03  0.00000000000E+00 0.  1.
         24    2    1    2    0    0  0.15098001238E+03 -0.10281818948E+02 -0.70944841558E+02  0.18086705281E+03  0.69130603262E+02 0.  0.
         25    2    1    2    0    0 -0.46161808704E+02 -0.79456517363E+02  0.75266125334E+02  0.17250361539E+03  0.12509299327E+03 0.  0.
        -24    2    1    2    0    0 -0.10481820368E+03  0.89738336311E+02  0.26111998329E+02  0.16153911639E+03  0.79832479858E+02 0.  0.
        -11    1    3    3    0    0  0.11571757143E+03  0.53248872099E+01 -0.80591960855E+02  0.14111688388E+03  0.00000000000E+00 0.  1.
         12    1    3    3    0    0  0.35262440954E+02 -0.15606706158E+02  0.96471192962E+01  0.39750168928E+02  0.00000000000E+00 0. -1.
         13    1    5    5    0    0 -0.20888905241E+02  0.68477861184E+02  0.21853947366E+02  0.74854250714E+02  0.00000000000E+00 0. -1.
        -14    1    5    5    0    0 -0.83929298438E+02  0.21260475127E+02  0.42580509637E+01  0.86684865674E+02  0.00000000000E+00 0.  1.
          5    1    4    4  501    0 -0.66307377679E+02  0.45309337146E+01  0.18680914222E+02  0.69163911479E+02  0.41800000000E+01 0. -1.
         -5    1    4    4    0  501  0.20145568975E+02 -0.83987451078E+02  0.56585211112E+02  0.10333970391E+03  0.41800000000E+01 0. -1.
</event>
<event>
11    1  0.7105277E-009  0.1408564E+03  0.7561462E-02  0.1106606E+00
         22   -1    0    0    0    0  0.00000000000E+00  0.00000000000E+00  0.23411916624E+03  0.23411916624E+03  0.00000000000E+00 0.  1.
         22   -1    0    0    0    0 -0.00000000000E+00 -0.00000000000E+00 -0.22382857422E+03  0.22382857422E+03  0.00000000000E+00 0. -1.
        -24    2    1    2    0    0 -0.87142039563E+01 -0.34279960952E+02 -0.13073614135E+03  0.15640760055E+03  0.78232638849E+02 0.  0.
         25    2    1    2    0    0  0.46799585647E+02 -0.33769952245E+02  0.10471220287E+03  0.17303245211E+03  0.12507986714E+03 0.  0.
         24    2    1    2    0    0 -0.38085381691E+02  0.68049913197E+02  0.36314530502E+02  0.12850768779E+03  0.95468286419E+02 0.  0.
        -11    1    5    5    0    0 -0.34746056416E+02 -0.14999732012E+02  0.10382297175E+00  0.37845622946E+02  0.00000000000E+00 0.  1.
         12    1    5    5    0    0 -0.33393252748E+01  0.83049645209E+02  0.36210707530E+02  0.90662064848E+02  0.00000000000E+00 0. -1.
         13    1    3    3    0    0 -0.18304067704E+02 -0.53495088010E+02 -0.11943131641E+03  0.13213857376E+03  0.00000000000E+00 0. -1.
        -14    1    3    3    0    0  0.95898637477E+01  0.19215127058E+02 -0.11304824945E+02  0.24269026796E+02  0.00000000000E+00 0.  1.
          5    1    4    4  501    0 -0.28254198117E+02 -0.10605956819E+02 -0.11616173332E+02  0.32606654446E+02  0.41800000000E+01 0. -1.
         -5    1    4    4    0  501  0.75053783765E+02 -0.23163995426E+02  0.11632837620E+03  0.14042579767E+03  0.41800000000E+01 0. -1.
</event>
<event>
11    1  0.7105277E-009  0.2221472E+03  0.7561462E-02  0.1039881E+00
         22   -1    0    0    0    0  0.00000000000E+00  0.00000000000E+00  0.54208282767E+03  0.54208282767E+03  0.00000000000E+00 0. -1.
         22   -1    0    0    0    0 -0.00000000000E+00 -0.00000000000E+00 -0.18060630760E+04  0.18060630760E+04  0.00000000000E+00 0. -1.
         24    2    1    2    0    0  0.71355783692E+02  0.27569527757E+02 -0.14275526006E+04  0.14317587887E+04  0.78581643502E+02 0.  0.
         25    2    1    2    0    0 -0.50807555171E+02 -0.20891163085E+03 -0.31289209137E+03  0.39971873234E+03  0.12509247370E+03 0.  0.
        -24    2    1    2    0    0 -0.20548228521E+02  0.18134210309E+03  0.47646444364E+03  0.51666838268E+03  0.81367460049E+02 0.  0.
        -11    1    3    3    0    0  0.46805418242E+02 -0.22157896399E+02 -0.54080756658E+03  0.54328127486E+03  0.00000000000E+00 0.  1.
         12    1    3    3    0    0  0.24550365450E+02  0.49727424156E+02 -0.88674503405E+03  0.88847751383E+03  0.00000000000E+00 0. -1.
         13    1    5    5    0    0 -0.20299026337E+02  0.18932820139E+03  0.44165274913E+03  0.48095152471E+03  0.00000000000E+00 0. -1.
        -14    1    5    5    0    0 -0.24920218411E+00 -0.79860983020E+01  0.34811694517E+02  0.35716857966E+02  0.00000000000E+00 0.  1.
          5    1    4    4  501    0  0.44409982194E+01  0.32043345618E+01 -0.78412140597E+02  0.78714207219E+02  0.41800000000E+01 0. -1.
         -5    1    4    4    0  501 -0.55248553391E+02 -0.21211596541E+03 -0.23447995077E+03  0.32100452512E+03  0.41800000000E+01 0. -1.
</event>
<event>
11    1  0.7105277E-009  0.2387427E+03  0.7561462E-02  0.1030073E+00
         22   -1    0    0    0    0  0.00000000000E+00  0.00000000000E+00  0.95195393658E+03  0.95195393658E+03  0.00000000000E+00 0.  1.
         22   -1    0    0    0    0 -0.00000000000E+00 -0.00000000000E+00 -0.49487032064E+03  0.49487032064E+03  0.00000000000E+00 0.  1.
         24    2    1    2    0    0  0.14798042548E+03 -0.13734181989E+03 -0.42244667537E+03  0.47514242229E+03  0.80858803521E+02 0.  0.
         25    2    1    2    0    0 -0.12685375848E+03  0.19627075640E+03  0.38743438191E+03  0.46943356470E+03  0.12509350714E+03 0.  0.
        -24    2    1    2    0    0 -0.21126667007E+02 -0.58928936507E+02  0.49209590941E+03  0.50224827023E+03  0.78587437166E+02 0.  0.
        -13    1    3    3    0    0  0.47827813091E+02 -0.95137675369E+02 -0.24370673962E+03  0.26595422899E+03  0.00000000000E+00 0.  1.
         14    1    3    3    0    0  0.10015261239E+03 -0.42204144523E+02 -0.17873993576E+03  0.20918819330E+03  0.00000000000E+00 0. -1.
         13    1    5    5    0    0 -0.39113147824E+02 -0.62035815881E+02  0.28267005375E+03  0.29202849188E+03  0.00000000000E+00 0. -1.
        -14    1    5    5    0    0  0.17986480817E+02  0.31068793749E+01  0.20942585565E+03  0.21021977835E+03  0.00000000000E+00 0.  1.
          5    1    4    4  501    0 -0.12360714868E+03  0.18099782244E+03  0.39487099204E+03  0.45164091011E+03  0.41800000000E+01 0. -1.
         -5    1    4    4    0  501 -0.32466097927E+01  0.15272933960E+02 -0.74366101361E+01  0.17792654585E+02  0.41800000000E+01 0. -1.
</event>
<event>
11    1  0.7105277E-009  0.1701408E+03  0.7561462E-02  0.1077909E+00
         22   -1    0    0    0    0  0.00000000000E+00  0.00000000000E+00  0.94486082096E+03  0.94486082096E+03  0.00000000000E+00 0.  1.
         22   -1    0    0    0    0 -0.00000000000E+00 -0.00000000000E+00 -0.19168047442E+04  0.19168047442E+04  0.00000000000E+00 0.  1.
        -24    2    1    2    0    0 -0.43958914375E+02 -0.10723616722E+03 -0.18969205192E+04  0.19022128401E+04  0.81696091429E+02 0.  0.
         25    2    1    2    0    0 -0.12733199871E+02  0.32294939325E+02  0.40863187104E+03  0.42875742179E+03  0.12509125957E+03 0.  0.
         24    2    1    2    0    0  0.56692114246E+02  0.74941227894E+02  0.51634472495E+03  0.53069530318E+03  0.78711157871E+02 0.  0.
        -13    1    5    5    0    0  0.12756294896E+02  0.27660489952E+02  0.36360171432E+03  0.36487536559E+03  0.00000000000E+00 0.  1.
         14    1    5    5    0    0  0.43935819350E+02  0.47280737941E+02  0.15274301064E+03  0.16581993759E+03  0.00000000000E+00 0. -1.
         13    1    3    3    0    0  0.14114086442E+01 -0.56528835577E+02 -0.42825982128E+03  0.43197682328E+03  0.00000000000E+00 0. -1.
        -14    1    3    3    0    0 -0.45370323019E+02 -0.50707331642E+02 -0.14686606979E+04  0.14702360169E+04  0.00000000000E+00 0.  1.
          5    1    4    4  501    0  0.52876304538E+02  0.17544992795E+02  0.25421102582E+03  0.26027763715E+03  0.41800000000E+01 0.  1.
         -5    1    4    4    0  501 -0.65609504409E+02  0.14749946531E+02  0.15442084523E+03  0.16847978464E+03  0.41800000000E+01 0.  1.
</event>
<event>
11    1  0.7105277E-009  0.1715636E+03  0.7561462E-02  0.1076679E+00
         22   -1    0    0    0    0  0.00000000000E+00  0.00000000000E+00  0.50030655975E+03  0.50030655975E+03  0.00000000000E+00 0.  1.
         22   -1    0    0    0    0 -0.00000000000E+00 -0.00000000000E+00 -0.30030000703E+03  0.30030000703E+03  0.00000000000E+00 0.  1.
        -24    2    1    2    0    0  0.11056311531E+03 -0.20383355199E+02 -0.20656024019E+03  0.25036962494E+03  0.85896057122E+02 0.  0.
         25    2    1    2    0    0 -0.19410918268E+03 -0.32422094297E+02  0.25743736666E+03  0.34734845957E+03  0.12508951839E+03 0.  0.
         24    2    1    2    0    0  0.83546067371E+02  0.52805449495E+02  0.14912942626E+03  0.20288848228E+03  0.95685890266E+02 0.  0.
        -11    1    5    5    0    0  0.31083538508E+02  0.35518480669E+02  0.13891537953E+03  0.14671479648E+03  0.00000000000E+00 0.  1.
         12    1    5    5    0    0  0.52462528863E+02  0.17286968826E+02  0.10214046725E+02  0.56173685800E+02  0.00000000000E+00 0. -1.
         13    1    3    3    0    0  0.30960575966E+02 -0.33112444509E+02 -0.25119161786E+02  0.51826282274E+02  0.00000000000E+00 0. -1.
        -14    1    3    3    0    0  0.79602539345E+02  0.12729089310E+02 -0.18144107841E+03  0.19854334267E+03  0.00000000000E+00 0.  1.
          5    1    4    4  501    0 -0.37835724946E+02  0.26942713846E+02  0.12693434462E+03  0.13523036699E+03  0.41800000000E+01 0.  1.
         -5    1    4    4    0  501 -0.15627345774E+03 -0.59364808143E+02  0.13050302204E+03  0.21211809258E+03  0.41800000000E+01 0.  1.
</event>
<event>
11    1  0.7105277E-009  0.1766708E+03  0.7561462E-02  0.1072368E+00
         22   -1    0    0    0    0  0.00000000000E+00  0.00000000000E+00  0.47937183520E+03  0.47937183520E+03  0.00000000000E+00 0. -1.
         22   -1    0    0    0    0 -0.00000000000E+00 -0.00000000000E+00 -0.24544613197E+04  0.24544613197E+04  0.00000000000E+00 0.  1.
         24    2    1    2    0    0  0.74817469100E+02  0.19923890551E+01 -0.23176244529E+04  0.23202535594E+04  0.81190218730E+02 0.  0.
         25    2    1    2    0    0 -0.19121307770E+03 -0.15822945074E+02 -0.14184410214E+02  0.22949061798E+03  0.12510771188E+03 0.  0.
        -24    2    1    2    0    0  0.11639560860E+03  0.13830556019E+02  0.35671937868E+03  0.38408897754E+03  0.80848039920E+02 0.  0.
        -11    1    3    3    0    0  0.40187793461E+02 -0.34047859785E+02 -0.16124507700E+04  0.16133108198E+04  0.00000000000E+00 0.  1.
         12    1    3    3    0    0  0.34629675639E+02  0.36040248840E+02 -0.70517368293E+03  0.70694273959E+03  0.00000000000E+00 0. -1.
         11    1    5    5    0    0  0.12727589036E+03  0.18016447002E+02  0.30335748041E+03  0.32946851982E+03  0.00000000000E+00 0. -1.
        -12    1    5    5    0    0 -0.10880281763E+02 -0.41858909827E+01  0.53361898264E+02  0.54620457714E+02  0.00000000000E+00 0.  1.
          5    1    4    4  501    0 -0.15162864438E+03  0.28386731152E+02  0.27633970778E+02  0.15677423590E+03  0.41800000000E+01 0.  1.
         -5    1    4    4    0  501 -0.39584433327E+02 -0.44209676227E+02 -0.41818380992E+02  0.72716382079E+02  0.41800000000E+01 0.  1.
</event>
<event>
11    1  0.7105277E-009  0.1342688E+03  0.7561462E-02  0.1114133E+00
         22   -1    0    0    0    0  0.00000000000E+00  0.00000000000E+00  0.26667347929E+03  0.26667347929E+03  0.00000000000E+00 0.  1.
         22   -1    0    0    0    0 -0.00000000000E+00 -0.00000000000E+00 -0.22551982982E+03  0.22551982982E+03  0.00000000000E+00 0.  1.
        -24    2    1    2    0    0  0.50943181995E+02 -0.75860437490E+00 -0.13580639642E+03  0.16537449324E+03  0.79432754157E+02 0.  0.
         25    2    1    2    0    0 -0.37332089966E+02  0.26097192896E+02  0.18496415646E+01  0.13313921770E+03  0.12509149331E+03 0.  0.
         24    2    1    2    0    0 -0.13611092028E+02 -0.25338588521E+02  0.17511040432E+03  0.19367959817E+03  0.77593989130E+02 0.  0.
        -11    1    5    5    0    0  0.15285616534E+02  0.19961170309E+02  0.86225876830E+02  0.89816480826E+02  0.00000000000E+00 0.  1.
         12    1    5    5    0    0 -0.28896708562E+02 -0.45299758830E+02  0.88884527495E+02  0.10386311734E+03  0.00000000000E+00 0. -1.
         13    1    3    3    0    0 -0.92712305953E+01 -0.21074282152E+02 -0.11432477935E+02  0.25705692691E+02  0.00000000000E+00 0. -1.
        -14    1    3    3    0    0  0.60214412590E+02  0.20315677777E+02 -0.12437391848E+03  0.13966880055E+03  0.00000000000E+00 0.  1.
          5    1    4    4  501    0  0.38018334971E+02 -0.85138341299E+01  0.25574832589E+02  0.46791277258E+02  0.41800000000E+01 0.  1.
         -5    1    4    4    0  501 -0.75350424937E+02  0.34611027026E+02 -0.23725191024E+02  0.86347940445E+02  0.41800000000E+01 0.  1.
</event>
<event>
11    1  0.7105277E-009  0.1380177E+03  0.7561462E-02  0.1109792E+00
         22   -1    0    0    0    0  0.00000000000E+00  0.00000000000E+00  0.60557245728E+03  0.60557245728E+03  0.00000000000E+00 0.  1.
         22   -1    0    0    0    0 -0.00000000000E+00 -0.00000000000E+00 -0.16188966275E+03  0.16188966275E+03  0.00000000000E+00 0.  1.
         24    2    1    2    0    0  0.14725388179E+02 -0.35252015478E+02 -0.85100991356E+02  0.12318101161E+03  0.80447754722E+02 0.  0.
         25    2    1    2    0    0  0.44382039914E+02  0.39695912190E+02  0.38127535583E+02  0.14368955584E+03  0.12508976208E+03 0.  0.
        -24    2    1    2    0    0 -0.59107428093E+02 -0.44438967124E+01  0.49065625030E+03  0.50059155258E+03  0.79592149610E+02 0.  0.
        -11    1    3    3    0    0  0.46257433634E+02 -0.29506523793E+02 -0.40216393727E+02  0.68027519705E+02  0.00000000000E+00 0.  1.
         12    1    3    3    0    0 -0.31532045455E+02 -0.57454916849E+01 -0.44884597630E+02  0.55153491908E+02  0.00000000000E+00 0. -1.
         11    1    5    5    0    0  0.99172134595E+01 -0.17486477620E+02  0.43119828971E+02  0.47575704649E+02  0.00000000000E+00 0. -1.
        -12    1    5    5    0    0 -0.69024641553E+02  0.13042580908E+02  0.44753642133E+03  0.45301584793E+03  0.00000000000E+00 0.  1.
          5    1    4    4  501    0 -0.11029759663E+02 -0.87666034966E+01  0.63910637161E+02  0.65578585510E+02  0.41800000000E+01 0. -1.
         -5    1    4    4    0  501  0.55411799577E+02  0.48462515687E+02 -0.25783101578E+02  0.78110970331E+02  0.41800000000E+01 0. -1.
</event>
<event>
11    1  0.7105277E-009  0.1533199E+03  0.7561462E-02  0.1093534E+00
         22   -1    0    0    0    0  0.00000000000E+00  0.00000000000E+00  0.60648805937E+03  0.60648805937E+03  0.00000000000E+00 0. -1.
         22   -1    0    0    0    0 -0.00000000000E+00 -0.00000000000E+00 -0.27426684889E+03  0.27426684889E+03  0.00000000000E+00 0.  1.
         24    2    1    2    0    0 -0.82537174323E+02  0.37981001478E+02 -0.22627877263E+03  0.25714758279E+03  0.81656933420E+02 0.  0.
         25    2    1    2    0    0  0.51269884611E+02 -0.39918918060E+02  0.15039909414E+03  0.20612469229E+03  0.12508149410E+03 0.  0.
        -24    2    1    2    0    0  0.31267289712E+02  0.19379165815E+01  0.40810088898E+03  0.41748263318E+03  0.82243628938E+02 0.  0.
        -13    1    3    3    0    0 -0.29124274724E+02  0.11752484714E+02 -0.17734993258E+03  0.18010925257E+03  0.00000000000E+00 0.  1.
         14    1    3    3    0    0 -0.53412899599E+02  0.26228516764E+02 -0.48928840051E+02  0.77038330226E+02  0.00000000000E+00 0. -1.
         11    1    5    5    0    0  0.50618705156E+02 -0.14917972954E+02  0.35014102655E+03  0.35409537939E+03  0.00000000000E+00 0. -1.
        -12    1    5    5    0    0 -0.19351415443E+02  0.16855889536E+02  0.57959862425E+02  0.63387253798E+02  0.00000000000E+00 0.  1.
          5    1    4    4  501    0  0.33311749163E+02 -0.10241772505E+02  0.16468079086E+03  0.16837993294E+03  0.41800000000E+01 0.  1.
         -5    1    4    4    0  501  0.17958135449E+02 -0.29677145555E+02 -0.14281696729E+02  0.37744759352E+02  0.41800000000E+01 0.  1.
</event>
<event>
11    1  0.7105277E-009  0.1436731E+03  0.7561462E-02  0.1103525E+00
         22   -1    0    0    0    0  0.00000000000E+00  0.00000000000E+00  0.19700764566E+04  0.19700764566E+04  0.00000000000E+00 0. -1.
         22   -1    0    0    0    0 -0.00000000000E+00 -0.00000000000E+00 -0.25338083184E+03  0.25338083184E+03  0.00000000000E+00 0.  1.
         24    2    1    2    0    0 -0.16065975789E+01 -0.29139846652E+02 -0.23659025837E+03  0.25134981667E+03  0.79687314960E+02 0.  0.
         25    2    1    2    0    0  0.54652130694E+02 -0.24737931370E+02  0.68607115257E+03  0.69995577345E+03  0.12508252379E+03 0.  0.
        -24    2    1    2    0    0 -0.53045533115E+02  0.53877778022E+02  0.12672147306E+04  0.12721516983E+04  0.82584058177E+02 0.  0.
        -13    1    3    3    0    0 -0.39766376101E+02 -0.23143816104E+02 -0.11945979614E+03  0.12801423275E+03  0.00000000000E+00 0.  1.
         14    1    3    3    0    0  0.38159778522E+02 -0.59960305473E+01 -0.11713046223E+03  0.12333558392E+03  0.00000000000E+00 0. -1.
         11    1    5    5    0    0  0.14699053635E+02  0.16423440755E+02  0.60933268826E+03  0.60973118386E+03  0.00000000000E+00 0. -1.
        -12    1    5    5    0    0 -0.67744586750E+02  0.37454337267E+02  0.65788204230E+03  0.66242051447E+03  0.00000000000E+00 0.  1.
          5    1    4    4  501    0  0.36358856721E+02 -0.70576920927E+02  0.53744902831E+03  0.54329733909E+03  0.41800000000E+01 0.  1.
         -5    1    4    4    0  501  0.18293273973E+02  0.45838989557E+02  0.14862212426E+03  0.15665843436E+03  0.41800000000E+01 0.  1.
</event>
<event>
11    1  0.7105277E-009  0.1603440E+03  0.7561462E-02  0.1086754E+00
         22   -1    0    0    0    0  0.00000000000E+00  0.00000000000E+00  0.28077893631E+04  0.28077893631E+04  0.00000000000E+00 0. -1.
         22   -1    0    0    0    0 -0.00000000000E+00 -0.00000000000E+00 -0.95905287508E+02  0.95905287508E+02  0.00000000000E+00 0. -1.
         24    2    1    2    0    0 -0.75161716408E+01 -0.17257166890E+02 -0.57586278819E+02  0.10913212553E+03  0.90770802957E+02 0.  0.
         25    2    1    2    0    0 -0.74128923365E+02 -0.45252599843E+02  0.53553013936E+03  0.55676251696E+03  0.12509626315E+03 0.  0.
        -24    2    1    2    0    0  0.81645095006E+02  0.62509766733E+02  0.22339402151E+04  0.22378000081E+04  0.81771629793E+02 0.  0.
        -13    1    3    3    0    0  0.37923231974E+02 -0.26436058650E+02 -0.31488838059E+02  0.55933743327E+02  0.00000000000E+00 0.  1.
         14    1    3    3    0    0 -0.45439403615E+02  0.91788917599E+01 -0.26097440760E+02  0.53198382203E+02  0.00000000000E+00 0. -1.
         11    1    5    5    0    0  0.70790087642E+02  0.55529280284E+02  0.21936288492E+04  0.21954731302E+04  0.00000000000E+00 0. -1.
        -12    1    5    5    0    0  0.10855007364E+02  0.69804864488E+01  0.40311365870E+02  0.42326877917E+02  0.00000000000E+00 0.  1.
          5    1    4    4  501    0 -0.85621191127E+02 -0.24375158039E+02  0.52094047882E+03  0.52850883774E+03  0.41800000000E+01 0. -1.
         -5    1    4    4    0  501  0.11492267762E+02 -0.20877441804E+02  0.14589660544E+02  0.28253679219E+02  0.41800000000E+01 0. -1.
</event>
<event>
11    1  0.7105277E-009  0.1456114E+03  0.7561462E-02  0.1101449E+00
         22   -1    0    0    0    0  0.00000000000E+00  0.00000000000E+00  0.25373760711E+03  0.25373760711E+03  0.00000000000E+00 0.  1.
         22   -1    0    0    0    0 -0.00000000000E+00 -0.00000000000E+00 -0.85604451512E+03  0.85604451512E+03  0.00000000000E+00 0. -1.
        -24    2    1    2    0    0 -0.73303293043E+02 -0.22329650749E+02 -0.65478806757E+03  0.66404817820E+03  0.79627780732E+02 0.  0.
         25    2    1    2    0    0  0.52343345419E+02  0.40790982136E+02 -0.16231180518E+03  0.21539795247E+03  0.12508967101E+03 0.  0.
         24    2    1    2    0    0  0.20959947624E+02 -0.18461331387E+02  0.21479296474E+03  0.23033599156E+03  0.78348651183E+02 0.  0.
        -11    1    5    5    0    0 -0.17168628045E+01  0.24826726431E+02  0.13092674799E+03  0.13327087942E+03  0.00000000000E+00 0.  1.
         12    1    5    5    0    0  0.22676810429E+02 -0.43288057819E+02  0.83866216756E+02  0.97065112136E+02  0.00000000000E+00 0. -1.
         13    1    3    3    0    0 -0.14723910900E+02 -0.22732618583E+02 -0.45611717608E+03  0.45692060997E+03  0.00000000000E+00 0. -1.
        -14    1    3    3    0    0 -0.58579382143E+02  0.40296783357E+00 -0.19867089149E+03  0.20712756823E+03  0.00000000000E+00 0.  1.
          5    1    4    4  501    0  0.19029396161E+02 -0.36006836571E+02 -0.10806107421E+03  0.11555638605E+03  0.41800000000E+01 0.  1.
         -5    1    4    4    0  501  0.33313949258E+02  0.76797818707E+02 -0.54250730970E+02  0.99841566414E+02  0.41800000000E+01 0.  1.
</event>
<event>
11    1  0.7105277E-009  0.1657938E+03  0.7561462E-02  0.1081751E+00
         22   -1    0    0    0    0  0.00000000000E+00  0.00000000000E+00  0.35008347697E+03  0.35008347697E+03  0.00000000000E+00 0.  1.
         22   -1    0    0    0    0 -0.00000000000E+00 -0.00000000000E+00 -0.17207169060E+04  0.17207169060E+04  0.00000000000E+00 0.  1.
         24    2    1    2    0    0 -0.26882238246E+02 -0.10265339486E+03 -0.15308113771E+04  0.15366455348E+04  0.81459518361E+02 0.  0.
         25    2    1    2    0    0  0.11682439746E+03  0.15619604614E+03 -0.92329888649E+02  0.24943204742E+03  0.12508554381E+03 0.  0.
        -24    2    1    2    0    0 -0.89942159210E+02 -0.53542651284E+02  0.25250783664E+03  0.28472280083E+03  0.79689762428E+02 0.  0.
        -11    1    3    3    0    0 -0.52383469692E+02 -0.91412243731E+02 -0.12636486136E+04  0.12680331403E+04  0.00000000000E+00 0.  1.
         12    1    3    3    0    0  0.25501231445E+02 -0.11241151129E+02 -0.26716276349E+03  0.26861239450E+03  0.00000000000E+00 0. -1.
         11    1    5    5    0    0 -0.51542180328E+02  0.14984262701E+01  0.17379483184E+03  0.18128288725E+03  0.00000000000E+00 0. -1.
        -12    1    5    5    0    0 -0.38399978883E+02 -0.55041077554E+02  0.78713004796E+02  0.10343991358E+03  0.00000000000E+00 0.  1.
          5    1    4    4  501    0  0.13701465441E+03  0.15671748167E+03 -0.71564196830E+02  0.22016423699E+03  0.41800000000E+01 0.  1.
         -5    1    4    4    0  501 -0.20190256949E+02 -0.52143552145E+00 -0.20765691819E+02  0.29267810430E+02  0.41800000000E+01 0.  1.
</event>
<event>
11    1  0.7105277E-009  0.1575368E+03  0.7561462E-02  0.1089417E+00
         22   -1    0    0    0    0  0.00000000000E+00  0.00000000000E+00  0.55900156196E+03  0.55900156196E+03  0.00000000000E+00 0. -1.
         22   -1    0    0    0    0 -0.00000000000E+00 -0.00000000000E+00 -0.90956740343E+03  0.90956740343E+03  0.00000000000E+00 0.  1.
         24    2    1    2    0    0  0.47618478851E+02 -0.85259708336E+02 -0.77191371127E+03  0.78297401960E+03  0.87525998018E+02 0.  0.
         25    2    1    2    0    0 -0.49182472130E+02  0.65110191438E+02 -0.85210624723E+02  0.17194976189E+03  0.12509043710E+03 0.  0.
        -24    2    1    2    0    0  0.15639932798E+01  0.20149516899E+02  0.50655849452E+03  0.51364518391E+03  0.82591872909E+02 0.  0.
        -13    1    3    3    0    0  0.44622178842E+02 -0.94961959315E+02 -0.50094967280E+03  0.51181978004E+03  0.00000000000E+00 0.  1.
         14    1    3    3    0    0  0.29963000081E+01  0.97022509784E+01 -0.27096403847E+03  0.27115423956E+03  0.00000000000E+00 0. -1.
         11    1    5    5    0    0  0.26178379805E+02  0.19664201995E+02  0.45831532922E+03  0.45948332876E+03  0.00000000000E+00 0. -1.
        -12    1    5    5    0    0 -0.24614386525E+02  0.48531490423E+00  0.48243165303E+02  0.54161855148E+02  0.00000000000E+00 0.  1.
          5    1    4    4  501    0 -0.45481538998E+02  0.13467663098E+02  0.22275845732E+02  0.52570277173E+02  0.41800000000E+01 0.  1.
         -5    1    4    4    0  501 -0.37009331322E+01  0.51642528340E+02 -0.10748647046E+03  0.11937948471E+03  0.41800000000E+01 0.  1.
</event>
<event>
11    1  0.7105277E-009  0.1372647E+03  0.7561462E-02  0.1110652E+00
         22   -1    0    0    0    0  0.00000000000E+00  0.00000000000E+00  0.80342068567E+03  0.80342068567E+03  0.00000000000E+00 0. -1.
         22   -1    0    0    0    0 -0.00000000000E+00 -0.00000000000E+00 -0.29558253996E+03  0.29558253996E+03  0.00000000000E+00 0. -1.
         24    2    1    2    0    0 -0.15943272988E+02  0.42799470614E+02 -0.19816193179E+03  0.21775240466E+03  0.77858691785E+02 0.  0.
         25    2    1    2    0    0 -0.48933435611E+00  0.13154116074E+02 -0.37147819853E+02  0.13115411973E+03  0.12509265520E+03 0.  0.
        -24    2    1    2    0    0  0.16432607344E+02 -0.55953586687E+02  0.74314789736E+03  0.75009670123E+03  0.83519036153E+02 0.  0.
        -11    1    3    3    0    0 -0.27060914799E+02 -0.66590602288E+01 -0.25399826763E+02  0.37706596140E+02  0.00000000000E+00 0.  1.
         12    1    3    3    0    0  0.11117641811E+02  0.49458530842E+02 -0.17276210503E+03  0.18004580852E+03  0.00000000000E+00 0. -1.
         13    1    5    5    0    0 -0.16771659622E+02 -0.65233220925E+02  0.50044913132E+03  0.50496137943E+03  0.00000000000E+00 0. -1.
        -14    1    5    5    0    0  0.33204266966E+02  0.92796342373E+01  0.24269876603E+03  0.24513532179E+03  0.00000000000E+00 0.  1.
          5    1    4    4  501    0  0.31509648511E+02 -0.23156483190E+02 -0.64396704390E+02  0.75455209225E+02  0.41800000000E+01 0.  1.
         -5    1    4    4    0  501 -0.31998982867E+02  0.36310599264E+02  0.27248884536E+02  0.55698910509E+02  0.41800000000E+01 0.  1.
</event>
<event>
11    1  0.7105277E-009  0.1396686E+03  0.7561462E-02  0.1107929E+00
         22   -1    0    0    0    0  0.00000000000E+00  0.00000000000E+00  0.25528057063E+02  0.25528057063E+02  0.00000000000E+00 0.  1.
         22   -1    0    0    0    0 -0.00000000000E+00 -0.00000000000E+00 -0.22788777231E+04  0.22788777231E+04  0.00000000000E+00 0.  1.
         24    2    1    2    0    0 -0.20463289254E+01 -0.23971991470E+01 -0.10254917710E+04  0.10286199612E+04  0.80098177949E+02 0.  0.
         25    2    1    2    0    0  0.34207593027E+02 -0.50882522770E+02 -0.11171952060E+04  0.11258469454E+04  0.12508807078E+03 0.  0.
        -24    2    1    2    0    0 -0.32161264102E+02  0.53279721917E+02 -0.11066268900E+03  0.14993887363E+03  0.79764399396E+02 0.  0.
        -13    1    3    3    0    0 -0.11325394317E+01  0.38841462808E+02 -0.51622638053E+03  0.51768679511E+03  0.00000000000E+00 0.  1.
         14    1    3    3    0    0 -0.91378949371E+00 -0.41238661955E+02 -0.50926539051E+03  0.51093316610E+03  0.00000000000E+00 0. -1.
         11    1    5    5    0    0 -0.11121814905E+02 -0.18287000592E+02 -0.75990605316E+01  0.22712438847E+02  0.00000000000E+00 0. -1.
        -12    1    5    5    0    0 -0.21039449196E+02  0.71566722509E+02 -0.10306362847E+03  0.12722643478E+03  0.00000000000E+00 0.  1.
          5    1    4    4  501    0  0.49608726827E+02 -0.42345099073E+02 -0.24812864028E+03  0.25659194789E+03  0.41800000000E+01 0.  1.
         -5    1    4    4    0  501 -0.15401133800E+02 -0.85374236969E+01 -0.86906656574E+03  0.86925499747E+03  0.41800000000E+01 0.  1.
</event>
<event>
11    1  0.7105277E-009  0.1438552E+03  0.7561462E-02  0.1103328E+00
         22   -1    0    0    0    0  0.00000000000E+00  0.00000000000E+00  0.22220752269E+04  0.22220752269E+04  0.00000000000E+00 0.  1.
         22   -1    0    0    0    0 -0.00000000000E+00 -0.00000000000E+00 -0.19497956953E+03  0.19497956953E+03  0.00000000000E+00 0. -1.
        -24    2    1    2    0    0  0.59045147348E+02 -0.44250317789E+02 -0.15889786748E+03  0.19327108169E+03  0.81613471187E+02 0.  0.
         25    2    1    2    0    0 -0.17099157738E+02  0.32187764175E+02  0.22009133189E+03  0.25576453570E+03  0.12508744937E+03 0.  0.
         24    2    1    2    0    0 -0.41945989610E+02  0.12062553614E+02  0.19659021930E+04  0.19680191791E+04  0.80144155047E+02 0.  0.
        -13    1    5    5    0    0 -0.42783062936E+02  0.34584654363E+02  0.17649343489E+04  0.17657915349E+04  0.00000000000E+00 0.  1.
         14    1    5    5    0    0  0.83707332638E+00 -0.22522100749E+02  0.20096784407E+03  0.20222764417E+03  0.00000000000E+00 0. -1.
         11    1    3    3    0    0  0.55298187112E+01 -0.44700326282E+01 -0.11086137316E+03  0.11108917205E+03  0.00000000000E+00 0. -1.
        -12    1    3    3    0    0  0.53515328637E+02 -0.39780285161E+02 -0.48036494316E+02  0.82181909645E+02  0.00000000000E+00 0.  1.
          5    1    4    4  501    0  0.40770999906E+02  0.29263636952E+02  0.17534948348E+03  0.18243779388E+03  0.41800000000E+01 0. -1.
         -5    1    4    4    0  501 -0.57870157645E+02  0.29241272233E+01  0.44741848417E+02  0.73326741818E+02  0.41800000000E+01 0. -1.
</event>
<event>
11    1  0.7105277E-009  0.1670748E+03  0.7561462E-02  0.1080606E+00
         22   -1    0    0    0    0  0.00000000000E+00  0.00000000000E+00  0.62313650895E+03  0.62313650895E+03  0.00000000000E+00 0.  1.
         22   -1    0    0    0    0 -0.00000000000E+00 -0.00000000000E+00 -0.28417210763E+03  0.28417210763E+03  0.00000000000E+00 0.  1.
         24    2    1    2    0    0 -0.83147200913E+02 -0.11902968389E+02 -0.22220373755E+03  0.25017110382E+03  0.78459814755E+02 0.  0.
         25    2    1    2    0    0  0.16367319074E+03  0.51468088028E+02  0.28229854421E+03  0.35323668030E+03  0.12508319948E+03 0.  0.
        -24    2    1    2    0    0 -0.80525989822E+02 -0.39565119639E+02  0.27886959466E+03  0.30390083246E+03  0.80855620781E+02 0.  0.
        -11    1    3    3    0    0 -0.78244135414E+02  0.21425192289E+02 -0.15152726736E+03  0.17187698026E+03  0.00000000000E+00 0.  1.
         12    1    3    3    0    0 -0.49030654991E+01 -0.33328160678E+02 -0.70676470192E+02  0.78294123561E+02  0.00000000000E+00 0. -1.
         11    1    5    5    0    0 -0.54738642854E+02  0.23673380745E+01  0.67821445121E+02  0.87187566369E+02  0.00000000000E+00 0. -1.
        -12    1    5    5    0    0 -0.25787346968E+02 -0.41932457714E+02  0.21104814954E+03  0.21671326609E+03  0.00000000000E+00 0.  1.
          5    1    4    4  501    0  0.52347361319E+02 -0.28558412752E+02  0.31966968247E+02  0.67787820697E+02  0.41800000000E+01 0. -1.
         -5    1    4    4    0  501  0.11132582942E+03  0.80026500780E+02  0.25033157597E+03  0.28544885960E+03  0.41800000000E+01 0. -1.
</event>
<event>
11    1  0.7105277E-009  0.1727419E+03  0.7561462E-02  0.1075670E+00
         22   -1    0    0    0    0  0.00000000000E+00  0.00000000000E+00  0.68134009016E+03  0.68134009016E+03  0.00000000000E+00 0. -1.
         22   -1    0    0    0    0 -0.00000000000E+00 -0.00000000000E+00 -0.44358208896E+03  0.44358208896E+03  0.00000000000E+00 0.  1.
         24    2    1    2    0    0  0.18752834626E+02 -0.29533267107E+02 -0.31658803074E+03  0.32823875154E+03  0.79302043664E+02 0.  0.
         25    2    1    2    0    0 -0.13102057197E+03  0.63428053812E+02 -0.31027662007E+02  0.19442277047E+03  0.12509192451E+03 0.  0.
        -24    2    1    2    0    0  0.11226773735E+03 -0.33894786704E+02  0.58537369394E+03  0.60226065711E+03  0.79389143602E+02 0.  0.
        -13    1    3    3    0    0 -0.22567385453E+02 -0.99846020350E+01 -0.22000492734E+03  0.22138461378E+03  0.00000000000E+00 0.  1.
         14    1    3    3    0    0  0.41320220079E+02 -0.19548665072E+02 -0.96583103402E+02  0.10685413776E+03  0.00000000000E+00 0. -1.
         11    1    5    5    0    0  0.37909548153E+02 -0.35202259377E+01  0.37738951079E+03  0.37930511292E+03  0.00000000000E+00 0. -1.
        -12    1    5    5    0    0  0.74358189194E+02 -0.30374560767E+02  0.20798418316E+03  0.22295554419E+03  0.00000000000E+00 0.  1.
          5    1    4    4  501    0 -0.13726466689E+03  0.90000547739E+02 -0.24091016043E+02  0.16595040471E+03  0.41800000000E+01 0. -1.
         -5    1    4    4    0  501  0.62440949154E+01 -0.26572493928E+02 -0.69366459647E+01  0.28472365762E+02  0.41800000000E+01 0. -1.
</event>
<event>
11    1  0.7105277E-009  0.1541425E+03  0.7561462E-02  0.1092720E+00
         22   -1    0    0    0    0  0.00000000000E+00  0.00000000000E+00  0.10031233449E+04  0.10031233449E+04  0.00000000000E+00 0.  1.
         22   -1    0    0    0    0 -0.00000000000E+00 -0.00000000000E+00 -0.56564596690E+03  0.56564596690E+03  0.00000000000E+00 0. -1.
        -24    2    1    2    0    0 -0.24622327962E+02  0.44356446658E+02 -0.50533377094E+03  0.51431590260E+03  0.81147237889E+02 0.  0.
         25    2    1    2    0    0 -0.57747832578E+02 -0.81420497528E+02  0.72170329460E+02  0.17554701721E+03  0.12507633354E+03 0.  0.
         24    2    1    2    0    0  0.82370160540E+02  0.37064050870E+02  0.87064081944E+03  0.87890639194E+03  0.79387795722E+02 0.  0.
        -11    1    5    5    0    0  0.17265196736E+02  0.42215769293E+02  0.53702070451E+03  0.53895407528E+03  0.00000000000E+00 0.  1.
         12    1    5    5    0    0  0.65104963804E+02 -0.51517184232E+01  0.33362011493E+03  0.33995231666E+03  0.00000000000E+00 0. -1.
         13    1    3    3    0    0  0.10959588391E+02  0.48242836890E+02 -0.40041426766E+03  0.40345888221E+03  0.00000000000E+00 0. -1.
        -14    1    3    3    0    0 -0.35581916353E+02 -0.38863902319E+01 -0.10491950329E+03  0.11085702039E+03  0.00000000000E+00 0.  1.
          5    1    4    4  501    0  0.28408472131E+02 -0.22676002695E+02 -0.15024864222E+02  0.39553272076E+02  0.41800000000E+01 0.  1.
         -5    1    4    4    0  501 -0.86156304708E+02 -0.58744494833E+02  0.87195193681E+02  0.13599374513E+03  0.41800000000E+01 0.  1.
</event>
<event>
11    1  0.7105277E-009  0.1384703E+03  0.7561462E-02  0.1109279E+00
         22   -1    0    0    0    0  0.00000000000E+00  0.00000000000E+00  0.14275448082E+03  0.14275448082E+03  0.00000000000E+00 0.  1.
         22   -1    0    0    0    0 -0.00000000000E+00 -0.00000000000E+00 -0.28616674647E+04  0.28616674647E+04  0.00000000000E+00 0. -1.
        -24    2    1    2    0    0 -0.20233678959E+02  0.56867282966E+02 -0.27131289898E+04  0.27149996966E+04  0.80691680220E+02 0.  0.
         25    2    1    2    0    0  0.44224357774E+02 -0.80962741914E+01 -0.90651762889E+02  0.16089297367E+03  0.12508982127E+03 0.  0.
         24    2    1    2    0    0 -0.23990678815E+02 -0.48771008774E+02  0.84867768838E+02  0.12852927529E+03  0.79768868947E+02 0.  0.
        -11    1    5    5    0    0 -0.28085789148E+02 -0.69204651799E+02  0.58205920287E+02  0.94689094088E+02  0.00000000000E+00 0.  1.
         12    1    5    5    0    0  0.40951103332E+01  0.20433643025E+02  0.26661848551E+02  0.33840181206E+02  0.00000000000E+00 0. -1.
         11    1    3    3    0    0 -0.19519086086E+02  0.33043897510E+02 -0.25341650570E+04  0.25344556477E+04  0.00000000000E+00 0. -1.
        -12    1    3    3    0    0 -0.71459287361E+00  0.23823385456E+02 -0.17896393280E+03  0.18054404887E+03  0.00000000000E+00 0.  1.
          5    1    4    4  501    0 -0.18913387175E+01 -0.24064882399E+02 -0.10660177294E+03  0.10938055641E+03  0.41800000000E+01 0. -1.
         -5    1    4    4    0  501  0.46115696492E+02  0.15968608208E+02  0.15950010052E+02  0.51512417257E+02  0.41800000000E+01 0. -1.
</event>
<event>
11    1  0.7105277E-009  0.1445356E+03  0.7561462E-02  0.1102597E+00
         22   -1    0    0    0    0  0.00000000000E+00  0.00000000000E+00  0.97210643695E+03  0.97210643695E+03  0.00000000000E+00 0. -1.
         22   -1    0    0    0    0 -0.00000000000E+00 -0.00000000000E+00 -0.47277144725E+03  0.47277144725E+03  0.00000000000E+00 0. -1.
        -24    2    1    2    0    0 -0.58668709757E+02  0.47343507618E+02 -0.42218638281E+03  0.43637374304E+03  0.80605685696E+02 0.  0.
         25    2    1    2    0    0  0.45839370476E+02  0.16230007871E+02  0.69139158723E+02  0.15097092518E+03  0.12508931186E+03 0.  0.
         24    2    1    2    0    0  0.12829339281E+02 -0.63573515489E+02  0.85238221378E+03  0.85753321598E+03  0.67835052235E+02 0.  0.
        -11    1    5    5    0    0  0.24710270497E+02 -0.16223080674E+02  0.12233647710E+03  0.12585705957E+03  0.00000000000E+00 0.  1.
         12    1    5    5    0    0 -0.11880931217E+02 -0.47350434816E+02  0.73004573668E+03  0.73167615641E+03  0.00000000000E+00 0. -1.
         11    1    3    3    0    0 -0.46757080160E+02  0.70342975309E+02 -0.32331666423E+03  0.33416765866E+03  0.00000000000E+00 0. -1.
        -12    1    3    3    0    0 -0.11911629596E+02 -0.22999467692E+02 -0.98869718576E+02  0.10220608438E+03  0.00000000000E+00 0.  1.
          5    1    4    4  501    0 -0.35960232044E+02 -0.23513252573E+02  0.22547518144E+02  0.48701892260E+02  0.41800000000E+01 0. -1.
         -5    1    4    4    0  501  0.81799602520E+02  0.39743260444E+02  0.46591640579E+02  0.10226903292E+03  0.41800000000E+01 0. -1.
</event>
<event>
11    1  0.7105277E-009  0.1956068E+03  0.7561462E-02  0.1057675E+00
         22   -1    0    0    0    0  0.00000000000E+00  0.00000000000E+00  0.26308294278E+03  0.26308294278E+03  0.00000000000E+00 0.  1.
         22   -1    0    0    0    0 -0.00000000000E+00 -0.00000000000E+00 -0.73964209930E+03  0.73964209930E+03  0.00000000000E+00 0.  1.
         24    2    1    2    0    0  0.76667720384E+02  0.81936226342E+02 -0.53807171759E+03  0.55570538807E+03  0.81827993497E+02 0.  0.
         25    2    1    2    0    0 -0.20735470800E+03 -0.93591411312E+02 -0.38757053628E+02  0.26250023168E+03  0.12509570425E+03 0.  0.
        -24    2    1    2    0    0  0.13068698762E+03  0.11655184970E+02  0.10026961469E+03  0.18451942234E+03  0.82331582759E+02 0.  0.
        -11    1    3    3    0    0  0.85790484645E+02  0.44109018844E+02 -0.32129458323E+03  0.33546359267E+03  0.00000000000E+00 0.  1.
         12    1    3    3    0    0 -0.91227642610E+01  0.37827207499E+02 -0.21677713436E+03  0.22024179539E+03  0.00000000000E+00 0. -1.
         13    1    5    5    0    0  0.46817468728E+02 -0.14087491248E+02 -0.30391021291E+01  0.48985395063E+02  0.00000000000E+00 0. -1.
        -14    1    5    5    0    0  0.83869518892E+02  0.25742676218E+02  0.10330871682E+03  0.13553402727E+03  0.00000000000E+00 0.  1.
          5    1    4    4  501    0 -0.13186862445E+02 -0.36993122059E+02 -0.45303976624E+02  0.60102471819E+02  0.41800000000E+01 0.  1.
         -5    1    4    4    0  501 -0.19416784556E+03 -0.56598289253E+02  0.65469229957E+01  0.20239775986E+03  0.41800000000E+01 0.  1.
</event>
<event>
11    1  0.7105277E-009  0.1300020E+03  0.7561462E-02  0.1119266E+00
         22   -1    0    0    0    0  0.00000000000E+00  0.00000000000E+00  0.24554218978E+03  0.24554218978E+03  0.00000000000E+00 0. -1.
         22   -1    0    0    0    0 -0.00000000000E+00 -0.00000000000E+00 -0.57864521387E+03  0.57864521387E+03  0.00000000000E+00 0. -1.
         24    2    1    2    0    0 -0.19743456402E+01  0.24335211345E+02 -0.49092816022E+03  0.49803155617E+03  0.80180246298E+02 0.  0.
         25    2    1    2    0    0 -0.20484839202E+02 -0.48833578804E+02 -0.10851608687E+02  0.13627004522E+03  0.12508965088E+03 0.  0.
        -24    2    1    2    0    0  0.22459184842E+02  0.24498367459E+02  0.16867674482E+03  0.18988580226E+03  0.80623747543E+02 0.  0.
        -13    1    3    3    0    0  0.19750751603E+02  0.66917214287E+00 -0.29627481692E+02  0.35613588019E+02  0.00000000000E+00 0.  1.
         14    1    3    3    0    0 -0.21725097243E+02  0.23666039202E+02 -0.46130067852E+03  0.46241796815E+03  0.00000000000E+00 0. -1.
         13    1    5    5    0    0 -0.27320039485E+02  0.20672506184E+02  0.94076256273E+02  0.10012032293E+03  0.00000000000E+00 0. -1.
        -14    1    5    5    0    0  0.49779224328E+02  0.38258612746E+01  0.74600488544E+02  0.89765479334E+02  0.00000000000E+00 0.  1.
          5    1    4    4  501    0 -0.37532514999E+02  0.31345960898E+02 -0.21352836340E+02  0.53522658440E+02  0.41800000000E+01 0. -1.
         -5    1    4    4    0  501  0.17047675797E+02 -0.80179539702E+02  0.10501227653E+02  0.82747386781E+02  0.41800000000E+01 0. -1.
</event>
<event>
11    1  0.7105277E-009  0.1392513E+03  0.7561462E-02  0.1108397E+00
         22   -1    0    0    0    0  0.00000000000E+00  0.00000000000E+00  0.22225328386E+03  0.22225328386E+03  0.00000000000E+00 0. -1.
         22   -1    0    0    0    0 -0.00000000000E+00 -0.00000000000E+00 -0.14715193518E+04  0.14715193518E+04  0.00000000000E+00 0. -1.
         24    2    1    2    0    0  0.13417655205E+02 -0.61244701485E+01 -0.86265203430E+03  0.86657018344E+03  0.80980293565E+02 0.  0.
         25    2    1    2    0    0 -0.60794606998E+02  0.44431953958E+02 -0.58685920572E+03  0.60474861037E+03  0.12508785566E+03 0.  0.
        -24    2    1    2    0    0  0.47376951794E+02 -0.38307483809E+02  0.20024517204E+03  0.22245384189E+03  0.75336206227E+02 0.  0.
        -11    1    3    3    0    0 -0.15129572360E+02 -0.36903246619E+02 -0.37523783656E+03  0.37735154373E+03  0.00000000000E+00 0.  1.
         12    1    3    3    0    0  0.28547227565E+02  0.30778776470E+02 -0.48741419774E+03  0.48921863971E+03  0.00000000000E+00 0. -1.
         11    1    5    5    0    0  0.23394145533E+02 -0.65192653572E+01  0.17182251774E+03  0.17353029842E+03  0.00000000000E+00 0. -1.
        -12    1    5    5    0    0  0.23982806261E+02 -0.31788218452E+02  0.28422654303E+02  0.48923543475E+02  0.00000000000E+00 0.  1.
          5    1    4    4  501    0 -0.99734268110E+02  0.33803607363E+02 -0.42948766061E+03  0.44222927438E+03  0.41800000000E+01 0. -1.
         -5    1    4    4    0  501  0.38939661112E+02  0.10628346595E+02 -0.15737154511E+03  0.16251933599E+03  0.41800000000E+01 0. -1.
</event>
<event>
11    1  0.7105277E-009  0.1491885E+03  0.7561462E-02  0.1097711E+00
         22   -1    0    0    0    0  0.00000000000E+00  0.00000000000E+00  0.15455236614E+04  0.15455236614E+04  0.00000000000E+00 0. -1.
         22   -1    0    0    0    0 -0.00000000000E+00 -0.00000000000E+00 -0.10345088068E+03  0.10345088068E+03  0.00000000000E+00 0. -1.
        -24    2    1    2    0    0  0.74444886919E+02 -0.40153081394E+02 -0.15875161228E+02  0.11735768818E+03  0.79790319564E+02 0.  0.
         25    2    1    2    0    0 -0.56366200379E+02  0.46065517414E+02  0.11143326068E+03  0.18265916882E+03  0.12509124642E+03 0.  0.
         24    2    1    2    0    0 -0.18078686540E+02 -0.59124360204E+01  0.13465146812E+04  0.13489576851E+04  0.78887600312E+02 0.  0.
        -11    1    5    5    0    0 -0.24099963607E+02  0.89731328611E+01  0.14037524392E+03  0.14271136768E+03  0.00000000000E+00 0.  1.
         12    1    5    5    0    0  0.60212770669E+01 -0.14885568882E+02  0.12061394373E+04  0.12062463174E+04  0.00000000000E+00 0. -1.
         13    1    3    3    0    0  0.25003183698E+02  0.13804759832E+02 -0.31503941298E+02  0.42523274878E+02  0.00000000000E+00 0. -1.
        -14    1    3    3    0    0  0.49441703221E+02 -0.53957841225E+02  0.15628780070E+02  0.74834413298E+02  0.00000000000E+00 0.  1.
          5    1    4    4  501    0 -0.36306811819E+02 -0.41207852387E+02  0.43137051196E+02  0.69961055372E+02  0.41800000000E+01 0. -1.
         -5    1    4    4    0  501 -0.20059388560E+02  0.87273369801E+02  0.68296209481E+02  0.11269811345E+03  0.41800000000E+01 0. -1.
</event>
<event>
11    1  0.7105277E-009  0.1458408E+03  0.7561462E-02  0.1101206E+00
         22   -1    0    0    0    0  0.00000000000E+00  0.00000000000E+00  0.21713412328E+04  0.21713412328E+04  0.00000000000E+00 0.  1.
         22   -1    0    0    0    0 -0.00000000000E+00 -0.00000000000E+00 -0.39591659212E+03  0.39591659212E+03  0.00000000000E+00 0.  1.
         24    2    1    2    0    0  0.74567558958E+02  0.25788186621E+01 -0.37448059599E+03  0.39006113691E+03  0.79655524606E+02 0.  0.
         25    2    1    2    0    0 -0.10012504441E+03  0.22119441187E+02  0.51491283469E+03  0.53972047036E+03  0.12509462260E+03 0.  0.
        -24    2    1    2    0    0  0.25557485447E+02 -0.24698259849E+02  0.16349924020E+04  0.16374762177E+04  0.82855414647E+02 0.  0.
        -11    1    3    3    0    0  0.78357337396E+02 -0.17157338257E+02 -0.21788449221E+03  0.23218074538E+03  0.00000000000E+00 0.  1.
         12    1    3    3    0    0 -0.37897784382E+01  0.19736156919E+02 -0.15659610378E+03  0.15788039153E+03  0.00000000000E+00 0. -1.
         13    1    5    5    0    0 -0.18758632583E+02  0.13502057795E+02  0.20711309877E+03  0.20839872251E+03  0.00000000000E+00 0. -1.
        -14    1    5    5    0    0  0.44316118030E+02 -0.38200317645E+02  0.14278793032E+04  0.14290774952E+04  0.00000000000E+00 0.  1.
          5    1    4    4  501    0 -0.69265477182E+02  0.55630011417E+02  0.45871431584E+03  0.46725656812E+03  0.41800000000E+01 0. -1.
         -5    1    4    4    0  501 -0.30859567223E+02 -0.33510570230E+02  0.56198518848E+02  0.72463902234E+02  0.41800000000E+01 0. -1.
</event>
<event>
11    1  0.7105277E-009  0.1347370E+03  0.7561462E-02  0.1113582E+00
         22   -1    0    0    0    0  0.00000000000E+00  0.00000000000E+00  0.12482543124E+03  0.12482543124E+03  0.00000000000E+00 0.  1.
         22   -1    0    0    0    0 -0.00000000000E+00 -0.00000000000E+00 -0.10901919742E+04  0.10901919742E+04  0.00000000000E+00 0.  1.
        -24    2    1    2    0    0 -0.13753029189E+01  0.54387869751E+02 -0.86852207218E+03  0.87386973003E+03  0.79735709375E+02 0.  0.
         25    2    1    2    0    0 -0.13572465663E+02 -0.17496964019E+02 -0.17962905473E+03  0.22000797575E+03  0.12508619635E+03 0.  0.
         24    2    1    2    0    0  0.14947768582E+02 -0.36890905732E+02  0.82784584004E+02  0.12113969961E+03  0.78975722613E+02 0.  0.
        -13    1    5    5    0    0 -0.85955590972E+01 -0.18774263707E+02  0.88509541993E+02  0.90886168572E+02  0.00000000000E+00 0.  1.
         14    1    5    5    0    0  0.23543327680E+02 -0.18116642025E+02 -0.57249579883E+01  0.30253531041E+02  0.00000000000E+00 0. -1.
         11    1    3    3    0    0  0.99977200450E+01 -0.12761893931E+02 -0.50977011762E+02  0.53492766529E+02  0.00000000000E+00 0. -1.
        -12    1    3    3    0    0 -0.11373022964E+02  0.67149763682E+02 -0.81754506042E+03  0.82037696350E+03  0.00000000000E+00 0.  1.
          5    1    4    4  501    0  0.38689109762E+02 -0.30424801484E+02 -0.23300306869E+02  0.54615862711E+02  0.41800000000E+01 0.  1.
         -5    1    4    4    0  501 -0.52261575425E+02  0.12927837466E+02 -0.15632874786E+03  0.16539211304E+03  0.41800000000E+01 0.  1.
</event>
<event>
11    1  0.7105277E-009  0.1551900E+03  0.7561462E-02  0.1091691E+00
         22   -1    0    0    0    0  0.00000000000E+00  0.00000000000E+00  0.31883483414E+03  0.31883483414E+03  0.00000000000E+00 0. -1.
         22   -1    0    0    0    0 -0.00000000000E+00 -0.00000000000E+00 -0.14898219668E+04  0.14898219668E+04  0.00000000000E+00 0. -1.
         24    2    1    2    0    0  0.15715699047E+02 -0.92639460514E+02 -0.13910261597E+04  0.13964659391E+04  0.79588249070E+02 0.  0.
         25    2    1    2    0    0 -0.94440025019E+01  0.51668951207E+02 -0.37130521576E+02  0.14063086646E+03  0.12505796763E+03 0.  0.
        -24    2    1    2    0    0 -0.62716965452E+01  0.40970509307E+02  0.25716954856E+03  0.27155999539E+03  0.76751140574E+02 0.  0.
        -11    1    3    3    0    0  0.40636152265E+02 -0.27920599147E+02 -0.40217458670E+03  0.40518545743E+03  0.00000000000E+00 0.  1.
         12    1    3    3    0    0 -0.24920453218E+02 -0.64718861367E+02 -0.98885157297E+03  0.99128048168E+03  0.00000000000E+00 0. -1.
         11    1    5    5    0    0 -0.45791345463E+01  0.36918667620E+02  0.26223245913E+03  0.26485811128E+03  0.00000000000E+00 0. -1.
        -12    1    5    5    0    0 -0.16925619989E+01  0.40518416866E+01 -0.50629105679E+01  0.67018841076E+01  0.00000000000E+00 0.  1.
          5    1    4    4  501    0 -0.61787388118E+02  0.98402252101E+01 -0.38318314895E+02  0.73486577135E+02  0.41800000000E+01 0. -1.
         -5    1    4    4    0  501  0.52343385616E+02  0.41828725997E+02  0.11877933189E+01  0.67144289327E+02  0.41800000000E+01 0. -1.
</event>
<event>
11    1  0.7105277E-009  0.3062003E+03  0.7561462E-02  0.9976007E-01
         22   -1    0    0    0    0  0.00000000000E+00  0.00000000000E+00  0.60738911838E+03  0.60738911838E+03  0.00000000000E+00 0. -1.
         22   -1    0    0    0    0 -0.00000000000E+00 -0.00000000000E+00 -0.79277010772E+03  0.79277010772E+03  0.00000000000E+00 0. -1.
        -24    2    1    2    0    0  0.71741871888E+02  0.30048965822E+02 -0.62613604202E+03  0.63601700406E+03  0.80133949107E+02 0.  0.
         25    2    1    2    0    0  0.14446859061E+03  0.18486069092E+03  0.65038454703E+02  0.27372198973E+03  0.12509627633E+03 0.  0.
         24    2    1    2    0    0 -0.21621046250E+03 -0.21490965674E+03  0.37571659798E+03  0.49042023232E+03  0.80099423324E+02 0.  0.
        -11    1    5    5    0    0 -0.63627912211E+02 -0.19308313658E+02  0.92502341726E+02  0.11392104904E+03  0.00000000000E+00 0.  1.
         12    1    5    5    0    0 -0.15258255028E+03 -0.19560134308E+03  0.28321425626E+03  0.37649918329E+03  0.00000000000E+00 0. -1.
         11    1    3    3    0    0  0.38165235060E+01  0.37327370028E+02 -0.32880565288E+03  0.33093965578E+03  0.00000000000E+00 0. -1.
        -12    1    3    3    0    0  0.67925348382E+02 -0.72784042067E+01 -0.29733038915E+03  0.30507734827E+03  0.00000000000E+00 0.  1.
          5    1    4    4  501    0 -0.15773105624E+02  0.20366907393E+02  0.32604659172E+02  0.41762877984E+02  0.41800000000E+01 0.  1.
         -5    1    4    4    0  501  0.16024169623E+03  0.16449378353E+03  0.32433795531E+02  0.23195911175E+03  0.41800000000E+01 0.  1.
</event>
<event>
11    1  0.7105277E-009  0.1479445E+03  0.7561462E-02  0.1098998E+00
         22   -1    0    0    0    0  0.00000000000E+00  0.00000000000E+00  0.10161359637E+04  0.10161359637E+04  0.00000000000E+00 0.  1.
         22   -1    0    0    0    0 -0.00000000000E+00 -0.00000000000E+00 -0.10405903365E+03  0.10405903365E+03  0.00000000000E+00 0. -1.
         24    2    1    2    0    0 -0.87870672460E+02 -0.66932586009E+01  0.37131645890E+02  0.12504489125E+03  0.80569292614E+02 0.  0.
         25    2    1    2    0    0  0.69022122887E+02  0.35274522766E+01  0.29754213079E+02  0.14597713087E+03  0.12509002028E+03 0.  0.
        -24    2    1    2    0    0  0.18848549573E+02  0.31658063243E+01  0.84519107113E+03  0.84917297528E+03  0.79884323070E+02 0.  0.
        -13    1    3    3    0    0 -0.46230871002E+01 -0.16183803365E+02  0.37666949260E+02  0.41256363052E+02  0.00000000000E+00 0.  1.
         14    1    3    3    0    0 -0.83247585360E+02  0.94905447636E+01 -0.53530337053E+00  0.83788528200E+02  0.00000000000E+00 0. -1.
         11    1    5    5    0    0  0.41435308807E+02  0.23893559727E+02  0.38460195535E+03  0.38756477016E+03  0.00000000000E+00 0. -1.
        -12    1    5    5    0    0 -0.22586759233E+02 -0.20727753402E+02  0.46058911578E+03  0.46160820512E+03  0.00000000000E+00 0.  1.
          5    1    4    4  501    0  0.29940557938E+02  0.41990260738E+02 -0.33900415471E+02  0.61857332432E+02  0.41800000000E+01 0. -1.
         -5    1    4    4    0  501  0.39081564949E+02 -0.38462808461E+02  0.63654628550E+02  0.84119798439E+02  0.41800000000E+01 0. -1.
</event>
<event>
11    1  0.7105277E-009  0.3224800E+03  0.7561462E-02  0.9911018E-01
         22   -1    0    0    0    0  0.00000000000E+00  0.00000000000E+00  0.95474327100E+02  0.95474327100E+02  0.00000000000E+00 0. -1.
         22   -1    0    0    0    0 -0.00000000000E+00 -0.00000000000E+00 -0.87857724585E+03  0.87857724585E+03  0.00000000000E+00 0. -1.
         24    2    1    2    0    0 -0.67836714966E+02  0.11316918706E+03 -0.32787080065E+03  0.36236677048E+03  0.80008309752E+02 0.  0.
         25    2    1    2    0    0 -0.65429527936E+02  0.77899519272E+02 -0.20984562577E+03  0.26463586969E+03  0.12509036190E+03 0.  0.
        -24    2    1    2    0    0  0.13326624290E+03 -0.19106870633E+03 -0.24538649232E+03  0.34704893279E+03  0.77209384775E+02 0.  0.
        -11    1    3    3    0    0  0.15182167227E+02  0.11846042416E+02 -0.76824044887E+02  0.79200762594E+02  0.00000000000E+00 0.  1.
         12    1    3    3    0    0 -0.83018882193E+02  0.10132314464E+03 -0.25104675577E+03  0.28316600788E+03  0.00000000000E+00 0. -1.
         11    1    5    5    0    0  0.13104787131E+02 -0.78252377458E+02 -0.96576644174E+02  0.12498887240E+03  0.00000000000E+00 0. -1.
        -12    1    5    5    0    0  0.12016145577E+03 -0.11281632887E+03 -0.14880984815E+03  0.22206006039E+03  0.00000000000E+00 0.  1.
          5    1    4    4  501    0 -0.95322213045E+00 -0.95204091513E+01 -0.12835001620E+03  0.12877401089E+03  0.41800000000E+01 0.  1.
         -5    1    4    4    0  501 -0.64476305805E+02  0.87419928423E+02 -0.81495609575E+02  0.13586185880E+03  0.41800000000E+01 0.  1.
</event>
<event>
11    1  0.7105277E-009  0.1565244E+03  0.7561462E-02  0.1090393E+00
         22   -1    0    0    0    0  0.00000000000E+00  0.00000000000E+00  0.62373477124E+03  0.62373477124E+03  0.00000000000E+00 0. -1.
         22   -1    0    0    0    0 -0.00000000000E+00 -0.00000000000E+00 -0.60210353863E+03  0.60210353863E+03  0.00000000000E+00 0.  1.
         24    2    1    2    0    0  0.20028030931E+02  0.39760923746E+02 -0.56268761800E+03  0.56989598650E+03  0.78625866608E+02 0.  0.
         25    2    1    2    0    0  0.12411981497E+02 -0.11823477131E+03  0.27046648762E+03  0.32083335213E+03  0.12509356690E+03 0.  0.
        -24    2    1    2    0    0 -0.32440012428E+02  0.78473847564E+02  0.31385236298E+03  0.33510897124E+03  0.81143192555E+02 0.  0.
        -11    1    3    3    0    0 -0.11808124107E+02  0.51654073187E+02 -0.41381509973E+03  0.41719361433E+03  0.00000000000E+00 0.  1.
         12    1    3    3    0    0  0.31836155039E+02 -0.11893149441E+02 -0.14887251827E+03  0.15270237218E+03  0.00000000000E+00 0. -1.
         11    1    5    5    0    0 -0.20366471768E+02  0.17773573242E+02  0.22619901240E+03  0.22780844209E+03  0.00000000000E+00 0. -1.
        -12    1    5    5    0    0 -0.12073540660E+02  0.60700274322E+02  0.87653350581E+02  0.10730052915E+03  0.00000000000E+00 0.  1.
          5    1    4    4  501    0  0.65966492018E+02 -0.62480309614E+02  0.18063764522E+03  0.20224440271E+03  0.41800000000E+01 0.  1.
         -5    1    4    4    0  501 -0.53554510521E+02 -0.55754461696E+02  0.89828842401E+02  0.11858894942E+03  0.41800000000E+01 0.  1.
</event>
<event>
11    1  0.7105277E-009  0.1539964E+03  0.7561462E-02  0.1092864E+00
         22   -1    0    0    0    0  0.00000000000E+00  0.00000000000E+00  0.13191353668E+04  0.13191353668E+04  0.00000000000E+00 0. -1.
         22   -1    0    0    0    0 -0.00000000000E+00 -0.00000000000E+00 -0.10469928070E+04  0.10469928070E+04  0.00000000000E+00 0. -1.
        -24    2    1    2    0    0  0.97813901181E+01 -0.37663466245E+02 -0.10295974570E+04  0.10333789552E+04  0.79290158104E+02 0.  0.
         25    2    1    2    0    0 -0.94333414397E+02  0.44928710470E+02  0.62117445232E+03  0.64220135227E+03  0.12508994583E+03 0.  0.
         24    2    1    2    0    0  0.84552024278E+02 -0.72652442254E+01  0.68056556446E+03  0.69054786637E+03  0.80529743789E+02 0.  0.
        -13    1    5    5    0    0  0.60662384183E+02  0.27568227525E+02  0.28270368772E+03  0.29045018002E+03  0.00000000000E+00 0.  1.
         14    1    5    5    0    0  0.23889640095E+02 -0.34833471750E+02  0.39786187674E+03  0.40009768635E+03  0.00000000000E+00 0. -1.
         13    1    3    3    0    0  0.10718655530E+02  0.28775433756E+01 -0.80955252319E+03  0.80962859240E+03  0.00000000000E+00 0. -1.
        -14    1    3    3    0    0 -0.93726541222E+00 -0.40541009620E+02 -0.22004493383E+03  0.22375036275E+03  0.00000000000E+00 0.  1.
          5    1    4    4  501    0 -0.49765516003E+02  0.34443468168E+02  0.87064050314E+02  0.10611588166E+03  0.41800000000E+01 0. -1.
         -5    1    4    4    0  501 -0.44567898394E+02  0.10485242302E+02  0.53411040201E+03  0.53608547061E+03  0.41800000000E+01 0. -1.
</event>
<event>
11    1  0.7105277E-009  0.1305403E+03  0.7561462E-02  0.1118607E+00
         22   -1    0    0    0    0  0.00000000000E+00  0.00000000000E+00  0.42811882840E+02  0.42811882840E+02  0.00000000000E+00 0.  1.
         22   -1    0    0    0    0 -0.00000000000E+00 -0.00000000000E+00 -0.93043893026E+03  0.93043893026E+03  0.00000000000E+00 0.  1.
         24    2    1    2    0    0  0.26898565710E+02 -0.19165736650E+02 -0.59008589621E+03  0.59693238422E+03  0.83881154751E+02 0.  0.
         25    2    1    2    0    0 -0.43366752670E+02  0.42349896730E+02 -0.24860085260E+03  0.28482265409E+03  0.12508945351E+03 0.  0.
        -24    2    1    2    0    0  0.16468186960E+02 -0.23184160080E+02 -0.48940298604E+02  0.91495774789E+02  0.71886142729E+02 0.  0.
        -13    1    3    3    0    0  0.29314910888E+02 -0.84963030838E+01 -0.58321694452E+03  0.58401503023E+03  0.00000000000E+00 0.  1.
         14    1    3    3    0    0 -0.24163451778E+01 -0.10669433566E+02 -0.68689516981E+01  0.12917353989E+02  0.00000000000E+00 0. -1.
         13    1    5    5    0    0 -0.27179270951E+02 -0.16710896730E+02 -0.28840447035E+02  0.43008583144E+02  0.00000000000E+00 0. -1.
        -14    1    5    5    0    0  0.43647457911E+02 -0.64732633500E+01 -0.20099851569E+02  0.48487191644E+02  0.00000000000E+00 0.  1.
          5    1    4    4  501    0 -0.51961710472E+02 -0.33867700677E+02 -0.10866562358E+03  0.12519077703E+03  0.41800000000E+01 0. -1.
         -5    1    4    4    0  501  0.85949578022E+01  0.76217597406E+02 -0.13993522902E+03  0.15963187706E+03  0.41800000000E+01 0. -1.
</event>
<event>
11    1  0.7105277E-009  0.1655420E+03  0.7561462E-02  0.1081978E+00
         22   -1    0    0    0    0  0.00000000000E+00  0.00000000000E+00  0.58935777940E+03  0.58935777940E+03  0.00000000000E+00 0. -1.
         22   -1    0    0    0    0 -0.00000000000E+00 -0.00000000000E+00 -0.16774877230E+04  0.16774877230E+04  0.00000000000E+00 0.  1.
        -24    2    1    2    0    0 -0.10354296326E+03 -0.36142917085E+02 -0.16358709828E+04  0.16416075456E+04  0.82304347629E+02 0.  0.
         25    2    1    2    0    0  0.43743171282E+02  0.23396127512E+02  0.10395984082E+03  0.17004835899E+03  0.12509177461E+03 0.  0.
         24    2    1    2    0    0  0.59799791979E+02  0.12746789574E+02  0.44378119842E+03  0.45518959780E+03  0.80729933172E+02 0.  0.
        -13    1    5    5    0    0  0.62944719950E+02  0.52634571530E+01  0.17108719445E+03  0.18237480598E+03  0.00000000000E+00 0.  1.
         14    1    5    5    0    0 -0.31449279713E+01  0.74833324207E+01  0.27269400397E+03  0.27281479182E+03  0.00000000000E+00 0. -1.
         11    1    3    3    0    0 -0.44514411596E+01  0.21101660674E+02 -0.19161198293E+03  0.19282180223E+03  0.00000000000E+00 0. -1.
        -12    1    3    3    0    0 -0.99091522101E+02 -0.57244577760E+02 -0.14442589999E+04  0.14487857433E+04  0.00000000000E+00 0.  1.
          5    1    4    4  501    0  0.49430263745E+02  0.41226304006E+02  0.16975802607E+00  0.64501630473E+02  0.41800000000E+01 0. -1.
         -5    1    4    4    0  501 -0.56870924632E+01 -0.17830176495E+02  0.10379008279E+03  0.10554672851E+03  0.41800000000E+01 0. -1.
</event>
<event>
11    1  0.7105277E-009  0.1871476E+03  0.7561462E-02  0.1064004E+00
         22   -1    0    0    0    0  0.00000000000E+00  0.00000000000E+00  0.27107844699E+03  0.27107844699E+03  0.00000000000E+00 0.  1.
         22   -1    0    0    0    0 -0.00000000000E+00 -0.00000000000E+00 -0.27549689971E+04  0.27549689971E+04  0.00000000000E+00 0.  1.
        -24    2    1    2    0    0 -0.10880030291E+03 -0.86382178316E+02 -0.26683875004E+04  0.26733058035E+04  0.83502574749E+02 0.  0.
         25    2    1    2    0    0  0.12246042072E+03  0.96943031095E+02  0.70633703926E+02  0.21219420891E+03  0.12507100481E+03 0.  0.
         24    2    1    2    0    0 -0.13660117809E+02 -0.10560852778E+02  0.11386324643E+03  0.14054743163E+03  0.80564329705E+02 0.  0.
        -11    1    5    5    0    0 -0.11795699126E+02 -0.34671336345E+02  0.11015357782E+03  0.11608208643E+03  0.00000000000E+00 0.  1.
         12    1    5    5    0    0 -0.18644186826E+01  0.24110483567E+02  0.37096686066E+01  0.24465345205E+02  0.00000000000E+00 0. -1.
         13    1    3    3    0    0 -0.18605786177E+02 -0.65708293485E+02 -0.13007607223E+04  0.13025521916E+04  0.00000000000E+00 0. -1.
        -14    1    3    3    0    0 -0.90194516733E+02 -0.20673884831E+02 -0.13676267782E+04  0.13707536120E+04  0.00000000000E+00 0.  1.
          5    1    4    4  501    0  0.64011530249E+01  0.48471615057E+02  0.71051388682E+02  0.86349548116E+02  0.41800000000E+01 0. -1.
         -5    1    4    4    0  501  0.11605926769E+03  0.48471416038E+02 -0.41768475623E+00  0.12584466080E+03  0.41800000000E+01 0. -1.
</event>
<event>
11    1  0.7105277E-009  0.1821057E+03  0.7561462E-02  0.1067952E+00
         22   -1    0    0    0    0  0.00000000000E+00  0.00000000000E+00  0.63926405378E+03  0.63926405378E+03  0.00000000000E+00 0. -1.
         22   -1    0    0    0    0 -0.00000000000E+00 -0.00000000000E+00 -0.69062896825E+03  0.69062896825E+03  0.00000000000E+00 0.  1.
         24    2    1    2    0    0  0.95506097020E+02 -0.88224601337E+02 -0.54999762104E+03  0.57028687131E+03  0.76319968503E+02 0.  0.
         25    2    1    2    0    0 -0.13385945974E+03  0.75170452435E+02 -0.49991254868E+02  0.20425369102E+03  0.12510592652E+03 0.  0.
        -24    2    1    2    0    0  0.38353362723E+02  0.13054148902E+02  0.54862396143E+03  0.55535245970E+03  0.76070442358E+02 0.  0.
        -13    1    3    3    0    0  0.10286705883E+03 -0.58284769138E+02 -0.46742113672E+03  0.48214237021E+03  0.00000000000E+00 0.  1.
         14    1    3    3    0    0 -0.73609618058E+01 -0.29939832199E+02 -0.82576484320E+02  0.88144501096E+02  0.00000000000E+00 0. -1.
         13    1    5    5    0    0  0.45151745623E+02  0.38792243024E+02  0.37136200536E+03  0.37610272171E+03  0.00000000000E+00 0. -1.
        -14    1    5    5    0    0 -0.67983828999E+01 -0.25738094122E+02  0.17726195607E+03  0.17924973799E+03  0.00000000000E+00 0.  1.
          5    1    4    4  501    0  0.11636043381E+02  0.45277874970E+02 -0.26244568101E+02  0.53774838188E+02  0.41800000000E+01 0. -1.
         -5    1    4    4    0  501 -0.14549550312E+03  0.29892577465E+02 -0.23746686767E+02  0.15047885283E+03  0.41800000000E+01 0. -1.
</event>
<event>
11    1  0.7105277E-009  0.4134114E+03  0.7561462E-02  0.9610995E-01
         22   -1    0    0    0    0  0.00000000000E+00  0.00000000000E+00  0.19399964362E+03  0.19399964362E+03  0.00000000000E+00 0. -1.
         22   -1    0    0    0    0 -0.00000000000E+00 -0.00000000000E+00 -0.16713862127E+04  0.16713862127E+04  0.00000000000E+00 0. -1.
        -24    2    1    2    0    0  0.15276790837E+02 -0.39372303516E+02 -0.61090376891E+03  0.61768701225E+03  0.80933748258E+02 0.  0.
         25    2    1    2    0    0 -0.27348683507E+03 -0.26567298184E+03 -0.70190213826E+03  0.80851040766E+03  0.12508111518E+03 0.  0.
         24    2    1    2    0    0  0.25821004423E+03  0.30504528535E+03 -0.16458066190E+03  0.43918843640E+03  0.77939947004E+02 0.  0.
        -11    1    5    5    0    0  0.78161810482E+02  0.14904418532E+03 -0.55876675420E+02  0.17732918726E+03  0.00000000000E+00 0.  1.
         12    1    5    5    0    0  0.18004823375E+03  0.15600110003E+03 -0.10870398648E+03  0.26185924915E+03  0.00000000000E+00 0. -1.
         11    1    3    3    0    0  0.76358591186E+01 -0.98985031382E+01 -0.54440983517E+03  0.54455335399E+03  0.00000000000E+00 0. -1.
        -12    1    3    3    0    0  0.76409317179E+01 -0.29473800378E+02 -0.66493933743E+02  0.73133658263E+02  0.00000000000E+00 0.  1.
          5    1    4    4  501    0 -0.16585175279E+03 -0.17209296859E+03 -0.55210236070E+03  0.60162885804E+03  0.41800000000E+01 0. -1.
         -5    1    4    4    0  501 -0.10763508228E+03 -0.93580013244E+02 -0.14979977756E+03  0.20688154962E+03  0.41800000000E+01 0. -1.
</event>
<event>
11    1  0.7105277E-009  0.1418715E+03  0.7561462E-02  0.1105486E+00
         22   -1    0    0    0    0  0.00000000000E+00  0.00000000000E+00  0.12701550268E+03  0.12701550268E+03  0.00000000000E+00 0. -1.
         22   -1    0    0    0    0 -0.00000000000E+00 -0.00000000000E+00 -0.52017212299E+03  0.52017212299E+03  0.00000000000E+00 0.  1.
        -24    2    1    2    0    0  0.40104094693E+00  0.19150017192E+02 -0.35258019090E+03  0.36201109792E+03  0.79827063140E+02 0.  0.
         25    2    1    2    0    0 -0.49568546977E+02  0.30175915758E+02 -0.92028605858E+02  0.16578228814E+03  0.12508747349E+03 0.  0.
         24    2    1    2    0    0  0.49167506030E+02 -0.49325932949E+02  0.51452176449E+02  0.11939423961E+03  0.82201987081E+02 0.  0.
        -13    1    5    5    0    0  0.21408698978E+02 -0.50416553939E+02 -0.64701597643E+01  0.55154548955E+02  0.00000000000E+00 0.  1.
         14    1    5    5    0    0  0.27758807052E+02  0.10906209893E+01  0.57922336213E+02  0.64239690655E+02  0.00000000000E+00 0. -1.
         13    1    3    3    0    0  0.68923226414E+00  0.74314663898E+01  0.16033433504E+01  0.76336389563E+01  0.00000000000E+00 0. -1.
        -14    1    3    3    0    0 -0.28819131721E+00  0.11718550802E+02 -0.35418353425E+03  0.35437745897E+03  0.00000000000E+00 0.  1.
          5    1    4    4  501    0 -0.30465547339E+02  0.26634550971E+01  0.27647060940E+02  0.41437615114E+02  0.41800000000E+01 0. -1.
         -5    1    4    4    0  501 -0.19102999638E+02  0.27512460661E+02 -0.11967566680E+03  0.12434467303E+03  0.41800000000E+01 0. -1.
</event>
<event>
11    1  0.7105277E-009  0.1311499E+03  0.7561462E-02  0.1117864E+00
         22   -1    0    0    0    0  0.00000000000E+00  0.00000000000E+00  0.40946774427E+03  0.40946774427E+03  0.00000000000E+00 0. -1.
         22   -1    0    0    0    0 -0.00000000000E+00 -0.00000000000E+00 -0.15878434642E+04  0.15878434642E+04  0.00000000000E+00 0. -1.
         24    2    1    2    0    0 -0.11629762269E+02 -0.18624725903E+02 -0.15519881299E+04  0.15542689120E+04  0.81256161406E+02 0.  0.
         25    2    1    2    0    0  0.44651821300E+02  0.30583106706E+02  0.14983354000E+03  0.20254863647E+03  0.12508696521E+03 0.  0.
        -24    2    1    2    0    0 -0.33022059031E+02 -0.11958380803E+02  0.22377886994E+03  0.24049366000E+03  0.80788356931E+02 0.  0.
        -13    1    3    3    0    0  0.12622075285E+02  0.26424916905E+02 -0.36249445022E+03  0.36367543147E+03  0.00000000000E+00 0.  1.
         14    1    3    3    0    0 -0.24251837554E+02 -0.45049642809E+02 -0.11894936797E+04  0.11905934805E+04  0.00000000000E+00 0. -1.
         13    1    5    5    0    0 -0.30904746384E+02 -0.35691925957E+02  0.20439608692E+03  0.20977792371E+03  0.00000000000E+00 0. -1.
        -14    1    5    5    0    0 -0.21173126462E+01  0.23733545154E+02  0.19382783021E+02  0.30715736294E+02  0.00000000000E+00 0.  1.
          5    1    4    4  501    0  0.33010531580E+02 -0.43935902116E+02  0.92663300253E+02  0.10781474066E+03  0.41800000000E+01 0.  1.
         -5    1    4    4    0  501  0.11641289720E+02  0.74519008823E+02  0.57170239750E+02  0.94733895810E+02  0.41800000000E+01 0.  1.
</event>
<event>
11    1  0.7105277E-009  0.1967224E+03  0.7561462E-02  0.1056866E+00
         22   -1    0    0    0    0  0.00000000000E+00  0.00000000000E+00  0.16182652754E+03  0.16182652754E+03  0.00000000000E+00 0. -1.
         22   -1    0    0    0    0 -0.00000000000E+00 -0.00000000000E+00 -0.26883541227E+04  0.26883541227E+04  0.00000000000E+00 0. -1.
        -24    2    1    2    0    0 -0.56861818607E+02 -0.74337374698E+01 -0.11124858010E+04  0.11167704848E+04  0.79139948914E+02 0.  0.
         25    2    1    2    0    0  0.54942411061E+02 -0.14462480765E+03 -0.15188111220E+04  0.15317864116E+04  0.12508949963E+03 0.  0.
         24    2    1    2    0    0  0.19194075467E+01  0.15205854511E+03  0.10476932780E+03  0.20162375385E+03  0.80932322346E+02 0.  0.
        -11    1    5    5    0    0 -0.25744772456E+02  0.24794880361E+02  0.47263171707E+02  0.59256955716E+02  0.00000000000E+00 0.  1.
         12    1    5    5    0    0  0.27664180002E+02  0.12726366475E+03  0.57506156090E+02  0.14236679813E+03  0.00000000000E+00 0. -1.
         13    1    3    3    0    0 -0.47780578731E+02  0.27617719269E+02 -0.46324950593E+03  0.46652526926E+03  0.00000000000E+00 0. -1.
        -14    1    3    3    0    0 -0.90812398765E+01 -0.35051456738E+02 -0.64923629505E+03  0.65024521555E+03  0.00000000000E+00 0.  1.
          5    1    4    4  501    0  0.59694051258E+02 -0.16118357466E+03 -0.14666931422E+04  0.14767361885E+04  0.41800000000E+01 0. -1.
         -5    1    4    4    0  501 -0.47516401977E+01  0.16558767017E+02 -0.52117979723E+02  0.55050223071E+02  0.41800000000E+01 0. -1.
</event>
<event>
11    1  0.7105277E-009  0.1434188E+03  0.7561462E-02  0.1103800E+00
         22   -1    0    0    0    0  0.00000000000E+00  0.00000000000E+00  0.53712650083E+03  0.53712650083E+03  0.00000000000E+00 0. -1.
         22   -1    0    0    0    0 -0.00000000000E+00 -0.00000000000E+00 -0.29363649487E+03  0.29363649487E+03  0.00000000000E+00 0.  1.
        -24    2    1    2    0    0 -0.65382962931E+02 -0.51484774066E+02 -0.18937920727E+03  0.22193551903E+03  0.80406944094E+02 0.  0.
         25    2    1    2    0    0  0.29988278979E+02  0.10138144937E+02 -0.33266707979E+02  0.13325162194E+03  0.12508893649E+03 0.  0.
         24    2    1    2    0    0  0.35394683952E+02  0.41346629129E+02  0.46613592121E+03  0.47557585473E+03  0.76989409502E+02 0.  0.
        -11    1    5    5    0    0  0.56400552641E+02  0.38734909037E+02  0.27992217288E+03  0.28816286781E+03  0.00000000000E+00 0.  1.
         12    1    5    5    0    0 -0.21005868689E+02  0.26117200919E+01  0.18621374833E+03  0.18741298692E+03  0.00000000000E+00 0. -1.
         13    1    3    3    0    0 -0.61151545069E+02 -0.23778583595E+02 -0.57912810619E+02  0.87514719539E+02  0.00000000000E+00 0. -1.
        -14    1    3    3    0    0 -0.42314178616E+01 -0.27706190471E+02 -0.13146639665E+03  0.13442079949E+03  0.00000000000E+00 0.  1.
          5    1    4    4  501    0  0.51364706489E+02 -0.39225205412E+02  0.80927556470E+01  0.65268023612E+02  0.41800000000E+01 0. -1.
         -5    1    4    4    0  501 -0.21376427510E+02  0.49363350348E+02 -0.41359463626E+02  0.67983598332E+02  0.41800000000E+01 0. -1.
</event>
<event>
11    1  0.7105277E-009  0.1521710E+03  0.7561462E-02  0.1094681E+00
         22   -1    0    0    0    0  0.00000000000E+00  0.00000000000E+00  0.25332842739E+04  0.25332842739E+04  0.00000000000E+00 0.  1.
         22   -1    0    0    0    0 -0.00000000000E+00 -0.00000000000E+00 -0.38100034369E+03  0.38100034369E+03  0.00000000000E+00 0.  1.
        -24    2    1    2    0    0  0.60913418679E+01  0.20040542283E+02 -0.36219316422E+03  0.37172181034E+03  0.80959794315E+02 0.  0.
         25    2    1    2    0    0  0.66901362734E+02 -0.65379368954E+02  0.48452240134E+03  0.50907871382E+03  0.12509566437E+03 0.  0.
         24    2    1    2    0    0 -0.72992704602E+02  0.45338826671E+02  0.20299546931E+04  0.20334840935E+04  0.83414375886E+02 0.  0.
        -11    1    5    5    0    0 -0.22950622791E+02 -0.15966591926E+01  0.13247663423E+04  0.13249660909E+04  0.00000000000E+00 0.  1.
         12    1    5    5    0    0 -0.50042081811E+02  0.46935485863E+02  0.70518835084E+03  0.70851800256E+03  0.00000000000E+00 0. -1.
         11    1    3    3    0    0 -0.18745959504E+02  0.41984305173E+02 -0.14793970341E+03  0.15492013660E+03  0.00000000000E+00 0. -1.
        -12    1    3    3    0    0  0.24837301372E+02 -0.21943762889E+02 -0.21425346081E+03  0.21680167374E+03  0.00000000000E+00 0.  1.
          5    1    4    4  501    0  0.41385196975E+02 -0.57797680986E+02  0.95509296998E+02  0.11913355811E+03  0.41800000000E+01 0.  1.
         -5    1    4    4    0  501  0.25516165759E+02 -0.75816879677E+01  0.38901310434E+03  0.38994515571E+03  0.41800000000E+01 0.  1.
</event>
<event>
11    1  0.7105277E-009  0.1607593E+03  0.7561462E-02  0.1086365E+00
         22   -1    0    0    0    0  0.00000000000E+00  0.00000000000E+00  0.66682975014E+02  0.66682975014E+02  0.00000000000E+00 0. -1.
         22   -1    0    0    0    0 -0.00000000000E+00 -0.00000000000E+00 -0.13331198803E+04  0.13331198803E+04  0.00000000000E+00 0. -1.
        -24    2    1    2    0    0 -0.34020309459E+02  0.75009772757E+02 -0.77842914992E+03  0.78684620724E+03  0.79944761787E+02 0.  0.
         25    2    1    2    0    0  0.99559352587E+02  0.92308826097E+01 -0.44257556590E+03  0.47065847233E+03  0.12509593183E+03 0.  0.
         24    2    1    2    0    0 -0.65539043128E+02 -0.84240655367E+02 -0.45432189508E+02  0.14229817579E+03  0.82418643518E+02 0.  0.
        -13    1    5    5    0    0  0.21088129850E+01 -0.54873001885E+02 -0.40788485463E+02  0.68404634159E+02  0.00000000000E+00 0.  1.
         14    1    5    5    0    0 -0.67647856113E+02 -0.29367653482E+02 -0.46437040454E+01  0.73893541632E+02  0.00000000000E+00 0. -1.
         13    1    3    3    0    0 -0.59875486856E+02  0.59113339975E+02 -0.54637235580E+03  0.55281299919E+03  0.00000000000E+00 0. -1.
        -14    1    3    3    0    0  0.25855177397E+02  0.15896432782E+02 -0.23205679411E+03  0.23403320805E+03  0.00000000000E+00 0.  1.
          5    1    4    4  501    0  0.10995460247E+03 -0.31913798538E+02 -0.27879865831E+03  0.30142108324E+03  0.41800000000E+01 0. -1.
         -5    1    4    4    0  501 -0.10395249888E+02  0.41144681147E+02 -0.16377690759E+03  0.16923738909E+03  0.41800000000E+01 0. -1.
</event>
<event>
11    1  0.7105277E-009  0.1338948E+03  0.7561462E-02  0.1114574E+00
         22   -1    0    0    0    0  0.00000000000E+00  0.00000000000E+00  0.33277552147E+03  0.33277552147E+03  0.00000000000E+00 0. -1.
         22   -1    0    0    0    0 -0.00000000000E+00 -0.00000000000E+00 -0.39359289072E+03  0.39359289072E+03  0.00000000000E+00 0.  1.
        -24    2    1    2    0    0  0.32348526634E+02  0.35731939143E+02 -0.30377984636E+03  0.31797233057E+03  0.80628836649E+02 0.  0.
         25    2    1    2    0    0 -0.54726292704E+01 -0.52786707841E+02 -0.14223448869E+02  0.13662503463E+03  0.12509079660E+03 0.  0.
         24    2    1    2    0    0 -0.26875897363E+02  0.17054768699E+02  0.25718592598E+03  0.27177104699E+03  0.81864048653E+02 0.  0.
        -13    1    5    5    0    0  0.15262547744E+02 -0.73684823565E+01  0.96783572273E+01  0.19516928408E+02  0.00000000000E+00 0.  1.
         14    1    5    5    0    0 -0.42138445107E+02  0.24423251055E+02  0.24750756876E+03  0.25225411858E+03  0.00000000000E+00 0. -1.
         11    1    3    3    0    0  0.10594911935E+02  0.22313601891E+02 -0.16837696545E+02  0.29894096628E+02  0.00000000000E+00 0. -1.
        -12    1    3    3    0    0  0.21753614699E+02  0.13418337252E+02 -0.28694214982E+03  0.28807823394E+03  0.00000000000E+00 0.  1.
          5    1    4    4  501    0 -0.60725731541E+02 -0.12895364908E+02 -0.25830075375E+02  0.67368910494E+02  0.41800000000E+01 0.  1.
         -5    1    4    4    0  501  0.55253102270E+02 -0.39891342933E+02  0.11606626507E+02  0.69256124136E+02  0.41800000000E+01 0.  1.
</event>
<event>
11    1  0.7105277E-009  0.1393507E+03  0.7561462E-02  0.1108286E+00
         22   -1    0    0    0    0  0.00000000000E+00  0.00000000000E+00  0.22453437042E+03  0.22453437042E+03  0.00000000000E+00 0. -1.
         22   -1    0    0    0    0 -0.00000000000E+00 -0.00000000000E+00 -0.25478669327E+04  0.25478669327E+04  0.00000000000E+00 0.  1.
        -24    2    1    2    0    0 -0.41728051854E+02  0.45919127598E+02 -0.24838754212E+04  0.24860390199E+04  0.83084919402E+02 0.  0.
         25    2    1    2    0    0  0.15354957979E+02 -0.16336889065E+01  0.39405333420E+02  0.13205207147E+03  0.12508607278E+03 0.  0.
         24    2    1    2    0    0  0.26373093875E+02 -0.44285438692E+02  0.12113752545E+03  0.15431021181E+03  0.80502181556E+02 0.  0.
        -13    1    5    5    0    0 -0.90963851368E+01 -0.53645718447E+02  0.48299563982E+02  0.72756135212E+02  0.00000000000E+00 0.  1.
         14    1    5    5    0    0  0.35469479012E+02  0.93602797550E+01  0.72837961465E+02  0.81554076593E+02  0.00000000000E+00 0. -1.
         11    1    3    3    0    0  0.17331336114E+02  0.31890399950E+02 -0.54135777447E+03  0.54257314050E+03  0.00000000000E+00 0. -1.
        -12    1    3    3    0    0 -0.59059387969E+02  0.14028727648E+02 -0.19425176467E+04  0.19434658794E+04  0.00000000000E+00 0.  1.
          5    1    4    4  501    0  0.34087133668E+02  0.55532023640E+02  0.25992576912E+02  0.70276772733E+02  0.41800000000E+01 0. -1.
         -5    1    4    4    0  501 -0.18732175689E+02 -0.57165712546E+02  0.13412756507E+02  0.61775298737E+02  0.41800000000E+01 0. -1.
</event>
<event>
11    1  0.7105277E-009  0.2304510E+03  0.7561462E-02  0.1034861E+00
         22   -1    0    0    0    0  0.00000000000E+00  0.00000000000E+00  0.10761847053E+03  0.10761847053E+03  0.00000000000E+00 0. -1.
         22   -1    0    0    0    0 -0.00000000000E+00 -0.00000000000E+00 -0.44083963897E+04  0.44083963897E+04  0.00000000000E+00 0. -1.
        -24    2    1    2    0    0  0.12116226543E+02  0.11704011287E+02 -0.23451983930E+04  0.23465980601E+04  0.79266427217E+02 0.  0.
         25    2    1    2    0    0 -0.47893718308E+02  0.17900429147E+03 -0.19471043703E+04  0.19598977129E+04  0.12508905466E+03 0.  0.
         24    2    1    2    0    0  0.35777491765E+02 -0.19070830275E+03 -0.84751558417E+01  0.20951908715E+03  0.78592200363E+02 0.  0.
        -13    1    5    5    0    0  0.31619535928E+02 -0.42719794981E+02 -0.28195644207E+02  0.60164526823E+02  0.00000000000E+00 0.  1.
         14    1    5    5    0    0  0.41579558369E+01 -0.14798850777E+03  0.19720488366E+02  0.14935456033E+03  0.00000000000E+00 0. -1.
         13    1    3    3    0    0  0.37307950104E+02 -0.12526661491E+02 -0.16983997807E+04  0.16988556782E+04  0.00000000000E+00 0. -1.
        -14    1    3    3    0    0 -0.25191723561E+02  0.24230672778E+02 -0.64679861231E+03  0.64774238192E+03  0.00000000000E+00 0.  1.
          5    1    4    4  501    0  0.13426593338E+02  0.93710193877E+02 -0.49473000306E+03  0.50372325951E+03  0.41800000000E+01 0. -1.
         -5    1    4    4    0  501 -0.61320311645E+02  0.85294097590E+02 -0.14523743672E+04  0.14561744534E+04  0.41800000000E+01 0. -1.
</event>
<event>
11    1  0.7105277E-009  0.5092152E+03  0.7561462E-02  0.9373162E-01
         22   -1    0    0    0    0  0.00000000000E+00  0.00000000000E+00  0.85921043114E+03  0.85921043114E+03  0.00000000000E+00 0.  1.
         22   -1    0    0    0    0 -0.00000000000E+00 -0.00000000000E+00 -0.94327936413E+03  0.94327936413E+03  0.00000000000E+00 0. -1.
         24    2    1    2    0    0 -0.61738028295E+02  0.29702896709E+01 -0.62379699242E+03  0.63203167478E+03  0.80752358583E+02 0.  0.
         25    2    1    2    0    0  0.28708723833E+03  0.41655728608E+03  0.42864092908E+03  0.67477319102E+03  0.12508700268E+03 0.  0.
        -24    2    1    2    0    0 -0.22534921003E+03 -0.41952757575E+03  0.11108713036E+03  0.49568492947E+03  0.81102068409E+02 0.  0.
        -11    1    3    3    0    0 -0.47914793371E+02 -0.52739606887E+01 -0.14186455637E+03  0.14983055243E+03  0.00000000000E+00 0.  1.
         12    1    3    3    0    0 -0.13823234924E+02  0.82442503596E+01 -0.48193243605E+03  0.48220112236E+03  0.00000000000E+00 0. -1.
         13    1    5    5    0    0 -0.32395846427E+02 -0.13790037262E+03  0.35319056961E+02  0.14599123063E+03  0.00000000000E+00 0. -1.
        -14    1    5    5    0    0 -0.19295336360E+03 -0.28162720312E+03  0.75768073400E+02  0.34969369885E+03  0.00000000000E+00 0.  1.
          5    1    4    4  501    0  0.11744513230E+02 -0.50631189238E+01  0.28696571836E+02  0.31694390661E+02  0.41800000000E+01 0.  1.
         -5    1    4    4    0  501  0.27534272510E+03  0.42162040500E+03  0.39994435724E+03  0.64307880036E+03  0.41800000000E+01 0.  1.
</event>
<event>
11    1  0.7105277E-009  0.1368802E+03  0.7561462E-02  0.1111093E+00
         22   -1    0    0    0    0  0.00000000000E+00  0.00000000000E+00  0.23210724774E+04  0.23210724774E+04  0.00000000000E+00 0. -1.
         22   -1    0    0    0    0 -0.00000000000E+00 -0.00000000000E+00 -0.44302304727E+03  0.44302304727E+03  0.00000000000E+00 0. -1.
        -24    2    1    2    0    0 -0.41710134285E+02 -0.38229573045E+02 -0.42009841993E+03  0.43080164133E+03  0.76851390259E+02 0.  0.
         25    2    1    2    0    0  0.88825620536E+00  0.13891278853E+02  0.22291295287E+03  0.25599404442E+03  0.12509600149E+03 0.  0.
         24    2    1    2    0    0  0.40821878080E+02  0.24338294192E+02  0.20752348972E+04  0.20772998389E+04  0.79473039716E+02 0.  0.
        -13    1    5    5    0    0  0.11079088597E+02 -0.24924184879E+01  0.16803772279E+04  0.16804155993E+04  0.00000000000E+00 0.  1.
         14    1    5    5    0    0  0.29742789483E+02  0.26830712680E+02  0.39485766931E+03  0.39688423964E+03  0.00000000000E+00 0. -1.
         13    1    3    3    0    0 -0.34008966027E+02 -0.19416690296E+02 -0.40100516926E+03  0.40291284839E+03  0.00000000000E+00 0. -1.
        -14    1    3    3    0    0 -0.77011682580E+01 -0.18812882749E+02 -0.19093250675E+02  0.27888792932E+02  0.00000000000E+00 0.  1.
          5    1    4    4  501    0  0.58097861791E+02  0.28789853832E+00  0.15754797191E+03  0.16797106978E+03  0.41800000000E+01 0. -1.
         -5    1    4    4    0  501 -0.57209605585E+02  0.13603380314E+02  0.65364980968E+02  0.88022974638E+02  0.41800000000E+01 0. -1.
</event>
<event>
11    1  0.7105277E-009  0.1760176E+03  0.7561462E-02  0.1072910E+00
         22   -1    0    0    0    0  0.00000000000E+00  0.00000000000E+00  0.14890138586E+03  0.14890138586E+03  0.00000000000E+00 0.  1.
         22   -1    0    0    0    0 -0.00000000000E+00 -0.00000000000E+00 -0.45038760610E+03  0.45038760610E+03  0.00000000000E+00 0.  1.
         24    2    1    2    0    0 -0.10349688298E+01  0.15324459268E+02 -0.21996585925E+03  0.23524118234E+03  0.81960505272E+02 0.  0.
         25    2    1    2    0    0 -0.10776625364E+03 -0.71051921400E+02 -0.11755189490E+03  0.21477250774E+03  0.12508733401E+03 0.  0.
        -24    2    1    2    0    0  0.10880122247E+03  0.55727462131E+02  0.36031533897E+02  0.14927530187E+03  0.77727654460E+02 0.  0.
        -11    1    3    3    0    0 -0.79141162924E+01 -0.33322668762E+02 -0.91809690070E+02  0.97990064195E+02  0.00000000000E+00 0.  1.
         12    1    3    3    0    0  0.68791474626E+01  0.48647128030E+02 -0.12815616918E+03  0.13725111815E+03  0.00000000000E+00 0. -1.
         13    1    5    5    0    0  0.87874959401E+02  0.26106589057E+02 -0.82455184104E+01  0.92041029197E+02  0.00000000000E+00 0. -1.
        -14    1    5    5    0    0  0.20926263070E+02  0.29620873074E+02  0.44277052308E+02  0.57234272676E+02  0.00000000000E+00 0.  1.
          5    1    4    4  501    0 -0.97340467054E+02 -0.10204036245E+03 -0.71577431119E+02  0.15820304403E+03  0.41800000000E+01 0.  1.
         -5    1    4    4    0  501 -0.10425786587E+02  0.30988441050E+02 -0.45974463781E+02  0.56569463712E+02  0.41800000000E+01 0.  1.
</event>
<event>
11    1  0.7105277E-009  0.1441248E+03  0.7561462E-02  0.1103038E+00
         22   -1    0    0    0    0  0.00000000000E+00  0.00000000000E+00  0.43713787595E+04  0.43713787595E+04  0.00000000000E+00 0. -1.
         22   -1    0    0    0    0 -0.00000000000E+00 -0.00000000000E+00 -0.90269596772E+02  0.90269596772E+02  0.00000000000E+00 0.  1.
         24    2    1    2    0    0  0.39984641520E+02  0.14126507845E+02 -0.56708927783E+02  0.10809714522E+03  0.81674723951E+02 0.  0.
         25    2    1    2    0    0 -0.10714757447E+03 -0.13129483464E+02  0.96684931663E+03  0.98087119665E+03  0.12513080074E+03 0.  0.
        -24    2    1    2    0    0  0.67162932952E+02 -0.99702438119E+00  0.33709687738E+04  0.33726800144E+04  0.83834071134E+02 0.  0.
        -11    1    3    3    0    0  0.84573774074E+01 -0.27514299897E+01 -0.69538278941E+02  0.70104706245E+02  0.00000000000E+00 0.  1.
         12    1    3    3    0    0  0.31527264112E+02  0.16877937835E+02  0.12829351158E+02  0.37992438973E+02  0.00000000000E+00 0. -1.
         13    1    5    5    0    0  0.84330517112E+02 -0.12961032128E+02  0.28841494600E+04  0.28854111894E+04  0.00000000000E+00 0. -1.
        -14    1    5    5    0    0 -0.17167584161E+02  0.11964007747E+02  0.48681931387E+03  0.48726882496E+03  0.00000000000E+00 0.  1.
          5    1    4    4  501    0 -0.66876562017E+02 -0.34348034509E+02  0.87541633780E+03  0.87864867774E+03  0.41800000000E+01 0. -1.
         -5    1    4    4    0  501 -0.40271012455E+02  0.21218551045E+02  0.91432978838E+02  0.10222251891E+03  0.41800000000E+01 0. -1.
</event>
<event>
11    1  0.7105277E-009  0.1357269E+03  0.7561462E-02  0.1112426E+00
         22   -1    0    0    0    0  0.00000000000E+00  0.00000000000E+00  0.19585067103E+03  0.19585067103E+03  0.00000000000E+00 0.  1.
         22   -1    0    0    0    0 -0.00000000000E+00 -0.00000000000E+00 -0.67873345556E+03  0.67873345556E+03  0.00000000000E+00 0.  1.
        -24    2    1    2    0    0 -0.15455564743E+02  0.50678490777E+02 -0.54051425487E+03  0.54884657725E+03  0.79181574463E+02 0.  0.
         25    2    1    2    0    0  0.41721422394E+02 -0.38547715997E+02 -0.84077525375E+02  0.16106847698E+03  0.12508964988E+03 0.  0.
         24    2    1    2    0    0 -0.26265857651E+02 -0.12130774780E+02  0.14170899572E+03  0.16466907236E+03  0.78723649238E+02 0.  0.
        -11    1    5    5    0    0 -0.15231943273E+02  0.88122951376E+01  0.13981876952E+03  0.14092181148E+03  0.00000000000E+00 0.  1.
         12    1    5    5    0    0 -0.11033914378E+02 -0.20943069917E+02  0.18902261977E+01  0.23747260877E+02  0.00000000000E+00 0. -1.
         13    1    3    3    0    0 -0.40885980947E+02  0.14292320733E+02 -0.16025247622E+03  0.16600237952E+03  0.00000000000E+00 0. -1.
        -14    1    3    3    0    0  0.25430416204E+02  0.36386170044E+02 -0.38026177865E+03  0.38284419773E+03  0.00000000000E+00 0.  1.
          5    1    4    4  501    0  0.78969712656E+02 -0.51340352524E+02 -0.74900031579E+02  0.12041401266E+03  0.41800000000E+01 0. -1.
         -5    1    4    4    0  501 -0.37248290262E+02  0.12792636527E+02 -0.91774937961E+01  0.40654464319E+02  0.41800000000E+01 0. -1.
</event>
<event>
11    1  0.7105277E-009  0.1603339E+03  0.7561462E-02  0.1086764E+00
         22   -1    0    0    0    0  0.00000000000E+00  0.00000000000E+00  0.94836140269E+02  0.94836140269E+02  0.00000000000E+00 0.  1.
         22   -1    0    0    0    0 -0.00000000000E+00 -0.00000000000E+00 -0.16229072452E+04  0.16229072452E+04  0.00000000000E+00 0. -1.
        -24    2    1    2    0    0 -0.63611109851E+01 -0.24402963977E+02 -0.10747438262E+04  0.10780697801E+04  0.80772460806E+02 0.  0.
         25    2    1    2    0    0  0.10563418726E+03  0.12866883245E+02 -0.48166160790E+03  0.50889053456E+03  0.12509010125E+03 0.  0.
         24    2    1    2    0    0 -0.99273076280E+02  0.11536080732E+02  0.28334329146E+02  0.13078307084E+03  0.79455349581E+02 0.  0.
        -13    1    5    5    0    0 -0.96371362615E+02 -0.82395306269E+01  0.43141877222E+02  0.10590821955E+03  0.00000000000E+00 0.  1.
         14    1    5    5    0    0 -0.29017136653E+01  0.19775611359E+02 -0.14807548076E+02  0.24874851293E+02  0.00000000000E+00 0. -1.
         11    1    3    3    0    0 -0.24398015630E+02 -0.97107670632E+01 -0.98530891470E+03  0.98565877440E+03  0.00000000000E+00 0. -1.
        -12    1    3    3    0    0  0.18036904645E+02 -0.14692196914E+02 -0.89434911483E+02  0.92411005682E+02  0.00000000000E+00 0.  1.
          5    1    4    4  501    0 -0.80556823162E+01  0.43274899542E+02 -0.17202649004E+03  0.17761812020E+03  0.41800000000E+01 0.  1.
         -5    1    4    4    0  501  0.11368986958E+03 -0.30408016297E+02 -0.30963511787E+03  0.33127241436E+03  0.41800000000E+01 0.  1.
</event>
<event>
11    1  0.7105277E-009  0.1509460E+03  0.7561462E-02  0.1095916E+00
         22   -1    0    0    0    0  0.00000000000E+00  0.00000000000E+00  0.91747110157E+03  0.91747110157E+03  0.00000000000E+00 0. -1.
         22   -1    0    0    0    0 -0.00000000000E+00 -0.00000000000E+00 -0.79619496079E+03  0.79619496079E+03  0.00000000000E+00 0. -1.
        -24    2    1    2    0    0 -0.66405522425E+01 -0.54613813410E+02 -0.77117941349E+03  0.77736218570E+03  0.80916712900E+02 0.  0.
         25    2    1    2    0    0  0.42553453098E+02  0.11357766246E+03  0.48108574688E+03  0.51166601935E+03  0.12509171724E+03 0.  0.
         24    2    1    2    0    0 -0.35912900856E+02 -0.58963849047E+02  0.41136980739E+03  0.42463785731E+03  0.79534391857E+02 0.  0.
        -13    1    5    5    0    0 -0.46562935715E+02 -0.51647838168E+01  0.24569669060E+03  0.25012326110E+03  0.00000000000E+00 0.  1.
         14    1    5    5    0    0  0.10650034860E+02 -0.53799065230E+02  0.16567311679E+03  0.17451459621E+03  0.00000000000E+00 0. -1.
         13    1    3    3    0    0 -0.29579621790E+02 -0.65918627883E+02 -0.56196216712E+03  0.56658776619E+03  0.00000000000E+00 0. -1.
        -14    1    3    3    0    0  0.22939069547E+02  0.11304814473E+02 -0.20921724637E+03  0.21077441951E+03  0.00000000000E+00 0.  1.
          5    1    4    4  501    0 -0.86783803626E+01 -0.24506366271E+02  0.59217164308E+02  0.64807570717E+02  0.41800000000E+01 0.  1.
         -5    1    4    4    0  501  0.51231833461E+02  0.13808402873E+03  0.42186858257E+03  0.44685844863E+03  0.41800000000E+01 0.  1.
</event>
<event>
11    1  0.7105277E-009  0.1859182E+03  0.7561462E-02  0.1064954E+00
         22   -1    0    0    0    0  0.00000000000E+00  0.00000000000E+00  0.36401789466E+03  0.36401789466E+03  0.00000000000E+00 0. -1.
         22   -1    0    0    0    0 -0.00000000000E+00 -0.00000000000E+00 -0.13621610391E+04  0.13621610391E+04  0.00000000000E+00 0.  1.
         24    2    1    2    0    0  0.13277762001E+03  0.17566360345E+02 -0.10450123579E+04  0.10566167785E+04  0.80310118235E+02 0.  0.
         25    2    1    2    0    0 -0.14957352470E+03 -0.77706818261E+02 -0.26698965443E+03  0.33961984473E+03  0.12509026526E+03 0.  0.
        -24    2    1    2    0    0  0.16795904699E+02  0.60140457916E+02  0.31385886788E+03  0.32994231052E+03  0.80346513492E+02 0.  0.
        -13    1    3    3    0    0  0.18637918685E+02  0.21672218704E+02 -0.43939274540E+03  0.44032152092E+03  0.00000000000E+00 0.  1.
         14    1    3    3    0    0  0.11413970132E+03 -0.41058583597E+01 -0.60561961248E+03  0.61629525757E+03  0.00000000000E+00 0. -1.
         11    1    5    5    0    0 -0.17795798647E+02  0.54018605294E+02  0.25610101486E+03  0.26234029424E+03  0.00000000000E+00 0. -1.
        -12    1    5    5    0    0  0.34591703346E+02  0.61218526216E+01  0.57757853016E+02  0.67602016279E+02  0.00000000000E+00 0.  1.
          5    1    4    4  501    0 -0.84880340210E+02 -0.71495222992E+02 -0.24808178494E+03  0.27180559870E+03  0.41800000000E+01 0.  1.
         -5    1    4    4    0  501 -0.64693184495E+02 -0.62115952687E+01 -0.18907869491E+02  0.67814246030E+02  0.41800000000E+01 0.  1.
</event>
<event>
11    1  0.7105277E-009  0.1376623E+03  0.7561462E-02  0.1110197E+00
         22   -1    0    0    0    0  0.00000000000E+00  0.00000000000E+00  0.12313523649E+04  0.12313523649E+04  0.00000000000E+00 0. -1.
         22   -1    0    0    0    0 -0.00000000000E+00 -0.00000000000E+00 -0.65371184782E+02  0.65371184782E+02  0.00000000000E+00 0.  1.
        -24    2    1    2    0    0 -0.46250358345E+02  0.81683036169E+01  0.33820610918E+02  0.99010734835E+02  0.80333523878E+02 0.  0.
         25    2    1    2    0    0  0.86795447324E+02 -0.10898836518E+02  0.15848106274E+03  0.22003706783E+03  0.12509128530E+03 0.  0.
         24    2    1    2    0    0 -0.40545088979E+02  0.27305329013E+01  0.97367950644E+03  0.97767574700E+03  0.78401052004E+02 0.  0.
        -13    1    5    5    0    0 -0.16717753472E+02  0.21793797723E+02  0.10732666471E+03  0.11078567533E+03  0.00000000000E+00 0.  1.
         14    1    5    5    0    0 -0.23827335507E+02 -0.19063264822E+02  0.86635284174E+03  0.86689007167E+03  0.00000000000E+00 0. -1.
         13    1    3    3    0    0  0.19130474564E+02  0.18560454571E+02  0.12669437870E+02  0.29512373454E+02  0.00000000000E+00 0. -1.
        -14    1    3    3    0    0 -0.65380832909E+02 -0.10392150954E+02  0.21151173048E+02  0.69498361381E+02  0.00000000000E+00 0.  1.
          5    1    4    4  501    0 -0.28784371283E+02  0.84510566068E+01  0.58753380307E+02  0.66101380360E+02  0.41800000000E+01 0.  1.
         -5    1    4    4    0  501  0.11557981861E+03 -0.19349893125E+02  0.99727682431E+02  0.15393568747E+03  0.41800000000E+01 0.  1.
</event>
<event>
11    1  0.7105277E-009  0.1509386E+03  0.7561462E-02  0.1095924E+00
         22   -1    0    0    0    0  0.00000000000E+00  0.00000000000E+00  0.81577806393E+03  0.81577806393E+03  0.00000000000E+00 0. -1.
         22   -1    0    0    0    0 -0.00000000000E+00 -0.00000000000E+00 -0.58141450624E+03  0.58141450624E+03  0.00000000000E+00 0.  1.
        -24    2    1    2    0    0 -0.65310642373E+02  0.38621575866E+02 -0.45410978973E+03  0.46637572892E+03  0.74387588132E+02 0.  0.
         25    2    1    2    0    0 -0.21387807292E+02 -0.30857897636E+02 -0.80022304259E+02  0.15316945669E+03  0.12509062769E+03 0.  0.
         24    2    1    2    0    0  0.86698449665E+02 -0.77636782294E+01  0.76849565168E+03  0.77764738456E+03  0.81073992039E+02 0.  0.
        -13    1    5    5    0    0  0.46089257294E+02 -0.44579941789E+02  0.42103386062E+03  0.42588860356E+03  0.00000000000E+00 0.  1.
         14    1    5    5    0    0  0.40609192371E+02  0.36816263560E+02  0.34746179105E+03  0.35175878100E+03  0.00000000000E+00 0. -1.
         11    1    3    3    0    0 -0.49849854190E+02  0.60985279951E+02 -0.32157693940E+03  0.33108298097E+03  0.00000000000E+00 0. -1.
        -12    1    3    3    0    0 -0.15460788183E+02 -0.22363704086E+02 -0.13253285033E+03  0.13529274795E+03  0.00000000000E+00 0.  1.
          5    1    4    4  501    0  0.21604051529E+02 -0.15386253375E+02 -0.99695346587E+02  0.10324779110E+03  0.41800000000E+01 0.  1.
         -5    1    4    4    0  501 -0.42991858820E+02 -0.15471644262E+02  0.19673042327E+02  0.49921665591E+02  0.41800000000E+01 0.  1.
</event>
<event>
11    1  0.7105277E-009  0.1682418E+03  0.7561462E-02  0.1079572E+00
         22   -1    0    0    0    0  0.00000000000E+00  0.00000000000E+00  0.16183582190E+04  0.16183582190E+04  0.00000000000E+00 0.  1.
         22   -1    0    0    0    0 -0.00000000000E+00 -0.00000000000E+00 -0.16315745459E+03  0.16315745459E+03  0.00000000000E+00 0. -1.
         24    2    1    2    0    0  0.52332830501E+02  0.97026177740E+02 -0.10816919873E+03  0.17515661643E+03  0.82622396544E+02 0.  0.
         25    2    1    2    0    0 -0.89346181201E+02 -0.11586726147E+03  0.45591029946E+03  0.49488543392E+03  0.12509767853E+03 0.  0.
        -24    2    1    2    0    0  0.37013350700E+02  0.18841083726E+02  0.11074596636E+04  0.11114736232E+04  0.84745111641E+02 0.  0.
        -13    1    3    3    0    0  0.92602954757E+01 -0.15004199760E+02 -0.16240706003E+02  0.23971641875E+02  0.00000000000E+00 0.  1.
         14    1    3    3    0    0  0.43072535025E+02  0.11203037750E+03 -0.91928492726E+02  0.15118497455E+03  0.00000000000E+00 0. -1.
         13    1    5    5    0    0  0.69348552785E+00 -0.11076258845E+02  0.19047438999E+02  0.22044712850E+02  0.00000000000E+00 0. -1.
        -14    1    5    5    0    0  0.36319865172E+02  0.29917342571E+02  0.10884122246E+04  0.10894289104E+04  0.00000000000E+00 0.  1.
          5    1    4    4  501    0 -0.64939274905E+02 -0.13397075887E+03  0.28838016032E+03  0.32457027424E+03  0.41800000000E+01 0. -1.
         -5    1    4    4    0  501 -0.24406906296E+02  0.18103497403E+02  0.16753013915E+03  0.17031515968E+03  0.41800000000E+01 0. -1.
</event>
<event>
11    1  0.7105277E-009  0.1343191E+03  0.7561462E-02  0.1114073E+00
         22   -1    0    0    0    0  0.00000000000E+00  0.00000000000E+00  0.13108225387E+04  0.13108225387E+04  0.00000000000E+00 0. -1.
         22   -1    0    0    0    0 -0.00000000000E+00 -0.00000000000E+00 -0.19667532014E+03  0.19667532014E+03  0.00000000000E+00 0.  1.
        -24    2    1    2    0    0 -0.77057611685E+01  0.26206524210E+02 -0.27691328337E+02  0.89192350068E+02  0.80263970617E+02 0.  0.
         25    2    1    2    0    0  0.49633211662E+02 -0.50942175867E+02 -0.98536226631E+02  0.17439855172E+03  0.12508759292E+03 0.  0.
         24    2    1    2    0    0 -0.41927450493E+02  0.24735651657E+02  0.12403747735E+04  0.12439069570E+04  0.80032339989E+02 0.  0.
        -11    1    5    5    0    0  0.11725041100E+02 -0.16790359947E+02  0.14575718927E+03  0.14718882770E+03  0.00000000000E+00 0.  1.
         12    1    5    5    0    0 -0.53652491593E+02  0.41526011604E+02  0.10946175842E+04  0.10967181293E+04  0.00000000000E+00 0. -1.
         11    1    3    3    0    0  0.29353300714E+02  0.28718463714E+02  0.27648684106E+01  0.41158363892E+02  0.00000000000E+00 0. -1.
        -12    1    3    3    0    0 -0.37059061883E+02 -0.25119395037E+01 -0.30456196747E+02  0.48033986177E+02  0.00000000000E+00 0.  1.
          5    1    4    4  501    0 -0.46686203927E+01  0.33304994461E+02 -0.15443332186E+00  0.33889746563E+02  0.41800000000E+01 0.  1.
         -5    1    4    4    0  501  0.54301832055E+02 -0.84247170328E+02 -0.98381793309E+02  0.14050880516E+03  0.41800000000E+01 0.  1.
</event>
<event>
11    1  0.7105277E-009  0.2425168E+03  0.7561462E-02  0.1027963E+00
         22   -1    0    0    0    0  0.00000000000E+00  0.00000000000E+00  0.51387668304E+03  0.51387668304E+03  0.00000000000E+00 0. -1.
         22   -1    0    0    0    0 -0.00000000000E+00 -0.00000000000E+00 -0.33904377295E+03  0.33904377295E+03  0.00000000000E+00 0.  1.
        -24    2    1    2    0    0  0.13627884702E+02  0.44863760653E+02 -0.18444490616E+03  0.20591734510E+03  0.78635573028E+02 0.  0.
         25    2    1    2    0    0 -0.15202418065E+03 -0.18626021775E+03  0.57454408447E+02  0.27704151592E+03  0.12508705878E+03 0.  0.
         24    2    1    2    0    0  0.13839629595E+03  0.14139645710E+03  0.30182340780E+03  0.36996159496E+03  0.81410806644E+02 0.  0.
        -11    1    5    5    0    0  0.30897319932E+02 -0.39497411601E+01  0.28238370578E+02  0.42043434768E+02  0.00000000000E+00 0.  1.
         12    1    5    5    0    0  0.10749897602E+03  0.14534619826E+03  0.27358503722E+03  0.32791816019E+03  0.00000000000E+00 0. -1.
         11    1    3    3    0    0 -0.30735081123E+02  0.35778804247E+01 -0.60995637009E+02  0.68395278887E+02  0.00000000000E+00 0. -1.
        -12    1    3    3    0    0  0.44362965824E+02  0.41285880228E+02 -0.12344926915E+03  0.13752206622E+03  0.00000000000E+00 0.  1.
          5    1    4    4  501    0 -0.91348182439E+02 -0.12641441749E+03 -0.25437221132E+02  0.15808105517E+03  0.41800000000E+01 0. -1.
         -5    1    4    4    0  501 -0.60675998210E+02 -0.59845800263E+02  0.82891629579E+02  0.11896046075E+03  0.41800000000E+01 0. -1.
</event>
<event>
11    1  0.7105277E-009  0.1455034E+03  0.7561462E-02  0.1101564E+00
         22   -1    0    0    0    0  0.00000000000E+00  0.00000000000E+00  0.11891747655E+04  0.11891747655E+04  0.00000000000E+00 0.  1.
         22   -1    0    0    0    0 -0.00000000000E+00 -0.00000000000E+00 -0.23198001085E+03  0.23198001085E+03  0.00000000000E+00 0. -1.
         24    2    1    2    0    0  0.30297321082E+02 -0.58456072832E+02 -0.17702324859E+03  0.20495533677E+03  0.79589065910E+02 0.  0.
         25    2    1    2    0    0  0.39484870277E+02  0.85123675369E+02  0.12236076584E+03  0.19855618971E+03  0.12508920164E+03 0.  0.
        -24    2    1    2    0    0 -0.69782191358E+02 -0.26667602537E+02  0.10118572374E+04  0.10176432499E+04  0.78498406795E+02 0.  0.
        -13    1    3    3    0    0 -0.20756374818E+02 -0.36302483293E+02 -0.43709634217E+02  0.60491565628E+02  0.00000000000E+00 0.  1.
         14    1    3    3    0    0  0.51053695899E+02 -0.22153589539E+02 -0.13331361437E+03  0.14446377114E+03  0.00000000000E+00 0. -1.
         13    1    5    5    0    0 -0.14768905523E+02  0.27367003365E+02  0.26682302878E+03  0.26862911631E+03  0.00000000000E+00 0. -1.
        -14    1    5    5    0    0 -0.55013285835E+02 -0.54034605902E+02  0.74503420867E+03  0.74901413360E+03  0.00000000000E+00 0.  1.
          5    1    4    4  501    0  0.11649847380E+02  0.11430546636E+03  0.81024900062E+02  0.14065548484E+03  0.41800000000E+01 0.  1.
         -5    1    4    4    0  501  0.27835022897E+02 -0.29181790995E+02  0.41335865778E+02  0.57900704875E+02  0.41800000000E+01 0.  1.
</event>
<event>
11    1  0.7105277E-009  0.1326431E+03  0.7561462E-02  0.1116063E+00
         22   -1    0    0    0    0  0.00000000000E+00  0.00000000000E+00  0.14841243324E+04  0.14841243324E+04  0.00000000000E+00 0. -1.
         22   -1    0    0    0    0 -0.00000000000E+00 -0.00000000000E+00 -0.13347923278E+04  0.13347923278E+04  0.00000000000E+00 0.  1.
        -24    2    1    2    0    0  0.14761780408E+02 -0.25585428250E+02 -0.80609155298E+03  0.81068591452E+03  0.80966264055E+02 0.  0.
         25    2    1    2    0    0  0.87240738265E+01  0.62882339962E+02 -0.51569289226E+03  0.53443232522E+03  0.12509377669E+03 0.  0.
         24    2    1    2    0    0 -0.23485854235E+02 -0.37296911712E+02  0.14711164499E+04  0.14737984205E+04  0.77172081380E+02 0.  0.
        -13    1    5    5    0    0 -0.19157540864E+01  0.23891064827E+02  0.38144531948E+03  0.38219757305E+03  0.00000000000E+00 0.  1.
         14    1    5    5    0    0 -0.21570100148E+02 -0.61187976539E+02  0.10896711304E+04  0.10916008474E+04  0.00000000000E+00 0. -1.
         13    1    3    3    0    0  0.15846193194E+02  0.18160016775E+02 -0.87366370199E+02  0.90629855400E+02  0.00000000000E+00 0. -1.
        -14    1    3    3    0    0 -0.10844127854E+01 -0.43745445026E+02 -0.71872518279E+03  0.72005605912E+03  0.00000000000E+00 0.  1.
          5    1    4    4  501    0  0.24517518954E+02  0.84544640178E+02 -0.21279560221E+03  0.23032226474E+03  0.41800000000E+01 0. -1.
         -5    1    4    4    0  501 -0.15793445128E+02 -0.21662300215E+02 -0.30289729005E+03  0.30411006047E+03  0.41800000000E+01 0. -1.
</event>
<event>
11    1  0.7105277E-009  0.1510364E+03  0.7561462E-02  0.1095825E+00
         22   -1    0    0    0    0  0.00000000000E+00  0.00000000000E+00  0.53339064810E+03  0.53339064810E+03  0.00000000000E+00 0. -1.
         22   -1    0    0    0    0 -0.00000000000E+00 -0.00000000000E+00 -0.86028426086E+03  0.86028426086E+03  0.00000000000E+00 0.  1.
         24    2    1    2    0    0  0.47585691764E+02  0.70190280807E+02 -0.76840722898E+03  0.77712217065E+03  0.79234619853E+02 0.  0.
         25    2    1    2    0    0  0.15587587646E+01 -0.98777215680E+02 -0.48768966437E+01  0.15946880595E+03  0.12508856016E+03 0.  0.
        -24    2    1    2    0    0 -0.49144450529E+02  0.28586934873E+02  0.44639051286E+03  0.45708393236E+03  0.80180056041E+02 0.  0.
        -11    1    3    3    0    0  0.12888746914E+02  0.20391833036E+02 -0.54743125963E+03  0.54796252671E+03  0.00000000000E+00 0.  1.
         12    1    3    3    0    0  0.34696944850E+02  0.49798447770E+02 -0.22097596935E+03  0.22915964394E+03  0.00000000000E+00 0. -1.
         13    1    5    5    0    0  0.12221836363E+02  0.29422663256E+02  0.22867046461E+03  0.23087929266E+03  0.00000000000E+00 0. -1.
        -14    1    5    5    0    0 -0.61366286892E+02 -0.83572838344E+00  0.21772004825E+03  0.22620463970E+03  0.00000000000E+00 0.  1.
          5    1    4    4  501    0  0.36027621728E+02 -0.44478739677E+02 -0.53712642356E+02  0.78605776884E+02  0.41800000000E+01 0.  1.
         -5    1    4    4    0  501 -0.34468862963E+02 -0.54298476002E+02  0.48835745712E+02  0.80863029064E+02  0.41800000000E+01 0.  1.
</event>
<event>
11    1  0.7105277E-009  0.1709400E+03  0.7561462E-02  0.1077217E+00
         22   -1    0    0    0    0  0.00000000000E+00  0.00000000000E+00  0.81535452712E+03  0.81535452712E+03  0.00000000000E+00 0.  1.
         22   -1    0    0    0    0 -0.00000000000E+00 -0.00000000000E+00 -0.35406014954E+04  0.35406014954E+04  0.00000000000E+00 0.  1.
        -24    2    1    2    0    0 -0.56907827051E+02 -0.58453993572E+02 -0.27281624908E+04  0.27305613590E+04  0.80245802219E+02 0.  0.
         25    2    1    2    0    0  0.46709034947E+02  0.17409239606E+03 -0.78998538527E+03  0.81988695091E+03  0.12509119478E+03 0.  0.
         24    2    1    2    0    0  0.10198792104E+02 -0.11563840249E+03  0.79290090785E+03  0.80550771258E+03  0.81698040836E+02 0.  0.
        -13    1    5    5    0    0  0.28206831636E+02 -0.35815350014E+01  0.16506433363E+03  0.16749533421E+03  0.00000000000E+00 0.  1.
         14    1    5    5    0    0 -0.18008039532E+02 -0.11205686749E+03  0.62783657421E+03  0.63801237838E+03  0.00000000000E+00 0. -1.
         13    1    3    3    0    0 -0.26335538323E+01 -0.59846778017E+02 -0.13434077231E+04  0.13447426828E+04  0.00000000000E+00 0. -1.
        -14    1    3    3    0    0 -0.54274273219E+02  0.13927844442E+01 -0.13847547678E+04  0.13858186762E+04  0.00000000000E+00 0.  1.
          5    1    4    4  501    0  0.59942182211E+02  0.22620118777E+02 -0.30180759613E+03  0.30856122969E+03  0.41800000000E+01 0.  1.
         -5    1    4    4    0  501 -0.13233147264E+02  0.15147227729E+03 -0.48817778914E+03  0.51132572122E+03  0.41800000000E+01 0.  1.
</event>
<event>
11    1  0.7105277E-009  0.1631229E+03  0.7561462E-02  0.1084176E+00
         22   -1    0    0    0    0  0.00000000000E+00  0.00000000000E+00  0.40579955986E+03  0.40579955986E+03  0.00000000000E+00 0.  1.
         22   -1    0    0    0    0 -0.00000000000E+00 -0.00000000000E+00 -0.23843535168E+03  0.23843535168E+03  0.00000000000E+00 0. -1.
        -24    2    1    2    0    0  0.31786756389E+02 -0.10310799125E+02 -0.10617404647E+03  0.13746047052E+03  0.80658182181E+02 0.  0.
         25    2    1    2    0    0 -0.92452529256E+02  0.91762165012E+02 -0.24377368803E+02  0.18223594429E+03  0.12509163916E+03 0.  0.
         24    2    1    2    0    0  0.60665772867E+02 -0.81451365886E+02  0.29791562344E+03  0.32453849673E+03  0.79100291801E+02 0.  0.
        -11    1    5    5    0    0  0.47443762966E+02 -0.48700173176E+02  0.27293966452E+03  0.28128042587E+03  0.00000000000E+00 0.  1.
         12    1    5    5    0    0  0.13222009900E+02 -0.32751192710E+02  0.24975958926E+02  0.43258070854E+02  0.00000000000E+00 0. -1.
         13    1    3    3    0    0  0.17100556544E+02 -0.36241958502E+02 -0.99006968750E+02  0.10680958970E+03  0.00000000000E+00 0. -1.
        -14    1    3    3    0    0  0.14686199846E+02  0.25931159376E+02 -0.71670777203E+01  0.30650880828E+02  0.00000000000E+00 0.  1.
          5    1    4    4  501    0 -0.93346888733E+02  0.93579544202E+02 -0.60777331518E+02  0.14554081612E+03  0.41800000000E+01 0.  1.
         -5    1    4    4    0  501  0.89435947738E+00 -0.18173791909E+01  0.36399962715E+02  0.36695128173E+02  0.41800000000E+01 0.  1.
</event>
<event>
11    1  0.7105277E-009  0.2736602E+03  0.7561462E-02  0.1011999E+00
         22   -1    0    0    0    0  0.00000000000E+00  0.00000000000E+00  0.20325494970E+04  0.20325494970E+04  0.00000000000E+00 0. -1.
         22   -1    0    0    0    0 -0.00000000000E+00 -0.00000000000E+00 -0.25712323604E+03  0.25712323604E+03  0.00000000000E+00 0.  1.
        -24    2    1    2    0    0  0.76729813013E+02  0.23269774398E+03 -0.15359074299E+03  0.30064357694E+03  0.82223717773E+02 0.  0.
         25    2    1    2    0    0  0.21552191277E+02 -0.24492323447E+03  0.68558761979E+03  0.73900570661E+03  0.12508861759E+03 0.  0.
         24    2    1    2    0    0 -0.98282004290E+02  0.12225490490E+02  0.12434293841E+04  0.12500234494E+04  0.81444311724E+02 0.  0.
        -11    1    5    5    0    0 -0.98819544152E+02  0.73438039516E+01  0.74400238239E+03  0.75057230083E+03  0.00000000000E+00 0.  1.
         12    1    5    5    0    0  0.53753986204E+00  0.48816865383E+01  0.49942700172E+03  0.49945114862E+03  0.00000000000E+00 0. -1.
         11    1    3    3    0    0 -0.13503220832E+02  0.96831235859E+01 -0.17959798794E+02  0.24467411549E+02  0.00000000000E+00 0. -1.
        -12    1    3    3    0    0  0.90233033845E+02  0.22301462039E+03 -0.13563094420E+03  0.27617616539E+03  0.00000000000E+00 0.  1.
          5    1    4    4  501    0  0.21080132921E+02 -0.16155374456E+03  0.27208917191E+03  0.31716553132E+03  0.41800000000E+01 0. -1.
         -5    1    4    4    0  501  0.47205835585E+00 -0.83369489910E+02  0.41349844788E+03  0.42184017529E+03  0.41800000000E+01 0. -1.
</event>
<event>
11    1  0.7105277E-009  0.1494786E+03  0.7561462E-02  0.1097413E+00
         22   -1    0    0    0    0  0.00000000000E+00  0.00000000000E+00  0.26414501011E+03  0.26414501011E+03  0.00000000000E+00 0.  1.
         22   -1    0    0    0    0 -0.00000000000E+00 -0.00000000000E+00 -0.68951971692E+03  0.68951971692E+03  0.00000000000E+00 0.  1.
        -24    2    1    2    0    0 -0.40666165753E+02  0.29265158203E+02 -0.58773520838E+03  0.59527634387E+03  0.80069119403E+02 0.  0.
         25    2    1    2    0    0 -0.29434528884E+02 -0.76346540357E+02 -0.12309309297E+02  0.14997498588E+03  0.12508313867E+03 0.  0.
         24    2    1    2    0    0  0.70100694638E+02  0.47081382154E+02  0.17466981087E+03  0.20841339727E+03  0.76130397331E+02 0.  0.
        -13    1    5    5    0    0  0.24976818462E+02  0.60949304345E+02  0.90872164609E+02  0.11223372693E+03  0.00000000000E+00 0.  1.
         14    1    5    5    0    0  0.45123876176E+02 -0.13867922191E+02  0.83797646260E+02  0.96179670335E+02  0.00000000000E+00 0. -1.
         13    1    3    3    0    0 -0.11713914631E+02  0.11806177670E+02 -0.17880323410E+02  0.24419410157E+02  0.00000000000E+00 0. -1.
        -14    1    3    3    0    0 -0.28952251122E+02  0.17458980534E+02 -0.56985488497E+03  0.57085693371E+03  0.00000000000E+00 0.  1.
          5    1    4    4  501    0 -0.56077693755E+01 -0.66163278725E+02  0.49432548665E+02  0.82885920375E+02  0.41800000000E+01 0.  1.
         -5    1    4    4    0  501 -0.23826759509E+02 -0.10183261633E+02 -0.61741857962E+02  0.67089065508E+02  0.41800000000E+01 0.  1.
</event>
<event>
11    1  0.7105277E-009  0.1355492E+03  0.7561462E-02  0.1112633E+00
         22   -1    0    0    0    0  0.00000000000E+00  0.00000000000E+00  0.26522512083E+03  0.26522512083E+03  0.00000000000E+00 0.  1.
         22   -1    0    0    0    0 -0.00000000000E+00 -0.00000000000E+00 -0.42896062104E+03  0.42896062104E+03  0.00000000000E+00 0.  1.
        -24    2    1    2    0    0 -0.49203676214E+02  0.17241130471E+02 -0.23429465755E+03  0.25348895667E+03  0.81513227530E+02 0.  0.
         25    2    1    2    0    0  0.43296026427E+02 -0.32757638831E+02 -0.15173296923E+03  0.20400584063E+03  0.12509148753E+03 0.  0.
         24    2    1    2    0    0  0.59076497874E+01  0.15516508359E+02  0.22229212658E+03  0.23669094458E+03  0.79581099189E+02 0.  0.
        -13    1    5    5    0    0 -0.25271960999E+02 -0.15017280136E+02  0.14481439742E+03  0.14776806291E+03  0.00000000000E+00 0.  1.
         14    1    5    5    0    0  0.31179610787E+02  0.30533788495E+02  0.77477729156E+02  0.88922881666E+02  0.00000000000E+00 0. -1.
         11    1    3    3    0    0 -0.50533561132E+02  0.29669353917E+02 -0.82572399211E+02  0.10125271588E+03  0.00000000000E+00 0. -1.
        -12    1    3    3    0    0  0.13298849177E+01 -0.12428223446E+02 -0.15172225834E+03  0.15223624078E+03  0.00000000000E+00 0.  1.
          5    1    4    4  501    0 -0.36523005242E+02 -0.15151790546E+01 -0.93002711708E+02  0.10001601104E+03  0.41800000000E+01 0.  1.
         -5    1    4    4    0  501  0.79819031669E+02 -0.31242459776E+02 -0.58730257526E+02  0.10398982959E+03  0.41800000000E+01 0.  1.
</event>
<event>
11    1  0.7105277E-009  0.2615793E+03  0.7561462E-02  0.1017905E+00
         22   -1    0    0    0    0  0.00000000000E+00  0.00000000000E+00  0.19547253471E+04  0.19547253471E+04  0.00000000000E+00 0. -1.
         22   -1    0    0    0    0 -0.00000000000E+00 -0.00000000000E+00 -0.87662400307E+03  0.87662400307E+03  0.00000000000E+00 0.  1.
        -24    2    1    2    0    0  0.18245224830E+03 -0.14459176430E+03 -0.63052053020E+03  0.67705381285E+03  0.81548300315E+02 0.  0.
         25    2    1    2    0    0 -0.14202621637E+03  0.17304149899E+03 -0.14756212173E+03  0.29586546655E+03  0.12508792116E+03 0.  0.
         24    2    1    2    0    0 -0.40426031929E+02 -0.28449734691E+02  0.18561839959E+04  0.18584300708E+04  0.76809176716E+02 0.  0.
        -11    1    5    5    0    0 -0.50766157562E+02  0.98036833440E+01  0.10652708646E+04  0.10665248848E+04  0.00000000000E+00 0.  1.
         12    1    5    5    0    0  0.10340125632E+02 -0.38253418035E+02  0.79091313135E+03  0.79190518595E+03  0.00000000000E+00 0. -1.
         11    1    3    3    0    0  0.53948844379E+01 -0.13071704914E+02 -0.72147148614E+01  0.15875338044E+02  0.00000000000E+00 0. -1.
        -12    1    3    3    0    0  0.17705736386E+03 -0.13152005938E+03 -0.62330581534E+03  0.66117847481E+03  0.00000000000E+00 0.  1.
          5    1    4    4  501    0 -0.14540468263E+03  0.16706583116E+03 -0.16529676160E+03  0.27639465528E+03  0.41800000000E+01 0.  1.
         -5    1    4    4    0  501  0.33784662683E+01  0.59756678327E+01  0.17734639868E+02  0.19470811273E+02  0.41800000000E+01 0.  1.
</event>
<event>
11    1  0.7105277E-009  0.1662464E+03  0.7561462E-02  0.1081345E+00
         22   -1    0    0    0    0  0.00000000000E+00  0.00000000000E+00  0.84518652738E+03  0.84518652738E+03  0.00000000000E+00 0. -1.
         22   -1    0    0    0    0 -0.00000000000E+00 -0.00000000000E+00 -0.10040457937E+04  0.10040457937E+04  0.00000000000E+00 0. -1.
         24    2    1    2    0    0  0.20093314315E+00  0.14845246019E+02 -0.79202210362E+03  0.79619981377E+03  0.80091879252E+02 0.  0.
         25    2    1    2    0    0  0.30018402971E+02 -0.11968376458E+03 -0.16634908701E+03  0.24196147173E+03  0.12509207420E+03 0.  0.
        -24    2    1    2    0    0 -0.30219336114E+02  0.10483851857E+03  0.79951192433E+03  0.81107103556E+03  0.81930362677E+02 0.  0.
        -11    1    3    3    0    0 -0.30841341257E+02  0.20595088095E+02 -0.20486971144E+03  0.20819929070E+03  0.00000000000E+00 0.  1.
         12    1    3    3    0    0  0.31042274400E+02 -0.57498420765E+01 -0.58715239217E+03  0.58800052306E+03  0.00000000000E+00 0. -1.
         11    1    5    5    0    0 -0.55421987125E+02  0.91239824744E+02  0.66808410380E+03  0.67655943717E+03  0.00000000000E+00 0. -1.
        -12    1    5    5    0    0  0.25202651011E+02  0.13598693822E+02  0.13142782054E+03  0.13451159839E+03  0.00000000000E+00 0.  1.
          5    1    4    4  501    0 -0.12211072809E+02 -0.41727974120E+02  0.97550646135E+01  0.44754528362E+02  0.41800000000E+01 0. -1.
         -5    1    4    4    0  501  0.42229475780E+02 -0.77955790465E+02 -0.17610415163E+03  0.19720694337E+03  0.41800000000E+01 0. -1.
</event>
<event>
11    1  0.7105277E-009  0.1305723E+03  0.7561462E-02  0.1118568E+00
         22   -1    0    0    0    0  0.00000000000E+00  0.00000000000E+00  0.50892421209E+02  0.50892421209E+02  0.00000000000E+00 0.  1.
         22   -1    0    0    0    0 -0.00000000000E+00 -0.00000000000E+00 -0.31155604384E+04  0.31155604384E+04  0.00000000000E+00 0.  1.
         24    2    1    2    0    0  0.11627578783E+02  0.15302144792E+02 -0.21568949696E+04  0.21585528433E+04  0.82371786080E+02 0.  0.
         25    2    1    2    0    0  0.26242476330E+02 -0.17235707231E+02 -0.91014580639E+03  0.91923806381E+03  0.12508993524E+03 0.  0.
        -24    2    1    2    0    0 -0.37870055113E+02  0.19335624389E+01  0.23727587828E+01  0.88661952533E+02  0.80108876567E+02 0.  0.
        -11    1    3    3    0    0  0.28652204498E+02 -0.24883444783E+02 -0.72455010927E+03  0.72554324164E+03  0.00000000000E+00 0.  1.
         12    1    3    3    0    0 -0.17024625715E+02  0.40185589575E+02 -0.14323448603E+04  0.14330096016E+04  0.00000000000E+00 0. -1.
         11    1    5    5    0    0 -0.15417987253E+02  0.40397894457E+02 -0.49639742209E+01  0.43524076642E+02  0.00000000000E+00 0. -1.
        -12    1    5    5    0    0 -0.22452067860E+02 -0.38464332018E+02  0.73367330037E+01  0.45137875891E+02  0.00000000000E+00 0.  1.
          5    1    4    4  501    0 -0.22906043482E+01  0.40502083757E+02 -0.12588056641E+03  0.13232178603E+03  0.41800000000E+01 0.  1.
         -5    1    4    4    0  501  0.28533080678E+02 -0.57737790988E+02 -0.78426523998E+03  0.78691627778E+03  0.41800000000E+01 0.  1.
</event>
<event>
11    1  0.7105277E-009  0.1436532E+03  0.7561462E-02  0.1103546E+00
         22   -1    0    0    0    0  0.00000000000E+00  0.00000000000E+00  0.13319974081E+03  0.13319974081E+03  0.00000000000E+00 0. -1.
         22   -1    0    0    0    0 -0.00000000000E+00 -0.00000000000E+00 -0.62607534443E+03  0.62607534443E+03  0.00000000000E+00 0. -1.
         24    2    1    2    0    0  0.13986399146E+02  0.61332084610E+02 -0.31683117317E+03  0.33309794574E+03  0.81332682219E+02 0.  0.
         25    2    1    2    0    0 -0.45903023252E+02 -0.81713165642E+02 -0.25957781900E+03  0.30300619569E+03  0.12509189232E+03 0.  0.
        -24    2    1    2    0    0  0.31916624106E+02  0.20381081032E+02  0.83533388557E+02  0.12317094382E+03  0.82214323809E+02 0.  0.
        -13    1    3    3    0    0  0.29827744643E+01  0.27532045374E+02 -0.20034572925E+02  0.34180324431E+02  0.00000000000E+00 0.  1.
         14    1    3    3    0    0  0.11003624682E+02  0.33800039236E+02 -0.29679660025E+03  0.29891762130E+03  0.00000000000E+00 0. -1.
         13    1    5    5    0    0 -0.27440306464E+02  0.13970627725E+02  0.27129435175E+02  0.41038458923E+02  0.00000000000E+00 0. -1.
        -14    1    5    5    0    0  0.59356930570E+02  0.64104533074E+01  0.56403953382E+02  0.82132484897E+02  0.00000000000E+00 0.  1.
          5    1    4    4  501    0 -0.74222779438E+02 -0.88485736833E+02 -0.24337830690E+03  0.26942386546E+03  0.41800000000E+01 0. -1.
         -5    1    4    4    0  501  0.28319756187E+02  0.67725711910E+01 -0.16199512097E+02  0.33582330223E+02  0.41800000000E+01 0. -1.
</event>
<event>
11    1  0.7105277E-009  0.1434002E+03  0.7561462E-02  0.1103820E+00
         22   -1    0    0    0    0  0.00000000000E+00  0.00000000000E+00  0.16586032983E+04  0.16586032983E+04  0.00000000000E+00 0.  1.
         22   -1    0    0    0    0 -0.00000000000E+00 -0.00000000000E+00 -0.95788411111E+02  0.95788411111E+02  0.00000000000E+00 0.  1.
        -24    2    1    2    0    0 -0.62709682581E+01 -0.73310715894E+02 -0.35301231095E+02  0.11472499762E+03  0.80634124626E+02 0.  0.
         25    2    1    2    0    0 -0.78078324170E+01  0.50318215665E+02  0.21580182774E+03  0.25457900997E+03  0.12508860216E+03 0.  0.
         24    2    1    2    0    0  0.14078800675E+02  0.22992500228E+02  0.13823142906E+04  0.13850877019E+04  0.83356320590E+02 0.  0.
        -13    1    5    5    0    0 -0.57571676338E+01  0.49540767136E+02  0.10334838121E+04  0.10346865335E+04  0.00000000000E+00 0.  1.
         14    1    5    5    0    0  0.19835968309E+02 -0.26548266908E+02  0.34883047845E+03  0.35040116839E+03  0.00000000000E+00 0. -1.
         13    1    3    3    0    0  0.17198835971E+02 -0.20605068301E+01 -0.35730223356E+02  0.39707612724E+02  0.00000000000E+00 0. -1.
        -14    1    3    3    0    0 -0.23469804230E+02 -0.71250209064E+02  0.42899226156E+00  0.75017384895E+02  0.00000000000E+00 0.  1.
          5    1    4    4  501    0 -0.15573645553E+02  0.12209858075E+01  0.20223972764E+03  0.20288521158E+03  0.41800000000E+01 0.  1.
         -5    1    4    4    0  501  0.77658131361E+01  0.49097229858E+02  0.13562100099E+02  0.51693798395E+02  0.41800000000E+01 0.  1.
</event>
<event>
11    1  0.7105277E-009  0.1365118E+03  0.7561462E-02  0.1111517E+00
         22   -1    0    0    0    0  0.00000000000E+00  0.00000000000E+00  0.74095544385E+03  0.74095544385E+03  0.00000000000E+00 0. -1.
         22   -1    0    0    0    0 -0.00000000000E+00 -0.00000000000E+00 -0.74945146091E+03  0.74945146091E+03  0.00000000000E+00 0.  1.
         24    2    1    2    0    0 -0.31357892354E+01  0.20995667863E+02 -0.71668074060E+03  0.72129888959E+03  0.78677525011E+02 0.  0.
         25    2    1    2    0    0  0.14244876600E+00  0.36569950808E+02  0.13612407882E+03  0.18845302234E+03  0.12508954872E+03 0.  0.
        -24    2    1    2    0    0  0.29933404694E+01 -0.57565618671E+02  0.57206064471E+03  0.58065499283E+03  0.81142337504E+02 0.  0.
        -13    1    3    3    0    0 -0.18953573207E+02  0.46696520486E+02 -0.39400144532E+03  0.39721145739E+03  0.00000000000E+00 0.  1.
         14    1    3    3    0    0  0.15817783971E+02 -0.25700852622E+02 -0.32267929527E+03  0.32408743221E+03  0.00000000000E+00 0. -1.
         11    1    5    5    0    0 -0.23897545570E+02 -0.60101661024E+02  0.49031631806E+03  0.49456384229E+03  0.00000000000E+00 0. -1.
        -12    1    5    5    0    0  0.26890886039E+02  0.25360423527E+01  0.81744326646E+02  0.86091150542E+02  0.00000000000E+00 0.  1.
          5    1    4    4  501    0 -0.37335843239E+02 -0.30272830253E+02  0.79815798249E+02  0.93265446399E+02  0.41800000000E+01 0.  1.
         -5    1    4    4    0  501  0.37478292005E+02  0.66842781060E+02  0.56308280576E+02  0.95187575938E+02  0.41800000000E+01 0.  1.
</event>
<event>
11    1  0.7105277E-009  0.1354590E+03  0.7561462E-02  0.1112738E+00
         22   -1    0    0    0    0  0.00000000000E+00  0.00000000000E+00  0.13144713551E+03  0.13144713551E+03  0.00000000000E+00 0.  1.
         22   -1    0    0    0    0 -0.00000000000E+00 -0.00000000000E+00 -0.19810889380E+04  0.19810889380E+04  0.00000000000E+00 0.  1.
         24    2    1    2    0    0 -0.51217812598E+02  0.44937253543E-01 -0.18348613435E+04  0.18373750908E+04  0.81288425108E+02 0.  0.
         25    2    1    2    0    0  0.80725446523E+02  0.30500038788E+02 -0.72011426567E+02  0.16816739460E+03  0.12509107469E+03 0.  0.
        -24    2    1    2    0    0 -0.29507633924E+02 -0.30544976042E+02  0.57230967613E+02  0.10699358808E+03  0.79803184245E+02 0.  0.
        -13    1    3    3    0    0 -0.20829541963E+02 -0.39621224775E+02 -0.71534273598E+03  0.71674189300E+03  0.00000000000E+00 0.  1.
         14    1    3    3    0    0 -0.30388270636E+02  0.39666162029E+02 -0.11195186075E+04  0.11206331978E+04  0.00000000000E+00 0. -1.
         13    1    5    5    0    0 -0.64631796664E+01  0.27341764869E+02  0.17707346857E+02  0.33209861943E+02  0.00000000000E+00 0. -1.
        -14    1    5    5    0    0 -0.23044454258E+02 -0.57886740911E+02  0.39523620755E+02  0.73783726139E+02  0.00000000000E+00 0.  1.
          5    1    4    4  501    0  0.98092718877E+02 -0.15798838219E+02 -0.32142079556E+02  0.10451014527E+03  0.41800000000E+01 0.  1.
         -5    1    4    4    0  501 -0.17367272354E+02  0.46298877007E+02 -0.39869347011E+02  0.63657249330E+02  0.41800000000E+01 0.  1.
</event>
<event>
11    1  0.7105277E-009  0.1495465E+03  0.7561462E-02  0.1097343E+00
         22   -1    0    0    0    0  0.00000000000E+00  0.00000000000E+00  0.26700313088E+03  0.26700313088E+03  0.00000000000E+00 0.  1.
         22   -1    0    0    0    0 -0.00000000000E+00 -0.00000000000E+00 -0.14310236714E+04  0.14310236714E+04  0.00000000000E+00 0.  1.
         24    2    1    2    0    0  0.63413832920E+02 -0.24500105089E+01 -0.85457374054E+03  0.86060042930E+03  0.79432387187E+02 0.  0.
         25    2    1    2    0    0  0.16875561033E+02  0.24804191110E+02 -0.55301677946E+03  0.56777867251E+03  0.12508009489E+03 0.  0.
        -24    2    1    2    0    0 -0.80289393953E+02 -0.22354180601E+02  0.24356997947E+03  0.26964770049E+03  0.80233729233E+02 0.  0.
        -11    1    3    3    0    0  0.69925606732E+02  0.24356597165E+02 -0.63290826156E+03  0.63722500097E+03  0.00000000000E+00 0.  1.
         12    1    3    3    0    0 -0.65117738118E+01 -0.26806607674E+02 -0.22166547898E+03  0.22337542833E+03  0.00000000000E+00 0. -1.
         13    1    5    5    0    0 -0.31756253345E+01  0.19820400076E+01 -0.61290032145E+01  0.71817657481E+01  0.00000000000E+00 0. -1.
        -14    1    5    5    0    0 -0.77113768619E+02 -0.24336220608E+02  0.24969898269E+03  0.26246593474E+03  0.00000000000E+00 0.  1.
          5    1    4    4  501    0  0.21542687023E+02  0.57572785504E+02 -0.50812788323E+03  0.51184971536E+03  0.41800000000E+01 0.  1.
         -5    1    4    4    0  501 -0.46671259900E+01 -0.32768594394E+02 -0.44888896224E+02  0.55928957149E+02  0.41800000000E+01 0.  1.
</event>
<event>
11    1  0.7105277E-009  0.1285043E+03  0.7561462E-02  0.1121120E+00
         22   -1    0    0    0    0  0.00000000000E+00  0.00000000000E+00  0.43829256942E+03  0.43829256942E+03  0.00000000000E+00 0. -1.
         22   -1    0    0    0    0 -0.00000000000E+00 -0.00000000000E+00 -0.51183824048E+03  0.51183824048E+03  0.00000000000E+00 0.  1.
         24    2    1    2    0    0 -0.28760218851E+02 -0.70129650241E+01 -0.37201574620E+03  0.38340330054E+03  0.87897915687E+02 0.  0.
         25    2    1    2    0    0  0.32917916247E+02 -0.28555302902E+02 -0.95932550690E+02  0.16355389974E+03  0.12509128388E+03 0.  0.
        -24    2    1    2    0    0 -0.41576973957E+01  0.35568267926E+02  0.39440262583E+03  0.40317360962E+03  0.75585316716E+02 0.  0.
        -11    1    3    3    0    0  0.76587175999E+01  0.16859316433E+02 -0.28959421015E+03  0.29018562862E+03  0.00000000000E+00 0.  1.
         12    1    3    3    0    0 -0.36418936451E+02 -0.23872281457E+02 -0.82421536045E+02  0.93217671920E+02  0.00000000000E+00 0. -1.
         13    1    5    5    0    0  0.11188285645E+02  0.10035810482E+02  0.34608333849E+03  0.34640954433E+03  0.00000000000E+00 0. -1.
        -14    1    5    5    0    0 -0.15345983041E+02  0.25532457444E+02  0.48319287344E+02  0.56764065288E+02  0.00000000000E+00 0.  1.
          5    1    4    4  501    0  0.54247595955E+02 -0.35355347103E+02 -0.11618575551E+03  0.13307668623E+03  0.41800000000E+01 0. -1.
         -5    1    4    4    0  501 -0.21329679708E+02  0.68000442013E+01  0.20253204819E+02  0.30477213505E+02  0.41800000000E+01 0. -1.
</event>
<event>
11    1  0.1249364E-008  0.1813911E+03  0.7561462E-02  0.1068523E+00
         22   -1    0    0    0    0  0.00000000000E+00  0.00000000000E+00  0.47232833992E+03  0.47232833992E+03  0.00000000000E+00 0.  1.
         22   -1    0    0    0    0 -0.00000000000E+00 -0.00000000000E+00 -0.12004575052E+04  0.12004575052E+04  0.00000000000E+00 0. -1.
         24    2    1    2    0    0  0.88686153871E+02  0.25380292215E+01 -0.77348450349E+03  0.78262629651E+03  0.79711776826E+02 0.  0.
         25    2    1    2    0    0 -0.63443591327E+02  0.12697225258E+03 -0.38712592295E+03  0.43088408287E+03  0.12509024918E+03 0.  0.
        -24    2    1    2    0    0 -0.25242562544E+02 -0.12951028180E+03  0.43248126112E+03  0.45927546579E+03  0.80522122427E+02 0.  0.
        -11    1    3    3    0    0  0.88873786200E+02  0.23096126487E+01 -0.42772912254E+03  0.43687078919E+03  0.00000000000E+00 0.  1.
         12    1    3    3    0    0 -0.18763232910E+00  0.22841657276E+00 -0.34575538095E+03  0.34575550731E+03  0.00000000000E+00 0. -1.
         11    1    5    5    0    0 -0.27980261748E+02 -0.33436132449E+02  0.57429360322E+02  0.72104101323E+02  0.00000000000E+00 0. -1.
        -12    1    5    5    0    0  0.27376992037E+01 -0.96074149356E+02  0.37505190080E+03  0.38717136447E+03  0.00000000000E+00 0.  1.
          5    1    4    4  501    0 -0.80268109589E+01  0.13080572716E+03 -0.23857340028E+03  0.27223024753E+03  0.41800000000E+01 0.  1.
         -5    1    4    4    0  501 -0.55416780368E+02 -0.38334745755E+01 -0.14855252268E+03  0.15865383534E+03  0.41800000000E+01 0.  1.
</event>
<event>
11    1  0.7105277E-009  0.1396784E+03  0.7561462E-02  0.1107918E+00
         22   -1    0    0    0    0  0.00000000000E+00  0.00000000000E+00  0.88497331842E+03  0.88497331842E+03  0.00000000000E+00 0.  1.
         22   -1    0    0    0    0 -0.00000000000E+00 -0.00000000000E+00 -0.28871920939E+03  0.28871920939E+03  0.00000000000E+00 0. -1.
        -24    2    1    2    0    0 -0.73496829223E+01 -0.61348067291E+02 -0.25746392389E+03  0.27668063685E+03  0.80292586836E+02 0.  0.
         25    2    1    2    0    0 -0.18724233525E+02  0.75793375214E+02  0.27643830396E+03  0.31330672264E+03  0.12509090258E+03 0.  0.
         24    2    1    2    0    0  0.26073916447E+02 -0.14445307923E+02  0.57727972895E+03  0.58370516832E+03  0.81063691151E+02 0.  0.
        -11    1    5    5    0    0 -0.24083026201E+02 -0.19845403312E+02  0.32059407207E+03  0.32210928461E+03  0.00000000000E+00 0.  1.
         12    1    5    5    0    0  0.50156942647E+02  0.54000953885E+01  0.25668565688E+03  0.26159588371E+03  0.00000000000E+00 0. -1.
         11    1    3    3    0    0 -0.56278042519E+01 -0.52211516796E+02 -0.26137200652E+03  0.26659527464E+03  0.00000000000E+00 0. -1.
        -12    1    3    3    0    0 -0.17218786704E+01 -0.91365504949E+01  0.39080826267E+01  0.10085362211E+02  0.00000000000E+00 0.  1.
          5    1    4    4  501    0 -0.65355082340E+02  0.30356984511E+02  0.20101340025E+03  0.21358064701E+03  0.41800000000E+01 0. -1.
         -5    1    4    4    0  501  0.46630848816E+02  0.45436390703E+02  0.75424903713E+02  0.99726075635E+02  0.41800000000E+01 0. -1.
</event>
<event>
11    1  0.7105277E-009  0.2527239E+03  0.7561462E-02  0.1022458E+00
         22   -1    0    0    0    0  0.00000000000E+00  0.00000000000E+00  0.22101556218E+03  0.22101556218E+03  0.00000000000E+00 0. -1.
         22   -1    0    0    0    0 -0.00000000000E+00 -0.00000000000E+00 -0.52975490518E+03  0.52975490518E+03  0.00000000000E+00 0. -1.
        -24    2    1    2    0    0 -0.89970485910E+02 -0.20639143707E+03 -0.33783422384E+03  0.41536513649E+03  0.87773117632E+02 0.  0.
         25    2    1    2    0    0  0.10017583606E+03  0.17789331928E+03 -0.12940117889E+02  0.23978155141E+03  0.12508602867E+03 0.  0.
         24    2    1    2    0    0 -0.10205350151E+02  0.28498117790E+02  0.42034998737E+02  0.95623779462E+02  0.80378319157E+02 0.  0.
        -13    1    5    5    0    0  0.31176272893E+02  0.19311470414E+02  0.38369585840E+02  0.53076529640E+02  0.00000000000E+00 0.  1.
         14    1    5    5    0    0 -0.41381623044E+02  0.91866473758E+01  0.36654128963E+01  0.42547249822E+02  0.00000000000E+00 0. -1.
         11    1    3    3    0    0 -0.79329408801E+02 -0.20743090271E+03 -0.28422496018E+03  0.36070010048E+03  0.00000000000E+00 0. -1.
        -12    1    3    3    0    0 -0.10641077110E+02  0.10394656396E+01 -0.53609263661E+02  0.54665036003E+02  0.00000000000E+00 0.  1.
          5    1    4    4  501    0  0.36486789424E+02  0.16978547111E+03 -0.20847334903E+02  0.17495849729E+03  0.41800000000E+01 0.  1.
         -5    1    4    4    0  501  0.63689046638E+02  0.81078481665E+01  0.79072170134E+01  0.64823054112E+02  0.41800000000E+01 0.  1.
</event>
<event>
11    1  0.7105277E-009  0.1984421E+03  0.7561462E-02  0.1055631E+00
         22   -1    0    0    0    0  0.00000000000E+00  0.00000000000E+00  0.55795019636E+03  0.55795019636E+03  0.00000000000E+00 0. -1.
         22   -1    0    0    0    0 -0.00000000000E+00 -0.00000000000E+00 -0.11709199869E+04  0.11709199869E+04  0.00000000000E+00 0. -1.
        -24    2    1    2    0    0  0.58990722832E+02 -0.11639664404E+03 -0.10386208362E+04  0.10498481386E+04  0.80123583683E+02 0.  0.
         25    2    1    2    0    0 -0.11893182956E+03 -0.37790784711E+02 -0.37889542094E+02  0.18070931422E+03  0.12508922957E+03 0.  0.
         24    2    1    2    0    0  0.59941106730E+02  0.15418742875E+03  0.46354058773E+03  0.49831273044E+03  0.77967950987E+02 0.  0.
        -11    1    5    5    0    0 -0.42647084225E+01  0.21246169480E+01  0.87626357526E+02  0.87755799058E+02  0.00000000000E+00 0.  1.
         12    1    5    5    0    0  0.64205815153E+02  0.15206281180E+03  0.37591423020E+03  0.41055693138E+03  0.00000000000E+00 0. -1.
         13    1    3    3    0    0  0.95917014274E+01 -0.26436716170E+02 -0.54222354830E+03  0.54295237086E+03  0.00000000000E+00 0. -1.
        -14    1    3    3    0    0  0.49399021405E+02 -0.89959927867E+02 -0.49639728792E+03  0.50689576778E+03  0.00000000000E+00 0.  1.
          5    1    4    4  501    0 -0.28827058807E+02  0.38588179708E+02  0.15837825712E+02  0.50875888748E+02  0.41800000000E+01 0.  1.
         -5    1    4    4    0  501 -0.90104770756E+02 -0.76378964419E+02 -0.53727367806E+02  0.12983342547E+03  0.41800000000E+01 0.  1.
</event>
<event>
11    1  0.9502233E-009  0.2008917E+03  0.7561462E-02  0.1053895E+00
         22   -1    0    0    0    0  0.00000000000E+00  0.00000000000E+00  0.35717151855E+03  0.35717151855E+03  0.00000000000E+00 0.  1.
         22   -1    0    0    0    0 -0.00000000000E+00 -0.00000000000E+00 -0.32569316958E+04  0.32569316958E+04  0.00000000000E+00 0. -1.
         24    2    1    2    0    0  0.76220389298E+01  0.12239037854E+01 -0.26601166264E+04  0.26613373603E+04  0.80227711579E+02 0.  0.
         25    2    1    2    0    0 -0.69805426072E+02  0.14306662015E+03 -0.55499567590E+03  0.59076954879E+03  0.12509038414E+03 0.  0.
        -24    2    1    2    0    0  0.62183387142E+02 -0.14429052394E+03  0.31535212512E+03  0.36199630522E+03  0.83113375822E+02 0.  0.
        -13    1    3    3    0    0  0.14796317062E+02  0.32372372843E+02 -0.65530472186E+03  0.65627066064E+03  0.00000000000E+00 0.  1.
         14    1    3    3    0    0 -0.71742781317E+01 -0.31148469057E+02 -0.20048119046E+04  0.20050666997E+04  0.00000000000E+00 0. -1.
         13    1    5    5    0    0  0.27330254074E+00  0.10426704303E+02  0.12116942021E+02  0.15987843533E+02  0.00000000000E+00 0. -1.
        -14    1    5    5    0    0  0.61910084601E+02 -0.15471722824E+03  0.30323518309E+03  0.34600846168E+03  0.00000000000E+00 0.  1.
          5    1    4    4  501    0 -0.97441217567E+02  0.64313727568E+02 -0.36411703581E+03  0.38239996679E+03  0.41800000000E+01 0.  1.
         -5    1    4    4    0  501  0.27635791495E+02  0.78752892586E+02 -0.19087864009E+03  0.20836958200E+03  0.41800000000E+01 0.  1.
</event>
<event>
11    1  0.7105277E-009  0.1761518E+03  0.7561462E-02  0.1072799E+00
         22   -1    0    0    0    0  0.00000000000E+00  0.00000000000E+00  0.39184114683E+03  0.39184114683E+03  0.00000000000E+00 0. -1.
         22   -1    0    0    0    0 -0.00000000000E+00 -0.00000000000E+00 -0.15357632803E+03  0.15357632803E+03  0.00000000000E+00 0.  1.
        -24    2    1    2    0    0  0.62411392675E+02  0.13661987968E+03  0.28131525315E+02  0.17272066274E+03  0.80503858053E+02 0.  0.
         25    2    1    2    0    0  0.42960048102E+01 -0.10461902700E+03  0.33534805616E+02  0.16653974818E+03  0.12508920045E+03 0.  0.
         24    2    1    2    0    0 -0.66707397485E+02 -0.32000852676E+02  0.17659848787E+03  0.20615706394E+03  0.76418437840E+02 0.  0.
        -13    1    5    5    0    0 -0.13027243092E+02  0.57944747781E+01 -0.33163465501E+01  0.14638413677E+02  0.00000000000E+00 0.  1.
         14    1    5    5    0    0 -0.53680154393E+02 -0.37795327454E+02  0.17991483442E+03  0.19151865026E+03  0.00000000000E+00 0. -1.
         13    1    3    3    0    0  0.66321631371E+02  0.11439647369E+03  0.49932338927E+02  0.14134479280E+03  0.00000000000E+00 0. -1.
        -14    1    3    3    0    0 -0.39102386960E+01  0.22223405988E+02 -0.21800813612E+02  0.31375869940E+02  0.00000000000E+00 0.  1.
          5    1    4    4  501    0  0.62760199295E+02 -0.38171942303E+02  0.24158364055E+02  0.77440549769E+02  0.41800000000E+01 0.  1.
         -5    1    4    4    0  501 -0.58464194485E+02 -0.66447084698E+02  0.93764415609E+01  0.89099198414E+02  0.41800000000E+01 0.  1.
</event>
<event>
11    1  0.7105277E-009  0.2223786E+03  0.7561462E-02  0.1039738E+00
         22   -1    0    0    0    0  0.00000000000E+00  0.00000000000E+00  0.39826591418E+03  0.39826591418E+03  0.00000000000E+00 0.  1.
         22   -1    0    0    0    0 -0.00000000000E+00 -0.00000000000E+00 -0.93477631303E+03  0.93477631303E+03  0.00000000000E+00 0. -1.
        -24    2    1    2    0    0  0.16266733830E+03 -0.35948334999E+02 -0.56743304337E+03  0.59668855394E+03  0.79397896446E+02 0.  0.
         25    2    1    2    0    0 -0.25337759881E+03  0.25957304520E+02 -0.28215913694E+03  0.40017324032E+03  0.12510337517E+03 0.  0.
         24    2    1    2    0    0  0.90710260510E+02  0.99910304792E+01  0.31308178145E+03  0.33618043294E+03  0.81663391845E+02 0.  0.
        -13    1    5    5    0    0  0.57911610886E+02  0.16336975018E+02  0.28848947197E+03  0.29469785691E+03  0.00000000000E+00 0.  1.
         14    1    5    5    0    0  0.32798649624E+02 -0.63459445389E+01  0.24592309480E+02  0.41482576039E+02  0.00000000000E+00 0. -1.
         13    1    3    3    0    0  0.96187419563E+02 -0.16979883866E+02 -0.44946720818E+03  0.45995772346E+03  0.00000000000E+00 0. -1.
        -14    1    3    3    0    0  0.66479918735E+02 -0.18968451133E+02 -0.11796583519E+03  0.13673083049E+03  0.00000000000E+00 0.  1.
          5    1    4    4  501    0 -0.19969518680E+03  0.22583748244E+02 -0.13164795664E+03  0.24028493545E+03  0.41800000000E+01 0. -1.
         -5    1    4    4    0  501 -0.53682412007E+02  0.33735562759E+01 -0.15051118030E+03  0.15988830487E+03  0.41800000000E+01 0. -1.
</event>
<event>
11    1  0.7105277E-009  0.1624455E+03  0.7561462E-02  0.1084799E+00
         22   -1    0    0    0    0  0.00000000000E+00  0.00000000000E+00  0.82952723743E+03  0.82952723743E+03  0.00000000000E+00 0. -1.
         22   -1    0    0    0    0 -0.00000000000E+00 -0.00000000000E+00 -0.12393700693E+03  0.12393700693E+03  0.00000000000E+00 0.  1.
         24    2    1    2    0    0  0.79096999281E+02  0.10975285184E+03 -0.18254982378E+02  0.15839537269E+03  0.80335707673E+02 0.  0.
         25    2    1    2    0    0 -0.21897729952E+01 -0.42394066096E+02  0.11931331846E+03  0.17800474299E+03  0.12509184074E+03 0.  0.
        -24    2    1    2    0    0 -0.76907226286E+02 -0.67358785742E+02  0.60453189442E+03  0.61706412868E+03  0.69695050466E+02 0.  0.
        -13    1    3    3    0    0  0.80564899401E+02  0.10576473992E+03  0.66594375453E+01  0.13312111529E+03  0.00000000000E+00 0.  1.
         14    1    3    3    0    0 -0.14679001200E+01  0.39881119153E+01 -0.24914419924E+02  0.25274257408E+02  0.00000000000E+00 0. -1.
         13    1    5    5    0    0 -0.21814935089E+02 -0.23090840446E+02  0.38783059418E+03  0.38912934622E+03  0.00000000000E+00 0. -1.
        -14    1    5    5    0    0 -0.55092291197E+02 -0.44267945297E+02  0.21670130024E+03  0.22793478246E+03  0.00000000000E+00 0.  1.
          5    1    4    4  501    0  0.49560609994E+02 -0.14168305674E+02  0.10523491184E+03  0.11725550741E+03  0.41800000000E+01 0.  1.
         -5    1    4    4    0  501 -0.51750382989E+02 -0.28225760421E+02  0.14078406618E+02  0.60749235582E+02  0.41800000000E+01 0.  1.
</event>
<event>
11    1  0.9570170E-009  0.2176273E+03  0.7561462E-02  0.1042714E+00
         22   -1    0    0    0    0  0.00000000000E+00  0.00000000000E+00  0.87540604841E+03  0.87540604841E+03  0.00000000000E+00 0.  1.
         22   -1    0    0    0    0 -0.00000000000E+00 -0.00000000000E+00 -0.70519398710E+03  0.70519398710E+03  0.00000000000E+00 0.  1.
         24    2    1    2    0    0 -0.66677942254E+02 -0.34913365191E+02 -0.47853192875E+03  0.49091662018E+03  0.79633096648E+02 0.  0.
         25    2    1    2    0    0 -0.11465843059E+03  0.44636568579E+02 -0.17153989775E+03  0.24538241153E+03  0.12509041694E+03 0.  0.
        -24    2    1    2    0    0  0.18133637284E+03 -0.97232033874E+01  0.82028388781E+03  0.84430100380E+03  0.83672621631E+02 0.  0.
        -13    1    3    3    0    0  0.13844548550E+02 -0.21910132155E+01 -0.16395011695E+03  0.16454820848E+03  0.00000000000E+00 0.  1.
         14    1    3    3    0    0 -0.80522490804E+02 -0.32722351976E+02 -0.31458181180E+03  0.32636841170E+03  0.00000000000E+00 0. -1.
         13    1    5    5    0    0 -0.68067617975E+01  0.77162708385E+01  0.29032299567E+02  0.30801741184E+02  0.00000000000E+00 0. -1.
        -14    1    5    5    0    0  0.18814313464E+03 -0.17439474226E+02  0.79125158825E+03  0.81349926262E+03  0.00000000000E+00 0.  1.
          5    1    4    4  501    0 -0.56298441900E+02  0.78685024322E+01  0.35899720208E+01  0.57112066939E+02  0.41800000000E+01 0.  1.
         -5    1    4    4    0  501 -0.58359988686E+02  0.36768066147E+02 -0.17512986977E+03  0.18827034459E+03  0.41800000000E+01 0.  1.
</event>
<event>
11    1  0.7105277E-009  0.1414737E+03  0.7561462E-02  0.1105924E+00
         22   -1    0    0    0    0  0.00000000000E+00  0.00000000000E+00  0.19577136046E+03  0.19577136046E+03  0.00000000000E+00 0. -1.
         22   -1    0    0    0    0 -0.00000000000E+00 -0.00000000000E+00 -0.58003717362E+03  0.58003717362E+03  0.00000000000E+00 0. -1.
        -24    2    1    2    0    0  0.44368999138E+02  0.29934700692E+02 -0.44743030608E+03  0.45784210723E+03  0.80998900982E+02 0.  0.
         25    2    1    2    0    0 -0.70986377922E+02  0.31670008697E+02 -0.57755468532E+02  0.15819153437E+03  0.12508721796E+03 0.  0.
         24    2    1    2    0    0  0.26617378785E+02 -0.61604709389E+02  0.12091996145E+03  0.15977489248E+03  0.80017211372E+02 0.  0.
        -13    1    5    5    0    0  0.17595398097E+02 -0.80611850746E+01 -0.71793776926E+01  0.20642776050E+02  0.00000000000E+00 0.  1.
         14    1    5    5    0    0  0.90219806870E+01 -0.53543524314E+02  0.12809933915E+03  0.13913211643E+03  0.00000000000E+00 0. -1.
         11    1    3    3    0    0 -0.19919869113E+02  0.12312224354E+02 -0.20771388655E+03  0.20902978429E+03  0.00000000000E+00 0. -1.
        -12    1    3    3    0    0  0.64288868251E+02  0.17622476338E+02 -0.23971641953E+03  0.24881232294E+03  0.00000000000E+00 0.  1.
          5    1    4    4  501    0 -0.26371779078E+02  0.78223526048E+02 -0.32674807061E+02  0.88879166150E+02  0.41800000000E+01 0. -1.
         -5    1    4    4    0  501 -0.44614598844E+02 -0.46553517351E+02 -0.25080661471E+02  0.69312368215E+02  0.41800000000E+01 0. -1.
</event>
<event>
11    1  0.7105277E-009  0.1914663E+03  0.7561462E-02  0.1060728E+00
         22   -1    0    0    0    0  0.00000000000E+00  0.00000000000E+00  0.53527891464E+03  0.53527891464E+03  0.00000000000E+00 0. -1.
         22   -1    0    0    0    0 -0.00000000000E+00 -0.00000000000E+00 -0.26506928918E+03  0.26506928918E+03  0.00000000000E+00 0. -1.
         24    2    1    2    0    0 -0.37143824252E+02 -0.49471486707E+01 -0.16977963867E+03  0.19168413864E+03  0.80706538407E+02 0.  0.
         25    2    1    2    0    0 -0.10129300887E+03  0.67022520749E+02  0.48448176548E+02  0.18096696279E+03  0.12509805705E+03 0.  0.
        -24    2    1    2    0    0  0.13843683312E+03 -0.62075372078E+02  0.39154108757E+03  0.42769710238E+03  0.81254412470E+02 0.  0.
        -13    1    3    3    0    0 -0.28420196289E+02 -0.35010808664E+02 -0.47642941494E+02  0.65599650568E+02  0.00000000000E+00 0.  1.
         14    1    3    3    0    0 -0.87236279626E+01  0.30063659993E+02 -0.12213669717E+03  0.12608448808E+03  0.00000000000E+00 0. -1.
         13    1    5    5    0    0  0.88215440149E+02 -0.75606334250E+02  0.30916831692E+03  0.33027765569E+03  0.00000000000E+00 0. -1.
        -14    1    5    5    0    0  0.50221392973E+02  0.13530962171E+02  0.82372770650E+02  0.97419446693E+02  0.00000000000E+00 0.  1.
          5    1    4    4  501    0 -0.65976720639E+02 -0.18573248737E+02  0.55095931826E+02  0.88039351080E+02  0.41800000000E+01 0. -1.
         -5    1    4    4    0  501 -0.35316288231E+02  0.85595769486E+02 -0.66477552781E+01  0.92927611712E+02  0.41800000000E+01 0. -1.
</event>
<event>
11    1  0.7105277E-009  0.1437136E+03  0.7561462E-02  0.1103481E+00
         22   -1    0    0    0    0  0.00000000000E+00  0.00000000000E+00  0.40906590121E+02  0.40906590121E+02  0.00000000000E+00 0. -1.
         22   -1    0    0    0    0 -0.00000000000E+00 -0.00000000000E+00 -0.17153356724E+04  0.17153356724E+04  0.00000000000E+00 0. -1.
        -24    2    1    2    0    0 -0.54872377519E+02 -0.45456389482E+02 -0.13590853627E+04  0.13633451719E+04  0.80745114867E+02 0.  0.
         25    2    1    2    0    0  0.65244913255E+02  0.24981679154E+02 -0.24715081127E+03  0.28567049813E+03  0.12507248694E+03 0.  0.
         24    2    1    2    0    0 -0.10372535736E+02  0.20474710328E+02 -0.68192908306E+02  0.10722659246E+03  0.79501359273E+02 0.  0.
        -11    1    5    5    0    0 -0.11721021485E+02  0.48234163142E+02 -0.60758811242E+02  0.78457313122E+02  0.00000000000E+00 0.  1.
         12    1    5    5    0    0  0.13484857495E+01 -0.27759452814E+02 -0.74340970632E+01  0.28769279336E+02  0.00000000000E+00 0. -1.
         13    1    3    3    0    0 -0.72226426360E+02 -0.19198656010E+02 -0.84560563300E+03  0.84890172083E+03  0.00000000000E+00 0. -1.
        -14    1    3    3    0    0  0.17354048841E+02 -0.26257733472E+02 -0.51347972965E+03  0.51444345106E+03  0.00000000000E+00 0.  1.
          5    1    4    4  501    0  0.82616360481E+02 -0.27433157174E+02 -0.16492152174E+03  0.18653316559E+03  0.41800000000E+01 0. -1.
         -5    1    4    4    0  501 -0.17371447226E+02  0.52414836328E+02 -0.82229289534E+02  0.99137332541E+02  0.41800000000E+01 0. -1.
</event>
<event>
11    1  0.7105277E-009  0.1343215E+03  0.7561462E-02  0.1114070E+00
         22   -1    0    0    0    0  0.00000000000E+00  0.00000000000E+00  0.29565555008E+03  0.29565555008E+03  0.00000000000E+00 0. -1.
         22   -1    0    0    0    0 -0.00000000000E+00 -0.00000000000E+00 -0.55419752044E+03  0.55419752044E+03  0.00000000000E+00 0.  1.
        -24    2    1    2    0    0 -0.57822037849E+02 -0.29789774922E+02 -0.49354739705E+03  0.50407348543E+03  0.79184763885E+02 0.  0.
         25    2    1    2    0    0 -0.58155567933E+01  0.15214537900E+02  0.56452080693E+02  0.13819517864E+03  0.12508304090E+03 0.  0.
         24    2    1    2    0    0  0.63637594642E+02  0.14575237022E+02  0.17855334600E+03  0.20758440645E+03  0.83353508894E+02 0.  0.
        -11    1    5    5    0    0  0.30686845239E+02  0.34199995917E+02  0.31743526461E+02  0.55847772235E+02  0.00000000000E+00 0.  1.
         12    1    5    5    0    0  0.32950749403E+02 -0.19624758895E+02  0.14680981954E+03  0.15173663421E+03  0.00000000000E+00 0. -1.
         13    1    3    3    0    0  0.12200054704E+02 -0.94926891970E+01 -0.23318002995E+03  0.23369184592E+03  0.00000000000E+00 0. -1.
        -14    1    3    3    0    0 -0.70022092553E+02 -0.20297085725E+02 -0.26036736710E+03  0.27038163951E+03  0.00000000000E+00 0.  1.
          5    1    4    4  501    0  0.43673701171E+02 -0.19919934527E+02 -0.88018457914E+01  0.48981025458E+02  0.41800000000E+01 0. -1.
         -5    1    4    4    0  501 -0.49489257964E+02  0.35134472427E+02  0.65253926485E+02  0.89214153184E+02  0.41800000000E+01 0. -1.
</event>
<event>
11    1  0.7105277E-009  0.1468393E+03  0.7561462E-02  0.1100153E+00
         22   -1    0    0    0    0  0.00000000000E+00  0.00000000000E+00  0.66246793220E+03  0.66246793220E+03  0.00000000000E+00 0. -1.
         22   -1    0    0    0    0 -0.00000000000E+00 -0.00000000000E+00 -0.11772279953E+03  0.11772279953E+03  0.00000000000E+00 0.  1.
         24    2    1    2    0    0  0.94187427388E+02  0.14645500290E+02 -0.41018740924E+02  0.13134093476E+03  0.80511749953E+02 0.  0.
         25    2    1    2    0    0 -0.10015642867E+02 -0.61481947366E+00  0.14006779546E+03  0.18806272130E+03  0.12509160129E+03 0.  0.
        -24    2    1    2    0    0 -0.84171784521E+02 -0.14030680816E+02  0.44569607813E+03  0.46078707567E+03  0.79987409811E+02 0.  0.
        -11    1    3    3    0    0  0.98148576612E+02  0.10146158534E+02 -0.57222703449E+02  0.11406369016E+03  0.00000000000E+00 0.  1.
         12    1    3    3    0    0 -0.39611492243E+01  0.44993417558E+01  0.16203962524E+02  0.17277244598E+02  0.00000000000E+00 0. -1.
         11    1    5    5    0    0  0.92474025950E+01 -0.52259472892E+01  0.15409568771E+03  0.15446134128E+03  0.00000000000E+00 0. -1.
        -12    1    5    5    0    0 -0.93419187116E+02 -0.88047335270E+01  0.29160039042E+03  0.30632573439E+03  0.00000000000E+00 0.  1.
          5    1    4    4  501    0  0.74218851443E+01  0.24972937152E+02  0.15225520055E+03  0.15452459501E+03  0.41800000000E+01 0. -1.
         -5    1    4    4    0  501 -0.17437528011E+02 -0.25587756626E+02 -0.12187405087E+02  0.33538126290E+02  0.41800000000E+01 0. -1.
</event>
<event>
11    1  0.7105277E-009  0.1581312E+03  0.7561462E-02  0.1088848E+00
         22   -1    0    0    0    0  0.00000000000E+00  0.00000000000E+00  0.83022311614E+03  0.83022311614E+03  0.00000000000E+00 0. -1.
         22   -1    0    0    0    0 -0.00000000000E+00 -0.00000000000E+00 -0.28907038793E+03  0.28907038793E+03  0.00000000000E+00 0.  1.
         24    2    1    2    0    0  0.73424653821E+02 -0.70555310234E+02 -0.22265487325E+03  0.25836033045E+03  0.82496279764E+02 0.  0.
         25    2    1    2    0    0 -0.68436040351E+02  0.20102746256E+02  0.69056722478E+02  0.15970568527E+03  0.12509781358E+03 0.  0.
        -24    2    1    2    0    0 -0.49886134700E+01  0.50452563979E+02  0.69475087899E+03  0.70122748834E+03  0.80441650168E+02 0.  0.
        -11    1    3    3    0    0  0.91098153614E+02 -0.62577026615E+02 -0.20029347038E+03  0.22876239229E+03  0.00000000000E+00 0.  1.
         12    1    3    3    0    0 -0.17673499793E+02 -0.79782836190E+01 -0.22361402873E+02  0.29597938153E+02  0.00000000000E+00 0. -1.
         13    1    5    5    0    0  0.93541107464E+01  0.12556103583E+02  0.56675018201E+03  0.56696642223E+03  0.00000000000E+00 0. -1.
        -14    1    5    5    0    0 -0.14342724216E+02  0.37896460396E+02  0.12800069697E+03  0.13426106611E+03  0.00000000000E+00 0.  1.
          5    1    4    4  501    0 -0.10067785680E+03  0.30797354602E+02  0.34008575554E+02  0.11071839735E+03  0.41800000000E+01 0.  1.
         -5    1    4    4    0  501  0.32241816446E+02 -0.10694608347E+02  0.35048146924E+02  0.48987287925E+02  0.41800000000E+01 0.  1.
</event>
<event>
11    1  0.7105277E-009  0.1421200E+03  0.7561462E-02  0.1105214E+00
         22   -1    0    0    0    0  0.00000000000E+00  0.00000000000E+00  0.26007735525E+04  0.26007735525E+04  0.00000000000E+00 0.  1.
         22   -1    0    0    0    0 -0.00000000000E+00 -0.00000000000E+00 -0.77951105057E+03  0.77951105057E+03  0.00000000000E+00 0.  1.
         24    2    1    2    0    0  0.65989220356E+02 -0.13532123872E+02 -0.76782245500E+03  0.77499789109E+03  0.80825201521E+02 0.  0.
         25    2    1    2    0    0 -0.90737355804E+02  0.44550457592E+02  0.93130205001E+03  0.94508532118E+03  0.12507895483E+03 0.  0.
        -24    2    1    2    0    0  0.24748135448E+02 -0.31018333720E+02  0.16577829069E+04  0.16602013908E+04  0.80311171717E+02 0.  0.
        -11    1    3    3    0    0  0.81477354281E+02  0.42856103819E+01 -0.60136604139E+03  0.60687563920E+03  0.00000000000E+00 0.  1.
         12    1    3    3    0    0 -0.15488133924E+02 -0.17817734254E+02 -0.16645641361E+03  0.16812225189E+03  0.00000000000E+00 0. -1.
         13    1    5    5    0    0 -0.17667954286E+02 -0.46650252012E+00  0.10056036958E+03  0.10210172459E+03  0.00000000000E+00 0. -1.
        -14    1    5    5    0    0  0.42416089733E+02 -0.30551831200E+02  0.15572225373E+04  0.15580996662E+04  0.00000000000E+00 0.  1.
          5    1    4    4  501    0 -0.11151533146E+03  0.12274709099E+00  0.64459932248E+03  0.65418762077E+03  0.41800000000E+01 0. -1.
         -5    1    4    4    0  501  0.20777975657E+02  0.44427710501E+02  0.28670272753E+03  0.29089770041E+03  0.41800000000E+01 0. -1.
</event>
<event>
11    1  0.7105277E-009  0.1517692E+03  0.7561462E-02  0.1095085E+00
         22   -1    0    0    0    0  0.00000000000E+00  0.00000000000E+00  0.86638027598E+02  0.86638027598E+02  0.00000000000E+00 0.  1.
         22   -1    0    0    0    0 -0.00000000000E+00 -0.00000000000E+00 -0.10691967586E+04  0.10691967586E+04  0.00000000000E+00 0. -1.
        -24    2    1    2    0    0  0.22803207709E+02 -0.23090526549E+02 -0.51018298560E+03  0.51779366281E+03  0.82282681983E+02 0.  0.
         25    2    1    2    0    0 -0.63016246873E+02 -0.53854506345E+02 -0.49257657107E+03  0.51492680368E+03  0.12508628842E+03 0.  0.
         24    2    1    2    0    0  0.40213039163E+02  0.76945032894E+02  0.20200825695E+02  0.12311431969E+03  0.84920172792E+02 0.  0.
        -11    1    5    5    0    0  0.44144288161E+02  0.12155104303E+02  0.33655182212E+02  0.56825487483E+02  0.00000000000E+00 0.  1.
         12    1    5    5    0    0 -0.39312489983E+01  0.64789928591E+02 -0.13454356517E+02  0.66288832203E+02  0.00000000000E+00 0. -1.
         13    1    3    3    0    0 -0.12207554776E+02 -0.63771899660E+01 -0.41190906236E+03  0.41213925875E+03  0.00000000000E+00 0. -1.
        -14    1    3    3    0    0  0.35010762485E+02 -0.16713336583E+02 -0.98273923240E+02  0.10565440407E+03  0.00000000000E+00 0.  1.
          5    1    4    4  501    0  0.29554244082E+02 -0.91969688031E+01 -0.39690954567E+02  0.50506255582E+02  0.41800000000E+01 0.  1.
         -5    1    4    4    0  501 -0.92570490955E+02 -0.44657537542E+02 -0.45288561651E+03  0.46442054809E+03  0.41800000000E+01 0.  1.
</event>
<event>
11    1  0.7105277E-009  0.1524598E+03  0.7561462E-02  0.1094392E+00
         22   -1    0    0    0    0  0.00000000000E+00  0.00000000000E+00  0.23010540535E+04  0.23010540535E+04  0.00000000000E+00 0.  1.
         22   -1    0    0    0    0 -0.00000000000E+00 -0.00000000000E+00 -0.12221935467E+04  0.12221935467E+04  0.00000000000E+00 0.  1.
         24    2    1    2    0    0 -0.11311454010E+02 -0.34198908328E+02 -0.12120322156E+04  0.12152670788E+04  0.80959661022E+02 0.  0.
         25    2    1    2    0    0  0.53269245428E+02 -0.51401685977E+02  0.92170189381E+03  0.93309247859E+03  0.12508975463E+03 0.  0.
        -24    2    1    2    0    0 -0.41957791418E+02  0.85600594306E+02  0.13691908287E+04  0.13748880429E+04  0.80905420748E+02 0.  0.
        -13    1    3    3    0    0 -0.30343653687E+02 -0.39322630099E+02 -0.11221727891E+04  0.11232714610E+04  0.00000000000E+00 0.  1.
         14    1    3    3    0    0  0.19032199677E+02  0.51237217708E+01 -0.89859426522E+02  0.91995617745E+02  0.00000000000E+00 0. -1.
         11    1    5    5    0    0  0.11792359463E+02  0.56101926071E+02  0.88079954497E+03  0.88266319980E+03  0.00000000000E+00 0. -1.
        -12    1    5    5    0    0 -0.53750150881E+02  0.29498668234E+02  0.48839128370E+03  0.49222484308E+03  0.00000000000E+00 0.  1.
          5    1    4    4  501    0  0.51873738294E+02  0.15665039678E+02  0.17196222218E+03  0.18034621274E+03  0.41800000000E+01 0. -1.
         -5    1    4    4    0  501  0.13955071343E+01 -0.67066725655E+02  0.74973967163E+03  0.75274626585E+03  0.41800000000E+01 0. -1.
</event>
<event>
11    1  0.7105277E-009  0.1400699E+03  0.7561462E-02  0.1107480E+00
         22   -1    0    0    0    0  0.00000000000E+00  0.00000000000E+00  0.28082379897E+03  0.28082379897E+03  0.00000000000E+00 0.  1.
         22   -1    0    0    0    0 -0.00000000000E+00 -0.00000000000E+00 -0.42246695664E+03  0.42246695664E+03  0.00000000000E+00 0. -1.
         24    2    1    2    0    0  0.15387900691E+02 -0.20062522300E+02 -0.32401862724E+03  0.33525334108E+03  0.82264449299E+02 0.  0.
         25    2    1    2    0    0  0.49288976305E+02  0.92240368784E+01 -0.22775389168E+02  0.13668140960E+03  0.12509437772E+03 0.  0.
        -24    2    1    2    0    0 -0.64676876995E+02  0.10838485422E+02  0.20515085875E+03  0.23135600492E+03  0.84487602556E+02 0.  0.
        -13    1    3    3    0    0  0.69131862290E+01  0.25186831301E+02 -0.41688120763E+02  0.49194186929E+02  0.00000000000E+00 0.  1.
         14    1    3    3    0    0  0.84747144616E+01 -0.45249353601E+02 -0.28233050648E+03  0.28605915415E+03  0.00000000000E+00 0. -1.
         11    1    5    5    0    0 -0.19819809953E+02 -0.36381319596E+02  0.89585267852E+02  0.98701294309E+02  0.00000000000E+00 0. -1.
        -12    1    5    5    0    0 -0.44857067043E+02  0.47219805018E+02  0.11556559090E+03  0.13265471062E+03  0.00000000000E+00 0.  1.
          5    1    4    4  501    0 -0.20675880134E+01  0.58176050658E+02 -0.29310507561E+02  0.65309310545E+02  0.41800000000E+01 0. -1.
         -5    1    4    4    0  501  0.51356564318E+02 -0.48952013779E+02  0.65351183930E+01  0.71372099058E+02  0.41800000000E+01 0. -1.
</event>
<event>
11    1  0.7105277E-009  0.2097050E+03  0.7561462E-02  0.1047865E+00
         22   -1    0    0    0    0  0.00000000000E+00  0.00000000000E+00  0.27212546491E+03  0.27212546491E+03  0.00000000000E+00 0. -1.
         22   -1    0    0    0    0 -0.00000000000E+00 -0.00000000000E+00 -0.78507196367E+03  0.78507196367E+03  0.00000000000E+00 0.  1.
        -24    2    1    2    0    0  0.91743662961E+02  0.13452388302E+03 -0.54328512699E+03  0.57291351473E+03  0.80978956268E+02 0.  0.
         25    2    1    2    0    0 -0.18002122467E+03 -0.10868096252E+03 -0.13442008246E+03  0.27916936584E+03  0.12509030062E+03 0.  0.
         24    2    1    2    0    0  0.88277561711E+02 -0.25842920496E+02  0.16475871069E+03  0.20511454801E+03  0.80409953457E+02 0.  0.
        -13    1    5    5    0    0  0.16334437128E+02 -0.44838074134E+02  0.61675018862E+02  0.77981245694E+02  0.00000000000E+00 0.  1.
         14    1    5    5    0    0  0.71943124582E+02  0.18995153638E+02  0.10308369183E+03  0.12713330232E+03  0.00000000000E+00 0. -1.
         13    1    3    3    0    0  0.24594397012E+02  0.70635465790E+02 -0.13595153173E+03  0.15516788447E+03  0.00000000000E+00 0. -1.
        -14    1    3    3    0    0  0.67149265950E+02  0.63888417225E+02 -0.40733359526E+03  0.41774563026E+03  0.00000000000E+00 0.  1.
          5    1    4    4  501    0 -0.17429303043E+03 -0.13304035121E+03 -0.12049986019E+03  0.25023086183E+03  0.41800000000E+01 0. -1.
         -5    1    4    4    0  501 -0.57281942428E+01  0.24359388686E+02 -0.13920222265E+02  0.28938504010E+02  0.41800000000E+01 0. -1.
</event>
<event>
11    1  0.7105277E-009  0.2077688E+03  0.7561462E-02  0.1049162E+00
         22   -1    0    0    0    0  0.00000000000E+00  0.00000000000E+00  0.70577199280E+03  0.70577199280E+03  0.00000000000E+00 0. -1.
         22   -1    0    0    0    0 -0.00000000000E+00 -0.00000000000E+00 -0.22908592609E+04  0.22908592609E+04  0.00000000000E+00 0.  1.
         24    2    1    2    0    0  0.15554445581E+03 -0.57189099259E+02 -0.22015604416E+04  0.22093160583E+04  0.82124274396E+02 0.  0.
         25    2    1    2    0    0 -0.14473719409E+03  0.10466198807E+03  0.62949171058E+02  0.22696546463E+03  0.12509091454E+03 0.  0.
        -24    2    1    2    0    0 -0.10807261727E+02 -0.47472888806E+02  0.55352400249E+03  0.56034973076E+03  0.72336210563E+02 0.  0.
        -13    1    3    3    0    0  0.65941615599E+02 -0.32319284117E+02 -0.14753031438E+04  0.14771297163E+04  0.00000000000E+00 0.  1.
         14    1    3    3    0    0  0.89602840215E+02 -0.24869815142E+02 -0.72625729787E+03  0.73218634198E+03  0.00000000000E+00 0. -1.
         13    1    5    5    0    0  0.60518708774E+01 -0.17131499231E+02  0.46364806873E+03  0.46400392783E+03  0.00000000000E+00 0. -1.
        -14    1    5    5    0    0 -0.16859132604E+02 -0.30341389575E+02  0.89875933758E+02  0.96345802931E+02  0.00000000000E+00 0.  1.
          5    1    4    4  501    0 -0.37617730477E+02  0.28489844834E+02  0.81388143418E+02  0.94171477603E+02  0.41800000000E+01 0.  1.
         -5    1    4    4    0  501 -0.10711946361E+03  0.76172143231E+02 -0.18438972359E+02  0.13279398703E+03  0.41800000000E+01 0.  1.
</event>
<event>
11    1  0.7105277E-009  0.1743326E+03  0.7561462E-02  0.1074322E+00
         22   -1    0    0    0    0  0.00000000000E+00  0.00000000000E+00  0.22472311770E+03  0.22472311770E+03  0.00000000000E+00 0.  1.
         22   -1    0    0    0    0 -0.00000000000E+00 -0.00000000000E+00 -0.89072028200E+03  0.89072028200E+03  0.00000000000E+00 0.  1.
        -24    2    1    2    0    0  0.53712404954E+02  0.10606981825E+03 -0.71041172748E+03  0.72485565705E+03  0.81210050044E+02 0.  0.
         25    2    1    2    0    0 -0.60447848946E+02 -0.12690999381E+03 -0.10795287463E+03  0.21693623916E+03  0.12508964685E+03 0.  0.
         24    2    1    2    0    0  0.67354439921E+01  0.20840175560E+02  0.15236743780E+03  0.17365150349E+03  0.80369953578E+02 0.  0.
        -13    1    5    5    0    0  0.77113502570E+01  0.45336630774E+02  0.13748396972E+03  0.14497143492E+03  0.00000000000E+00 0.  1.
         14    1    5    5    0    0 -0.97590626488E+00 -0.24496455214E+02  0.14883468089E+02  0.28680068575E+02  0.00000000000E+00 0. -1.
         11    1    3    3    0    0 -0.69897984093E+01  0.21872673484E+01 -0.41488034020E+01  0.84174812102E+01  0.00000000000E+00 0. -1.
        -12    1    3    3    0    0  0.60702203363E+02  0.10388255090E+03 -0.70626292408E+03  0.71643817584E+03  0.00000000000E+00 0.  1.
          5    1    4    4  501    0  0.10209690896E+02  0.20887337093E+02 -0.20009762653E+02  0.30957739589E+02  0.41800000000E+01 0. -1.
         -5    1    4    4    0  501 -0.70657539842E+02 -0.14779733090E+03 -0.87943111973E+02  0.18597849957E+03  0.41800000000E+01 0. -1.
</event>
<event>
11    1  0.7105277E-009  0.1308494E+03  0.7561462E-02  0.1118230E+00
         22   -1    0    0    0    0  0.00000000000E+00  0.00000000000E+00  0.62875832613E+03  0.62875832613E+03  0.00000000000E+00 0.  1.
         22   -1    0    0    0    0 -0.00000000000E+00 -0.00000000000E+00 -0.55046224857E+03  0.55046224857E+03  0.00000000000E+00 0. -1.
        -24    2    1    2    0    0 -0.28688568518E+02  0.26549162572E+02 -0.51020404148E+03  0.51795046789E+03  0.80228618639E+02 0.  0.
         25    2    1    2    0    0 -0.14734335020E+02 -0.38671972388E+02  0.10086268568E+03  0.16592197787E+03  0.12507677363E+03 0.  0.
         24    2    1    2    0    0  0.43422903539E+02  0.12122809815E+02  0.48763743336E+03  0.49534812893E+03  0.74478126630E+02 0.  0.
        -13    1    5    5    0    0  0.22571113454E+01  0.36296350886E+02  0.14961685479E+03  0.15397312387E+03  0.00000000000E+00 0.  1.
         14    1    5    5    0    0  0.41165792193E+02 -0.24173541070E+02  0.33802057858E+03  0.34137500505E+03  0.00000000000E+00 0. -1.
         13    1    3    3    0    0 -0.30641332282E+02  0.14130859669E+02 -0.50156155527E+03  0.50269530152E+03  0.00000000000E+00 0. -1.
        -14    1    3    3    0    0  0.19527637637E+01  0.12418302904E+02 -0.86424862121E+01  0.15255166379E+02  0.00000000000E+00 0.  1.
          5    1    4    4  501    0  0.92314095624E+01 -0.48193972745E+02  0.12248188943E+03  0.13201198267E+03  0.41800000000E+01 0. -1.
         -5    1    4    4    0  501 -0.23965744582E+02  0.95220003570E+01 -0.21619203742E+02  0.33909995202E+02  0.41800000000E+01 0. -1.
</event>
<event>
11    1  0.7105277E-009  0.1390667E+03  0.7561462E-02  0.1108605E+00
         22   -1    0    0    0    0  0.00000000000E+00  0.00000000000E+00  0.52792479749E+03  0.52792479749E+03  0.00000000000E+00 0.  1.
         22   -1    0    0    0    0 -0.00000000000E+00 -0.00000000000E+00 -0.25040762483E+03  0.25040762483E+03  0.00000000000E+00 0. -1.
        -24    2    1    2    0    0  0.43360461678E+02  0.80522581044E+01 -0.18118795211E+03  0.20429717647E+03  0.83446352980E+02 0.  0.
         25    2    1    2    0    0  0.22341892811E+01 -0.52185064013E+02  0.38144934676E+02  0.14081498672E+03  0.12508218073E+03 0.  0.
         24    2    1    2    0    0 -0.45594650959E+02  0.44132805909E+02  0.42056019010E+03  0.43322025913E+03  0.82354979592E+02 0.  0.
        -11    1    5    5    0    0 -0.32047794165E+02  0.14966014113E+01  0.33624191047E+03  0.33776903837E+03  0.00000000000E+00 0.  1.
         12    1    5    5    0    0 -0.13546856795E+02  0.42636204497E+02  0.84318279635E+02  0.95451220755E+02  0.00000000000E+00 0. -1.
         13    1    3    3    0    0  0.30082687131E+02  0.22814874689E+02 -0.18052485936E+03  0.18443077676E+03  0.00000000000E+00 0. -1.
        -14    1    3    3    0    0  0.13277774547E+02 -0.14762616584E+02 -0.66309275710E+00  0.19866399707E+02  0.00000000000E+00 0.  1.
          5    1    4    4  501    0  0.24540634841E+02 -0.60627130511E+02 -0.27327702145E+02  0.71008220770E+02  0.41800000000E+01 0.  1.
         -5    1    4    4    0  501 -0.22306445560E+02  0.84420664975E+01  0.65472636821E+02  0.69806765951E+02  0.41800000000E+01 0.  1.
</event>
<event>
11    1  0.7105277E-009  0.1793562E+03  0.7561462E-02  0.1070165E+00
         22   -1    0    0    0    0  0.00000000000E+00  0.00000000000E+00  0.56488960392E+02  0.56488960392E+02  0.00000000000E+00 0.  1.
         22   -1    0    0    0    0 -0.00000000000E+00 -0.00000000000E+00 -0.20131472218E+04  0.20131472218E+04  0.00000000000E+00 0. -1.
        -24    2    1    2    0    0  0.72262437235E+02  0.10995669949E+03 -0.16747064410E+04  0.16817113310E+04  0.78733740807E+02 0.  0.
         25    2    1    2    0    0 -0.45203836441E+02 -0.97593507772E+02 -0.24274909730E+03  0.29350014223E+03  0.12508928676E+03 0.  0.
         24    2    1    2    0    0 -0.27058600795E+02 -0.12363191717E+02 -0.39202723111E+02  0.94424708886E+02  0.80586324910E+02 0.  0.
        -13    1    5    5    0    0 -0.31866396940E+02 -0.19116304334E+02  0.14645346148E+02  0.39942289733E+02  0.00000000000E+00 0.  1.
         14    1    5    5    0    0  0.48077961450E+01  0.67531126175E+01 -0.53848069259E+02  0.54482419153E+02  0.00000000000E+00 0. -1.
         11    1    3    3    0    0  0.32639527436E+02  0.97067002964E+02 -0.14132610134E+04  0.14169664900E+04  0.00000000000E+00 0. -1.
        -12    1    3    3    0    0  0.39622909799E+02  0.12889696524E+02 -0.26144542760E+03  0.26474484106E+03  0.00000000000E+00 0.  1.
          5    1    4    4  501    0  0.35395159881E+02 -0.23909334568E+02 -0.12815194843E+03  0.13514757826E+03  0.41800000000E+01 0. -1.
         -5    1    4    4    0  501 -0.80598996322E+02 -0.73684173204E+02 -0.11459714887E+03  0.15835256398E+03  0.41800000000E+01 0. -1.
</event>
<event>
11    1  0.7105277E-009  0.1653299E+03  0.7561462E-02  0.1082169E+00
         22   -1    0    0    0    0  0.00000000000E+00  0.00000000000E+00  0.13043101379E+03  0.13043101379E+03  0.00000000000E+00 0. -1.
         22   -1    0    0    0    0 -0.00000000000E+00 -0.00000000000E+00 -0.44960028613E+03  0.44960028613E+03  0.00000000000E+00 0. -1.
        -24    2    1    2    0    0 -0.11567475901E+03  0.13191077082E+02 -0.21773932548E+03  0.25963101994E+03  0.80269535118E+02 0.  0.
         25    2    1    2    0    0  0.86633690675E+02 -0.48691728388E+02 -0.14708730126E+03  0.21716150780E+03  0.12509262769E+03 0.  0.
         24    2    1    2    0    0  0.29041068331E+02  0.35500651306E+02  0.45657354402E+02  0.10323877218E+03  0.80436124827E+02 0.  0.
        -11    1    5    5    0    0  0.22859774694E+01  0.31811842851E+02 -0.16178066747E+02  0.35762394805E+02  0.00000000000E+00 0.  1.
         12    1    5    5    0    0  0.26755090862E+02  0.36888084551E+01  0.61835421149E+02  0.67476377374E+02  0.00000000000E+00 0. -1.
         11    1    3    3    0    0 -0.86084979766E+02  0.37804128160E+02 -0.19062639487E+03  0.21255163671E+03  0.00000000000E+00 0. -1.
        -12    1    3    3    0    0 -0.29589779240E+02 -0.24613051077E+02 -0.27112930610E+02  0.47079383228E+02  0.00000000000E+00 0.  1.
          5    1    4    4  501    0  0.16743308789E+02  0.92903103384E+01  0.19333739598E+02  0.27530240504E+02  0.41800000000E+01 0.  1.
         -5    1    4    4    0  501  0.69890381886E+02 -0.57982038727E+02 -0.16642104086E+03  0.18963126729E+03  0.41800000000E+01 0.  1.
</event>
<event>
11    1  0.7105277E-009  0.1608076E+03  0.7561462E-02  0.1086320E+00
         22   -1    0    0    0    0  0.00000000000E+00  0.00000000000E+00  0.58334760820E+03  0.58334760820E+03  0.00000000000E+00 0. -1.
         22   -1    0    0    0    0 -0.00000000000E+00 -0.00000000000E+00 -0.22795617964E+03  0.22795617964E+03  0.00000000000E+00 0. -1.
         24    2    1    2    0    0 -0.39576910762E+02 -0.99976959635E+02 -0.17108199645E+03  0.21759942190E+03  0.80738680809E+02 0.  0.
         25    2    1    2    0    0  0.33225684616E+02  0.44420746916E+02  0.14282855480E+03  0.19779919290E+03  0.12508947107E+03 0.  0.
        -24    2    1    2    0    0  0.63512261458E+01  0.55556212719E+02  0.38364487021E+03  0.39590517304E+03  0.80191575323E+02 0.  0.
        -11    1    3    3    0    0 -0.17518384489E+02 -0.74381620235E+02 -0.48646414354E+02  0.90586935335E+02  0.00000000000E+00 0.  1.
         12    1    3    3    0    0 -0.22058526272E+02 -0.25595339400E+02 -0.12243558210E+03  0.12701248657E+03  0.00000000000E+00 0. -1.
         11    1    5    5    0    0 -0.29779196806E+02  0.48427404686E+02  0.28489215040E+03  0.29050912455E+03  0.00000000000E+00 0. -1.
        -12    1    5    5    0    0  0.36130422952E+02  0.71288080328E+01  0.98752719812E+02  0.10539604849E+03  0.00000000000E+00 0.  1.
          5    1    4    4  501    0  0.41049733692E+02  0.51495658523E+02  0.12726833093E+02  0.67203632071E+02  0.41800000000E+01 0.  1.
         -5    1    4    4    0  501 -0.78240490766E+01 -0.70749116074E+01  0.13010172170E+03  0.13059556083E+03  0.41800000000E+01 0.  1.
</event>
<event>
11    1  0.7105277E-009  0.1640354E+03  0.7561462E-02  0.1083342E+00
         22   -1    0    0    0    0  0.00000000000E+00  0.00000000000E+00  0.39072846411E+03  0.39072846411E+03  0.00000000000E+00 0. -1.
         22   -1    0    0    0    0 -0.00000000000E+00 -0.00000000000E+00 -0.11928264684E+04  0.11928264684E+04  0.00000000000E+00 0.  1.
         24    2    1    2    0    0  0.36582687679E+02  0.45341142887E+02 -0.95110413443E+03  0.95628993889E+03  0.80605585485E+02 0.  0.
         25    2    1    2    0    0  0.67587140642E+02 -0.14607997622E+02 -0.20406867361E+03  0.24914444400E+03  0.12509002859E+03 0.  0.
        -24    2    1    2    0    0 -0.10416982832E+03 -0.30733145265E+02  0.35307480374E+03  0.37812054962E+03  0.80730747926E+02 0.  0.
        -11    1    3    3    0    0  0.55462401956E+02  0.52205178886E+02 -0.83442227495E+03  0.83789139610E+03  0.00000000000E+00 0.  1.
         12    1    3    3    0    0 -0.18879714277E+02 -0.68640359993E+01 -0.11668185948E+03  0.11839854279E+03  0.00000000000E+00 0. -1.
         11    1    5    5    0    0 -0.74228527123E+02 -0.32319004325E+02  0.13076683495E+03  0.15379973148E+03  0.00000000000E+00 0. -1.
        -12    1    5    5    0    0 -0.29941301198E+02  0.15858590600E+01  0.22230796879E+03  0.22432081815E+03  0.00000000000E+00 0.  1.
          5    1    4    4  501    0  0.31075285419E+02 -0.60674492941E+02 -0.16463163857E+03  0.17823612506E+03  0.41800000000E+01 0.  1.
         -5    1    4    4    0  501  0.36511855223E+02  0.46066495319E+02 -0.39437035039E+02  0.70908318944E+02  0.41800000000E+01 0.  1.
</event>
<event>
11    1  0.7105277E-009  0.1423330E+03  0.7561462E-02  0.1104981E+00
         22   -1    0    0    0    0  0.00000000000E+00  0.00000000000E+00  0.20253919628E+03  0.20253919628E+03  0.00000000000E+00 0. -1.
         22   -1    0    0    0    0 -0.00000000000E+00 -0.00000000000E+00 -0.23467516210E+04  0.23467516210E+04  0.00000000000E+00 0. -1.
        -24    2    1    2    0    0  0.58295813410E+00 -0.73073165241E+02 -0.19048131336E+04  0.19078919031E+04  0.79990079843E+02 0.  0.
         25    2    1    2    0    0 -0.44374084815E+02  0.29406529445E+02 -0.41612420278E+03  0.43776805739E+03  0.12509083324E+03 0.  0.
         24    2    1    2    0    0  0.43791126681E+02  0.43666635796E+02  0.17672491165E+03  0.20363085674E+03  0.80058688234E+02 0.  0.
        -11    1    5    5    0    0  0.56726510682E+01  0.36709185972E+02  0.20000028861E+02  0.42187017663E+02  0.00000000000E+00 0.  1.
         12    1    5    5    0    0  0.38118475613E+02  0.69574498244E+01  0.15672488279E+03  0.16144383908E+03  0.00000000000E+00 0. -1.
         13    1    3    3    0    0  0.20186898532E+02  0.10316108413E+02 -0.38748162802E+03  0.38814423223E+03  0.00000000000E+00 0. -1.
        -14    1    3    3    0    0 -0.19603940398E+02 -0.83389273654E+02 -0.15173315056E+04  0.15197476709E+04  0.00000000000E+00 0.  1.
          5    1    4    4  501    0 -0.28423372356E+02  0.57329748253E+01 -0.40620535407E+03  0.40726038007E+03  0.41800000000E+01 0. -1.
         -5    1    4    4    0  501 -0.15950712459E+02  0.23673554619E+02 -0.99188487083E+01  0.30507677328E+02  0.41800000000E+01 0. -1.
</event>
<event>
11    1  0.7105277E-009  0.1465875E+03  0.7561462E-02  0.1100418E+00
         22   -1    0    0    0    0  0.00000000000E+00  0.00000000000E+00  0.85456026218E+03  0.85456026218E+03  0.00000000000E+00 0.  1.
         22   -1    0    0    0    0 -0.00000000000E+00 -0.00000000000E+00 -0.95472505757E+02  0.95472505757E+02  0.00000000000E+00 0.  1.
         24    2    1    2    0    0  0.76565465390E+01  0.21146717628E+01 -0.43788024144E+02  0.89122773628E+02  0.77216469610E+02 0.  0.
         25    2    1    2    0    0  0.57193157648E+01 -0.77209929803E+02  0.20200268525E+03  0.24989440860E+03  0.12509215309E+03 0.  0.
        -24    2    1    2    0    0 -0.13375862304E+02  0.75095258040E+02  0.60087309532E+03  0.61101558572E+03  0.80457180182E+02 0.  0.
        -13    1    3    3    0    0 -0.21494594938E+02 -0.24423159057E+02 -0.34442647886E+01  0.32716529000E+02  0.00000000000E+00 0.  1.
         14    1    3    3    0    0  0.29151141477E+02  0.26537830820E+02 -0.40343759356E+02  0.56406244628E+02  0.00000000000E+00 0. -1.
         13    1    5    5    0    0 -0.13731945610E+02  0.84598592246E+01  0.17307109932E+02  0.23657379452E+02  0.00000000000E+00 0. -1.
        -14    1    5    5    0    0  0.35608330603E+00  0.66635398816E+02  0.58356598538E+03  0.58735820627E+03  0.00000000000E+00 0.  1.
          5    1    4    4  501    0  0.55099411807E+02 -0.19182793075E+02  0.40125148260E+02  0.70932535937E+02  0.41800000000E+01 0.  1.
         -5    1    4    4    0  501 -0.49380096042E+02 -0.58027136728E+02  0.16187753700E+03  0.17896187266E+03  0.41800000000E+01 0.  1.
</event>
<event>
11    1  0.7105277E-009  0.1540041E+03  0.7561462E-02  0.1092856E+00
         22   -1    0    0    0    0  0.00000000000E+00  0.00000000000E+00  0.11951997557E+04  0.11951997557E+04  0.00000000000E+00 0.  1.
         22   -1    0    0    0    0 -0.00000000000E+00 -0.00000000000E+00 -0.12073676634E+04  0.12073676634E+04  0.00000000000E+00 0.  1.
        -24    2    1    2    0    0  0.72738226683E+02  0.53174304173E+02 -0.11813387121E+04  0.11876142260E+04  0.82146460658E+02 0.  0.
         25    2    1    2    0    0 -0.67400827939E+02 -0.23853382042E+02  0.22662971740E+03  0.26855240825E+03  0.12509001451E+03 0.  0.
         24    2    1    2    0    0 -0.53373987442E+01 -0.29320922131E+02  0.94254108690E+03  0.94640078480E+03  0.80015877590E+02 0.  0.
        -11    1    5    5    0    0  0.54973067678E+01 -0.50342094544E+02  0.82219358559E+03  0.82375168531E+03  0.00000000000E+00 0.  1.
         12    1    5    5    0    0 -0.10834705512E+02  0.21021172413E+02  0.12034750131E+03  0.12264909949E+03  0.00000000000E+00 0. -1.
         13    1    3    3    0    0  0.15036350538E+01 -0.52850493024E+01 -0.43093922884E+01  0.69830886003E+01  0.00000000000E+00 0. -1.
        -14    1    3    3    0    0  0.71234591629E+02  0.58459353475E+02 -0.11770293198E+04  0.11806311374E+04  0.00000000000E+00 0.  1.
          5    1    4    4  501    0 -0.91150934778E+02 -0.27466364932E+02  0.94543511289E+02  0.13423428042E+03  0.41800000000E+01 0. -1.
         -5    1    4    4    0  501  0.23750106839E+02  0.36129828903E+01  0.13208620611E+03  0.13431812783E+03  0.41800000000E+01 0. -1.
</event>
<event>
11    1  0.7105277E-009  0.1754771E+03  0.7561462E-02  0.1073361E+00
         22   -1    0    0    0    0  0.00000000000E+00  0.00000000000E+00  0.74521718947E+03  0.74521718947E+03  0.00000000000E+00 0.  1.
         22   -1    0    0    0    0 -0.00000000000E+00 -0.00000000000E+00 -0.70831946675E+03  0.70831946675E+03  0.00000000000E+00 0. -1.
        -24    2    1    2    0    0  0.94836670965E+02 -0.76786443873E+02 -0.61823442149E+03  0.63536359481E+03  0.81135353431E+02 0.  0.
         25    2    1    2    0    0 -0.42259615374E+02  0.16759818950E+03  0.79178694550E+02  0.22760806159E+03  0.12514445978E+03 0.  0.
         24    2    1    2    0    0 -0.52577055591E+02 -0.90811745626E+02  0.57595344966E+03  0.59056499982E+03  0.77675755022E+02 0.  0.
        -13    1    5    5    0    0 -0.28655611708E+02 -0.18849650938E+02  0.36102196937E+03  0.36264764689E+03  0.00000000000E+00 0.  1.
         14    1    5    5    0    0 -0.23921443882E+02 -0.71962094688E+02  0.21493148029E+03  0.22791735293E+03  0.00000000000E+00 0. -1.
         11    1    3    3    0    0 -0.27075641674E+01 -0.41098804741E+02 -0.21896118953E+03  0.22280135811E+03  0.00000000000E+00 0. -1.
        -12    1    3    3    0    0  0.97544235132E+02 -0.35687639132E+02 -0.39927323195E+03  0.41256223670E+03  0.00000000000E+00 0.  1.
          5    1    4    4  501    0 -0.86729467374E+02  0.11985803022E+03  0.53894054022E+02  0.15751187060E+03  0.41800000000E+01 0.  1.
         -5    1    4    4    0  501  0.44469852000E+02  0.47740159278E+02  0.25284640528E+02  0.70096190990E+02  0.41800000000E+01 0.  1.
</event>
<event>
11    1  0.7105277E-009  0.1319194E+03  0.7561462E-02  0.1116933E+00
         22   -1    0    0    0    0  0.00000000000E+00  0.00000000000E+00  0.61750846963E+03  0.61750846963E+03  0.00000000000E+00 0.  1.
         22   -1    0    0    0    0 -0.00000000000E+00 -0.00000000000E+00 -0.23231315273E+03  0.23231315273E+03  0.00000000000E+00 0.  1.
         24    2    1    2    0    0  0.12650459139E+02 -0.37991286189E+02 -0.16972082131E+03  0.19237166908E+03  0.81230104857E+02 0.  0.
         25    2    1    2    0    0 -0.38010729831E+02  0.48457905308E+02  0.54381637931E+02  0.14966169220E+03  0.12509306696E+03 0.  0.
        -24    2    1    2    0    0  0.25360270692E+02 -0.10466619120E+02  0.50053450029E+03  0.50778826108E+03  0.81002707759E+02 0.  0.
        -13    1    3    3    0    0  0.17332747922E+02 -0.61319978991E+02 -0.14322086381E+03  0.15675707258E+03  0.00000000000E+00 0.  1.
         14    1    3    3    0    0 -0.46822887824E+01  0.23328692802E+02 -0.26499957502E+02  0.35614596498E+02  0.00000000000E+00 0. -1.
         11    1    5    5    0    0  0.44005499152E+02 -0.78305153470E+01  0.14447199602E+03  0.15122816722E+03  0.00000000000E+00 0. -1.
        -12    1    5    5    0    0 -0.18645228460E+02 -0.26361037726E+01  0.35606250427E+03  0.35656009386E+03  0.00000000000E+00 0.  1.
          5    1    4    4  501    0 -0.59810594836E+02  0.43913504696E+02  0.84138551600E+02  0.11226072962E+03  0.41800000000E+01 0. -1.
         -5    1    4    4    0  501  0.21799865005E+02  0.45444006118E+01 -0.29756913669E+02  0.37400962585E+02  0.41800000000E+01 0. -1.
</event>
<event>
11    1  0.7105277E-009  0.1597572E+03  0.7561462E-02  0.1087306E+00
         22   -1    0    0    0    0  0.00000000000E+00  0.00000000000E+00  0.21459585752E+04  0.21459585752E+04  0.00000000000E+00 0. -1.
         22   -1    0    0    0    0 -0.00000000000E+00 -0.00000000000E+00 -0.73539496201E+02  0.73539496201E+02  0.00000000000E+00 0. -1.
        -24    2    1    2    0    0 -0.31171974351E+02  0.21373551250E+02  0.30268329579E+02  0.92452866931E+02  0.78758111648E+02 0.  0.
         25    2    1    2    0    0  0.21254814910E+02 -0.11933367181E+03  0.14761153486E+03  0.22831947895E+03  0.12509327265E+03 0.  0.
         24    2    1    2    0    0  0.99171594408E+01  0.97960120561E+02  0.18945392146E+04  0.18987257255E+04  0.78651191681E+02 0.  0.
        -13    1    5    5    0    0 -0.30034520111E+01  0.13118943110E+02  0.40029191842E+02  0.42231073770E+02  0.00000000000E+00 0.  1.
         14    1    5    5    0    0  0.12920611452E+02  0.84841177451E+02  0.18545100227E+04  0.18564946518E+04  0.00000000000E+00 0. -1.
         13    1    3    3    0    0 -0.46855992618E+02  0.67224999510E+01 -0.85448277792E+01  0.48100832962E+02  0.00000000000E+00 0. -1.
        -14    1    3    3    0    0  0.15684018267E+02  0.14651051300E+02  0.38813157358E+02  0.44352033970E+02  0.00000000000E+00 0.  1.
          5    1    4    4  501    0 -0.33392016763E+02 -0.24209999441E+01  0.21375162585E+01  0.33807238869E+02  0.41800000000E+01 0.  1.
         -5    1    4    4    0  501  0.54646831673E+02 -0.11691267187E+03  0.14547401860E+03  0.19451224008E+03  0.41800000000E+01 0.  1.
</event>
<event>
11    1  0.7105277E-009  0.1498267E+03  0.7561462E-02  0.1097056E+00
         22   -1    0    0    0    0  0.00000000000E+00  0.00000000000E+00  0.62150199628E+03  0.62150199628E+03  0.00000000000E+00 0.  1.
         22   -1    0    0    0    0 -0.00000000000E+00 -0.00000000000E+00 -0.40512670491E+03  0.40512670491E+03  0.00000000000E+00 0.  1.
        -24    2    1    2    0    0 -0.57598549469E+02 -0.40985571376E+02 -0.19035485939E+03  0.21853086087E+03  0.80767287293E+02 0.  0.
         25    2    1    2    0    0  0.12018039779E+03  0.22218372764E+02 -0.15692600420E+03  0.23496522318E+03  0.12508357690E+03 0.  0.
         24    2    1    2    0    0 -0.62581848316E+02  0.18767198612E+02  0.56365615497E+03  0.57313261713E+03  0.80647630500E+02 0.  0.
        -13    1    5    5    0    0 -0.82635359825E+01  0.19966251069E+02  0.40219923489E+03  0.40277929658E+03  0.00000000000E+00 0.  1.
         14    1    5    5    0    0 -0.54318312334E+02 -0.11990524572E+01  0.16145692008E+03  0.17035332055E+03  0.00000000000E+00 0. -1.
         13    1    3    3    0    0  0.20182084686E+02 -0.13377733874E+02 -0.53321414432E+02  0.58561536378E+02  0.00000000000E+00 0. -1.
        -14    1    3    3    0    0 -0.77780634155E+02 -0.27607837501E+02 -0.13703344496E+03  0.15996932449E+03  0.00000000000E+00 0.  1.
          5    1    4    4  501    0  0.37508100850E+02  0.36127436905E+02 -0.13987364350E+03  0.14931228306E+03  0.41800000000E+01 0.  1.
         -5    1    4    4    0  501  0.82672296935E+02 -0.13909064141E+02 -0.17052360698E+02  0.85652940120E+02  0.41800000000E+01 0.  1.
</event>
<event>
11    1  0.7105277E-009  0.1332165E+03  0.7561462E-02  0.1115379E+00
         22   -1    0    0    0    0  0.00000000000E+00  0.00000000000E+00  0.19682337506E+03  0.19682337506E+03  0.00000000000E+00 0.  1.
         22   -1    0    0    0    0 -0.00000000000E+00 -0.00000000000E+00 -0.57195005731E+03  0.57195005731E+03  0.00000000000E+00 0. -1.
         24    2    1    2    0    0  0.22173194499E+01 -0.34173788995E+00 -0.48374246936E+03  0.49024251624E+03  0.79535619527E+02 0.  0.
         25    2    1    2    0    0 -0.36688632678E+02 -0.29453515737E+02 -0.60688642309E+01  0.13378117233E+03  0.12508799143E+03 0.  0.
        -24    2    1    2    0    0  0.34471313228E+02  0.29795253627E+02  0.11468465134E+03  0.14474974380E+03  0.75656397639E+02 0.  0.
        -13    1    3    3    0    0  0.13706626167E+02 -0.32674705574E+02 -0.12689829739E+03  0.13175236569E+03  0.00000000000E+00 0.  1.
         14    1    3    3    0    0 -0.11489306717E+02  0.32332967684E+02 -0.35684417197E+03  0.35849015054E+03  0.00000000000E+00 0. -1.
         11    1    5    5    0    0  0.31956886048E+00 -0.20935751337E+02  0.93101615477E+01  0.22914775067E+02  0.00000000000E+00 0. -1.
        -12    1    5    5    0    0  0.34151744368E+02  0.50731004964E+02  0.10537448979E+03  0.12183496873E+03  0.00000000000E+00 0.  1.
          5    1    4    4  501    0 -0.48590206828E+02  0.19230018718E+02  0.39716687219E+02  0.65769973872E+02  0.41800000000E+01 0.  1.
         -5    1    4    4    0  501  0.11901574150E+02 -0.48683534455E+02 -0.45785551450E+02  0.68011198459E+02  0.41800000000E+01 0.  1.
</event>
<event>
11    1  0.7105277E-009  0.1634607E+03  0.7561462E-02  0.1083867E+00
         22   -1    0    0    0    0  0.00000000000E+00  0.00000000000E+00  0.95402196641E+02  0.95402196641E+02  0.00000000000E+00 0.  1.
         22   -1    0    0    0    0 -0.00000000000E+00 -0.00000000000E+00 -0.12288974001E+04  0.12288974001E+04  0.00000000000E+00 0.  1.
         24    2    1    2    0    0 -0.16595220819E+02 -0.11594599536E+03 -0.77404988737E+03  0.78693065534E+03  0.79923419532E+02 0.  0.
         25    2    1    2    0    0  0.89007710341E+02  0.53592716120E+02 -0.37858366239E+03  0.41202771833E+03  0.12508676798E+03 0.  0.
        -24    2    1    2    0    0 -0.72412489522E+02  0.62353279236E+02  0.19138346322E+02  0.12534122304E+03  0.78820338898E+02 0.  0.
        -13    1    3    3    0    0 -0.30762514591E+02 -0.10009666957E+03 -0.73541833010E+03  0.74283631832E+03  0.00000000000E+00 0.  1.
         14    1    3    3    0    0  0.14167293772E+02 -0.15849325788E+02 -0.38631557264E+02  0.44094337022E+02  0.00000000000E+00 0. -1.
         13    1    5    5    0    0 -0.17258195251E+02 -0.16732193042E+02  0.15992259830E+02  0.28871507785E+02  0.00000000000E+00 0. -1.
        -14    1    5    5    0    0 -0.55154294271E+02  0.79085472278E+02  0.31460864923E+01  0.96469715259E+02  0.00000000000E+00 0.  1.
          5    1    4    4  501    0 -0.12724919930E+02 -0.20615930885E+02 -0.14077180994E+03  0.14290246697E+03  0.41800000000E+01 0.  1.
         -5    1    4    4    0  501  0.10173263027E+03  0.74208647004E+02 -0.23781185245E+03  0.26912525136E+03  0.41800000000E+01 0.  1.
</event>
<event>
11    1  0.7105277E-009  0.1513156E+03  0.7561462E-02  0.1095542E+00
         22   -1    0    0    0    0  0.00000000000E+00  0.00000000000E+00  0.59818263047E+03  0.59818263047E+03  0.00000000000E+00 0.  1.
         22   -1    0    0    0    0 -0.00000000000E+00 -0.00000000000E+00 -0.38214682104E+03  0.38214682104E+03  0.00000000000E+00 0.  1.
         24    2    1    2    0    0  0.78516767653E+02 -0.32832666459E+02 -0.33629633003E+03  0.35615908144E+03  0.80692025103E+02 0.  0.
         25    2    1    2    0    0 -0.70817534224E+02  0.52762730324E+02  0.15442770386E+03  0.21747243219E+03  0.12508922488E+03 0.  0.
        -24    2    1    2    0    0 -0.76992334296E+01 -0.19930063865E+02  0.39790443559E+03  0.40669793788E+03  0.81355928898E+02 0.  0.
        -13    1    3    3    0    0  0.62801818434E+02  0.67688362519E+01 -0.27046838766E+03  0.27774634879E+03  0.00000000000E+00 0.  1.
         14    1    3    3    0    0  0.15714949219E+02 -0.39601502711E+02 -0.65827942371E+02  0.78412732657E+02  0.00000000000E+00 0. -1.
         13    1    5    5    0    0  0.14868040390E+01  0.35761973376E+01 -0.30625436978E+01  0.49375041822E+01  0.00000000000E+00 0. -1.
        -14    1    5    5    0    0 -0.91860374685E+01 -0.23506261203E+02  0.40096697929E+03  0.40176043370E+03  0.00000000000E+00 0.  1.
          5    1    4    4  501    0 -0.42046570378E+02  0.92332032751E+02  0.12153856310E+03  0.15837365019E+03  0.41800000000E+01 0.  1.
         -5    1    4    4    0  501 -0.28770963846E+02 -0.39569302426E+02  0.32889140758E+02  0.59098782009E+02  0.41800000000E+01 0.  1.
</event>
<event>
11    1  0.7105277E-009  0.1328679E+03  0.7561462E-02  0.1115795E+00
         22   -1    0    0    0    0  0.00000000000E+00  0.00000000000E+00  0.15870743128E+03  0.15870743128E+03  0.00000000000E+00 0. -1.
         22   -1    0    0    0    0 -0.00000000000E+00 -0.00000000000E+00 -0.48932974504E+03  0.48932974504E+03  0.00000000000E+00 0.  1.
        -24    2    1    2    0    0 -0.46067185299E+02  0.17079789963E+01 -0.34534027796E+03  0.35740047957E+03  0.79687467421E+02 0.  0.
         25    2    1    2    0    0  0.36368094059E+02  0.31520589391E+02 -0.84561378123E+02  0.15847174393E+03  0.12508589503E+03 0.  0.
         24    2    1    2    0    0  0.96990912404E+01 -0.33228568387E+02  0.99279342320E+02  0.13216495281E+03  0.80081064006E+02 0.  0.
        -13    1    5    5    0    0 -0.26649939053E+02  0.11079929185E+02  0.43405675822E+02  0.52125202885E+02  0.00000000000E+00 0.  1.
         14    1    5    5    0    0  0.36349030293E+02 -0.44308497572E+02  0.55873666498E+02  0.80039749927E+02  0.00000000000E+00 0. -1.
         13    1    3    3    0    0  0.18032410203E+01 -0.27392313776E+02 -0.52438797604E+02  0.59189678377E+02  0.00000000000E+00 0. -1.
        -14    1    3    3    0    0 -0.47870426319E+02  0.29100292773E+02 -0.29290148035E+03  0.29821080119E+03  0.00000000000E+00 0.  1.
          5    1    4    4  501    0  0.77091699430E+02  0.33192928683E+02 -0.82007326706E+02  0.11742050361E+03  0.41800000000E+01 0.  1.
         -5    1    4    4    0  501 -0.40723605371E+02 -0.16723392928E+01 -0.25540514168E+01  0.41051240320E+02  0.41800000000E+01 0.  1.
</event>
<event>
11    1  0.7105277E-009  0.1940243E+03  0.7561462E-02  0.1058832E+00
         22   -1    0    0    0    0  0.00000000000E+00  0.00000000000E+00  0.13034401079E+04  0.13034401079E+04  0.00000000000E+00 0. -1.
         22   -1    0    0    0    0 -0.00000000000E+00 -0.00000000000E+00 -0.14228070280E+03  0.14228070280E+03  0.00000000000E+00 0.  1.
        -24    2    1    2    0    0  0.94967407508E+02  0.86711473084E+02  0.29288626207E+01  0.15181470407E+03  0.80631495604E+02 0.  0.
         25    2    1    2    0    0 -0.13938011988E+03 -0.15311845809E+03  0.16487819090E+03  0.29277213912E+03  0.12513443803E+03 0.  0.
         24    2    1    2    0    0  0.44412712371E+02  0.66406985004E+02  0.99335235159E+03  0.10011339675E+04  0.95592624490E+02 0.  0.
        -13    1    5    5    0    0  0.30908318606E+02  0.52684591678E+02  0.24383038071E+03  0.25136476467E+03  0.00000000000E+00 0.  1.
         14    1    5    5    0    0  0.13504393765E+02  0.13722393326E+02  0.74952197088E+03  0.74976920287E+03  0.00000000000E+00 0. -1.
         11    1    3    3    0    0  0.93231060853E+01  0.45108568895E+01  0.28551255103E+02  0.30371735296E+02  0.00000000000E+00 0. -1.
        -12    1    3    3    0    0  0.85644301422E+02  0.82200616194E+02 -0.25622392482E+02  0.12144296878E+03  0.00000000000E+00 0.  1.
          5    1    4    4  501    0 -0.13160951734E+03 -0.15783911180E+03  0.18094211812E+03  0.27384625755E+03  0.41800000000E+01 0. -1.
         -5    1    4    4    0  501 -0.77706025414E+01  0.47206537138E+01 -0.16063927214E+02  0.18925881561E+02  0.41800000000E+01 0. -1.
</event>
<event>
11    1  0.7105277E-009  0.1435342E+03  0.7561462E-02  0.1103675E+00
         22   -1    0    0    0    0  0.00000000000E+00  0.00000000000E+00  0.13842653052E+04  0.13842653052E+04  0.00000000000E+00 0. -1.
         22   -1    0    0    0    0 -0.00000000000E+00 -0.00000000000E+00 -0.16360474758E+04  0.16360474758E+04  0.00000000000E+00 0.  1.
        -24    2    1    2    0    0 -0.55969617010E+02  0.52983696293E+02 -0.12615908541E+04  0.12664343965E+04  0.79402312302E+02 0.  0.
         25    2    1    2    0    0  0.19664467656E+02 -0.34688059353E+02 -0.35889548326E+03  0.38215643317E+03  0.12509044233E+03 0.  0.
         24    2    1    2    0    0  0.36305149353E+02 -0.18295636940E+02  0.13687041668E+04  0.13717219513E+04  0.81346304766E+02 0.  0.
        -11    1    5    5    0    0  0.99213795296E+01  0.16405106955E+02  0.79427829153E+02  0.81708881707E+02  0.00000000000E+00 0.  1.
         12    1    5    5    0    0  0.26383769824E+02 -0.34700743895E+02  0.12892763377E+04  0.12900130696E+04  0.00000000000E+00 0. -1.
         13    1    3    3    0    0 -0.39044283047E+02  0.75242759146E+01 -0.21036427199E+03  0.21408922835E+03  0.00000000000E+00 0. -1.
        -14    1    3    3    0    0 -0.16925333963E+02  0.45459420378E+02 -0.10512265821E+04  0.10523451681E+04  0.00000000000E+00 0.  1.
          5    1    4    4  501    0  0.18702363247E+02 -0.24928810478E+00  0.22951331331E+01  0.19302346274E+02  0.41800000000E+01 0.  1.
         -5    1    4    4    0  501  0.96210440893E+00 -0.34438771248E+02 -0.36119061639E+03  0.36285408690E+03  0.41800000000E+01 0.  1.
</event>
<event>
11    1  0.7105277E-009  0.1387345E+03  0.7561462E-02  0.1108980E+00
         22   -1    0    0    0    0  0.00000000000E+00  0.00000000000E+00  0.43719115414E+03  0.43719115414E+03  0.00000000000E+00 0. -1.
         22   -1    0    0    0    0 -0.00000000000E+00 -0.00000000000E+00 -0.49806895860E+03  0.49806895860E+03  0.00000000000E+00 0.  1.
         24    2    1    2    0    0  0.56244479765E+02 -0.15808706532E+02 -0.43150821501E+03  0.44268742903E+03  0.79746244368E+02 0.  0.
         25    2    1    2    0    0 -0.87633479898E+02  0.21604648072E+02  0.51984889572E+02  0.16277733729E+03  0.12509054790E+03 0.  0.
        -24    2    1    2    0    0  0.31389000133E+02 -0.57959415403E+01  0.31864552098E+03  0.32979534642E+03  0.78810787419E+02 0.  0.
        -11    1    3    3    0    0  0.72604198942E+02  0.30692628948E+01 -0.34878125203E+03  0.35627117740E+03  0.00000000000E+00 0.  1.
         12    1    3    3    0    0 -0.16359719177E+02 -0.18877969427E+02 -0.82726962979E+02  0.86416251625E+02  0.00000000000E+00 0. -1.
         11    1    5    5    0    0 -0.93777075172E+01  0.22028405119E+02  0.19802748031E+03  0.19946948385E+03  0.00000000000E+00 0. -1.
        -12    1    5    5    0    0  0.40766707651E+02 -0.27824346659E+02  0.12061804067E+03  0.13032586257E+03  0.00000000000E+00 0.  1.
          5    1    4    4  501    0 -0.66038425184E+02 -0.23256394602E+02  0.79273542487E+02  0.10584753388E+03  0.41800000000E+01 0.  1.
         -5    1    4    4    0  501 -0.21595054714E+02  0.44861042674E+02 -0.27288652915E+02  0.56929803406E+02  0.41800000000E+01 0.  1.
</event>
<event>
11    1  0.7105277E-009  0.1785836E+03  0.7561462E-02  0.1070794E+00
         22   -1    0    0    0    0  0.00000000000E+00  0.00000000000E+00  0.10638859396E+04  0.10638859396E+04  0.00000000000E+00 0.  1.
         22   -1    0    0    0    0 -0.00000000000E+00 -0.00000000000E+00 -0.28788947374E+04  0.28788947374E+04  0.00000000000E+00 0. -1.
         24    2    1    2    0    0 -0.19008292736E+01 -0.12661924619E+03 -0.27884940177E+04  0.27925409535E+04  0.80932336684E+02 0.  0.
         25    2    1    2    0    0  0.11958401272E+02  0.18767125817E+03  0.63468500384E+02  0.23460498975E+03  0.12509095159E+03 0.  0.
        -24    2    1    2    0    0 -0.10057571998E+02 -0.61052011981E+02  0.91001671953E+03  0.91563473380E+03  0.80175014856E+02 0.  0.
        -13    1    3    3    0    0  0.32562091889E+02 -0.22443581789E+02 -0.60456650999E+03  0.60585862146E+03  0.00000000000E+00 0.  1.
         14    1    3    3    0    0 -0.34462921162E+02 -0.10417566441E+03 -0.21839275078E+04  0.21866823320E+04  0.00000000000E+00 0. -1.
         11    1    5    5    0    0 -0.24078847448E+02 -0.36802095325E+01  0.82701860441E+02  0.86214456775E+02  0.00000000000E+00 0. -1.
        -12    1    5    5    0    0  0.14021275449E+02 -0.57371802448E+02  0.82731485909E+03  0.82942027703E+03  0.00000000000E+00 0.  1.
          5    1    4    4  501    0 -0.32130465677E+02  0.17742127333E+03  0.48831302718E+02  0.18684925362E+03  0.41800000000E+01 0.  1.
         -5    1    4    4    0  501  0.44088866949E+02  0.10249984849E+02  0.14637197665E+02  0.47755736135E+02  0.41800000000E+01 0.  1.
</event>
<event>
11    1  0.7105277E-009  0.3098850E+03  0.7561462E-02  0.9960923E-01
         22   -1    0    0    0    0  0.00000000000E+00  0.00000000000E+00  0.27868919013E+04  0.27868919013E+04  0.00000000000E+00 0.  1.
         22   -1    0    0    0    0 -0.00000000000E+00 -0.00000000000E+00 -0.64953772017E+03  0.64953772017E+03  0.00000000000E+00 0. -1.
        -24    2    1    2    0    0 -0.92047462622E+02 -0.15204700300E+02 -0.52624254885E+03  0.54035914455E+03  0.79704871825E+02 0.  0.
         25    2    1    2    0    0  0.58458400918E+02  0.29633012523E+03  0.14045303611E+03  0.35581412615E+03  0.12509080405E+03 0.  0.
         24    2    1    2    0    0  0.33589061704E+02 -0.28112542493E+03  0.25231436939E+04  0.25402563508E+04  0.80551214109E+02 0.  0.
        -13    1    5    5    0    0  0.42300470597E+02 -0.14412332842E+03  0.15883888283E+04  0.15954748301E+04  0.00000000000E+00 0.  1.
         14    1    5    5    0    0 -0.87114088924E+01 -0.13700209652E+03  0.93475486559E+03  0.94478152069E+03  0.00000000000E+00 0. -1.
         13    1    3    3    0    0 -0.64908935427E+02 -0.58536806344E+01 -0.48907295884E+03  0.49339618416E+03  0.00000000000E+00 0. -1.
        -14    1    3    3    0    0 -0.27138527195E+02 -0.93510196660E+01 -0.37169590010E+02  0.46962960390E+02  0.00000000000E+00 0.  1.
          5    1    4    4  501    0  0.36577811965E+02  0.18522266199E+03  0.19148423370E+02  0.18981439714E+03  0.41800000000E+01 0. -1.
         -5    1    4    4    0  501  0.21880588953E+02  0.11110746325E+03  0.12130461274E+03  0.16599972901E+03  0.41800000000E+01 0. -1.
</event>
<event>
11    1  0.7105277E-009  0.1627446E+03  0.7561462E-02  0.1084524E+00
         22   -1    0    0    0    0  0.00000000000E+00  0.00000000000E+00  0.12826603927E+04  0.12826603927E+04  0.00000000000E+00 0. -1.
         22   -1    0    0    0    0 -0.00000000000E+00 -0.00000000000E+00 -0.58727483042E+02  0.58727483042E+02  0.00000000000E+00 0.  1.
         24    2    1    2    0    0 -0.95629590811E+02 -0.17564305718E+02  0.78008229647E+02  0.14838091337E+03  0.80486570838E+02 0.  0.
         25    2    1    2    0    0  0.13012694973E+03 -0.59677802491E+01  0.36980483926E+03  0.41154831304E+03  0.12509099638E+03 0.  0.
        -24    2    1    2    0    0 -0.34497358915E+02  0.23532085967E+02  0.77611984073E+03  0.78145864932E+03  0.81066556484E+02 0.  0.
        -11    1    3    3    0    0 -0.22575073455E+02 -0.18219602743E+02 -0.12904733145E+02  0.31750905549E+02  0.00000000000E+00 0.  1.
         12    1    3    3    0    0 -0.73054517356E+02  0.65529702503E+00  0.90912962793E+02  0.11663000782E+03  0.00000000000E+00 0. -1.
         13    1    5    5    0    0 -0.33777483330E+02  0.10723125152E+02  0.76014221947E+03  0.76096786897E+03  0.00000000000E+00 0. -1.
        -14    1    5    5    0    0 -0.71987558483E+00  0.12808960816E+02  0.15977621267E+02  0.20490780351E+02  0.00000000000E+00 0.  1.
          5    1    4    4  501    0  0.35943415049E+02 -0.49216927082E+02  0.63302286361E+02  0.87970943244E+02  0.41800000000E+01 0.  1.
         -5    1    4    4    0  501  0.94183534677E+02  0.43249146833E+02  0.30650255290E+03  0.32357736979E+03  0.41800000000E+01 0.  1.
</event>
<event>
11    1  0.7105277E-009  0.2764274E+03  0.7561462E-02  0.1010693E+00
         22   -1    0    0    0    0  0.00000000000E+00  0.00000000000E+00  0.34432590509E+03  0.34432590509E+03  0.00000000000E+00 0.  1.
         22   -1    0    0    0    0 -0.00000000000E+00 -0.00000000000E+00 -0.16616286661E+03  0.16616286661E+03  0.00000000000E+00 0. -1.
        -24    2    1    2    0    0  0.98453537714E+02  0.12918479895E+03 -0.25900291704E+01  0.18021040700E+03  0.78020966237E+02 0.  0.
         25    2    1    2    0    0 -0.16242954049E+02 -0.57584198694E+02  0.10617587776E+03  0.17464840433E+03  0.12509586173E+03 0.  0.
         24    2    1    2    0    0 -0.82210583665E+02 -0.71600600260E+02  0.74577189896E+02  0.15562996036E+03  0.82302498654E+02 0.  0.
        -13    1    5    5    0    0  0.94345907978E+00  0.41904845089E+01  0.36645289775E+02  0.36896172406E+02  0.00000000000E+00 0.  1.
         14    1    5    5    0    0 -0.83154042745E+02 -0.75791084769E+02  0.37931900121E+02  0.11873378795E+03  0.00000000000E+00 0. -1.
         13    1    3    3    0    0  0.71791438597E+02  0.11879443139E+03 -0.28396359445E+02  0.14167738286E+03  0.00000000000E+00 0. -1.
        -14    1    3    3    0    0  0.26662099117E+02  0.10390367567E+02  0.25806330275E+02  0.38533024145E+02  0.00000000000E+00 0.  1.
          5    1    4    4  501    0 -0.68485981775E+02 -0.36522279383E+02  0.39260379106E+02  0.87080746198E+02  0.41800000000E+01 0. -1.
         -5    1    4    4    0  501  0.52243027726E+02 -0.21061919312E+02  0.66915498654E+02  0.87567658135E+02  0.41800000000E+01 0. -1.
</event>
<event>
11    1  0.1035188E-008  0.1857837E+03  0.7561462E-02  0.1065058E+00
         22   -1    0    0    0    0  0.00000000000E+00  0.00000000000E+00  0.21227571130E+04  0.21227571130E+04  0.00000000000E+00 0. -1.
         22   -1    0    0    0    0 -0.00000000000E+00 -0.00000000000E+00 -0.46565211476E+03  0.46565211476E+03  0.00000000000E+00 0. -1.
         24    2    1    2    0    0  0.63489429535E+02 -0.10174194117E+03 -0.41134992805E+03  0.43639632424E+03  0.82768703298E+02 0.  0.
         25    2    1    2    0    0  0.79298466050E+02  0.91512053525E+02  0.16015193906E+03  0.23655637552E+03  0.12509025765E+03 0.  0.
        -24    2    1    2    0    0 -0.14278789558E+03  0.10229887649E+02  0.19083029872E+04  0.19154565280E+04  0.82827446086E+02 0.  0.
        -11    1    3    3    0    0 -0.11244386123E+02 -0.50468784786E+02 -0.19701641829E+03  0.20368849632E+03  0.00000000000E+00 0.  1.
         12    1    3    3    0    0  0.74733815658E+02 -0.51273156387E+02 -0.21433350976E+03  0.23270782792E+03  0.00000000000E+00 0. -1.
         13    1    5    5    0    0 -0.14618650139E+03 -0.64279882797E+01  0.17848906518E+04  0.17908786813E+04  0.00000000000E+00 0. -1.
        -14    1    5    5    0    0  0.33986058057E+01  0.16657875928E+02  0.12341233540E+03  0.12457784667E+03  0.00000000000E+00 0.  1.
          5    1    4    4  501    0  0.10879936296E+02  0.84340025230E+01  0.12115802475E+03  0.12200919954E+03  0.41800000000E+01 0. -1.
         -5    1    4    4    0  501  0.68418529754E+02  0.83078051002E+02  0.38993914307E+02  0.11454717598E+03  0.41800000000E+01 0. -1.
</event>
<event>
11    1  0.7105277E-009  0.1646028E+03  0.7561462E-02  0.1082826E+00
         22   -1    0    0    0    0  0.00000000000E+00  0.00000000000E+00  0.17306770396E+03  0.17306770396E+03  0.00000000000E+00 0.  1.
         22   -1    0    0    0    0 -0.00000000000E+00 -0.00000000000E+00 -0.52231914527E+03  0.52231914527E+03  0.00000000000E+00 0.  1.
        -24    2    1    2    0    0  0.86160759965E+02 -0.72943341040E+02 -0.40981031800E+03  0.43320689910E+03  0.83542283480E+02 0.  0.
         25    2    1    2    0    0 -0.46856293326E+02  0.61039845473E+02 -0.23435061301E+02  0.14871974752E+03  0.12508791406E+03 0.  0.
         24    2    1    2    0    0 -0.39304466639E+02  0.11903495566E+02  0.83993937986E+02  0.11346020261E+03  0.64278314027E+02 0.  0.
        -11    1    5    5    0    0 -0.32462735917E+02 -0.12075267894E+02  0.81311021843E+02  0.88380561161E+02  0.00000000000E+00 0.  1.
         12    1    5    5    0    0 -0.68417307223E+01  0.23978763460E+02  0.26829161429E+01  0.25079641453E+02  0.00000000000E+00 0. -1.
         11    1    3    3    0    0  0.51399736661E+02  0.79827186498E+01 -0.13766699877E+03  0.14716609418E+03  0.00000000000E+00 0. -1.
        -12    1    3    3    0    0  0.34761023304E+02 -0.80926059689E+02 -0.27214331923E+03  0.28604080492E+03  0.00000000000E+00 0.  1.
          5    1    4    4  501    0  0.30112746250E+02  0.96646844522E+00  0.25255500624E+02  0.39535101615E+02  0.41800000000E+01 0.  1.
         -5    1    4    4    0  501 -0.76969039575E+02  0.60073377028E+02 -0.48690561925E+02  0.10918464590E+03  0.41800000000E+01 0.  1.
</event>
<event>
11    1  0.7105277E-009  0.2025697E+03  0.7561462E-02  0.1052721E+00
         22   -1    0    0    0    0  0.00000000000E+00  0.00000000000E+00  0.21871616910E+03  0.21871616910E+03  0.00000000000E+00 0.  1.
         22   -1    0    0    0    0 -0.00000000000E+00 -0.00000000000E+00 -0.65460353872E+03  0.65460353872E+03  0.00000000000E+00 0. -1.
         24    2    1    2    0    0 -0.59843620562E+02  0.46176148516E+02 -0.34775937728E+03  0.36354269236E+03  0.74250987009E+02 0.  0.
         25    2    1    2    0    0 -0.55624958642E+02 -0.15786485908E+03 -0.20669217434E+03  0.29391046283E+03  0.12508499299E+03 0.  0.
        -24    2    1    2    0    0  0.11546857920E+03  0.11168871057E+03  0.11856418200E+03  0.21586655262E+03  0.82058164951E+02 0.  0.
        -11    1    3    3    0    0  0.15746496745E+02  0.20697405420E+02 -0.94957695649E+02  0.98454551514E+02  0.00000000000E+00 0.  1.
         12    1    3    3    0    0 -0.75590117306E+02  0.25478743096E+02 -0.25280168163E+03  0.26508814085E+03  0.00000000000E+00 0. -1.
         11    1    5    5    0    0  0.61819627827E+02  0.22504454586E+02  0.11932145757E+02  0.66861745141E+02  0.00000000000E+00 0. -1.
        -12    1    5    5    0    0  0.53648951377E+02  0.89184255981E+02  0.10663203624E+03  0.14900480748E+03  0.00000000000E+00 0.  1.
          5    1    4    4  501    0  0.15591960772E+02 -0.19698825157E+02  0.98627191621E+01  0.27311143926E+02  0.41800000000E+01 0. -1.
         -5    1    4    4    0  501 -0.71216919414E+02 -0.13816603393E+03 -0.21655489350E+03  0.26659931891E+03  0.41800000000E+01 0. -1.
</event>
<event>
11    1  0.7105277E-009  0.1389963E+03  0.7561462E-02  0.1108684E+00
         22   -1    0    0    0    0  0.00000000000E+00  0.00000000000E+00  0.17357027291E+03  0.17357027291E+03  0.00000000000E+00 0. -1.
         22   -1    0    0    0    0 -0.00000000000E+00 -0.00000000000E+00 -0.13402303268E+04  0.13402303268E+04  0.00000000000E+00 0. -1.
         24    2    1    2    0    0  0.19430271383E+01 -0.60810976750E+02 -0.92938508478E+03  0.93486526394E+03  0.80713540819E+02 0.  0.
         25    2    1    2    0    0 -0.52466445197E+02  0.54204492852E+02 -0.38048004678E+03  0.40755710254E+03  0.12508745308E+03 0.  0.
        -24    2    1    2    0    0  0.50523418059E+02  0.66064838983E+01  0.14320507765E+03  0.17137823324E+03  0.79161500489E+02 0.  0.
        -11    1    3    3    0    0  0.20321238837E+02 -0.37844655439E+02 -0.18588903272E+03  0.19078758655E+03  0.00000000000E+00 0.  1.
         12    1    3    3    0    0 -0.18378211698E+02 -0.22966321311E+02 -0.74349605206E+03  0.74407767740E+03  0.00000000000E+00 0. -1.
         11    1    5    5    0    0  0.19840829642E+02  0.14381249332E+02  0.13693574547E+03  0.13911102487E+03  0.00000000000E+00 0. -1.
        -12    1    5    5    0    0  0.30682588417E+02 -0.77747654338E+01  0.62693321798E+01  0.32267208362E+02  0.00000000000E+00 0.  1.
          5    1    4    4  501    0 -0.33808966927E+02 -0.37560899765E+02 -0.10581857492E+03  0.11734100150E+03  0.41800000000E+01 0. -1.
         -5    1    4    4    0  501 -0.18657478270E+02  0.91765392617E+02 -0.27466147186E+03  0.29021610104E+03  0.41800000000E+01 0. -1.
</event>
<event>
11    1  0.7105277E-009  0.1504928E+03  0.7561462E-02  0.1096376E+00
         22   -1    0    0    0    0  0.00000000000E+00  0.00000000000E+00  0.19239919460E+04  0.19239919460E+04  0.00000000000E+00 0.  1.
         22   -1    0    0    0    0 -0.00000000000E+00 -0.00000000000E+00 -0.81535119152E+02  0.81535119152E+02  0.00000000000E+00 0.  1.
         24    2    1    2    0    0  0.34937338009E+02  0.77016003772E+02 -0.28359180529E+02  0.12045667871E+03  0.80953603392E+02 0.  0.
         25    2    1    2    0    0 -0.21036773344E+02 -0.61991738489E+02  0.93596163500E+03  0.94655059516E+03  0.12509326738E+03 0.  0.
        -24    2    1    2    0    0 -0.13900564665E+02 -0.15024265283E+02  0.93485437235E+03  0.93851979125E+03  0.80297863061E+02 0.  0.
        -11    1    3    3    0    0  0.28097131300E+02  0.94168966476E+02 -0.20496801308E+02  0.10038606426E+03  0.00000000000E+00 0.  1.
         12    1    3    3    0    0  0.68402067090E+01 -0.17152962705E+02 -0.78623792211E+01  0.20070614450E+02  0.00000000000E+00 0. -1.
         13    1    5    5    0    0  0.20804624893E+02  0.13022312508E+02  0.12215519147E+03  0.12459656433E+03  0.00000000000E+00 0. -1.
        -14    1    5    5    0    0 -0.34705189558E+02 -0.28046577791E+02  0.81269918088E+03  0.81392322692E+03  0.00000000000E+00 0.  1.
          5    1    4    4  501    0 -0.50602343105E+02 -0.83325743057E+02  0.52791437801E+03  0.53685644216E+03  0.41800000000E+01 0.  1.
         -5    1    4    4    0  501  0.29565569761E+02  0.21334004568E+02  0.40804725699E+03  0.40969415300E+03  0.41800000000E+01 0.  1.
</event>
<event>
11    1  0.7105277E-009  0.1350139E+03  0.7561462E-02  0.1113258E+00
         22   -1    0    0    0    0  0.00000000000E+00  0.00000000000E+00  0.15361816002E+03  0.15361816002E+03  0.00000000000E+00 0.  1.
         22   -1    0    0    0    0 -0.00000000000E+00 -0.00000000000E+00 -0.69929102085E+03  0.69929102085E+03  0.00000000000E+00 0.  1.
         24    2    1    2    0    0 -0.14100975224E+01 -0.15895247108E+02 -0.55738652470E+03  0.56324507202E+03  0.79439448463E+02 0.  0.
         25    2    1    2    0    0  0.42046780258E+02  0.43701697588E+02 -0.77011794447E+02  0.15892144185E+03  0.12508972017E+03 0.  0.
        -24    2    1    2    0    0 -0.40636682735E+02 -0.27806450481E+02  0.88725458319E+02  0.13074266700E+03  0.82443309912E+02 0.  0.
        -11    1    3    3    0    0 -0.79240091931E+01 -0.36664265524E+02 -0.50664850427E+03  0.50803520072E+03  0.00000000000E+00 0.  1.
         12    1    3    3    0    0  0.65139116706E+01  0.20769018417E+02 -0.50738020435E+02  0.55209871299E+02  0.00000000000E+00 0. -1.
         13    1    5    5    0    0 -0.34678027059E+02 -0.12690851717E+02 -0.35038682621E+01  0.37093131046E+02  0.00000000000E+00 0. -1.
        -14    1    5    5    0    0 -0.59586556763E+01 -0.15115598764E+02  0.92229326581E+02  0.93649535958E+02  0.00000000000E+00 0.  1.
          5    1    4    4  501    0 -0.40479074080E+02  0.38501862791E+01 -0.28864913819E+01  0.40977842858E+02  0.41800000000E+01 0. -1.
         -5    1    4    4    0  501  0.82525854338E+02  0.39851511309E+02 -0.74125303065E+02  0.11794359899E+03  0.41800000000E+01 0. -1.
</event>
<event>
11    1  0.7105277E-009  0.1529384E+03  0.7561462E-02  0.1093914E+00
         22   -1    0    0    0    0  0.00000000000E+00  0.00000000000E+00  0.25414032977E+04  0.25414032977E+04  0.00000000000E+00 0.  1.
         22   -1    0    0    0    0 -0.00000000000E+00 -0.00000000000E+00 -0.77544831748E+03  0.77544831748E+03  0.00000000000E+00 0. -1.
         24    2    1    2    0    0  0.20161439893E+02  0.85322586997E+02 -0.74278275496E+03  0.75238709035E+03  0.81692626085E+02 0.  0.
         25    2    1    2    0    0 -0.10403825118E+03 -0.87590726304E+02  0.29798862165E+03  0.35062878915E+03  0.12508891280E+03 0.  0.
        -24    2    1    2    0    0  0.83876811286E+02  0.22681393068E+01  0.22107491135E+04  0.22138357357E+04  0.81342225802E+02 0.  0.
        -13    1    3    3    0    0 -0.73667562011E+01 -0.90554824800E+00 -0.47227080619E+01  0.87973340276E+01  0.00000000000E+00 0.  1.
         14    1    3    3    0    0  0.27528196095E+02  0.86228135245E+02 -0.73806004689E+03  0.74358975632E+03  0.00000000000E+00 0. -1.
         11    1    5    5    0    0 -0.51790064492E+00  0.23463575610E+02  0.23440807664E+03  0.23558003735E+03  0.00000000000E+00 0. -1.
        -12    1    5    5    0    0  0.84394711931E+02 -0.21195436303E+02  0.19763410369E+04  0.19782556983E+04  0.00000000000E+00 0.  1.
          5    1    4    4  501    0 -0.81473224269E+02  0.12105977344E+02  0.13229423669E+03  0.15589637078E+03  0.41800000000E+01 0.  1.
         -5    1    4    4    0  501 -0.22565026910E+02 -0.99696703647E+02  0.16569438496E+03  0.19473241837E+03  0.41800000000E+01 0.  1.
</event>
<event>
11    1  0.7105277E-009  0.1816441E+03  0.7561462E-02  0.1068321E+00
         22   -1    0    0    0    0  0.00000000000E+00  0.00000000000E+00  0.11196944319E+04  0.11196944319E+04  0.00000000000E+00 0.  1.
         22   -1    0    0    0    0 -0.00000000000E+00 -0.00000000000E+00 -0.25546499917E+03  0.25546499917E+03  0.00000000000E+00 0. -1.
         24    2    1    2    0    0 -0.87736693566E+02 -0.99398955613E+02 -0.20610331964E+03  0.25764449822E+03  0.79525023224E+02 0.  0.
         25    2    1    2    0    0  0.12889924589E+03  0.40430020105E+02  0.42443183420E+03  0.46264478350E+03  0.12509281233E+03 0.  0.
        -24    2    1    2    0    0 -0.41162552324E+02  0.58968935508E+02  0.64590091820E+03  0.65487014939E+03  0.80592960976E+02 0.  0.
        -13    1    3    3    0    0 -0.98500791400E+01  0.11950268593E+02 -0.80415547583E+01  0.17449916373E+02  0.00000000000E+00 0.  1.
         14    1    3    3    0    0 -0.77886614426E+02 -0.11134922421E+03 -0.19806176488E+03  0.24019458184E+03  0.00000000000E+00 0. -1.
         11    1    5    5    0    0 -0.61052658979E+01  0.11080287558E+02  0.97900436201E+01  0.15996624586E+02  0.00000000000E+00 0. -1.
        -12    1    5    5    0    0 -0.35057286426E+02  0.47888647950E+02  0.63611087458E+03  0.63887352481E+03  0.00000000000E+00 0.  1.
          5    1    4    4  501    0  0.13058107797E+03  0.72461254681E+02  0.31683978304E+03  0.35029554932E+03  0.41800000000E+01 0.  1.
         -5    1    4    4    0  501 -0.16818320843E+01 -0.32031234576E+02  0.10759205116E+03  0.11234923418E+03  0.41800000000E+01 0.  1.
</event>
<event>
11    1  0.7105277E-009  0.3041994E+03  0.7561462E-02  0.9984294E-01
         22   -1    0    0    0    0  0.00000000000E+00  0.00000000000E+00  0.40231887164E+03  0.40231887164E+03  0.00000000000E+00 0. -1.
         22   -1    0    0    0    0 -0.00000000000E+00 -0.00000000000E+00 -0.90112452674E+03  0.90112452674E+03  0.00000000000E+00 0. -1.
        -24    2    1    2    0    0 -0.22125910546E+03 -0.16609633222E+03 -0.65762350442E+03  0.71838577346E+03  0.84058685565E+02 0.  0.
         25    2    1    2    0    0  0.23967096676E+03  0.14605460096E+03 -0.92611278153E+02  0.32093424108E+03  0.12509124464E+03 0.  0.
         24    2    1    2    0    0 -0.18411861294E+02  0.20041731253E+02  0.25142912747E+03  0.26412338384E+03  0.76183253559E+02 0.  0.
        -11    1    5    5    0    0 -0.11768835472E+02 -0.23862982671E+02  0.39724031825E+02  0.47811569047E+02  0.00000000000E+00 0.  1.
         12    1    5    5    0    0 -0.66430258225E+01  0.43904713924E+02  0.21170509565E+03  0.21631181480E+03  0.00000000000E+00 0. -1.
         11    1    3    3    0    0 -0.20553796246E+03 -0.16998735606E+03 -0.57051917257E+03  0.62978860065E+03  0.00000000000E+00 0. -1.
        -12    1    3    3    0    0 -0.15721142999E+02  0.38910238413E+01 -0.87104331852E+02  0.88597172816E+02  0.00000000000E+00 0.  1.
          5    1    4    4  501    0  0.12417080512E+03  0.42520273783E+01 -0.39718522560E+02  0.13050479691E+03  0.41800000000E+01 0. -1.
         -5    1    4    4    0  501  0.11550016164E+03  0.14180257359E+03 -0.52892755592E+02  0.19042944417E+03  0.41800000000E+01 0. -1.
</event>
<event>
11    1  0.7105277E-009  0.1702004E+03  0.7561462E-02  0.1077857E+00
         22   -1    0    0    0    0  0.00000000000E+00  0.00000000000E+00  0.79517100497E+03  0.79517100497E+03  0.00000000000E+00 0. -1.
         22   -1    0    0    0    0 -0.00000000000E+00 -0.00000000000E+00 -0.33419824763E+03  0.33419824763E+03  0.00000000000E+00 0.  1.
        -24    2    1    2    0    0 -0.10798884484E+03  0.35592457374E+02 -0.20727479539E+03  0.24970493335E+03  0.80382207639E+02 0.  0.
         25    2    1    2    0    0  0.10491943000E+03 -0.66955235498E+02 -0.27568976762E+02  0.17860254596E+03  0.12509088932E+03 0.  0.
         24    2    1    2    0    0  0.30694148347E+01  0.31362778124E+02  0.69581652949E+03  0.70106177328E+03  0.79585941473E+02 0.  0.
        -13    1    5    5    0    0 -0.18622126666E+02 -0.21315569344E+02  0.26054115017E+03  0.26207408882E+03  0.00000000000E+00 0.  1.
         14    1    5    5    0    0  0.21691541500E+02  0.52678347468E+02  0.43527537932E+03  0.43898768446E+03  0.00000000000E+00 0. -1.
         13    1    3    3    0    0 -0.13903060136E+02  0.36663338184E+02 -0.31366577864E+02  0.50213122337E+02  0.00000000000E+00 0. -1.
        -14    1    3    3    0    0 -0.94085784702E+02 -0.10708808107E+01 -0.17590821753E+03  0.19949181102E+03  0.00000000000E+00 0.  1.
          5    1    4    4  501    0  0.26187944351E+02  0.11220680030E+02 -0.56893492150E+02  0.63765617214E+02  0.41800000000E+01 0. -1.
         -5    1    4    4    0  501  0.78731485653E+02 -0.78175915528E+02  0.29324515388E+02  0.11483692875E+03  0.41800000000E+01 0. -1.
</event>
<event>
11    1  0.7105277E-009  0.1431778E+03  0.7561462E-02  0.1104061E+00
         22   -1    0    0    0    0  0.00000000000E+00  0.00000000000E+00  0.10426653988E+03  0.10426653988E+03  0.00000000000E+00 0.  1.
         22   -1    0    0    0    0 -0.00000000000E+00 -0.00000000000E+00 -0.98949279507E+03  0.98949279507E+03  0.00000000000E+00 0. -1.
        -24    2    1    2    0    0 -0.16607610958E+02  0.62724451743E+02 -0.58595880018E+03  0.59482187831E+03  0.79089707402E+02 0.  0.
         25    2    1    2    0    0  0.43602330901E+02 -0.77207440143E+02 -0.35859901371E+03  0.39000306451E+03  0.12508791157E+03 0.  0.
         24    2    1    2    0    0 -0.26994719943E+02  0.14482988400E+02  0.59331558706E+02  0.10893439213E+03  0.86069716354E+02 0.  0.
        -11    1    5    5    0    0 -0.15144420814E+02  0.23058888965E+02  0.79425384716E+02  0.84080066480E+02  0.00000000000E+00 0.  1.
         12    1    5    5    0    0 -0.11850299129E+02 -0.85759005650E+01 -0.20093826010E+02  0.24854325653E+02  0.00000000000E+00 0. -1.
         13    1    3    3    0    0 -0.20382809551E+02 -0.11455410680E+02 -0.23068041053E+03  0.23186232372E+03  0.00000000000E+00 0. -1.
        -14    1    3    3    0    0  0.37751985935E+01  0.74179862423E+02 -0.35527838965E+03  0.36295955459E+03  0.00000000000E+00 0.  1.
          5    1    4    4  501    0  0.67929908788E+02 -0.45183971411E+02 -0.10417176144E+03  0.13238312604E+03  0.41800000000E+01 0.  1.
         -5    1    4    4    0  501 -0.24327577887E+02 -0.32023468731E+02 -0.25442725228E+03  0.25761993847E+03  0.41800000000E+01 0.  1.
</event>
<event>
11    1  0.7105277E-009  0.2035696E+03  0.7561462E-02  0.1052028E+00
         22   -1    0    0    0    0  0.00000000000E+00  0.00000000000E+00  0.27574499325E+03  0.27574499325E+03  0.00000000000E+00 0. -1.
         22   -1    0    0    0    0 -0.00000000000E+00 -0.00000000000E+00 -0.78379291298E+03  0.78379291298E+03  0.00000000000E+00 0. -1.
        -24    2    1    2    0    0  0.10254489851E+03  0.19204078857E+02 -0.27016656472E+03  0.29979713440E+03  0.77486103574E+02 0.  0.
         25    2    1    2    0    0 -0.20110820117E+03 -0.13878275274E+03 -0.42346375412E+03  0.50465066469E+03  0.12508229807E+03 0.  0.
         24    2    1    2    0    0  0.98563302652E+02  0.11957867388E+03  0.18558239911E+03  0.25509010713E+03  0.81340961510E+02 0.  0.
        -11    1    5    5    0    0  0.44597348056E+02  0.69284967393E+02  0.39364520320E+02  0.91317553736E+02  0.00000000000E+00 0.  1.
         12    1    5    5    0    0  0.53965954596E+02  0.50293706491E+02  0.14621787879E+03  0.16377255339E+03  0.00000000000E+00 0. -1.
         13    1    3    3    0    0  0.84431895040E+02  0.42484573386E+02 -0.23837182515E+03  0.25642700892E+03  0.00000000000E+00 0. -1.
        -14    1    3    3    0    0  0.18113003475E+02 -0.23280494529E+02 -0.31794739567E+02  0.43370125484E+02  0.00000000000E+00 0.  1.
          5    1    4    4  501    0 -0.15152364964E+03 -0.48708847915E+02 -0.32653867196E+03  0.36328631264E+03  0.41800000000E+01 0. -1.
         -5    1    4    4    0  501 -0.49584551526E+02 -0.90073904825E+02 -0.96925082156E+02  0.14136435205E+03  0.41800000000E+01 0. -1.
</event>
<event>
11    1  0.7105277E-009  0.1663107E+03  0.7561462E-02  0.1081288E+00
         22   -1    0    0    0    0  0.00000000000E+00  0.00000000000E+00  0.18740443645E+04  0.18740443645E+04  0.00000000000E+00 0.  1.
         22   -1    0    0    0    0 -0.00000000000E+00 -0.00000000000E+00 -0.20107694687E+03  0.20107694687E+03  0.00000000000E+00 0. -1.
        -24    2    1    2    0    0  0.33723640545E+02  0.11346498495E+02 -0.16943201235E+03  0.19125860243E+03  0.81281112400E+02 0.  0.
         25    2    1    2    0    0 -0.40672755737E+02 -0.11844412007E+03  0.43189150814E+03  0.46675599526E+03  0.12509037403E+03 0.  0.
         24    2    1    2    0    0  0.69491151917E+01  0.10709762157E+03  0.14105079218E+04  0.14171067136E+04  0.84502364656E+02 0.  0.
        -13    1    5    5    0    0  0.13962690531E+02  0.89666545330E+02  0.13630091744E+04  0.13660267405E+04  0.00000000000E+00 0.  1.
         14    1    5    5    0    0 -0.70135753392E+01  0.17431076242E+02  0.47498747365E+02  0.51079973172E+02  0.00000000000E+00 0. -1.
         11    1    3    3    0    0  0.44886209145E+02  0.26690683270E+02 -0.16309781654E+03  0.17125437835E+03  0.00000000000E+00 0. -1.
        -12    1    3    3    0    0 -0.11162568600E+02 -0.15344184776E+02 -0.63341958100E+01  0.20004224072E+02  0.00000000000E+00 0.  1.
          5    1    4    4  501    0 -0.67966540609E+02 -0.67670613090E+02  0.14364224870E+03  0.17276958798E+03  0.41800000000E+01 0.  1.
         -5    1    4    4    0  501  0.27293784872E+02 -0.50773506976E+02  0.28824925943E+03  0.29398640728E+03  0.41800000000E+01 0.  1.
</event>
<event>
11    1  0.7105277E-009  0.1681299E+03  0.7561462E-02  0.1079671E+00
         22   -1    0    0    0    0  0.00000000000E+00  0.00000000000E+00  0.11253062811E+04  0.11253062811E+04  0.00000000000E+00 0.  1.
         22   -1    0    0    0    0 -0.00000000000E+00 -0.00000000000E+00 -0.26398305585E+03  0.26398305585E+03  0.00000000000E+00 0. -1.
         24    2    1    2    0    0  0.32087577081E+01  0.60465022242E+02 -0.23097255958E+03  0.25200004882E+03  0.80556727105E+02 0.  0.
         25    2    1    2    0    0  0.10382532414E+03 -0.75973321740E+02  0.54950221422E+03  0.57805855892E+03  0.12508945022E+03 0.  0.
        -24    2    1    2    0    0 -0.10703408185E+03  0.15508299497E+02  0.54279357062E+03  0.55923072923E+03  0.80108340217E+02 0.  0.
        -11    1    3    3    0    0  0.73638627793E+01  0.33109980095E+02 -0.20323585568E+02  0.39541691761E+02  0.00000000000E+00 0.  1.
         12    1    3    3    0    0 -0.41551050712E+01  0.27355042147E+02 -0.21064897402E+03  0.21245835706E+03  0.00000000000E+00 0. -1.
         11    1    5    5    0    0 -0.33989825249E+02 -0.13783922684E+02  0.61984217811E+02  0.72023246266E+02  0.00000000000E+00 0. -1.
        -12    1    5    5    0    0 -0.73044256600E+02  0.29292222181E+02  0.48080935281E+03  0.48720748296E+03  0.00000000000E+00 0.  1.
          5    1    4    4  501    0  0.46936479404E+02 -0.33697180862E+02  0.59884395981E+02  0.83319543799E+02  0.41800000000E+01 0.  1.
         -5    1    4    4    0  501  0.56888844738E+02 -0.42276140877E+02  0.48961781824E+03  0.49473901512E+03  0.41800000000E+01 0.  1.
</event>
<event>
11    1  0.7105277E-009  0.2894322E+03  0.7561462E-02  0.1004766E+00
         22   -1    0    0    0    0  0.00000000000E+00  0.00000000000E+00  0.12130174691E+04  0.12130174691E+04  0.00000000000E+00 0.  1.
         22   -1    0    0    0    0 -0.00000000000E+00 -0.00000000000E+00 -0.11064408376E+04  0.11064408376E+04  0.00000000000E+00 0. -1.
        -24    2    1    2    0    0 -0.45757624093E+02 -0.16431576196E+03 -0.92876038559E+03  0.94731165375E+03  0.75565109027E+02 0.  0.
         25    2    1    2    0    0 -0.21917550412E+03  0.16967365735E+03  0.38150932405E+01  0.30412083138E+03  0.12509146068E+03 0.  0.
         24    2    1    2    0    0  0.26493312822E+03 -0.53578953857E+01  0.10315219238E+04  0.10680258216E+04  0.80146158646E+02 0.  0.
        -11    1    5    5    0    0  0.24175788866E+03  0.19297772874E+01  0.99645997645E+03  0.10253697311E+04  0.00000000000E+00 0.  1.
         12    1    5    5    0    0  0.23175239555E+02 -0.72876726730E+01  0.35061947367E+02  0.42656090475E+02  0.00000000000E+00 0. -1.
         11    1    3    3    0    0 -0.37089830698E+02 -0.13784341518E+03 -0.87691297960E+03  0.88845530919E+03  0.00000000000E+00 0. -1.
        -12    1    3    3    0    0 -0.86677933947E+01 -0.26472346785E+02 -0.51847405995E+02  0.58856344560E+02  0.00000000000E+00 0.  1.
          5    1    4    4  501    0 -0.83933718561E+01 -0.14475516191E+02 -0.15960703226E+02  0.23499057590E+02  0.41800000000E+01 0. -1.
         -5    1    4    4    0  501 -0.21078213227E+03  0.18414917354E+03  0.19775796467E+02  0.28062177379E+03  0.41800000000E+01 0. -1.
</event>
<event>
11    1  0.7105277E-009  0.1619889E+03  0.7561462E-02  0.1085221E+00
         22   -1    0    0    0    0  0.00000000000E+00  0.00000000000E+00  0.93775695079E+03  0.93775695079E+03  0.00000000000E+00 0.  1.
         22   -1    0    0    0    0 -0.00000000000E+00 -0.00000000000E+00 -0.14824092926E+03  0.14824092926E+03  0.00000000000E+00 0. -1.
         24    2    1    2    0    0  0.29114846409E+02  0.30390311908E+02 -0.10605109082E+03  0.14144416014E+03  0.83596478607E+02 0.  0.
         25    2    1    2    0    0  0.13720032365E+02  0.78498155827E+02  0.33858221909E+03  0.36964128144E+03  0.12508620268E+03 0.  0.
        -24    2    1    2    0    0 -0.42834878774E+02 -0.10888846774E+03  0.55698489326E+03  0.57491243846E+03  0.81244171088E+02 0.  0.
        -11    1    3    3    0    0  0.14947263967E+02 -0.27822138977E+02 -0.23143618924E+02  0.39155066266E+02  0.00000000000E+00 0.  1.
         12    1    3    3    0    0  0.14167582442E+02  0.58212450886E+02 -0.82907471893E+02  0.10228909388E+03  0.00000000000E+00 0. -1.
         13    1    5    5    0    0 -0.26748977966E+02  0.44907953876E+01  0.84405276836E+02  0.88656222699E+02  0.00000000000E+00 0. -1.
        -14    1    5    5    0    0 -0.16085900807E+02 -0.11337926312E+03  0.47257961642E+03  0.48625621576E+03  0.00000000000E+00 0.  1.
          5    1    4    4  501    0  0.42582249437E+02  0.10147023346E+03  0.23275720992E+03  0.25749339296E+03  0.41800000000E+01 0. -1.
         -5    1    4    4    0  501 -0.28862217072E+02 -0.22972077634E+02  0.10582500917E+03  0.11214788848E+03  0.41800000000E+01 0. -1.
</event>
<event>
11    1  0.7105277E-009  0.1449357E+03  0.7561462E-02  0.1102169E+00
         22   -1    0    0    0    0  0.00000000000E+00  0.00000000000E+00  0.86697619005E+03  0.86697619005E+03  0.00000000000E+00 0. -1.
         22   -1    0    0    0    0 -0.00000000000E+00 -0.00000000000E+00 -0.27390432900E+03  0.27390432900E+03  0.00000000000E+00 0.  1.
        -24    2    1    2    0    0  0.41347582279E+02 -0.64153271187E+00 -0.22792268525E+03  0.24489524971E+03  0.79466337243E+02 0.  0.
         25    2    1    2    0    0 -0.87610719131E+02 -0.51862666121E+02  0.16326041604E+03  0.22949160316E+03  0.12508820181E+03 0.  0.
         24    2    1    2    0    0  0.46263136852E+02  0.52504198833E+02  0.65773413027E+03  0.66649366617E+03  0.81869727057E+02 0.  0.
        -13    1    5    5    0    0 -0.13623866071E+02  0.27610855795E+02  0.38183975711E+03  0.38307906390E+03  0.00000000000E+00 0.  1.
         14    1    5    5    0    0  0.59887002924E+02  0.24893343038E+02  0.27589437315E+03  0.28341460228E+03  0.00000000000E+00 0. -1.
         13    1    3    3    0    0  0.30676805149E+02  0.35732965556E+02 -0.86604282021E+02  0.98580996475E+02  0.00000000000E+00 0. -1.
        -14    1    3    3    0    0  0.10670777129E+02 -0.36374498268E+02 -0.14131840323E+03  0.14631425324E+03  0.00000000000E+00 0.  1.
          5    1    4    4  501    0  0.18349854867E+01  0.25177801773E+02 -0.27600872186E+01  0.25736731636E+02  0.41800000000E+01 0.  1.
         -5    1    4    4    0  501 -0.89445704617E+02 -0.77040467894E+02  0.16602050326E+03  0.20375487153E+03  0.41800000000E+01 0.  1.
</event>
<event>
11    1  0.7105277E-009  0.1846305E+03  0.7561462E-02  0.1065958E+00
         22   -1    0    0    0    0  0.00000000000E+00  0.00000000000E+00  0.22935574972E+03  0.22935574972E+03  0.00000000000E+00 0. -1.
         22   -1    0    0    0    0 -0.00000000000E+00 -0.00000000000E+00 -0.56283593033E+03  0.56283593033E+03  0.00000000000E+00 0. -1.
        -24    2    1    2    0    0  0.33531306404E+02  0.20149196284E+02 -0.32514185961E+03  0.33768380078E+03  0.82357645793E+02 0.  0.
         25    2    1    2    0    0 -0.83235955466E+02 -0.14130019618E+03 -0.14170298346E+03  0.25023897029E+03  0.12508332027E+03 0.  0.
         24    2    1    2    0    0  0.49704649062E+02  0.12115099989E+03  0.13336466245E+03  0.20426890898E+03  0.82410782489E+02 0.  0.
        -11    1    5    5    0    0  0.54416623172E+02  0.59219104034E+02  0.34497818238E+02  0.87510974302E+02  0.00000000000E+00 0.  1.
         12    1    5    5    0    0 -0.47119741107E+01  0.61931895858E+02  0.98866844217E+02  0.11675793468E+03  0.00000000000E+00 0. -1.
         11    1    3    3    0    0  0.39828480401E+02  0.46945185352E+02 -0.25518808779E+03  0.26250927304E+03  0.00000000000E+00 0. -1.
        -12    1    3    3    0    0 -0.62971739969E+01 -0.26795989068E+02 -0.69953771817E+02  0.75174527746E+02  0.00000000000E+00 0.  1.
          5    1    4    4  501    0 -0.89747553635E+02 -0.15469496286E+03 -0.98212298639E+02  0.20407910947E+03  0.41800000000E+01 0. -1.
         -5    1    4    4    0  501  0.65115981695E+01  0.13394766681E+02 -0.43490684822E+02  0.46159860825E+02  0.41800000000E+01 0. -1.
</event>
<event>
11    1  0.7105277E-009  0.2202083E+03  0.7561462E-02  0.1041087E+00
         22   -1    0    0    0    0  0.00000000000E+00  0.00000000000E+00  0.37700624490E+04  0.37700624490E+04  0.00000000000E+00 0. -1.
         22   -1    0    0    0    0 -0.00000000000E+00 -0.00000000000E+00 -0.69344339748E+03  0.69344339748E+03  0.00000000000E+00 0.  1.
         24    2    1    2    0    0  0.81670933377E+02 -0.11227735464E+03 -0.66214121020E+03  0.68133246545E+03  0.80663501680E+02 0.  0.
         25    2    1    2    0    0 -0.10082882947E+03  0.27251590687E+03  0.13557521265E+04  0.13921720521E+04  0.12509125343E+03 0.  0.
        -24    2    1    2    0    0  0.19157896089E+02 -0.16023855223E+03  0.23830081352E+04  0.23900013289E+04  0.85645556239E+02 0.  0.
        -11    1    3    3    0    0  0.35621762592E+02 -0.10699918605E+03 -0.50833358667E+03  0.52069258793E+03  0.00000000000E+00 0.  1.
         12    1    3    3    0    0  0.46049170785E+02 -0.52781685909E+01 -0.15380762353E+03  0.16063987752E+03  0.00000000000E+00 0. -1.
         13    1    5    5    0    0  0.25313713914E+02 -0.14093216419E+03  0.23036876334E+04  0.23081333088E+04  0.00000000000E+00 0. -1.
        -14    1    5    5    0    0 -0.61558178253E+01 -0.19306388034E+02  0.79320501769E+02  0.81868020086E+02  0.00000000000E+00 0.  1.
          5    1    4    4  501    0 -0.60007481872E+02  0.42253493071E+02  0.48567229862E+03  0.49120393892E+03  0.41800000000E+01 0.  1.
         -5    1    4    4    0  501 -0.40821347594E+02  0.23026241380E+03  0.87007982792E+03  0.90096811319E+03  0.41800000000E+01 0.  1.
</event>
<event>
11    1  0.7105277E-009  0.1815469E+03  0.7561462E-02  0.1068398E+00
         22   -1    0    0    0    0  0.00000000000E+00  0.00000000000E+00  0.60476077566E+03  0.60476077566E+03  0.00000000000E+00 0.  1.
         22   -1    0    0    0    0 -0.00000000000E+00 -0.00000000000E+00 -0.30920764892E+03  0.30920764892E+03  0.00000000000E+00 0. -1.
        -24    2    1    2    0    0 -0.46439107174E+01  0.43713730258E+02 -0.24463737957E+03  0.26436940061E+03  0.90062624771E+02 0.  0.
         25    2    1    2    0    0  0.49357045651E+02 -0.15419292642E+03  0.23126993506E+03  0.30879008604E+03  0.12511577782E+03 0.  0.
         24    2    1    2    0    0 -0.44713134934E+02  0.11047919616E+03  0.30892057124E+03  0.34080893792E+03  0.80708708410E+02 0.  0.
        -11    1    5    5    0    0 -0.23309356595E+02  0.11846251739E+03  0.25038321560E+03  0.27797202878E+03  0.00000000000E+00 0.  1.
         12    1    5    5    0    0 -0.21403778339E+02 -0.79833212298E+01  0.58537355639E+02  0.62836909140E+02  0.00000000000E+00 0. -1.
         11    1    3    3    0    0  0.15293277886E+02  0.25660448727E+02 -0.23326115436E+03  0.23516613088E+03  0.00000000000E+00 0. -1.
        -12    1    3    3    0    0 -0.19937188604E+02  0.18053281531E+02 -0.11376225203E+02  0.29203269737E+02  0.00000000000E+00 0.  1.
          5    1    4    4  501    0  0.67349317852E+02 -0.16091173664E+03  0.23053163133E+03  0.28912077588E+03  0.41800000000E+01 0. -1.
         -5    1    4    4    0  501 -0.17992272201E+02  0.67188102193E+01  0.73830373178E+00  0.19669310159E+02  0.41800000000E+01 0. -1.
</event>
<event>
11    1  0.7105277E-009  0.1789509E+03  0.7561462E-02  0.1070495E+00
         22   -1    0    0    0    0  0.00000000000E+00  0.00000000000E+00  0.18890965918E+04  0.18890965918E+04  0.00000000000E+00 0.  1.
         22   -1    0    0    0    0 -0.00000000000E+00 -0.00000000000E+00 -0.62160708465E+03  0.62160708465E+03  0.00000000000E+00 0. -1.
         24    2    1    2    0    0  0.62732570846E+01  0.12756696995E+03 -0.58402910612E+03  0.60322192787E+03  0.80461244722E+02 0.  0.
         25    2    1    2    0    0 -0.41196021485E+02 -0.13423559420E+03  0.30356507241E+03  0.35709579098E+03  0.12509733734E+03 0.  0.
        -24    2    1    2    0    0  0.34922764400E+02  0.66686242512E+01  0.15479535408E+04  0.15503859576E+04  0.79198376620E+02 0.  0.
        -13    1    3    3    0    0 -0.33048149016E+01  0.11183718047E+03 -0.32852514575E+03  0.34705510820E+03  0.00000000000E+00 0.  1.
         14    1    3    3    0    0  0.95780719862E+01  0.15729789478E+02 -0.25550396036E+03  0.25616681967E+03  0.00000000000E+00 0. -1.
         11    1    5    5    0    0  0.26151035975E+02  0.33532511503E+02  0.43497201504E+03  0.43704571829E+03  0.00000000000E+00 0. -1.
        -12    1    5    5    0    0  0.87717284245E+01 -0.26863887252E+02  0.11129815258E+04  0.11133402393E+04  0.00000000000E+00 0.  1.
          5    1    4    4  501    0 -0.79210617542E+02 -0.11898655503E+03  0.20192438694E+03  0.24743292556E+03  0.41800000000E+01 0.  1.
         -5    1    4    4    0  501  0.38014596057E+02 -0.15249039171E+02  0.10164068548E+03  0.10966286542E+03  0.41800000000E+01 0.  1.
</event>
<event>
11    1  0.7105277E-009  0.1282208E+03  0.7561462E-02  0.1121475E+00
         22   -1    0    0    0    0  0.00000000000E+00  0.00000000000E+00  0.15668617287E+04  0.15668617287E+04  0.00000000000E+00 0.  1.
         22   -1    0    0    0    0 -0.00000000000E+00 -0.00000000000E+00 -0.80721503811E+03  0.80721503811E+03  0.00000000000E+00 0.  1.
        -24    2    1    2    0    0  0.27531040609E+02  0.50780693629E+01 -0.77967234224E+03  0.78446363159E+03  0.81917538117E+02 0.  0.
         25    2    1    2    0    0 -0.45329937395E+02  0.17014116995E+02  0.16528012999E+03  0.21285923316E+03  0.12508896182E+03 0.  0.
         24    2    1    2    0    0  0.17798896786E+02 -0.22092186358E+02  0.13740389029E+04  0.13767539021E+04  0.81630478038E+02 0.  0.
        -11    1    5    5    0    0 -0.21257095293E+02 -0.18871641317E+02  0.10454513305E+04  0.10458376964E+04  0.00000000000E+00 0.  1.
         12    1    5    5    0    0  0.39055992079E+02 -0.32205450411E+01  0.32858757239E+03  0.33091620565E+03  0.00000000000E+00 0. -1.
         13    1    3    3    0    0  0.54788452198E+02 -0.22610106176E+00 -0.39375352718E+03  0.39754706109E+03  0.00000000000E+00 0. -1.
        -14    1    3    3    0    0 -0.27257411589E+02  0.53041704247E+01 -0.38591881505E+03  0.38691657049E+03  0.00000000000E+00 0.  1.
          5    1    4    4  501    0 -0.62176785929E+01  0.90929923564E+00 -0.20726656084E+02  0.22057946972E+02  0.41800000000E+01 0. -1.
         -5    1    4    4    0  501 -0.39112258802E+02  0.16104817759E+02  0.18600678608E+03  0.19080128619E+03  0.41800000000E+01 0. -1.
</event>
<event>
11    1  0.7105277E-009  0.1449246E+03  0.7561462E-02  0.1102181E+00
         22   -1    0    0    0    0  0.00000000000E+00  0.00000000000E+00  0.25241401297E+02  0.25241401297E+02  0.00000000000E+00 0. -1.
         22   -1    0    0    0    0 -0.00000000000E+00 -0.00000000000E+00 -0.20005540227E+04  0.20005540227E+04  0.00000000000E+00 0. -1.
         24    2    1    2    0    0  0.16389277744E+02  0.36281972387E+02 -0.10403166433E+04  0.10442072523E+04  0.80777950800E+02 0.  0.
         25    2    1    2    0    0 -0.85997014795E+02 -0.32999526404E+02 -0.74887042336E+03  0.76481296748E+03  0.12509000337E+03 0.  0.
        -24    2    1    2    0    0  0.69607737051E+02 -0.32824459836E+01 -0.18612555467E+03  0.21677520422E+03  0.86560704440E+02 0.  0.
        -13    1    3    3    0    0 -0.44714438993E+01  0.36238850810E+02 -0.18145556709E+03  0.18509287114E+03  0.00000000000E+00 0.  1.
         14    1    3    3    0    0  0.20860721643E+02  0.43121577859E-01 -0.85886107623E+03  0.85911438111E+03  0.00000000000E+00 0. -1.
         11    1    5    5    0    0  0.77933947656E+02 -0.27878404682E+02 -0.12040324535E+03  0.14610902483E+03  0.00000000000E+00 0. -1.
        -12    1    5    5    0    0 -0.83262106055E+01  0.24595958699E+02 -0.65722309319E+02  0.70666179390E+02  0.00000000000E+00 0.  1.
          5    1    4    4  501    0 -0.19389855892E+02  0.47041025348E+02 -0.25783088789E+03  0.26283657228E+03  0.41800000000E+01 0.  1.
         -5    1    4    4    0  501 -0.66607158903E+02 -0.80040551752E+02 -0.49103953547E+03  0.50197639520E+03  0.41800000000E+01 0.  1.
</event>
<event>
11    1  0.7105277E-009  0.1554358E+03  0.7561462E-02  0.1091450E+00
         22   -1    0    0    0    0  0.00000000000E+00  0.00000000000E+00  0.16090504217E+04  0.16090504217E+04  0.00000000000E+00 0.  1.
         22   -1    0    0    0    0 -0.00000000000E+00 -0.00000000000E+00 -0.30720010561E+03  0.30720010561E+03  0.00000000000E+00 0.  1.
         24    2    1    2    0    0  0.33111732156E+02  0.50416374595E+02 -0.28423065910E+03  0.29822880480E+03  0.67194901652E+02 0.  0.
         25    2    1    2    0    0 -0.15793293354E+01 -0.12823008743E+03  0.63397452888E+03  0.65879955632E+03  0.12509077718E+03 0.  0.
        -24    2    1    2    0    0 -0.31532402821E+02  0.77813712833E+02  0.95210644632E+03  0.95922216619E+03  0.80939561826E+02 0.  0.
        -13    1    3    3    0    0  0.43680575562E+02  0.61714416329E+01 -0.15838813722E+03  0.16441679168E+03  0.00000000000E+00 0.  1.
         14    1    3    3    0    0 -0.10568843405E+02  0.44244932962E+02 -0.12584252188E+03  0.13381201313E+03  0.00000000000E+00 0. -1.
         11    1    5    5    0    0  0.22675296081E+02  0.13676950215E+02  0.11989367607E+03  0.12278323005E+03  0.00000000000E+00 0. -1.
        -12    1    5    5    0    0 -0.54207698902E+02  0.64136762618E+02  0.83221277025E+03  0.83643893615E+03  0.00000000000E+00 0.  1.
          5    1    4    4  501    0 -0.16519887814E+02  0.13681189637E+02  0.21632490199E+03  0.21742588913E+03  0.41800000000E+01 0.  1.
         -5    1    4    4    0  501  0.14940558479E+02 -0.14191127706E+03  0.41764962689E+03  0.44137366719E+03  0.41800000000E+01 0.  1.
</event>
<event>
11    1  0.7105277E-009  0.2473031E+03  0.7561462E-02  0.1025346E+00
         22   -1    0    0    0    0  0.00000000000E+00  0.00000000000E+00  0.22956711046E+03  0.22956711046E+03  0.00000000000E+00 0. -1.
         22   -1    0    0    0    0 -0.00000000000E+00 -0.00000000000E+00 -0.14919413461E+04  0.14919413461E+04  0.00000000000E+00 0.  1.
         24    2    1    2    0    0  0.20736738221E+03 -0.17548110412E+00 -0.14766380980E+03  0.26855503148E+03  0.85533281316E+02 0.  0.
         25    2    1    2    0    0  0.50151867326E+02 -0.20264993310E+03 -0.10879436016E+04  0.11148314982E+04  0.12508310842E+03 0.  0.
        -24    2    1    2    0    0 -0.25751924953E+03  0.20282541421E+03 -0.26766824320E+02  0.33812192691E+03  0.78458027290E+02 0.  0.
        -11    1    3    3    0    0  0.11142246718E+03  0.66053581390E+01 -0.12898357030E+03  0.17057361565E+03  0.00000000000E+00 0.  1.
         12    1    3    3    0    0  0.95944915029E+02 -0.67808392431E+01 -0.18680239499E+02  0.97981415833E+02  0.00000000000E+00 0. -1.
         13    1    5    5    0    0 -0.20544055918E+03  0.14787293040E+03 -0.51819714331E+02  0.25837474663E+03  0.00000000000E+00 0. -1.
        -14    1    5    5    0    0 -0.52078690349E+02  0.54952483803E+02  0.25052890011E+02  0.79747180279E+02  0.00000000000E+00 0.  1.
          5    1    4    4  501    0 -0.34394659361E+02 -0.43633686101E+02 -0.15636440533E+03  0.16599455054E+03  0.41800000000E+01 0.  1.
         -5    1    4    4    0  501  0.84546526687E+02 -0.15901624700E+03 -0.93157919625E+03  0.94883694767E+03  0.41800000000E+01 0.  1.
</event>
<event>
11    1  0.7105277E-009  0.1474012E+03  0.7561462E-02  0.1099564E+00
         22   -1    0    0    0    0  0.00000000000E+00  0.00000000000E+00  0.84673109531E+02  0.84673109531E+02  0.00000000000E+00 0. -1.
         22   -1    0    0    0    0 -0.00000000000E+00 -0.00000000000E+00 -0.23307183602E+04  0.23307183602E+04  0.00000000000E+00 0.  1.
        -24    2    1    2    0    0 -0.34508728035E+02 -0.69861702712E+02 -0.19909378807E+04  0.19942496087E+04  0.84417696194E+02 0.  0.
         25    2    1    2    0    0  0.30015545852E+02  0.72866294492E+02 -0.29598180085E+03  0.33084968598E+03  0.12508340583E+03 0.  0.
         24    2    1    2    0    0  0.44931821828E+01 -0.30045917802E+01  0.40874430849E+02  0.90292175019E+02  0.80328958131E+02 0.  0.
        -11    1    5    5    0    0 -0.23639244227E+02 -0.12413514849E+02  0.52125525872E+02  0.58566028259E+02  0.00000000000E+00 0.  1.
         12    1    5    5    0    0  0.28132426410E+02  0.94089230684E+01 -0.11251095023E+02  0.31726146760E+02  0.00000000000E+00 0. -1.
         11    1    3    3    0    0  0.25836413418E+02 -0.52328543711E+01 -0.42332736972E+03  0.42414733876E+03  0.00000000000E+00 0. -1.
        -12    1    3    3    0    0 -0.60345141453E+02 -0.64628848341E+02 -0.15676105109E+04  0.15701022700E+04  0.00000000000E+00 0.  1.
          5    1    4    4  501    0 -0.43071060773E+01  0.48725062664E+02 -0.22269849213E+02  0.53908269109E+02  0.41800000000E+01 0.  1.
         -5    1    4    4    0  501  0.34322651930E+02  0.24141231828E+02 -0.27371195164E+03  0.27694141687E+03  0.41800000000E+01 0.  1.
</event>
<event>
11    1  0.7105277E-009  0.1622681E+03  0.7561462E-02  0.1084963E+00
         22   -1    0    0    0    0  0.00000000000E+00  0.00000000000E+00  0.14205168766E+03  0.14205168766E+03  0.00000000000E+00 0. -1.
         22   -1    0    0    0    0 -0.00000000000E+00 -0.00000000000E+00 -0.97305895231E+03  0.97305895231E+03  0.00000000000E+00 0.  1.
         24    2    1    2    0    0  0.11154538162E+03  0.10111536012E+02 -0.71282158692E+03  0.72601110460E+03  0.80205323401E+02 0.  0.
         25    2    1    2    0    0 -0.68260960413E+02  0.67458337794E+02 -0.19540853701E+03  0.25108073206E+03  0.12508737594E+03 0.  0.
        -24    2    1    2    0    0 -0.43284421208E+02 -0.77569873805E+02  0.77222859283E+02  0.13801880331E+03  0.72077691621E+02 0.  0.
        -11    1    3    3    0    0  0.73784759973E+02  0.10080343984E+02 -0.63668020353E+03  0.64102065934E+03  0.00000000000E+00 0.  1.
         12    1    3    3    0    0  0.37760621648E+02  0.31192027750E-01 -0.76141383387E+02  0.84990445253E+02  0.00000000000E+00 0. -1.
         13    1    5    5    0    0 -0.48126727124E+02 -0.76193038782E+02  0.88102925879E+02  0.12603049857E+03  0.00000000000E+00 0. -1.
        -14    1    5    5    0    0  0.48423059159E+01 -0.13768350230E+01 -0.10880066596E+02  0.11988304734E+02  0.00000000000E+00 0.  1.
          5    1    4    4  501    0 -0.95139353863E+02  0.72020381150E+02 -0.11382381622E+03  0.16495989056E+03  0.41800000000E+01 0. -1.
         -5    1    4    4    0  501  0.26878393449E+02 -0.45620433569E+01 -0.81584720791E+02  0.86120841500E+02  0.41800000000E+01 0. -1.
</event>
<event>
11    1  0.7105277E-009  0.1785011E+03  0.7561462E-02  0.1070862E+00
         22   -1    0    0    0    0  0.00000000000E+00  0.00000000000E+00  0.42929064942E+04  0.42929064942E+04  0.00000000000E+00 0.  1.
         22   -1    0    0    0    0 -0.00000000000E+00 -0.00000000000E+00 -0.62085866076E+03  0.62085866076E+03  0.00000000000E+00 0.  1.
         24    2    1    2    0    0  0.34827692300E+02  0.56318454120E+02 -0.55100171917E+03  0.56070191387E+03  0.79993782623E+02 0.  0.
         25    2    1    2    0    0 -0.89274856822E+02  0.59625198486E+02  0.43085010109E+02  0.17037813216E+03  0.12508887028E+03 0.  0.
        -24    2    1    2    0    0  0.54447164522E+02 -0.11594365261E+03  0.41799645425E+04  0.41826851089E+04  0.79647470666E+02 0.  0.
        -11    1    3    3    0    0  0.45952194808E+01  0.64067595250E+02 -0.46076201996E+03  0.46521759623E+03  0.00000000000E+00 0.  1.
         12    1    3    3    0    0  0.30232472819E+02 -0.77491411301E+01 -0.90239699212E+02  0.95484317638E+02  0.00000000000E+00 0. -1.
         11    1    5    5    0    0  0.35770598140E+02 -0.35229141376E+02  0.26527886395E+04  0.26532636873E+04  0.00000000000E+00 0. -1.
        -12    1    5    5    0    0  0.18676566382E+02 -0.80714511230E+02  0.15271759030E+04  0.15294214217E+04  0.00000000000E+00 0.  1.
          5    1    4    4  501    0 -0.50082298402E+01 -0.38799947017E+01  0.62542211926E+02  0.63001090447E+02  0.41800000000E+01 0. -1.
         -5    1    4    4    0  501 -0.84266626981E+02  0.63505193187E+02 -0.19457201816E+02  0.10737704171E+03  0.41800000000E+01 0. -1.
</event>
<event>
11    1  0.7105277E-009  0.1401126E+03  0.7561462E-02  0.1107433E+00
         22   -1    0    0    0    0  0.00000000000E+00  0.00000000000E+00  0.43623808176E+03  0.43623808176E+03  0.00000000000E+00 0. -1.
         22   -1    0    0    0    0 -0.00000000000E+00 -0.00000000000E+00 -0.22200713749E+03  0.22200713749E+03  0.00000000000E+00 0.  1.
         24    2    1    2    0    0  0.48072675580E+02 -0.16215676826E+02 -0.11967096542E+03  0.15189866888E+03  0.78601115326E+02 0.  0.
         25    2    1    2    0    0 -0.66621042197E+02 -0.44079118262E+02 -0.82887469243E+01  0.14864975427E+03  0.12508682660E+03 0.  0.
        -24    2    1    2    0    0  0.18548366617E+02  0.60294795089E+02  0.34219065660E+03  0.35769679610E+03  0.82903849469E+02 0.  0.
        -11    1    3    3    0    0  0.63853363770E+02 -0.30836289228E+02 -0.10104450075E+03  0.12344277999E+03  0.00000000000E+00 0.  1.
         12    1    3    3    0    0 -0.15780688190E+02  0.14620612401E+02 -0.18626464661E+02  0.28455888889E+02  0.00000000000E+00 0. -1.
         13    1    5    5    0    0  0.92228267647E+01  0.72288305327E+02  0.33073759459E+03  0.33867095549E+03  0.00000000000E+00 0. -1.
        -14    1    5    5    0    0  0.93255398522E+01 -0.11993510239E+02  0.11453062014E+02  0.19025840609E+02  0.00000000000E+00 0.  1.
          5    1    4    4  501    0 -0.49765749981E+02  0.10854023781E+02  0.46536360146E+02  0.69119786740E+02  0.41800000000E+01 0.  1.
         -5    1    4    4    0  501 -0.16855292216E+02 -0.54933142043E+02 -0.54825107070E+02  0.79529967532E+02  0.41800000000E+01 0.  1.
</event>
<event>
11    1  0.7105277E-009  0.1738941E+03  0.7561462E-02  0.1074692E+00
         22   -1    0    0    0    0  0.00000000000E+00  0.00000000000E+00  0.22065079013E+03  0.22065079013E+03  0.00000000000E+00 0.  1.
         22   -1    0    0    0    0 -0.00000000000E+00 -0.00000000000E+00 -0.78054755054E+03  0.78054755054E+03  0.00000000000E+00 0.  1.
         24    2    1    2    0    0 -0.10024200663E+03  0.10457189603E+03 -0.55541157476E+03  0.57944938359E+03  0.79346262918E+02 0.  0.
         25    2    1    2    0    0 -0.13928964099E+02 -0.86018850000E+02 -0.15426037825E+03  0.21688840500E+03  0.12510418589E+03 0.  0.
        -24    2    1    2    0    0  0.11417097073E+03 -0.18553046027E+02  0.14977519259E+03  0.20486055208E+03  0.78460253663E+02 0.  0.
        -13    1    3    3    0    0 -0.41393281921E+02 -0.25132320972E+01 -0.17727479831E+03  0.18206063341E+03  0.00000000000E+00 0.  1.
         14    1    3    3    0    0 -0.58848724712E+02  0.10708512812E+03 -0.37813677645E+03  0.39738875018E+03  0.00000000000E+00 0. -1.
         11    1    5    5    0    0  0.70476249218E+02  0.24346012964E+02  0.57691335443E+02  0.94275766961E+02  0.00000000000E+00 0. -1.
        -12    1    5    5    0    0  0.43694721515E+02 -0.42899058991E+02  0.92083857152E+02  0.11058478511E+03  0.00000000000E+00 0.  1.
          5    1    4    4  501    0  0.34181884306E+01 -0.19912300990E+02  0.20566162752E+02  0.29131137863E+02  0.41800000000E+01 0.  1.
         -5    1    4    4    0  501 -0.17347152530E+02 -0.66106549010E+02 -0.17482654101E+03  0.18775726714E+03  0.41800000000E+01 0.  1.
</event>
<event>
11    1  0.7105277E-009  0.1367059E+03  0.7561462E-02  0.1111294E+00
         22   -1    0    0    0    0  0.00000000000E+00  0.00000000000E+00  0.26063896331E+03  0.26063896331E+03  0.00000000000E+00 0. -1.
         22   -1    0    0    0    0 -0.00000000000E+00 -0.00000000000E+00 -0.20877409303E+04  0.20877409303E+04  0.00000000000E+00 0. -1.
        -24    2    1    2    0    0  0.27922085598E+02 -0.50086043827E+02 -0.18297207096E+04  0.18323712174E+04  0.80113347601E+02 0.  0.
         25    2    1    2    0    0 -0.15635988918E+02  0.23207336391E+02 -0.23273512692E+03  0.26569827280E+03  0.12508744243E+03 0.  0.
         24    2    1    2    0    0 -0.12286096680E+02  0.26878707436E+02  0.23535386956E+03  0.25031040342E+03  0.79940234299E+02 0.  0.
        -11    1    5    5    0    0 -0.40760612734E+01 -0.27857872530E+02  0.57146276209E+02  0.63705354736E+02  0.00000000000E+00 0.  1.
         12    1    5    5    0    0 -0.82100354064E+01  0.54736579966E+02  0.17820759335E+03  0.18660504868E+03  0.00000000000E+00 0. -1.
         13    1    3    3    0    0  0.73313127772E+01 -0.23619235599E+01 -0.13170341459E+04  0.13170566686E+04  0.00000000000E+00 0. -1.
        -14    1    3    3    0    0  0.20590772820E+02 -0.47724120268E+02 -0.51268656374E+03  0.51531454882E+03  0.00000000000E+00 0.  1.
          5    1    4    4  501    0 -0.32905762256E+02  0.65001788095E+02 -0.89751212329E+02  0.11567529624E+03  0.41800000000E+01 0. -1.
         -5    1    4    4    0  501  0.17269773339E+02 -0.41794451704E+02 -0.14298391459E+03  0.15002297656E+03  0.41800000000E+01 0. -1.
</event>
<event>
11    1  0.7105277E-009  0.1770708E+03  0.7561462E-02  0.1072037E+00
         22   -1    0    0    0    0  0.00000000000E+00  0.00000000000E+00  0.36681049572E+03  0.36681049572E+03  0.00000000000E+00 0.  1.
         22   -1    0    0    0    0 -0.00000000000E+00 -0.00000000000E+00 -0.11905867489E+04  0.11905867489E+04  0.00000000000E+00 0. -1.
        -24    2    1    2    0    0 -0.84277940814E+02  0.37338263052E+02 -0.86051044475E+03  0.86916039100E+03  0.80403000966E+02 0.  0.
         25    2    1    2    0    0  0.60661103280E+02  0.88422563270E+02 -0.28700814572E+03  0.33093617306E+03  0.12508699286E+03 0.  0.
         24    2    1    2    0    0  0.23616837533E+02 -0.12576082632E+03  0.32374233725E+03  0.35730068060E+03  0.80505496557E+02 0.  0.
        -11    1    5    5    0    0  0.30644053349E+02 -0.12608541140E+03  0.32518732312E+03  0.35011909987E+03  0.00000000000E+00 0.  1.
         12    1    5    5    0    0 -0.70272158159E+01  0.32458507747E+00 -0.14449858733E+01  0.71815807292E+01  0.00000000000E+00 0. -1.
         13    1    3    3    0    0 -0.86410654960E+02  0.31467891581E+01 -0.54832331407E+03  0.55509923467E+03  0.00000000000E+00 0. -1.
        -14    1    3    3    0    0  0.21327141460E+01  0.34191473894E+02 -0.31218713068E+03  0.31406115633E+03  0.00000000000E+00 0.  1.
          5    1    4    4  501    0 -0.15792999742E+02  0.81534061668E+02 -0.18813128475E+03  0.20568926747E+03  0.41800000000E+01 0. -1.
         -5    1    4    4    0  501  0.76454103023E+02  0.68885016023E+01 -0.98876860976E+02  0.12524690559E+03  0.41800000000E+01 0. -1.
</event>
<event>
11    1  0.1165978E-008  0.1620436E+03  0.7561462E-02  0.1085171E+00
         22   -1    0    0    0    0  0.00000000000E+00  0.00000000000E+00  0.21061517291E+03  0.21061517291E+03  0.00000000000E+00 0.  1.
         22   -1    0    0    0    0 -0.00000000000E+00 -0.00000000000E+00 -0.21101462846E+04  0.21101462846E+04  0.00000000000E+00 0.  1.
        -24    2    1    2    0    0 -0.72729147363E+02 -0.87927231889E+02 -0.15136244999E+04  0.15200539166E+04  0.80523633134E+02 0.  0.
         25    2    1    2    0    0  0.25202041111E+02  0.70453646676E+02 -0.56685026215E+03  0.58529110495E+03  0.12509036186E+03 0.  0.
         24    2    1    2    0    0  0.47527106252E+02  0.17473585213E+02  0.18094365038E+03  0.21541643600E+03  0.10535408999E+03 0.  0.
        -13    1    5    5    0    0  0.78433103990E+02  0.29401003247E+02  0.13011607349E+03  0.15474612556E+03  0.00000000000E+00 0.  1.
         14    1    5    5    0    0 -0.30905997738E+02 -0.11927418034E+02  0.50827576889E+02  0.60670310446E+02  0.00000000000E+00 0. -1.
         13    1    3    3    0    0 -0.29742532016E+02 -0.81032594637E+01 -0.13602552893E+03  0.13947482047E+03  0.00000000000E+00 0. -1.
        -14    1    3    3    0    0 -0.42986615348E+02 -0.79823972425E+02 -0.13775989710E+04  0.13805790961E+04  0.00000000000E+00 0.  1.
          5    1    4    4  501    0  0.33945508589E+02 -0.27098371802E+02 -0.24451712406E+03  0.24838018373E+03  0.41800000000E+01 0. -1.
         -5    1    4    4    0  501 -0.87434674785E+01  0.97552018478E+02 -0.32233313809E+03  0.33691092123E+03  0.41800000000E+01 0. -1.
</event>
<event>
11    1  0.7105277E-009  0.1454924E+03  0.7561462E-02  0.1101576E+00
         22   -1    0    0    0    0  0.00000000000E+00  0.00000000000E+00  0.82075814928E+03  0.82075814928E+03  0.00000000000E+00 0.  1.
         22   -1    0    0    0    0 -0.00000000000E+00 -0.00000000000E+00 -0.29693307609E+03  0.29693307609E+03  0.00000000000E+00 0.  1.
         24    2    1    2    0    0  0.63050649162E+02 -0.39004236953E+02 -0.22437704156E+03  0.24399696079E+03  0.60767962233E+02 0.  0.
         25    2    1    2    0    0 -0.83031131245E+02  0.82806940661E+01  0.33970056997E+02  0.15415719911E+03  0.12509092140E+03 0.  0.
        -24    2    1    2    0    0  0.19980482083E+02  0.30723542887E+02  0.71423205775E+03  0.71953706547E+03  0.79139121239E+02 0.  0.
        -11    1    3    3    0    0  0.72123828060E+02 -0.34314308841E+02 -0.16013873771E+03  0.17895176356E+03  0.00000000000E+00 0.  1.
         12    1    3    3    0    0 -0.90731788972E+01 -0.46899281119E+01 -0.64238303852E+02  0.65045197230E+02  0.00000000000E+00 0. -1.
         11    1    5    5    0    0  0.36641701484E+02 -0.37485783014E+01  0.53473342446E+03  0.53600046769E+03  0.00000000000E+00 0. -1.
        -12    1    5    5    0    0 -0.16661219401E+02  0.34472121189E+02  0.17949863329E+03  0.18353659778E+03  0.00000000000E+00 0.  1.
          5    1    4    4  501    0 -0.60996544208E+02 -0.23006253854E+02  0.73940608908E+02  0.98663834141E+02  0.41800000000E+01 0. -1.
         -5    1    4    4    0  501 -0.22034587037E+02  0.31286947921E+02 -0.39970551911E+02  0.55493364974E+02  0.41800000000E+01 0. -1.
</event>
<event>
11    1  0.7105277E-009  0.2206436E+03  0.7561462E-02  0.1040815E+00
         22   -1    0    0    0    0  0.00000000000E+00  0.00000000000E+00  0.20649483446E+03  0.20649483446E+03  0.00000000000E+00 0. -1.
         22   -1    0    0    0    0 -0.00000000000E+00 -0.00000000000E+00 -0.11313047271E+04  0.11313047271E+04  0.00000000000E+00 0.  1.
        -24    2    1    2    0    0  0.18086866954E+03  0.19770939537E+02 -0.83133936108E+03  0.85558372859E+03  0.88283733891E+02 0.  0.
         25    2    1    2    0    0 -0.18343859492E+03  0.19552572416E+02 -0.22940045946E+03  0.31984155551E+03  0.12506809599E+03 0.  0.
         24    2    1    2    0    0  0.25699253821E+01 -0.39323511953E+02  0.13592992793E+03  0.16237427743E+03  0.79595964439E+02 0.  0.
        -11    1    5    5    0    0 -0.35807333219E+02 -0.35176165310E+02  0.78602007321E+02  0.93262014095E+02  0.00000000000E+00 0.  1.
         12    1    5    5    0    0  0.38377258601E+02 -0.41473466430E+01  0.57327920613E+02  0.69112263338E+02  0.00000000000E+00 0. -1.
         11    1    3    3    0    0  0.29160383338E+02  0.14757186266E+02 -0.33402833206E+03  0.33562334413E+03  0.00000000000E+00 0. -1.
        -12    1    3    3    0    0  0.15170828620E+03  0.50137532707E+01 -0.49731102902E+03  0.51996038446E+03  0.00000000000E+00 0.  1.
          5    1    4    4  501    0 -0.15011011257E+03 -0.77208772147E+01 -0.23203170478E+03  0.27649383766E+03  0.41800000000E+01 0. -1.
         -5    1    4    4    0  501 -0.33328482354E+02  0.27273449630E+02  0.26312453234E+01  0.43347717849E+02  0.41800000000E+01 0. -1.
</event>
<event>
11    1  0.7105277E-009  0.1581947E+03  0.7561462E-02  0.1088788E+00
         22   -1    0    0    0    0  0.00000000000E+00  0.00000000000E+00  0.48252050281E+03  0.48252050281E+03  0.00000000000E+00 0.  1.
         22   -1    0    0    0    0 -0.00000000000E+00 -0.00000000000E+00 -0.21669337409E+04  0.21669337409E+04  0.00000000000E+00 0. -1.
         24    2    1    2    0    0 -0.36758036996E+02  0.89887355972E+02 -0.21331568282E+04  0.21369159251E+04  0.81367849481E+02 0.  0.
         25    2    1    2    0    0  0.51786593136E+02 -0.49706256151E+02  0.19046428895E+03  0.23890761514E+03  0.12509052753E+03 0.  0.
        -24    2    1    2    0    0 -0.15028556141E+02 -0.40181099821E+02  0.25827930116E+03  0.27363070354E+03  0.79531039406E+02 0.  0.
        -11    1    3    3    0    0  0.71780560006E+01  0.78494924558E+02 -0.15455720354E+04  0.15475806584E+04  0.00000000000E+00 0.  1.
         12    1    3    3    0    0 -0.43936092996E+02  0.11392431413E+02 -0.58758479281E+03  0.58933526664E+03  0.00000000000E+00 0. -1.
         13    1    5    5    0    0  0.21903130742E+02  0.41849705820E+01  0.25844989037E+02  0.34135385942E+02  0.00000000000E+00 0. -1.
        -14    1    5    5    0    0 -0.36931686882E+02 -0.44366070403E+02  0.23243431212E+03  0.23949531759E+03  0.00000000000E+00 0.  1.
          5    1    4    4  501    0  0.61756341800E+02 -0.71523814866E+02  0.74471671228E+02  0.12038689323E+03  0.41800000000E+01 0.  1.
         -5    1    4    4    0  501 -0.99697486640E+01  0.21817558715E+02  0.11599261772E+03  0.11852072191E+03  0.41800000000E+01 0.  1.
</event>
<event>
11    1  0.7105277E-009  0.1363725E+03  0.7561462E-02  0.1111678E+00
         22   -1    0    0    0    0  0.00000000000E+00  0.00000000000E+00  0.49952121435E+03  0.49952121435E+03  0.00000000000E+00 0. -1.
         22   -1    0    0    0    0 -0.00000000000E+00 -0.00000000000E+00 -0.63485443483E+03  0.63485443483E+03  0.00000000000E+00 0.  1.
        -24    2    1    2    0    0 -0.96765397001E+01  0.22664003950E+02 -0.52720827139E+03  0.53394032107E+03  0.80848083095E+02 0.  0.
         25    2    1    2    0    0  0.57190483727E+02  0.39286812398E+01 -0.50756588637E+02  0.14665832998E+03  0.12508496511E+03 0.  0.
         24    2    1    2    0    0 -0.47513944027E+02 -0.26592685190E+02  0.44263163954E+03  0.45377699813E+03  0.83821536170E+02 0.  0.
        -11    1    5    5    0    0 -0.88726547723E+01 -0.18300029329E+02  0.17552412120E+02  0.26864516512E+02  0.00000000000E+00 0.  1.
         12    1    5    5    0    0 -0.38641289254E+02 -0.82926558607E+01  0.42507922742E+03  0.42691248162E+03  0.00000000000E+00 0. -1.
         13    1    3    3    0    0  0.14109728090E+02  0.11264959598E+02 -0.23958996878E+02  0.30000287881E+02  0.00000000000E+00 0. -1.
        -14    1    3    3    0    0 -0.23786267790E+02  0.11399044352E+02 -0.50324927451E+03  0.50394003318E+03  0.00000000000E+00 0.  1.
          5    1    4    4  501    0  0.30561428640E+02  0.34195574261E+02  0.30926367741E+02  0.55472973971E+02  0.41800000000E+01 0. -1.
         -5    1    4    4    0  501  0.26629055087E+02 -0.30266893021E+02 -0.81682956379E+02  0.91185356010E+02  0.41800000000E+01 0. -1.
</event>
<event>
11    1  0.7105277E-009  0.1778286E+03  0.7561462E-02  0.1071413E+00
         22   -1    0    0    0    0  0.00000000000E+00  0.00000000000E+00  0.31656906753E+03  0.31656906753E+03  0.00000000000E+00 0.  1.
         22   -1    0    0    0    0 -0.00000000000E+00 -0.00000000000E+00 -0.10303760665E+04  0.10303760665E+04  0.00000000000E+00 0. -1.
         24    2    1    2    0    0  0.10861562046E+03 -0.62965981004E+02 -0.75764323669E+03  0.77223947133E+03  0.81046031418E+02 0.  0.
         25    2    1    2    0    0 -0.83429093316E+02  0.11180784650E+03 -0.22239490799E+03  0.29080747908E+03  0.12509231246E+03 0.  0.
        -24    2    1    2    0    0 -0.25186527140E+02 -0.48841865494E+02  0.26623114568E+03  0.28389818366E+03  0.81849048737E+02 0.  0.
        -11    1    3    3    0    0  0.45987156091E+02  0.15879125476E+02 -0.23437659340E+03  0.23937283197E+03  0.00000000000E+00 0.  1.
         12    1    3    3    0    0  0.62628464365E+02 -0.78845106480E+02 -0.52326664329E+03  0.53286663936E+03  0.00000000000E+00 0. -1.
         13    1    5    5    0    0 -0.49733640945E+02 -0.13948134483E+02  0.10357529442E+03  0.11574034349E+03  0.00000000000E+00 0. -1.
        -14    1    5    5    0    0  0.24547113806E+02 -0.34893731010E+02  0.16265585126E+03  0.16815784017E+03  0.00000000000E+00 0.  1.
          5    1    4    4  501    0 -0.46030729162E+02  0.12653836491E+03 -0.20818516525E+03  0.24797040398E+03  0.41800000000E+01 0.  1.
         -5    1    4    4    0  501 -0.37398364154E+02 -0.14730518410E+02 -0.14209742747E+02  0.42837075098E+02  0.41800000000E+01 0.  1.
</event>
<event>
11    1  0.7105277E-009  0.1448707E+03  0.7561462E-02  0.1102238E+00
         22   -1    0    0    0    0  0.00000000000E+00  0.00000000000E+00  0.54583830464E+03  0.54583830464E+03  0.00000000000E+00 0. -1.
         22   -1    0    0    0    0 -0.00000000000E+00 -0.00000000000E+00 -0.24548559318E+03  0.24548559318E+03  0.00000000000E+00 0. -1.
         24    2    1    2    0    0 -0.31835576232E+02  0.52030753493E+02 -0.19603396812E+03  0.22071863170E+03  0.81035143605E+02 0.  0.
         25    2    1    2    0    0  0.87411189565E+02 -0.30371693919E+01  0.18870466527E+03  0.24270699539E+03  0.12508914604E+03 0.  0.
        -24    2    1    2    0    0 -0.55575613334E+02 -0.48993584101E+02  0.30768201430E+03  0.32789827073E+03  0.85790640166E+02 0.  0.
        -13    1    3    3    0    0 -0.19446089493E+02  0.52339253785E+02 -0.52468192035E+02  0.76618921023E+02  0.00000000000E+00 0.  1.
         14    1    3    3    0    0 -0.12389486739E+02 -0.30850029158E+00 -0.14356577608E+03  0.14409971067E+03  0.00000000000E+00 0. -1.
         11    1    5    5    0    0 -0.68641312056E+02 -0.15346637437E+02  0.25125668312E+03  0.26091582899E+03  0.00000000000E+00 0. -1.
        -12    1    5    5    0    0  0.13065698722E+02 -0.33646946664E+02  0.56425331180E+02  0.66982441742E+02  0.00000000000E+00 0.  1.
          5    1    4    4  501    0  0.94200957941E+02 -0.41797105784E+02  0.17022125884E+03  0.19903157511E+03  0.41800000000E+01 0. -1.
         -5    1    4    4    0  501 -0.67897683756E+01  0.38759936392E+02  0.18483406433E+02  0.43675420285E+02  0.41800000000E+01 0. -1.
</event>
<event>
11    1  0.7105277E-009  0.1780407E+03  0.7561462E-02  0.1071239E+00
         22   -1    0    0    0    0  0.00000000000E+00  0.00000000000E+00  0.27179276098E+03  0.27179276098E+03  0.00000000000E+00 0. -1.
         22   -1    0    0    0    0 -0.00000000000E+00 -0.00000000000E+00 -0.32789157016E+04  0.32789157016E+04  0.00000000000E+00 0.  1.
        -24    2    1    2    0    0  0.33919505353E+02 -0.44637102851E+02 -0.24994967314E+04  0.25014235087E+04  0.80577019707E+02 0.  0.
         25    2    1    2    0    0 -0.63355231901E+02  0.16642912340E+03 -0.74145952997E+03  0.77273412166E+03  0.12507297739E+03 0.  0.
         24    2    1    2    0    0  0.29435726549E+02 -0.12179202055E+03  0.23383332071E+03  0.27655083219E+03  0.78119028724E+02 0.  0.
        -11    1    5    5    0    0  0.18720981538E+02 -0.87833654355E+02  0.85480875304E+02  0.12398470079E+03  0.00000000000E+00 0.  1.
         12    1    5    5    0    0  0.10714745011E+02 -0.33958366191E+02  0.14835244540E+03  0.15256613140E+03  0.00000000000E+00 0. -1.
         11    1    3    3    0    0  0.27756207087E+02  0.27366784542E+01 -0.27436253194E+03  0.27577653158E+03  0.00000000000E+00 0. -1.
        -12    1    3    3    0    0  0.61632982663E+01 -0.47373781305E+02 -0.22251341994E+04  0.22256469771E+04  0.00000000000E+00 0.  1.
          5    1    4    4  501    0  0.18426303400E+02  0.12391068116E+03 -0.42535514575E+03  0.44343867443E+03  0.41800000000E+01 0.  1.
         -5    1    4    4    0  501 -0.81781535302E+02  0.42518442241E+02 -0.31610438421E+03  0.32929544723E+03  0.41800000000E+01 0.  1.
</event>
<event>
11    1  0.7105277E-009  0.2079326E+03  0.7561462E-02  0.1049052E+00
         22   -1    0    0    0    0  0.00000000000E+00  0.00000000000E+00  0.17478595969E+03  0.17478595969E+03  0.00000000000E+00 0.  1.
         22   -1    0    0    0    0 -0.00000000000E+00 -0.00000000000E+00 -0.24315558338E+04  0.24315558338E+04  0.00000000000E+00 0.  1.
        -24    2    1    2    0    0 -0.74282417681E+02  0.79420798694E+02 -0.13966083870E+04  0.14031655476E+04  0.80827139028E+02 0.  0.
         25    2    1    2    0    0  0.79635016310E+02 -0.24110011526E+03 -0.95712623869E+03  0.99810273030E+03  0.12508965601E+03 0.  0.
         24    2    1    2    0    0 -0.53525986287E+01  0.16167931656E+03  0.96964751520E+02  0.20507351568E+03  0.80524108690E+02 0.  0.
        -13    1    5    5    0    0 -0.27358870862E+01  0.94368429444E+02  0.98031491755E+01  0.94915685150E+02  0.00000000000E+00 0.  1.
         14    1    5    5    0    0 -0.26167115425E+01  0.67310887119E+02  0.87161602345E+02  0.11015783053E+03  0.00000000000E+00 0. -1.
         13    1    3    3    0    0 -0.79800222635E+02  0.29213105068E+02 -0.87041128368E+03  0.87454976062E+03  0.00000000000E+00 0. -1.
        -14    1    3    3    0    0  0.55178049539E+01  0.50207693626E+02 -0.52619710330E+03  0.52861578693E+03  0.00000000000E+00 0.  1.
          5    1    4    4  501    0  0.10300561362E+03 -0.22367239348E+03 -0.76324732271E+03  0.80199965341E+03  0.41800000000E+01 0. -1.
         -5    1    4    4    0  501 -0.23370597308E+02 -0.17427721782E+02 -0.19387891598E+03  0.19610307689E+03  0.41800000000E+01 0. -1.
</event>
<event>
11    1  0.7105277E-009  0.1327711E+03  0.7561462E-02  0.1115910E+00
         22   -1    0    0    0    0  0.00000000000E+00  0.00000000000E+00  0.11179084210E+04  0.11179084210E+04  0.00000000000E+00 0. -1.
         22   -1    0    0    0    0 -0.00000000000E+00 -0.00000000000E+00 -0.25401067035E+03  0.25401067035E+03  0.00000000000E+00 0. -1.
         24    2    1    2    0    0  0.36299120542E+02 -0.36073768409E+02 -0.22977847237E+03  0.24863921187E+03  0.80027297786E+02 0.  0.
         25    2    1    2    0    0  0.14606130757E+02  0.38596817292E+02  0.35844790670E+03  0.38188562366E+03  0.12509466170E+03 0.  0.
        -24    2    1    2    0    0 -0.50905251299E+02 -0.25230488824E+01  0.73522831630E+03  0.74139425579E+03  0.80666319141E+02 0.  0.
        -11    1    3    3    0    0  0.14002320296E+02 -0.56493787275E+02 -0.10301854903E+03  0.11832343140E+03  0.00000000000E+00 0.  1.
         12    1    3    3    0    0  0.22296800246E+02  0.20420018865E+02 -0.12675992335E+03  0.13031578047E+03  0.00000000000E+00 0. -1.
         11    1    5    5    0    0 -0.61718895372E+02  0.62135297423E+01  0.70900948503E+03  0.71171783725E+03  0.00000000000E+00 0. -1.
        -12    1    5    5    0    0  0.10813644073E+02 -0.87365786247E+01  0.26218831272E+02  0.29676418542E+02  0.00000000000E+00 0.  1.
          5    1    4    4  501    0  0.41187013540E+02 -0.19393013405E+02  0.53788837831E+02  0.70591575478E+02  0.41800000000E+01 0. -1.
         -5    1    4    4    0  501 -0.26580882783E+02  0.57989830697E+02  0.30465906887E+03  0.31129404819E+03  0.41800000000E+01 0. -1.
</event>
<event>
11    1  0.7105277E-009  0.1360070E+03  0.7561462E-02  0.1112101E+00
         22   -1    0    0    0    0  0.00000000000E+00  0.00000000000E+00  0.11954691542E+04  0.11954691542E+04  0.00000000000E+00 0.  1.
         22   -1    0    0    0    0 -0.00000000000E+00 -0.00000000000E+00 -0.20192822024E+03  0.20192822024E+03  0.00000000000E+00 0. -1.
        -24    2    1    2    0    0 -0.45865636949E+02 -0.91296867004E+00 -0.11740485150E+03  0.14942379777E+03  0.80243890858E+02 0.  0.
         25    2    1    2    0    0  0.45354315417E+02 -0.52503904141E+02  0.10604617281E+02  0.14343246563E+03  0.12508693142E+03 0.  0.
         24    2    1    2    0    0  0.51132153153E+00  0.53416872811E+02  0.11003411682E+04  0.11045411110E+04  0.80042212671E+02 0.  0.
        -11    1    5    5    0    0 -0.35040732166E+02  0.89588130704E+01  0.29877838098E+03  0.30095952250E+03  0.00000000000E+00 0.  1.
         12    1    5    5    0    0  0.35552053697E+02  0.44458059741E+02  0.80156278720E+03  0.80358158853E+03  0.00000000000E+00 0. -1.
         11    1    3    3    0    0 -0.47247686069E+02 -0.31433823039E+02 -0.50877700882E+02  0.76216596072E+02  0.00000000000E+00 0. -1.
        -12    1    3    3    0    0  0.13820491206E+01  0.30520854369E+02 -0.66527150622E+02  0.73207201702E+02  0.00000000000E+00 0.  1.
          5    1    4    4  501    0 -0.29937506981E+02 -0.37306575497E+01 -0.31874347569E+02  0.44086489574E+02  0.41800000000E+01 0.  1.
         -5    1    4    4    0  501  0.75291822398E+02 -0.48773246591E+02  0.42478964850E+02  0.99345976053E+02  0.41800000000E+01 0.  1.
</event>
<event>
11    1  0.7105277E-009  0.1753210E+03  0.7561462E-02  0.1073492E+00
         22   -1    0    0    0    0  0.00000000000E+00  0.00000000000E+00  0.24210457945E+04  0.24210457945E+04  0.00000000000E+00 0.  1.
         22   -1    0    0    0    0 -0.00000000000E+00 -0.00000000000E+00 -0.38357779997E+02  0.38357779997E+02  0.00000000000E+00 0.  1.
        -24    2    1    2    0    0 -0.37345848146E+02  0.11091795461E+03  0.22354484212E+03  0.26544218489E+03  0.82399951787E+02 0.  0.
         25    2    1    2    0    0 -0.92192766708E-01 -0.14087128796E+03  0.53866069385E+03  0.57065528162E+03  0.12508948427E+03 0.  0.
         24    2    1    2    0    0  0.37438040913E+02  0.29953333349E+02  0.16204824786E+04  0.16233061080E+04  0.82827820681E+02 0.  0.
        -13    1    5    5    0    0  0.49607709213E+02 -0.98728360728E+00  0.13303243608E+04  0.13312493397E+04  0.00000000000E+00 0.  1.
         14    1    5    5    0    0 -0.12169668300E+02  0.30940616956E+02  0.29015811774E+03  0.29205676827E+03  0.00000000000E+00 0. -1.
         13    1    3    3    0    0 -0.60040444199E+02  0.56089699405E+02  0.10967426206E+03  0.13703777975E+03  0.00000000000E+00 0. -1.
        -14    1    3    3    0    0  0.22694596053E+02  0.54828255206E+02  0.11387058005E+03  0.12840440514E+03  0.00000000000E+00 0.  1.
          5    1    4    4  501    0  0.61205012660E+02 -0.80975908432E+02  0.32102585474E+03  0.33671682930E+03  0.41800000000E+01 0.  1.
         -5    1    4    4    0  501 -0.61297205427E+02 -0.59895379528E+02  0.21763483911E+03  0.23393845232E+03  0.41800000000E+01 0.  1.
</event>
<event>
11    1  0.7105277E-009  0.1642776E+03  0.7561462E-02  0.1083122E+00
         22   -1    0    0    0    0  0.00000000000E+00  0.00000000000E+00  0.11980252145E+04  0.11980252145E+04  0.00000000000E+00 0.  1.
         22   -1    0    0    0    0 -0.00000000000E+00 -0.00000000000E+00 -0.86185857351E+02  0.86185857351E+02  0.00000000000E+00 0. -1.
         24    2    1    2    0    0  0.84895836428E+01 -0.12175600217E+02 -0.31875777718E+02  0.98953646183E+02  0.92495624852E+02 0.  0.
         25    2    1    2    0    0  0.48620636375E+02  0.99890213056E+02  0.47482173069E+03  0.50343323640E+03  0.12508927465E+03 0.  0.
        -24    2    1    2    0    0 -0.57110220018E+02 -0.87714612839E+02  0.66889340419E+03  0.68182418928E+03  0.80687101715E+02 0.  0.
        -13    1    3    3    0    0  0.27884932250E+02 -0.29988478425E+02  0.16280486983E+02  0.44067363675E+02  0.00000000000E+00 0.  1.
         14    1    3    3    0    0 -0.19395348608E+02  0.17812878208E+02 -0.48156264701E+02  0.54886282508E+02  0.00000000000E+00 0. -1.
         11    1    5    5    0    0  0.66826572565E+01 -0.53589049676E+02  0.19108673458E+03  0.19857135817E+03  0.00000000000E+00 0. -1.
        -12    1    5    5    0    0 -0.63792877274E+02 -0.34125563163E+02  0.47780666961E+03  0.48325283111E+03  0.00000000000E+00 0.  1.
          5    1    4    4  501    0 -0.10317451606E+02  0.51338464973E+02  0.36982936738E+03  0.37354159229E+03  0.41800000000E+01 0.  1.
         -5    1    4    4    0  501  0.58938087981E+02  0.48551748083E+02  0.10499236332E+03  0.12989164412E+03  0.41800000000E+01 0.  1.
</event>
<event>
11    1  0.7105277E-009  0.2469649E+03  0.7561462E-02  0.1025529E+00
         22   -1    0    0    0    0  0.00000000000E+00  0.00000000000E+00  0.33211658465E+04  0.33211658465E+04  0.00000000000E+00 0.  1.
         22   -1    0    0    0    0 -0.00000000000E+00 -0.00000000000E+00 -0.40613667487E+02  0.40613667487E+02  0.00000000000E+00 0. -1.
         24    2    1    2    0    0 -0.13928954167E+03 -0.16635746793E+03  0.55134379920E+03  0.59757227435E+03  0.77693336884E+02 0.  0.
         25    2    1    2    0    0  0.10756363066E+03  0.17824731734E+03  0.87937937916E+03  0.91230350950E+03  0.12509020812E+03 0.  0.
        -24    2    1    2    0    0  0.31725911012E+02 -0.11889849403E+02  0.18498290006E+04  0.18519037301E+04  0.80821977911E+02 0.  0.
        -13    1    3    3    0    0 -0.16722593332E+02 -0.42359434270E+02  0.54486117326E+02  0.71011997442E+02  0.00000000000E+00 0.  1.
         14    1    3    3    0    0 -0.12256694834E+03 -0.12399803366E+03  0.49685768187E+03  0.52656027691E+03  0.00000000000E+00 0. -1.
         11    1    5    5    0    0  0.56878453942E+02 -0.16982993886E+00  0.99494214483E+03  0.99656663546E+03  0.00000000000E+00 0. -1.
        -12    1    5    5    0    0 -0.25152542930E+02 -0.11720019464E+02  0.85488685580E+03  0.85533709466E+03  0.00000000000E+00 0.  1.
          5    1    4    4  501    0  0.13200772178E+03  0.11877236045E+03  0.67695118662E+03  0.69986662564E+03  0.41800000000E+01 0.  1.
         -5    1    4    4    0  501 -0.24444091122E+02  0.59474956889E+02  0.20242819254E+03  0.21243688386E+03  0.41800000000E+01 0.  1.
</event>
<event>
11    1  0.7105277E-009  0.1404400E+03  0.7561462E-02  0.1107068E+00
         22   -1    0    0    0    0  0.00000000000E+00  0.00000000000E+00  0.15677513777E+04  0.15677513777E+04  0.00000000000E+00 0. -1.
         22   -1    0    0    0    0 -0.00000000000E+00 -0.00000000000E+00 -0.27041295006E+04  0.27041295006E+04  0.00000000000E+00 0.  1.
        -24    2    1    2    0    0 -0.34667948136E+02 -0.34513973295E+02 -0.26624658039E+04  0.26641182371E+04  0.80054627828E+02 0.  0.
         25    2    1    2    0    0  0.93128727462E+02  0.54600660007E+02  0.13624138558E+03  0.21415555331E+03  0.12508674556E+03 0.  0.
         24    2    1    2    0    0 -0.58460779326E+02 -0.20086686711E+02  0.13898462954E+04  0.13936070879E+04  0.81528233426E+02 0.  0.
        -13    1    5    5    0    0 -0.29120038750E+01 -0.42212011620E+02  0.53268686292E+03  0.53436469534E+03  0.00000000000E+00 0.  1.
         14    1    5    5    0    0 -0.55548775451E+02  0.22125324909E+02  0.85715943251E+03  0.85924239258E+03  0.00000000000E+00 0. -1.
         11    1    3    3    0    0 -0.34008007559E+02 -0.55672929335E+02 -0.14490775946E+04  0.14505453784E+04  0.00000000000E+00 0. -1.
        -12    1    3    3    0    0 -0.65994057774E+00  0.21158956039E+02 -0.12133882093E+04  0.12135728587E+04  0.00000000000E+00 0.  1.
          5    1    4    4  501    0 -0.24891007828E+02  0.34396595425E+02  0.19620450909E+02  0.46958732323E+02  0.41800000000E+01 0. -1.
         -5    1    4    4    0  501  0.11801973529E+03  0.20204064582E+02  0.11662093467E+03  0.16719682099E+03  0.41800000000E+01 0. -1.
</event>
<event>
11    1  0.7105277E-009  0.1619941E+03  0.7561462E-02  0.1085217E+00
         22   -1    0    0    0    0  0.00000000000E+00  0.00000000000E+00  0.74649744724E+03  0.74649744724E+03  0.00000000000E+00 0.  1.
         22   -1    0    0    0    0 -0.00000000000E+00 -0.00000000000E+00 -0.10067417834E+04  0.10067417834E+04  0.00000000000E+00 0.  1.
         24    2    1    2    0    0 -0.98709314322E+02  0.31101777388E+02 -0.97733815015E+03  0.98610108902E+03  0.80589383539E+02 0.  0.
         25    2    1    2    0    0  0.72580040688E+02 -0.59786538898E+01  0.22730567515E+03  0.26947879949E+03  0.12508935530E+03 0.  0.
        -24    2    1    2    0    0  0.26129273634E+02 -0.25123123499E+02  0.48978813886E+03  0.49765934211E+03  0.80364728298E+02 0.  0.
        -13    1    3    3    0    0 -0.52239675668E+02  0.55643754038E+02 -0.66597376184E+03  0.67033294902E+03  0.00000000000E+00 0.  1.
         14    1    3    3    0    0 -0.46469638654E+02 -0.24541976650E+02 -0.31136438830E+03  0.31576814000E+03  0.00000000000E+00 0. -1.
         13    1    5    5    0    0 -0.24282654105E+02  0.10381274198E+02  0.13661546217E+03  0.13914453870E+03  0.00000000000E+00 0. -1.
        -14    1    5    5    0    0  0.50411927738E+02 -0.35504397696E+02  0.35317267668E+03  0.35851480341E+03  0.00000000000E+00 0.  1.
          5    1    4    4  501    0  0.97140645142E+02 -0.11200969121E+02  0.10103305175E+03  0.14066597526E+03  0.41800000000E+01 0. -1.
         -5    1    4    4    0  501 -0.24560604454E+02  0.52223152307E+01  0.12627262340E+03  0.12881282424E+03  0.41800000000E+01 0. -1.
</event>
<event>
11    1  0.7105277E-009  0.1303888E+03  0.7561462E-02  0.1118792E+00
         22   -1    0    0    0    0  0.00000000000E+00  0.00000000000E+00  0.97267170293E+02  0.97267170293E+02  0.00000000000E+00 0.  1.
         22   -1    0    0    0    0 -0.00000000000E+00 -0.00000000000E+00 -0.62214458984E+03  0.62214458984E+03  0.00000000000E+00 0. -1.
         24    2    1    2    0    0  0.34801277980E+02 -0.13453594300E+02 -0.48340279965E+03  0.49152093788E+03  0.80761609188E+02 0.  0.
         25    2    1    2    0    0 -0.41735516435E+02 -0.28701339327E+02 -0.33438701888E+02  0.13903271708E+03  0.12508528860E+03 0.  0.
        -24    2    1    2    0    0  0.69342384550E+01  0.42154933626E+02 -0.80359180077E+01  0.88858105168E+02  0.77498805047E+02 0.  0.
        -11    1    3    3    0    0  0.25047069948E+01  0.27423631714E+02 -0.76671817752E+02  0.81467151484E+02  0.00000000000E+00 0.  1.
         12    1    3    3    0    0  0.32296570985E+02 -0.40877226014E+02 -0.40673098189E+03  0.41005378639E+03  0.00000000000E+00 0. -1.
         13    1    5    5    0    0  0.51651110999E+01 -0.14702086111E+01 -0.36399154889E+02  0.36793183644E+02  0.00000000000E+00 0. -1.
        -14    1    5    5    0    0  0.17691273551E+01  0.43625142237E+02  0.28363236882E+02  0.52064921523E+02  0.00000000000E+00 0.  1.
          5    1    4    4  501    0 -0.55185519180E+02 -0.70630298561E+02 -0.30227180479E+02  0.94684927215E+02  0.41800000000E+01 0.  1.
         -5    1    4    4    0  501  0.13450002746E+02  0.41928959234E+02 -0.32115214094E+01  0.44347789867E+02  0.41800000000E+01 0.  1.
</event>
<event>
11    1  0.7105277E-009  0.1302262E+03  0.7561462E-02  0.1118991E+00
         22   -1    0    0    0    0  0.00000000000E+00  0.00000000000E+00  0.99350897963E+03  0.99350897963E+03  0.00000000000E+00 0. -1.
         22   -1    0    0    0    0 -0.00000000000E+00 -0.00000000000E+00 -0.90372905023E+03  0.90372905023E+03  0.00000000000E+00 0.  1.
        -24    2    1    2    0    0  0.67259470297E+01 -0.14630794802E+02 -0.87597046719E+03  0.88007600048E+03  0.83367911761E+02 0.  0.
         25    2    1    2    0    0  0.30137016297E+02  0.15365945745E+02  0.15937845421E+03  0.20540718130E+03  0.12508503676E+03 0.  0.
         24    2    1    2    0    0 -0.36862963327E+02 -0.73515094315E+00  0.80637194238E+03  0.81175484808E+03  0.85736838129E+02 0.  0.
        -13    1    5    5    0    0  0.15371694393E+02 -0.17851168231E+02  0.82458752616E+02  0.85757793107E+02  0.00000000000E+00 0.  1.
         14    1    5    5    0    0 -0.52234657720E+02  0.17116017288E+02  0.72391318976E+03  0.72599705497E+03  0.00000000000E+00 0. -1.
         11    1    3    3    0    0  0.32035179725E+01  0.56077075626E+01 -0.34656246993E+01  0.73293564564E+01  0.00000000000E+00 0. -1.
        -12    1    3    3    0    0  0.35224290572E+01 -0.20238502364E+02 -0.87250484249E+03  0.87274664403E+03  0.00000000000E+00 0.  1.
          5    1    4    4  501    0  0.18308543580E+02 -0.54052899262E+02  0.54582127834E+02  0.79079705143E+02  0.41800000000E+01 0.  1.
         -5    1    4    4    0  501  0.11828472717E+02  0.69418845006E+02  0.10479632638E+03  0.12632747615E+03  0.41800000000E+01 0.  1.
</event>
<event>
11    1  0.7105277E-009  0.1363625E+03  0.7561462E-02  0.1111690E+00
         22   -1    0    0    0    0  0.00000000000E+00  0.00000000000E+00  0.78332863502E+03  0.78332863502E+03  0.00000000000E+00 0. -1.
         22   -1    0    0    0    0 -0.00000000000E+00 -0.00000000000E+00 -0.12020071939E+04  0.12020071939E+04  0.00000000000E+00 0. -1.
         24    2    1    2    0    0 -0.53266515630E+02 -0.11788667358E+02 -0.11333476855E+04  0.11376157968E+04  0.81953830568E+02 0.  0.
         25    2    1    2    0    0  0.53774484867E+02 -0.41919500354E+02  0.17149937886E+02  0.14349539035E+03  0.12509143436E+03 0.  0.
        -24    2    1    2    0    0 -0.50796923635E+00  0.53708167712E+02  0.69751918882E+03  0.70422464177E+03  0.80712464914E+02 0.  0.
        -11    1    3    3    0    0  0.12223860211E+02  0.63233532101E+01 -0.42908081567E+02  0.45061191928E+02  0.00000000000E+00 0.  1.
         12    1    3    3    0    0 -0.65490375841E+02 -0.18112020568E+02 -0.10904396040E+04  0.10925546048E+04  0.00000000000E+00 0. -1.
         13    1    5    5    0    0 -0.39709768064E+02  0.23349124062E+02  0.27880990636E+03  0.28258982848E+03  0.00000000000E+00 0. -1.
        -14    1    5    5    0    0  0.39201798828E+02  0.30359043650E+02  0.41870928246E+03  0.42163481329E+03  0.00000000000E+00 0.  1.
          5    1    4    4  501    0  0.89945189754E+02 -0.88074689887E+01  0.24507587398E+02  0.93732613907E+02  0.41800000000E+01 0.  1.
         -5    1    4    4    0  501 -0.36170704887E+02 -0.33112031365E+02 -0.73576495129E+01  0.49762776445E+02  0.41800000000E+01 0.  1.
</event>
<event>
11    1  0.9830022E-009  0.1733836E+03  0.7561462E-02  0.1075124E+00
         22   -1    0    0    0    0  0.00000000000E+00  0.00000000000E+00  0.22284858775E+04  0.22284858775E+04  0.00000000000E+00 0.  1.
         22   -1    0    0    0    0 -0.00000000000E+00 -0.00000000000E+00 -0.61142247292E+03  0.61142247292E+03  0.00000000000E+00 0.  1.
        -24    2    1    2    0    0  0.47802270744E+02  0.15327587224E+02 -0.48304582102E+03  0.49232023429E+03  0.80783388547E+02 0.  0.
         25    2    1    2    0    0  0.41144426134E+02  0.66640098962E+02 -0.76419306221E+02  0.16619536886E+03  0.12508886311E+03 0.  0.
         24    2    1    2    0    0 -0.88946696878E+02 -0.81967686186E+02  0.21765285318E+04  0.21813927473E+04  0.81041048495E+02 0.  0.
        -11    1    5    5    0    0 -0.50879833858E+02 -0.77042567137E+02  0.18964635799E+04  0.18987096735E+04  0.00000000000E+00 0.  1.
         12    1    5    5    0    0 -0.38066863020E+02 -0.49251190492E+01  0.28006495194E+03  0.28268307371E+03  0.00000000000E+00 0. -1.
         13    1    3    3    0    0  0.25489119055E+02 -0.14127159818E+02 -0.51329184233E+02  0.59025053908E+02  0.00000000000E+00 0. -1.
        -14    1    3    3    0    0  0.22313151689E+02  0.29454747042E+02 -0.43171663679E+03  0.43329518038E+03  0.00000000000E+00 0.  1.
          5    1    4    4  501    0  0.22736321620E+02 -0.31508792795E+02 -0.48765993312E+02  0.62492710359E+02  0.41800000000E+01 0.  1.
         -5    1    4    4    0  501  0.18408104514E+02  0.98148891757E+02 -0.27653312909E+02  0.10370265850E+03  0.41800000000E+01 0.  1.
</event>
<event>
11    1  0.7105277E-009  0.1405823E+03  0.7561462E-02  0.1106910E+00
         22   -1    0    0    0    0  0.00000000000E+00  0.00000000000E+00  0.17292542272E+04  0.17292542272E+04  0.00000000000E+00 0. -1.
         22   -1    0    0    0    0 -0.00000000000E+00 -0.00000000000E+00 -0.65401193999E+02  0.65401193999E+02  0.00000000000E+00 0. -1.
         24    2    1    2    0    0  0.95364643101E+01  0.65162226034E+01 -0.20343195908E+02  0.89191183823E+02  0.86068672254E+02 0.  0.
         25    2    1    2    0    0 -0.56061474861E+02 -0.46696810732E+02  0.63501917159E+03  0.65132209126E+03  0.12509051594E+03 0.  0.
        -24    2    1    2    0    0  0.46525010551E+02  0.40180588129E+02  0.10491770575E+04  0.10541421461E+04  0.81633999812E+02 0.  0.
        -11    1    3    3    0    0 -0.25190660584E+02  0.19639252530E+02  0.17296477807E+02  0.36324065922E+02  0.00000000000E+00 0.  1.
         12    1    3    3    0    0  0.34727124894E+02 -0.13123029926E+02 -0.37639673715E+02  0.52867117901E+02  0.00000000000E+00 0. -1.
         13    1    5    5    0    0  0.31378143935E+02  0.65492746513E+02  0.72783483957E+03  0.73144886455E+03  0.00000000000E+00 0. -1.
        -14    1    5    5    0    0  0.15146866616E+02 -0.25312158384E+02  0.32134221793E+03  0.32269328154E+03  0.00000000000E+00 0.  1.
          5    1    4    4  501    0 -0.57343244273E+02 -0.80727762975E+02  0.33516956864E+03  0.34951585303E+03  0.41800000000E+01 0.  1.
         -5    1    4    4    0  501  0.12817694116E+01  0.34030952242E+02  0.29984960296E+03  0.30180623823E+03  0.41800000000E+01 0.  1.
</event>
<event>
11    1  0.8077943E-009  0.1548699E+03  0.7561462E-02  0.1092004E+00
         22   -1    0    0    0    0  0.00000000000E+00  0.00000000000E+00  0.52651777572E+03  0.52651777572E+03  0.00000000000E+00 0.  1.
         22   -1    0    0    0    0 -0.00000000000E+00 -0.00000000000E+00 -0.66678778949E+03  0.66678778949E+03  0.00000000000E+00 0.  1.
         24    2    1    2    0    0  0.66756279999E+02 -0.53365409378E+02 -0.57375457565E+03  0.58592347858E+03  0.82509040901E+02 0.  0.
         25    2    1    2    0    0  0.17153006917E+02  0.86043570017E+00 -0.28699635704E+02  0.12948043518E+03  0.12508616234E+03 0.  0.
        -24    2    1    2    0    0 -0.83909286916E+02  0.52504973677E+02  0.46218419759E+03  0.47790165144E+03  0.70556468562E+02 0.  0.
        -13    1    3    3    0    0 -0.26418252259E+01 -0.42757600681E+02 -0.31161727605E+03  0.31454811776E+03  0.00000000000E+00 0.  1.
         14    1    3    3    0    0  0.69398105225E+02 -0.10607808696E+02 -0.26213729961E+03  0.27137536082E+03  0.00000000000E+00 0. -1.
         11    1    5    5    0    0 -0.92185391338E+01  0.93059112371E+01  0.22719489577E+03  0.22757219099E+03  0.00000000000E+00 0. -1.
        -12    1    5    5    0    0 -0.74690747782E+02  0.43199062440E+02  0.23498930182E+03  0.25032946045E+03  0.00000000000E+00 0.  1.
          5    1    4    4  501    0  0.25309762445E+02  0.43734906296E+02  0.27910832200E+02  0.57877569557E+02  0.41800000000E+01 0. -1.
         -5    1    4    4    0  501 -0.81567555283E+01 -0.42874470595E+02 -0.56610467904E+02  0.71602865626E+02  0.41800000000E+01 0. -1.
</event>
<event>
11    1  0.7105277E-009  0.1288858E+03  0.7561462E-02  0.1120646E+00
         22   -1    0    0    0    0  0.00000000000E+00  0.00000000000E+00  0.18686988287E+03  0.18686988287E+03  0.00000000000E+00 0.  1.
         22   -1    0    0    0    0 -0.00000000000E+00 -0.00000000000E+00 -0.67965303793E+03  0.67965303793E+03  0.00000000000E+00 0. -1.
         24    2    1    2    0    0 -0.64109927819E+01  0.96278385611E+01 -0.31367384433E+03  0.31974730106E+03  0.60936522794E+02 0.  0.
         25    2    1    2    0    0  0.11051668087E+02  0.21305277409E+02 -0.34149701562E+03  0.36447773810E+03  0.12509098962E+03 0.  0.
        -24    2    1    2    0    0 -0.46406753051E+01 -0.30933115970E+02  0.16238770489E+03  0.18229788164E+03  0.76709565380E+02 0.  0.
        -11    1    3    3    0    0 -0.89883778902E+00 -0.22626168894E+02 -0.62981404791E+02  0.66928385440E+02  0.00000000000E+00 0.  1.
         12    1    3    3    0    0 -0.55121549929E+01  0.32254007455E+02 -0.25069243954E+03  0.25281891562E+03  0.00000000000E+00 0. -1.
         11    1    5    5    0    0 -0.29335721071E+02  0.13043153102E+02  0.70868395934E+02  0.77801271943E+02  0.00000000000E+00 0. -1.
        -12    1    5    5    0    0  0.24695045766E+02 -0.43976269072E+02  0.91519308952E+02  0.10449660970E+03  0.00000000000E+00 0.  1.
          5    1    4    4  501    0 -0.90787883146E+01 -0.50217874087E+02 -0.11044972643E+03  0.12174101094E+03  0.41800000000E+01 0.  1.
         -5    1    4    4    0  501  0.20130456402E+02  0.71523151496E+02 -0.23104728919E+03  0.24273672717E+03  0.41800000000E+01 0.  1.
</event>
<event>
11    1  0.7105277E-009  0.1319553E+03  0.7561462E-02  0.1116890E+00
         22   -1    0    0    0    0  0.00000000000E+00  0.00000000000E+00  0.22856928870E+03  0.22856928870E+03  0.00000000000E+00 0. -1.
         22   -1    0    0    0    0 -0.00000000000E+00 -0.00000000000E+00 -0.45153522136E+03  0.45153522136E+03  0.00000000000E+00 0. -1.
         24    2    1    2    0    0 -0.14809080120E+02 -0.25470058616E+02 -0.37841630454E+03  0.38785453998E+03  0.79776010801E+02 0.  0.
         25    2    1    2    0    0  0.24633873918E+02 -0.20055973125E+02  0.24261175888E+02  0.13130428473E+03  0.12507254188E+03 0.  0.
        -24    2    1    2    0    0 -0.98247937981E+01  0.45526031741E+02  0.13118919600E+03  0.16094568535E+03  0.80769810866E+02 0.  0.
        -11    1    3    3    0    0 -0.51674809893E+01 -0.53966707997E+02 -0.26699232490E+03  0.27244083759E+03  0.00000000000E+00 0.  1.
         12    1    3    3    0    0 -0.96415991303E+01  0.28496649381E+02 -0.11142397964E+03  0.11541370239E+03  0.00000000000E+00 0. -1.
         13    1    5    5    0    0 -0.36179389861E+02  0.38837160648E+02  0.12060496805E+03  0.13176809787E+03  0.00000000000E+00 0. -1.
        -14    1    5    5    0    0  0.26354596063E+02  0.66888710933E+01  0.10584227953E+02  0.29177587486E+02  0.00000000000E+00 0.  1.
          5    1    4    4  501    0  0.75626411719E+02 -0.63550803137E+01  0.12180367881E+02  0.76977756248E+02  0.41800000000E+01 0.  1.
         -5    1    4    4    0  501 -0.50992537801E+02 -0.13700892812E+02  0.12080808007E+02  0.54326528486E+02  0.41800000000E+01 0.  1.
</event>
<event>
11    1  0.7105277E-009  0.1392259E+03  0.7561462E-02  0.1108426E+00
         22   -1    0    0    0    0  0.00000000000E+00  0.00000000000E+00  0.49268505458E+03  0.49268505458E+03  0.00000000000E+00 0. -1.
         22   -1    0    0    0    0 -0.00000000000E+00 -0.00000000000E+00 -0.13316665020E+04  0.13316665020E+04  0.00000000000E+00 0.  1.
        -24    2    1    2    0    0 -0.55141257910E+02 -0.25969243530E+02 -0.12989634268E+04  0.13028277877E+04  0.79619723120E+02 0.  0.
         25    2    1    2    0    0  0.71415864749E+02  0.51692129349E+02  0.22450831139E+03  0.27170006613E+03  0.12507854363E+03 0.  0.
         24    2    1    2    0    0 -0.16274606840E+02 -0.25722885819E+02  0.23547366803E+03  0.24982370270E+03  0.77701379749E+02 0.  0.
        -13    1    5    5    0    0 -0.36002109299E+02  0.14283226813E+02  0.11594940357E+03  0.12224739928E+03  0.00000000000E+00 0.  1.
         14    1    5    5    0    0  0.19727502459E+02 -0.40006112631E+02  0.11952426445E+03  0.12757630342E+03  0.00000000000E+00 0. -1.
         11    1    3    3    0    0 -0.44951888147E+01 -0.86157525356E+01 -0.15809013112E+02  0.18557015110E+02  0.00000000000E+00 0. -1.
        -12    1    3    3    0    0 -0.50646069095E+02 -0.17353490994E+02 -0.12831544137E+04  0.12842707726E+04  0.00000000000E+00 0.  1.
          5    1    4    4  501    0  0.92075017466E+02  0.52727804811E+02  0.10149667913E+03  0.14689138340E+03  0.41800000000E+01 0. -1.
         -5    1    4    4    0  501 -0.20659152717E+02 -0.10356754623E+01  0.12301163226E+03  0.12480868273E+03  0.41800000000E+01 0. -1.
</event>
<event>
11    1  0.7105277E-009  0.2768942E+03  0.7561462E-02  0.1010474E+00
         22   -1    0    0    0    0  0.00000000000E+00  0.00000000000E+00  0.41571833138E+04  0.41571833138E+04  0.00000000000E+00 0.  1.
         22   -1    0    0    0    0 -0.00000000000E+00 -0.00000000000E+00 -0.52036907433E+03  0.52036907433E+03  0.00000000000E+00 0.  1.
         24    2    1    2    0    0 -0.58924589707E+02 -0.10062446283E+03 -0.40631229672E+03  0.43024535807E+03  0.80149833963E+02 0.  0.
         25    2    1    2    0    0 -0.65173851582E+02  0.31139261213E+03  0.20103353351E+03  0.39657850088E+03  0.12508811273E+03 0.  0.
        -24    2    1    2    0    0  0.12409844129E+03 -0.21076814930E+03  0.38420930027E+04  0.38507285292E+04  0.81289164450E+02 0.  0.
        -11    1    3    3    0    0 -0.62678652201E+02 -0.86639688692E+02 -0.40068747356E+03  0.41471134608E+03  0.00000000000E+00 0.  1.
         12    1    3    3    0    0  0.37540624936E+01 -0.13984774141E+02 -0.56248231568E+01  0.15534011991E+02  0.00000000000E+00 0. -1.
         13    1    5    5    0    0  0.23351395008E+02 -0.35836463228E+02  0.31872352380E+03  0.32158082090E+03  0.00000000000E+00 0. -1.
        -14    1    5    5    0    0  0.10074704628E+03 -0.17493168607E+03  0.35233694789E+04  0.35291477083E+04  0.00000000000E+00 0.  1.
          5    1    4    4  501    0 -0.13433956728E+02  0.10774376760E+03  0.14100308165E+03  0.17801273012E+03  0.41800000000E+01 0. -1.
         -5    1    4    4    0  501 -0.51739894854E+02  0.20364884453E+03  0.60030451861E+02  0.21856577076E+03  0.41800000000E+01 0. -1.
</event>
<event>
11    1  0.7105277E-009  0.1368561E+03  0.7561462E-02  0.1111121E+00
         22   -1    0    0    0    0  0.00000000000E+00  0.00000000000E+00  0.14613545825E+04  0.14613545825E+04  0.00000000000E+00 0.  1.
         22   -1    0    0    0    0 -0.00000000000E+00 -0.00000000000E+00 -0.25481679067E+04  0.25481679067E+04  0.00000000000E+00 0.  1.
        -24    2    1    2    0    0 -0.15836728189E+02  0.27815859301E+02 -0.23709979351E+04  0.23725728986E+04  0.80289645397E+02 0.  0.
         25    2    1    2    0    0 -0.37664682014E+02 -0.12181307384E+02 -0.15007198877E+03  0.19933805672E+03  0.12508815501E+03 0.  0.
         24    2    1    2    0    0  0.53501410203E+02 -0.15634551918E+02  0.14342565996E+04  0.14376115339E+04  0.80796588646E+02 0.  0.
        -13    1    5    5    0    0  0.50854558955E+02  0.11650338319E+02  0.12709307407E+04  0.12720011258E+04  0.00000000000E+00 0.  1.
         14    1    5    5    0    0  0.26468512487E+01 -0.27284890237E+02  0.16332585897E+03  0.16561040809E+03  0.00000000000E+00 0. -1.
         11    1    3    3    0    0 -0.15072424385E+02 -0.26207311413E+02 -0.61317940745E+03  0.61392425173E+03  0.00000000000E+00 0. -1.
        -12    1    3    3    0    0 -0.76430380420E+00  0.54023170714E+02 -0.17578185276E+04  0.17586486469E+04  0.00000000000E+00 0.  1.
          5    1    4    4  501    0 -0.49840202850E+02 -0.19121915580E+02 -0.52758486963E+01  0.53805208438E+02  0.41800000000E+01 0. -1.
         -5    1    4    4    0  501  0.12175520836E+02  0.69406081961E+01 -0.14479614007E+03  0.14553284829E+03  0.41800000000E+01 0. -1.
</event>
<event>
11    1  0.7105277E-009  0.1486833E+03  0.7561462E-02  0.1098232E+00
         22   -1    0    0    0    0  0.00000000000E+00  0.00000000000E+00  0.51911908636E+03  0.51911908636E+03  0.00000000000E+00 0. -1.
         22   -1    0    0    0    0 -0.00000000000E+00 -0.00000000000E+00 -0.30601586743E+03  0.30601586743E+03  0.00000000000E+00 0.  1.
         24    2    1    2    0    0  0.78017263183E+02 -0.15723056896E+02 -0.23766525154E+03  0.26311819084E+03  0.80078103697E+02 0.  0.
         25    2    1    2    0    0 -0.92965517560E+02 -0.20965078411E+02  0.72040525165E+02  0.17297387544E+03  0.12509197557E+03 0.  0.
        -24    2    1    2    0    0  0.14948254377E+02  0.36688135306E+02  0.37872794530E+03  0.38904288750E+03  0.79687151960E+02 0.  0.
        -11    1    3    3    0    0  0.46058776807E+02 -0.36344709858E+02 -0.70691940738E+02  0.91867836270E+02  0.00000000000E+00 0.  1.
         12    1    3    3    0    0  0.31958486376E+02  0.20621652962E+02 -0.16697331080E+03  0.17125035457E+03  0.00000000000E+00 0. -1.
         11    1    5    5    0    0  0.27940660643E+02 -0.13996306349E+02  0.21219031514E+03  0.21447915271E+03  0.00000000000E+00 0. -1.
        -12    1    5    5    0    0 -0.12992406265E+02  0.50684441656E+02  0.16653763016E+03  0.17456373480E+03  0.00000000000E+00 0.  1.
          5    1    4    4  501    0 -0.10688497341E+03 -0.54351960498E+02  0.62716779344E+02  0.13538611436E+03  0.41800000000E+01 0.  1.
         -5    1    4    4    0  501  0.13919455851E+02  0.33386882087E+02  0.93237458213E+01  0.37587761078E+02  0.41800000000E+01 0.  1.
</event>
<event>
11    1  0.7105277E-009  0.1972711E+03  0.7561462E-02  0.1056470E+00
         22   -1    0    0    0    0  0.00000000000E+00  0.00000000000E+00  0.29432794784E+03  0.29432794784E+03  0.00000000000E+00 0. -1.
         22   -1    0    0    0    0 -0.00000000000E+00 -0.00000000000E+00 -0.26658809491E+03  0.26658809491E+03  0.00000000000E+00 0.  1.
         24    2    1    2    0    0 -0.20375671777E+02  0.18901479365E+03  0.12490399331E+02  0.19849460874E+03  0.55698648128E+02 0.  0.
         25    2    1    2    0    0 -0.91014680184E+02 -0.11441426698E+03 -0.40092705927E+02  0.19654443254E+03  0.12509193577E+03 0.  0.
        -24    2    1    2    0    0  0.11139035196E+03 -0.74600526669E+02  0.55342159525E+02  0.16587700147E+03  0.80494570671E+02 0.  0.
        -11    1    3    3    0    0 -0.29716899709E+02  0.75694365469E+02 -0.11952095978E+02  0.82192357859E+02  0.00000000000E+00 0.  1.
         12    1    3    3    0    0  0.93412279327E+01  0.11332042818E+03  0.24442495309E+02  0.11630225088E+03  0.00000000000E+00 0. -1.
         11    1    5    5    0    0  0.71000443087E+02 -0.21304716178E+02  0.64651854989E+02  0.98360643570E+02  0.00000000000E+00 0. -1.
        -12    1    5    5    0    0  0.40389908874E+02 -0.53295810492E+02 -0.93096954647E+01  0.67516357903E+02  0.00000000000E+00 0.  1.
          5    1    4    4  501    0 -0.24109644312E+02 -0.79703813007E+01  0.39893964829E+02  0.47474232555E+02  0.41800000000E+01 0. -1.
         -5    1    4    4    0  501 -0.66905035872E+02 -0.10644388568E+03 -0.79986670756E+02  0.14907019998E+03  0.41800000000E+01 0. -1.
</event>
<event>
11    1  0.7105277E-009  0.1322341E+03  0.7561462E-02  0.1116554E+00
         22   -1    0    0    0    0  0.00000000000E+00  0.00000000000E+00  0.71739150463E+03  0.71739150463E+03  0.00000000000E+00 0. -1.
         22   -1    0    0    0    0 -0.00000000000E+00 -0.00000000000E+00 -0.39810814348E+03  0.39810814348E+03  0.00000000000E+00 0. -1.
         24    2    1    2    0    0 -0.37868603542E+02 -0.10746885526E+02 -0.35914152895E+03  0.37001681823E+03  0.79876662874E+02 0.  0.
         25    2    1    2    0    0  0.45317241503E+02  0.50587900627E+02  0.14252950436E+03  0.20143195130E+03  0.12508950126E+03 0.  0.
        -24    2    1    2    0    0 -0.74486379611E+01 -0.39841015102E+02  0.53589538575E+03  0.54405087858E+03  0.84644582404E+02 0.  0.
        -11    1    3    3    0    0 -0.22060590728E+02 -0.39782782122E+02 -0.28797917124E+03  0.29154989707E+03  0.00000000000E+00 0.  1.
         12    1    3    3    0    0 -0.15808012815E+02  0.29035896596E+02 -0.71162357718E+02  0.78466921159E+02  0.00000000000E+00 0. -1.
         13    1    5    5    0    0 -0.76523284665E+01 -0.46625038751E+02  0.53514009246E+03  0.53722190102E+03  0.00000000000E+00 0. -1.
        -14    1    5    5    0    0  0.20369050544E+00  0.67840236491E+01  0.75529328567E+00  0.68289775692E+01  0.00000000000E+00 0.  1.
          5    1    4    4  501    0  0.13079552469E+02 -0.13466743065E+02 -0.17511101603E+02  0.26010362184E+02  0.41800000000E+01 0. -1.
         -5    1    4    4    0  501  0.32237689034E+02  0.64054643692E+02  0.16004060596E+03  0.17542158912E+03  0.41800000000E+01 0. -1.
</event>
<event>
11    1  0.7105277E-009  0.1386929E+03  0.7561462E-02  0.1109027E+00
         22   -1    0    0    0    0  0.00000000000E+00  0.00000000000E+00  0.10470042585E+04  0.10470042585E+04  0.00000000000E+00 0.  1.
         22   -1    0    0    0    0 -0.00000000000E+00 -0.00000000000E+00 -0.36706895421E+03  0.36706895421E+03  0.00000000000E+00 0.  1.
         24    2    1    2    0    0 -0.55784781961E+02  0.16481390670E+02 -0.30614848970E+03  0.32204256329E+03  0.81246148768E+02 0.  0.
         25    2    1    2    0    0 -0.21203487396E+01  0.78642680356E+01  0.27872753822E+02  0.12842899639E+03  0.12510305399E+03 0.  0.
        -24    2    1    2    0    0  0.57905130700E+02 -0.24345658705E+02  0.95821104018E+03  0.96360165304E+03  0.80087657973E+02 0.  0.
        -11    1    3    3    0    0 -0.77057571617E+01  0.76496825413E+01 -0.23760779586E+03  0.23785575669E+03  0.00000000000E+00 0.  1.
         12    1    3    3    0    0 -0.48079024799E+02  0.88317081283E+01 -0.68540693838E+02  0.84186806602E+02  0.00000000000E+00 0. -1.
         13    1    5    5    0    0 -0.80566544693E+01 -0.29180499987E+02  0.17464094598E+03  0.17724522920E+03  0.00000000000E+00 0. -1.
        -14    1    5    5    0    0  0.65961785170E+02  0.48348412818E+01  0.78357009420E+03  0.78635642384E+03  0.00000000000E+00 0.  1.
          5    1    4    4  501    0 -0.21128650397E+02  0.55042821308E+02 -0.15883745611E+02  0.61203740244E+02  0.41800000000E+01 0. -1.
         -5    1    4    4    0  501  0.19008301657E+02 -0.47178553273E+02  0.43756499433E+02  0.67225256143E+02  0.41800000000E+01 0. -1.
</event>
<event>
11    1  0.7105277E-009  0.1492445E+03  0.7561462E-02  0.1097653E+00
         22   -1    0    0    0    0  0.00000000000E+00  0.00000000000E+00  0.14503618041E+03  0.14503618041E+03  0.00000000000E+00 0. -1.
         22   -1    0    0    0    0 -0.00000000000E+00 -0.00000000000E+00 -0.20350921849E+04  0.20350921849E+04  0.00000000000E+00 0. -1.
        -24    2    1    2    0    0 -0.55526386177E+02  0.17011551504E+02 -0.17953732166E+04  0.17980923502E+04  0.79990877544E+02 0.  0.
         25    2    1    2    0    0 -0.29999750517E+02 -0.34665207088E+02 -0.18922902175E+03  0.23142296556E+03  0.12508918699E+03 0.  0.
         24    2    1    2    0    0  0.85526136693E+02  0.17653655584E+02  0.94546233943E+02  0.15061304949E+03  0.78223581543E+02 0.  0.
        -13    1    5    5    0    0  0.23330616475E+01 -0.10790622669E+02 -0.93788291159E+01  0.14485963890E+02  0.00000000000E+00 0.  1.
         14    1    5    5    0    0  0.83193075046E+02  0.28444278253E+02  0.10392506306E+03  0.13612708560E+03  0.00000000000E+00 0. -1.
         11    1    3    3    0    0 -0.74102000706E+02  0.83929873870E+00 -0.13837089414E+04  0.13856919735E+04  0.00000000000E+00 0. -1.
        -12    1    3    3    0    0  0.18575614529E+02  0.16172252765E+02 -0.41166427527E+03  0.41240037675E+03  0.00000000000E+00 0.  1.
          5    1    4    4  501    0 -0.67810579837E+02  0.15923773084E+02 -0.10467615988E+03  0.12580306886E+03  0.41800000000E+01 0. -1.
         -5    1    4    4    0  501  0.37810829320E+02 -0.50588980172E+02 -0.84552861876E+02  0.10561989671E+03  0.41800000000E+01 0. -1.
</event>
<event>
11    1  0.7105277E-009  0.1662321E+03  0.7561462E-02  0.1081358E+00
         22   -1    0    0    0    0  0.00000000000E+00  0.00000000000E+00  0.78538134382E+02  0.78538134382E+02  0.00000000000E+00 0. -1.
         22   -1    0    0    0    0 -0.00000000000E+00 -0.00000000000E+00 -0.10871243896E+04  0.10871243896E+04  0.00000000000E+00 0. -1.
        -24    2    1    2    0    0  0.64545423667E+02 -0.85861382689E+02 -0.78759559239E+03  0.79885728957E+03  0.79547867258E+02 0.  0.
         25    2    1    2    0    0 -0.10285449489E+03  0.73511255952E+02 -0.20733688903E+03  0.27316506121E+03  0.12509042027E+03 0.  0.
         24    2    1    2    0    0  0.38309071228E+02  0.12350126737E+02 -0.13653773749E+02  0.93640173156E+02  0.83438276123E+02 0.  0.
        -11    1    5    5    0    0  0.44595549213E+01  0.31650317764E+02 -0.36463729725E+02  0.48489522890E+02  0.00000000000E+00 0.  1.
         12    1    5    5    0    0  0.33849516307E+02 -0.19300191026E+02  0.22809955976E+02  0.45150650266E+02  0.00000000000E+00 0. -1.
         13    1    3    3    0    0  0.54082977868E+01 -0.24793618436E+02 -0.45029152004E+03  0.45100601573E+03  0.00000000000E+00 0. -1.
        -14    1    3    3    0    0  0.59137125880E+02 -0.61067764253E+02 -0.33730407235E+03  0.34785127384E+03  0.00000000000E+00 0.  1.
          5    1    4    4  501    0 -0.49994784019E+02  0.46065965187E+02 -0.12323435865E+02  0.69216262896E+02  0.41800000000E+01 0. -1.
         -5    1    4    4    0  501 -0.52859710875E+02  0.27445290764E+02 -0.19501345316E+03  0.20394879831E+03  0.41800000000E+01 0. -1.
</event>
<event>
11    1  0.7105277E-009  0.1698252E+03  0.7561462E-02  0.1078184E+00
         22   -1    0    0    0    0  0.00000000000E+00  0.00000000000E+00  0.15316645729E+03  0.15316645729E+03  0.00000000000E+00 0. -1.
         22   -1    0    0    0    0 -0.00000000000E+00 -0.00000000000E+00 -0.30301127927E+04  0.30301127927E+04  0.00000000000E+00 0. -1.
         24    2    1    2    0    0  0.24566031709E+02 -0.18148724169E+02 -0.26842806265E+04  0.26856910141E+04  0.81491566060E+02 0.  0.
         25    2    1    2    0    0 -0.13364428701E+03  0.42196829818E+02 -0.27728716200E+03  0.33492872596E+03  0.12509082046E+03 0.  0.
        -24    2    1    2    0    0  0.10907825530E+03 -0.24048105650E+02  0.84621453087E+02  0.16265950993E+03  0.82589034879E+02 0.  0.
        -11    1    3    3    0    0  0.51385508401E+02 -0.18866406354E+02 -0.13022048487E+04  0.13033548557E+04  0.00000000000E+00 0.  1.
         12    1    3    3    0    0 -0.26819476692E+02  0.71768218519E+00 -0.13820757778E+04  0.13823361584E+04  0.00000000000E+00 0. -1.
         11    1    5    5    0    0  0.88070029800E+02 -0.82717657378E+01  0.98957437989E+02  0.13273027835E+03  0.00000000000E+00 0. -1.
        -12    1    5    5    0    0  0.21008225500E+02 -0.15776339912E+02 -0.14335984902E+02  0.29929231577E+02  0.00000000000E+00 0.  1.
          5    1    4    4  501    0 -0.91146387713E+02  0.48496540923E+02 -0.27257962215E+03  0.29150763504E+03  0.41800000000E+01 0.  1.
         -5    1    4    4    0  501 -0.42497899297E+02 -0.62997111045E+01 -0.47075398471E+01  0.43421090913E+02  0.41800000000E+01 0.  1.
</event>
<event>
11    1  0.7105277E-009  0.1570911E+03  0.7561462E-02  0.1089846E+00
         22   -1    0    0    0    0  0.00000000000E+00  0.00000000000E+00  0.49230560664E+03  0.49230560664E+03  0.00000000000E+00 0. -1.
         22   -1    0    0    0    0 -0.00000000000E+00 -0.00000000000E+00 -0.41699966734E+03  0.41699966734E+03  0.00000000000E+00 0. -1.
         24    2    1    2    0    0  0.54564804982E+02  0.65264010002E+02 -0.23271939258E+03  0.26161210318E+03  0.83939668232E+02 0.  0.
         25    2    1    2    0    0 -0.74601739001E+02 -0.10576841316E+03 -0.11428349831E+03  0.21321440357E+03  0.12508911711E+03 0.  0.
        -24    2    1    2    0    0  0.20036934019E+02  0.40504403155E+02  0.42230883019E+03  0.43447876724E+03  0.91569458443E+02 0.  0.
        -13    1    3    3    0    0  0.11926845191E+01 -0.19267786536E+01  0.68096306198E+01  0.71767709676E+01  0.00000000000E+00 0.  1.
         14    1    3    3    0    0  0.53372120463E+02  0.67190788656E+02 -0.23952902320E+03  0.25443533221E+03  0.00000000000E+00 0. -1.
         13    1    5    5    0    0 -0.17987929821E+02  0.29354373891E+02  0.35273997639E+03  0.35441604905E+03  0.00000000000E+00 0. -1.
        -14    1    5    5    0    0  0.38024863841E+02  0.11150029264E+02  0.69568853807E+02  0.80062718182E+02  0.00000000000E+00 0.  1.
          5    1    4    4  501    0 -0.82145113181E+02 -0.10253706897E+03 -0.38639036131E+02  0.13701137779E+03  0.41800000000E+01 0. -1.
         -5    1    4    4    0  501  0.75433741795E+01 -0.32313441910E+01 -0.75644462180E+02  0.76203025779E+02  0.41800000000E+01 0. -1.
</event>
<event>
11    1  0.7105277E-009  0.1286918E+03  0.7561462E-02  0.1120887E+00
         22   -1    0    0    0    0  0.00000000000E+00  0.00000000000E+00  0.80065083198E+03  0.80065083198E+03  0.00000000000E+00 0. -1.
         22   -1    0    0    0    0 -0.00000000000E+00 -0.00000000000E+00 -0.33536256988E+03  0.33536256988E+03  0.00000000000E+00 0.  1.
        -24    2    1    2    0    0 -0.20644424696E+02  0.22219510081E+02 -0.30687763163E+03  0.31876041007E+03  0.80711952875E+02 0.  0.
         25    2    1    2    0    0  0.11386146840E+02 -0.25743500760E+02  0.18880346605E+03  0.22822572237E+03  0.12509140413E+03 0.  0.
         24    2    1    2    0    0  0.92582778557E+01  0.35239906787E+01  0.58336242768E+03  0.58902726941E+03  0.80890468296E+02 0.  0.
        -11    1    5    5    0    0  0.17450413053E+02  0.24027689655E+02  0.53544131424E+03  0.53626415858E+03  0.00000000000E+00 0.  1.
         12    1    5    5    0    0 -0.81921351972E+01 -0.20503698977E+02  0.47921113439E+02  0.52763110826E+02  0.00000000000E+00 0. -1.
         11    1    3    3    0    0  0.17944748156E+02  0.20087159258E+02 -0.35076017300E+02  0.44224822702E+02  0.00000000000E+00 0. -1.
        -12    1    3    3    0    0 -0.38589172852E+02  0.21323508239E+01 -0.27180161433E+03  0.27453558737E+03  0.00000000000E+00 0.  1.
          5    1    4    4  501    0  0.53670861643E+02 -0.39342822278E+02  0.16432505466E+03  0.17733757369E+03  0.41800000000E+01 0. -1.
         -5    1    4    4    0  501 -0.42284714802E+02  0.13599321518E+02  0.24478411394E+02  0.50888148680E+02  0.41800000000E+01 0. -1.
</event>
<event>
11    1  0.7105277E-009  0.1351258E+03  0.7561462E-02  0.1113127E+00
         22   -1    0    0    0    0  0.00000000000E+00  0.00000000000E+00  0.66955113507E+03  0.66955113507E+03  0.00000000000E+00 0. -1.
         22   -1    0    0    0    0 -0.00000000000E+00 -0.00000000000E+00 -0.22286840546E+03  0.22286840546E+03  0.00000000000E+00 0.  1.
         24    2    1    2    0    0  0.50431042253E+02 -0.13102452082E+02 -0.18917691252E+03  0.21269599496E+03  0.82077510728E+02 0.  0.
         25    2    1    2    0    0 -0.29775105483E+02  0.10108840876E+02  0.21236161630E+03  0.24846364213E+03  0.12509188549E+03 0.  0.
        -24    2    1    2    0    0 -0.20655936770E+02  0.29936112058E+01  0.42349802583E+03  0.43125990343E+03  0.78733074350E+02 0.  0.
        -11    1    3    3    0    0  0.36599778757E+02 -0.40799356165E+02 -0.16360506491E+03  0.17254201962E+03  0.00000000000E+00 0.  1.
         12    1    3    3    0    0  0.13831263496E+02  0.27696904083E+02 -0.25571847611E+02  0.40153975344E+02  0.00000000000E+00 0. -1.
         13    1    5    5    0    0  0.14205152211E+02  0.28963235058E+02  0.10600952123E+03  0.11080917798E+03  0.00000000000E+00 0. -1.
        -14    1    5    5    0    0 -0.34861088981E+02 -0.25969623852E+02  0.31748850460E+03  0.32045072545E+03  0.00000000000E+00 0.  1.
          5    1    4    4  501    0  0.12832158266E+02 -0.79701385293E+01 -0.11747180113E+02  0.19587139519E+02  0.41800000000E+01 0.  1.
         -5    1    4    4    0  501 -0.42607263749E+02  0.18078979405E+02  0.22410879641E+03  0.22887650261E+03  0.41800000000E+01 0.  1.
</event>
<event>
11    1  0.7105277E-009  0.1420057E+03  0.7561462E-02  0.1105339E+00
         22   -1    0    0    0    0  0.00000000000E+00  0.00000000000E+00  0.13463525484E+03  0.13463525484E+03  0.00000000000E+00 0. -1.
         22   -1    0    0    0    0 -0.00000000000E+00 -0.00000000000E+00 -0.21052305134E+04  0.21052305134E+04  0.00000000000E+00 0. -1.
        -24    2    1    2    0    0 -0.26839530473E+02 -0.55798083773E+02 -0.12882155685E+04  0.12922426588E+04  0.80981181503E+02 0.  0.
         25    2    1    2    0    0  0.39260933723E+02  0.76641974126E+02 -0.79385471686E+03  0.80825134136E+03  0.12509798642E+03 0.  0.
         24    2    1    2    0    0 -0.12421403249E+02 -0.20843890353E+02  0.11147502674E+03  0.13937176815E+03  0.80056537190E+02 0.  0.
        -11    1    5    5    0    0 -0.61611826030E+01 -0.51172842198E+02  0.58134989376E+02  0.77693609386E+02  0.00000000000E+00 0.  1.
         12    1    5    5    0    0 -0.62602206464E+01  0.30328951845E+02  0.53340037361E+02  0.61678158761E+02  0.00000000000E+00 0. -1.
         11    1    3    3    0    0 -0.26840026980E+01 -0.65288882966E+02 -0.60190484804E+03  0.60544139948E+03  0.00000000000E+00 0. -1.
        -12    1    3    3    0    0 -0.24155527775E+02  0.94907991931E+01 -0.68631072041E+03  0.68680125928E+03  0.00000000000E+00 0.  1.
          5    1    4    4  501    0 -0.25016178273E+02  0.19528964599E+02 -0.52446419049E+03  0.52544014801E+03  0.41800000000E+01 0.  1.
         -5    1    4    4    0  501  0.64277111995E+02  0.57113009527E+02 -0.26939052637E+03  0.28281119334E+03  0.41800000000E+01 0.  1.
</event>
<event>
11    1  0.7105277E-009  0.1482238E+03  0.7561462E-02  0.1098708E+00
         22   -1    0    0    0    0  0.00000000000E+00  0.00000000000E+00  0.20491242772E+04  0.20491242772E+04  0.00000000000E+00 0. -1.
         22   -1    0    0    0    0 -0.00000000000E+00 -0.00000000000E+00 -0.69569116193E+03  0.69569116193E+03  0.00000000000E+00 0. -1.
         24    2    1    2    0    0  0.55072739190E+02  0.88693890769E+00 -0.65266504315E+03  0.65969770450E+03  0.78712194129E+02 0.  0.
         25    2    1    2    0    0  0.69170489951E+01  0.51753644776E+02  0.83611099620E+02  0.15925897898E+03  0.12508525529E+03 0.  0.
        -24    2    1    2    0    0 -0.61989788185E+02 -0.52640583683E+02  0.19224870588E+04  0.19258587557E+04  0.79760207059E+02 0.  0.
        -11    1    3    3    0    0  0.18950432451E+00  0.30579325348E+02 -0.14342629919E+03  0.14665004040E+03  0.00000000000E+00 0.  1.
         12    1    3    3    0    0  0.54883234866E+02 -0.29692386441E+02 -0.50923874396E+03  0.51304766410E+03  0.00000000000E+00 0. -1.
         11    1    5    5    0    0 -0.57912485468E+02 -0.48589856251E+02  0.19146410988E+04  0.19161329201E+04  0.00000000000E+00 0. -1.
        -12    1    5    5    0    0 -0.40773027177E+01 -0.40507274318E+01  0.78459600467E+01  0.97258356573E+01  0.00000000000E+00 0.  1.
          5    1    4    4  501    0  0.94235704931E+01 -0.27416690824E+01  0.10122134846E+03  0.10178189531E+03  0.41800000000E+01 0.  1.
         -5    1    4    4    0  501 -0.25065214980E+01  0.54495313858E+02 -0.17610248837E+02  0.57477083665E+02  0.41800000000E+01 0.  1.
</event>
<event>
11    1  0.7105277E-009  0.1362308E+03  0.7561462E-02  0.1111842E+00
         22   -1    0    0    0    0  0.00000000000E+00  0.00000000000E+00  0.48499826363E+03  0.48499826363E+03  0.00000000000E+00 0. -1.
         22   -1    0    0    0    0 -0.00000000000E+00 -0.00000000000E+00 -0.14704832616E+04  0.14704832616E+04  0.00000000000E+00 0. -1.
        -24    2    1    2    0    0  0.24984230479E+02  0.17774845148E+02 -0.13225383084E+04  0.13253129459E+04  0.80041678559E+02 0.  0.
         25    2    1    2    0    0 -0.68458076485E+02  0.13715241078E+02 -0.10509442051E+03  0.17764642297E+03  0.12505518101E+03 0.  0.
         24    2    1    2    0    0  0.43473846006E+02 -0.31490086227E+02  0.44214773095E+03  0.45252215643E+03  0.80000532889E+02 0.  0.
        -13    1    5    5    0    0  0.13742017294E+02  0.12714155553E+02  0.21475492855E+02  0.28490166446E+02  0.00000000000E+00 0.  1.
         14    1    5    5    0    0  0.29731828712E+02 -0.44204241780E+02  0.42067223809E+03  0.42403198999E+03  0.00000000000E+00 0. -1.
         11    1    3    3    0    0  0.35032338186E+02 -0.22494526815E+01 -0.12129548144E+04  0.12134626927E+04  0.00000000000E+00 0. -1.
        -12    1    3    3    0    0 -0.10048107706E+02  0.20024297830E+02 -0.10958349403E+03  0.11185025318E+03  0.00000000000E+00 0.  1.
          5    1    4    4  501    0  0.21821794132E+02 -0.15743339926E+02 -0.72026868314E+02  0.77002503923E+02  0.41800000000E+01 0.  1.
         -5    1    4    4    0  501 -0.90279870618E+02  0.29458581004E+02 -0.33067552197E+02  0.10064391905E+03  0.41800000000E+01 0.  1.
</event>
<event>
11    1  0.7105277E-009  0.1335349E+03  0.7561462E-02  0.1115000E+00
         22   -1    0    0    0    0  0.00000000000E+00  0.00000000000E+00  0.77466098077E+03  0.77466098077E+03  0.00000000000E+00 0. -1.
         22   -1    0    0    0    0 -0.00000000000E+00 -0.00000000000E+00 -0.22116642227E+04  0.22116642227E+04  0.00000000000E+00 0. -1.
        -24    2    1    2    0    0  0.15491670916E+02  0.44294424109E+02 -0.21834024654E+04  0.21853381224E+04  0.79084735987E+02 0.  0.
         25    2    1    2    0    0  0.15381461752E+02 -0.18985348959E+02  0.14571404890E+03  0.19359053159E+03  0.12509067524E+03 0.  0.
         24    2    1    2    0    0 -0.30873132669E+02 -0.25309075150E+02  0.60068517451E+03  0.60739654953E+03  0.80710531536E+02 0.  0.
        -13    1    5    5    0    0 -0.19908789222E+02 -0.29989211407E+01  0.29761183050E+02  0.35931621628E+02  0.00000000000E+00 0.  1.
         14    1    5    5    0    0 -0.10964343447E+02 -0.22310154009E+02  0.57092399146E+03  0.57146492790E+03  0.00000000000E+00 0. -1.
         11    1    3    3    0    0 -0.78499329663E+01  0.23843062564E+02 -0.19123699252E+04  0.19125346648E+04  0.00000000000E+00 0. -1.
        -12    1    3    3    0    0  0.23341603882E+02  0.20451361545E+02 -0.27103254017E+03  0.27280345762E+03  0.00000000000E+00 0.  1.
          5    1    4    4  501    0  0.40001722398E+02 -0.59533000168E+02  0.52722412304E+02  0.89114763440E+02  0.41800000000E+01 0.  1.
         -5    1    4    4    0  501 -0.24620260646E+02  0.40547651210E+02  0.92991636601E+02  0.10447576815E+03  0.41800000000E+01 0.  1.
</event>
<event>
11    1  0.7105277E-009  0.1974333E+03  0.7561462E-02  0.1056354E+00
         22   -1    0    0    0    0  0.00000000000E+00  0.00000000000E+00  0.11270032603E+04  0.11270032603E+04  0.00000000000E+00 0.  1.
         22   -1    0    0    0    0 -0.00000000000E+00 -0.00000000000E+00 -0.26363966907E+04  0.26363966907E+04  0.00000000000E+00 0.  1.
         24    2    1    2    0    0 -0.14964219812E+03 -0.26661372027E+02 -0.25378840551E+04  0.25436349053E+04  0.78226835678E+02 0.  0.
         25    2    1    2    0    0  0.18427317128E+03  0.39553374439E+02  0.42908240597E+02  0.23023901436E+03  0.12509122887E+03 0.  0.
        -24    2    1    2    0    0 -0.34630973156E+02 -0.12892002411E+02  0.98558238418E+03  0.98952603139E+03  0.80147506247E+02 0.  0.
        -11    1    3    3    0    0 -0.10659776131E+03 -0.47673337675E+02 -0.20739269750E+04  0.20772118157E+04  0.00000000000E+00 0.  1.
         12    1    3    3    0    0 -0.43044436816E+02  0.21011965648E+02 -0.46395708018E+03  0.46642308958E+03  0.00000000000E+00 0. -1.
         13    1    5    5    0    0 -0.12921116414E+02 -0.44574973007E+02  0.39953514597E+03  0.40222160102E+03  0.00000000000E+00 0. -1.
        -14    1    5    5    0    0 -0.21709856741E+02  0.31682970596E+02  0.58604723821E+03  0.58730443036E+03  0.00000000000E+00 0.  1.
          5    1    4    4  501    0  0.52909830348E+02  0.69502235310E+02  0.38004281511E+02  0.95350976259E+02  0.41800000000E+01 0. -1.
         -5    1    4    4    0  501  0.13136334093E+03 -0.29948860871E+02  0.49039590854E+01  0.13488803810E+03  0.41800000000E+01 0. -1.
</event>
<event>
11    1  0.7105277E-009  0.1534631E+03  0.7561462E-02  0.1093392E+00
         22   -1    0    0    0    0  0.00000000000E+00  0.00000000000E+00  0.20274161099E+04  0.20274161099E+04  0.00000000000E+00 0.  1.
         22   -1    0    0    0    0 -0.00000000000E+00 -0.00000000000E+00 -0.15949370534E+04  0.15949370534E+04  0.00000000000E+00 0. -1.
        -24    2    1    2    0    0  0.33602774557E+02  0.36534731655E+01 -0.15819908042E+04  0.15845245457E+04  0.82949604710E+02 0.  0.
         25    2    1    2    0    0 -0.10757534066E+03 -0.37649012135E+02  0.78964559289E+03  0.80757572902E+03  0.12509393948E+03 0.  0.
         24    2    1    2    0    0  0.73972566106E+02  0.33995538970E+02  0.12248242679E+04  0.12302528886E+04  0.81853805487E+02 0.  0.
        -13    1    5    5    0    0  0.67970821429E+02  0.49484080848E+02  0.11687482459E+04  0.11717683939E+04  0.00000000000E+00 0.  1.
         14    1    5    5    0    0  0.60017446769E+01 -0.15488541879E+02  0.56076022022E+02  0.58484494651E+02  0.00000000000E+00 0. -1.
         11    1    3    3    0    0  0.35203998221E+02 -0.34653668361E+02 -0.10448837251E+04  0.10460507622E+04  0.00000000000E+00 0. -1.
        -12    1    3    3    0    0 -0.16012236637E+01  0.38307141526E+02 -0.53710707916E+03  0.53847378348E+03  0.00000000000E+00 0.  1.
          5    1    4    4  501    0 -0.78903634073E+02 -0.14372961689E+02  0.74573871870E+03  0.75005071459E+03  0.41800000000E+01 0.  1.
         -5    1    4    4    0  501 -0.28671706590E+02 -0.23276050446E+02  0.43906874191E+02  0.57525014423E+02  0.41800000000E+01 0.  1.
</event>
<event>
11    1  0.7105277E-009  0.1583349E+03  0.7561462E-02  0.1088654E+00
         22   -1    0    0    0    0  0.00000000000E+00  0.00000000000E+00  0.83496123738E+03  0.83496123738E+03  0.00000000000E+00 0. -1.
         22   -1    0    0    0    0 -0.00000000000E+00 -0.00000000000E+00 -0.14332046499E+03  0.14332046499E+03  0.00000000000E+00 0. -1.
         24    2    1    2    0    0  0.74297947991E+02  0.62454837973E+02 -0.92662147816E+02  0.15696211742E+03  0.81425062515E+02 0.  0.
         25    2    1    2    0    0 -0.88419866276E+02 -0.45656928318E+02  0.47517234481E+03  0.50133690410E+03  0.12508919332E+03 0.  0.
        -24    2    1    2    0    0  0.14121918285E+02 -0.16797909655E+02  0.30913057540E+03  0.31998268086E+03  0.79659306144E+02 0.  0.
        -11    1    3    3    0    0  0.21864699980E+02 -0.81030447678E+01 -0.57922000890E+02  0.62439431667E+02  0.00000000000E+00 0.  1.
         12    1    3    3    0    0  0.52433248012E+02  0.70557882741E+02 -0.34740146926E+02  0.94522685755E+02  0.00000000000E+00 0. -1.
         13    1    5    5    0    0  0.37966795029E+02  0.32740438891E+01  0.25234029340E+03  0.25520152931E+03  0.00000000000E+00 0. -1.
        -14    1    5    5    0    0 -0.23844876745E+02 -0.20071953544E+02  0.56790281997E+02  0.64781151544E+02  0.00000000000E+00 0.  1.
          5    1    4    4  501    0 -0.40528262886E+02 -0.41330935539E+02  0.43409073875E+03  0.43795322603E+03  0.41800000000E+01 0. -1.
         -5    1    4    4    0  501 -0.47891603390E+02 -0.43259927791E+01  0.41081606059E+02  0.63383678066E+02  0.41800000000E+01 0. -1.
</event>
<event>
11    1  0.1924497E-008  0.1787994E+03  0.7561462E-02  0.1070618E+00
         22   -1    0    0    0    0  0.00000000000E+00  0.00000000000E+00  0.20585968819E+03  0.20585968819E+03  0.00000000000E+00 0. -1.
         22   -1    0    0    0    0 -0.00000000000E+00 -0.00000000000E+00 -0.20804282490E+04  0.20804282490E+04  0.00000000000E+00 0. -1.
         24    2    1    2    0    0  0.62742857889E+02 -0.94455428319E+02 -0.15855706160E+04  0.15916233252E+04  0.79825664793E+02 0.  0.
         25    2    1    2    0    0  0.68169434936E+02  0.72858336959E+02 -0.44582872756E+03  0.47367323556E+03  0.12509064972E+03 0.  0.
        -24    2    1    2    0    0 -0.13091229282E+03  0.21597091360E+02  0.15683078271E+03  0.22099137650E+03  0.81466749736E+02 0.  0.
        -11    1    3    3    0    0  0.88820872795E+01 -0.30220646888E+02 -0.13473485837E+03  0.13836784682E+03  0.00000000000E+00 0.  1.
         12    1    3    3    0    0  0.53860770610E+02 -0.64234781431E+02 -0.14508357576E+04  0.14532554784E+04  0.00000000000E+00 0. -1.
         13    1    5    5    0    0 -0.82724523631E+02  0.39325889379E+02  0.54716238242E+02  0.10669460676E+03  0.00000000000E+00 0. -1.
        -14    1    5    5    0    0 -0.48187769194E+02 -0.17728798019E+02  0.10211454447E+03  0.11429676973E+03  0.00000000000E+00 0.  1.
          5    1    4    4  501    0 -0.20075681390E+02  0.68511558268E+02 -0.20485422201E+03  0.21697831983E+03  0.41800000000E+01 0.  1.
         -5    1    4    4    0  501  0.88245116325E+02  0.43467786913E+01 -0.24097450555E+03  0.25669491573E+03  0.41800000000E+01 0.  1.
</event>
<event>
11    1  0.7105277E-009  0.1404815E+03  0.7561462E-02  0.1107022E+00
         22   -1    0    0    0    0  0.00000000000E+00  0.00000000000E+00  0.77072647602E+03  0.77072647602E+03  0.00000000000E+00 0.  1.
         22   -1    0    0    0    0 -0.00000000000E+00 -0.00000000000E+00 -0.15630965740E+03  0.15630965740E+03  0.00000000000E+00 0. -1.
        -24    2    1    2    0    0  0.29705194587E+02 -0.24059752096E+02 -0.10785737375E+03  0.14003538907E+03  0.80718194126E+02 0.  0.
         25    2    1    2    0    0 -0.51796535658E+02  0.78631213896E+02  0.19514629914E+03  0.25018975820E+03  0.12508832133E+03 0.  0.
         24    2    1    2    0    0  0.22091341070E+02 -0.54571461800E+02  0.52712789323E+03  0.53681098614E+03  0.82680996758E+02 0.  0.
        -13    1    5    5    0    0  0.53694986470E+02 -0.35213787244E+02  0.35119966837E+03  0.35702152519E+03  0.00000000000E+00 0.  1.
         14    1    5    5    0    0 -0.31603645399E+02 -0.19357674557E+02  0.17592822486E+03  0.17978946095E+03  0.00000000000E+00 0. -1.
         13    1    3    3    0    0  0.21266768658E+02 -0.19170333342E+02 -0.12062082302E+03  0.12397241659E+03  0.00000000000E+00 0. -1.
        -14    1    3    3    0    0  0.84384259295E+01 -0.48894187535E+01  0.12763449263E+02  0.16062972483E+02  0.00000000000E+00 0.  1.
          5    1    4    4  501    0 -0.52152146709E+02  0.11140902057E+03  0.16117907597E+03  0.20280035306E+03  0.41800000000E+01 0.  1.
         -5    1    4    4    0  501  0.35561105105E+00 -0.32777806671E+02  0.33967223171E+02  0.47389405138E+02  0.41800000000E+01 0.  1.
</event>
<event>
11    1  0.7105277E-009  0.1354684E+03  0.7561462E-02  0.1112727E+00
         22   -1    0    0    0    0  0.00000000000E+00  0.00000000000E+00  0.28052928668E+03  0.28052928668E+03  0.00000000000E+00 0.  1.
         22   -1    0    0    0    0 -0.00000000000E+00 -0.00000000000E+00 -0.44750940653E+03  0.44750940653E+03  0.00000000000E+00 0. -1.
        -24    2    1    2    0    0 -0.29391278929E+01 -0.22875682547E+02 -0.35295790706E+03  0.36241551332E+03  0.78954321078E+02 0.  0.
         25    2    1    2    0    0 -0.43207809815E+02 -0.45157131458E+01 -0.23581949596E+02  0.13450126063E+03  0.12508866563E+03 0.  0.
         24    2    1    2    0    0  0.46146937708E+02  0.27391395693E+02  0.20955973680E+03  0.23112191926E+03  0.81377084342E+02 0.  0.
        -11    1    5    5    0    0 -0.81251025951E+01 -0.18637773444E+02  0.87511753932E+02  0.89842589941E+02  0.00000000000E+00 0.  1.
         12    1    5    5    0    0  0.54272040303E+02  0.46029169136E+02  0.12204798287E+03  0.14127932932E+03  0.00000000000E+00 0. -1.
         13    1    3    3    0    0  0.29399575624E+01 -0.45001736983E+02 -0.31405269451E+03  0.31727416317E+03  0.00000000000E+00 0. -1.
        -14    1    3    3    0    0 -0.58790854553E+01  0.22126054436E+02 -0.38905212543E+02  0.45141350154E+02  0.00000000000E+00 0.  1.
          5    1    4    4  501    0 -0.85762322166E+02 -0.18643428423E+01 -0.30430098552E+02  0.91115942488E+02  0.41800000000E+01 0.  1.
         -5    1    4    4    0  501  0.42554512352E+02 -0.26513703034E+01  0.68481489564E+01  0.43385318140E+02  0.41800000000E+01 0.  1.
</event>
<event>
11    1  0.7105277E-009  0.1256105E+03  0.7561462E-02  0.1124783E+00
         22   -1    0    0    0    0  0.00000000000E+00  0.00000000000E+00  0.87478540477E+02  0.87478540477E+02  0.00000000000E+00 0. -1.
         22   -1    0    0    0    0 -0.00000000000E+00 -0.00000000000E+00 -0.94061483620E+03  0.94061483620E+03  0.00000000000E+00 0.  1.
         24    2    1    2    0    0 -0.77542714916E+01  0.81693027706E+01 -0.80876227002E+03  0.81282155612E+03  0.80346788699E+02 0.  0.
         25    2    1    2    0    0  0.20956126354E+02  0.17697245869E+01 -0.43813207320E+02  0.13420395920E+03  0.12509522122E+03 0.  0.
        -24    2    1    2    0    0 -0.13201854862E+02 -0.99390273575E+01 -0.56081838433E+00  0.81067861353E+02  0.79363785132E+02 0.  0.
        -13    1    3    3    0    0 -0.38062712400E+02 -0.13720878263E+02 -0.53347603638E+03  0.53500814383E+03  0.00000000000E+00 0.  1.
         14    1    3    3    0    0  0.30308440909E+02  0.21890181034E+02 -0.27528623364E+03  0.27781341229E+03  0.00000000000E+00 0. -1.
         13    1    5    5    0    0 -0.12440861839E+02 -0.87077773763E+01  0.38807572747E+02  0.41672870463E+02  0.00000000000E+00 0. -1.
        -14    1    5    5    0    0 -0.76099302304E+00 -0.12312499813E+01 -0.39368391132E+02  0.39394990889E+02  0.00000000000E+00 0.  1.
          5    1    4    4  501    0  0.10166068585E+02  0.59835747965E+02 -0.49043239849E+00  0.60838956344E+02  0.41800000000E+01 0. -1.
         -5    1    4    4    0  501  0.10790057769E+02 -0.58066023379E+02 -0.43322774922E+02  0.73365002860E+02  0.41800000000E+01 0. -1.
</event>
<event>
11    1  0.7105277E-009  0.1352409E+03  0.7561462E-02  0.1112992E+00
         22   -1    0    0    0    0  0.00000000000E+00  0.00000000000E+00  0.24611168471E+03  0.24611168471E+03  0.00000000000E+00 0.  1.
         22   -1    0    0    0    0 -0.00000000000E+00 -0.00000000000E+00 -0.26126870863E+03  0.26126870863E+03  0.00000000000E+00 0.  1.
         24    2    1    2    0    0  0.33534440831E+02  0.23236283073E+02 -0.14541293310E+03  0.17202788399E+03  0.82366183497E+02 0.  0.
         25    2    1    2    0    0  0.86278296813E+01 -0.54893261245E+02 -0.38595286346E+02  0.14221421534E+03  0.12509027676E+03 0.  0.
        -24    2    1    2    0    0 -0.42162270512E+02  0.31656978172E+02  0.16885119552E+03  0.19313829402E+03  0.77536140389E+02 0.  0.
        -13    1    3    3    0    0  0.36264448553E+02  0.51664054864E+02 -0.94256527612E+02  0.11343975402E+03  0.00000000000E+00 0.  1.
         14    1    3    3    0    0 -0.27300077220E+01 -0.28427771791E+02 -0.51156405488E+02  0.58588129972E+02  0.00000000000E+00 0. -1.
         11    1    5    5    0    0 -0.24097884886E+02 -0.19198481035E+02  0.25599479198E+02  0.40057746632E+02  0.00000000000E+00 0. -1.
        -12    1    5    5    0    0 -0.18064385626E+02  0.50855459207E+02  0.14325171632E+03  0.15308054739E+03  0.00000000000E+00 0.  1.
          5    1    4    4  501    0  0.14054243767E+02 -0.79635513933E+02  0.15400748859E+02  0.82425677508E+02  0.41800000000E+01 0. -1.
         -5    1    4    4    0  501 -0.54264140859E+01  0.24742252688E+02 -0.53996035205E+02  0.59788537829E+02  0.41800000000E+01 0. -1.
</event>
<event>
11    1  0.7105277E-009  0.2233029E+03  0.7561462E-02  0.1039168E+00
         22   -1    0    0    0    0  0.00000000000E+00  0.00000000000E+00  0.31909275800E+03  0.31909275800E+03  0.00000000000E+00 0. -1.
         22   -1    0    0    0    0 -0.00000000000E+00 -0.00000000000E+00 -0.16031117017E+04  0.16031117017E+04  0.00000000000E+00 0. -1.
         24    2    1    2    0    0 -0.14145851686E+03  0.11663377738E+03 -0.94470706692E+03  0.96610352010E+03  0.85267926123E+02 0.  0.
         25    2    1    2    0    0  0.19843575760E+03 -0.43674061155E+02 -0.61203238766E+03  0.65689794300E+03  0.12508833062E+03 0.  0.
        -24    2    1    2    0    0 -0.56977240732E+02 -0.72959716222E+02  0.27272051084E+03  0.29920299665E+03  0.81095191072E+02 0.  0.
        -13    1    3    3    0    0 -0.44600231203E+02  0.37730132448E+02 -0.13913028171E+03  0.15089724585E+03  0.00000000000E+00 0.  1.
         14    1    3    3    0    0 -0.96858285661E+02  0.78903644929E+02 -0.80557678522E+03  0.81520627424E+03  0.00000000000E+00 0. -1.
         13    1    5    5    0    0 -0.24827688136E+02  0.13535106388E+02  0.41197489117E+02  0.49968453174E+02  0.00000000000E+00 0. -1.
        -14    1    5    5    0    0 -0.32149552597E+02 -0.86494822610E+02  0.23152302173E+03  0.24923454347E+03  0.00000000000E+00 0.  1.
          5    1    4    4  501    0 -0.49945116163E+01  0.23453713824E+02 -0.61807141418E+02  0.66427531707E+02  0.41800000000E+01 0. -1.
         -5    1    4    4    0  501  0.20343026921E+03 -0.67127774979E+02 -0.55022524624E+03  0.59047041129E+03  0.41800000000E+01 0. -1.
</event>
<event>
11    1  0.7105277E-009  0.1518607E+03  0.7561462E-02  0.1094993E+00
         22   -1    0    0    0    0  0.00000000000E+00  0.00000000000E+00  0.55280479942E+03  0.55280479942E+03  0.00000000000E+00 0. -1.
         22   -1    0    0    0    0 -0.00000000000E+00 -0.00000000000E+00 -0.19973294656E+04  0.19973294656E+04  0.00000000000E+00 0.  1.
         24    2    1    2    0    0  0.69978599361E+01  0.85380655854E+02 -0.19044921340E+04  0.19081601752E+04  0.81523856714E+02 0.  0.
         25    2    1    2    0    0 -0.25338112505E+02 -0.10251269228E+03 -0.10407717696E+02  0.16403505803E+03  0.12509319587E+03 0.  0.
        -24    2    1    2    0    0  0.18340252569E+02  0.17132036422E+02  0.47037518558E+03  0.47793903174E+03  0.80889006122E+02 0.  0.
        -13    1    3    3    0    0  0.36895113639E+02  0.79700297171E+02 -0.14152734557E+04  0.14179958890E+04  0.00000000000E+00 0.  1.
         14    1    3    3    0    0 -0.29897253703E+02  0.56803586822E+01 -0.48921867833E+03  0.49016428622E+03  0.00000000000E+00 0. -1.
         13    1    5    5    0    0 -0.24347808465E+02 -0.88305995325E+01  0.27719299321E+03  0.27840034258E+03  0.00000000000E+00 0. -1.
        -14    1    5    5    0    0  0.42688061034E+02  0.25962635955E+02  0.19318219238E+03  0.19953868916E+03  0.00000000000E+00 0.  1.
          5    1    4    4  501    0  0.44057276441E+02 -0.22131130149E+02 -0.27165298169E+02  0.56446933962E+02  0.41800000000E+01 0.  1.
         -5    1    4    4    0  501 -0.69395388946E+02 -0.80381562127E+02  0.16757580474E+02  0.10758812407E+03  0.41800000000E+01 0.  1.
</event>
<event>
11    1  0.7105277E-009  0.2064799E+03  0.7561462E-02  0.1050034E+00
         22   -1    0    0    0    0  0.00000000000E+00  0.00000000000E+00  0.25363579205E+03  0.25363579205E+03  0.00000000000E+00 0. -1.
         22   -1    0    0    0    0 -0.00000000000E+00 -0.00000000000E+00 -0.97794301181E+03  0.97794301181E+03  0.00000000000E+00 0.  1.
         24    2    1    2    0    0  0.76324666535E+02  0.24354452674E+02 -0.80011804615E+03  0.80810279782E+03  0.80141437330E+02 0.  0.
         25    2    1    2    0    0 -0.21502129269E+03 -0.34109679422E+02  0.16135784471E+02  0.25160665123E+03  0.12509163387E+03 0.  0.
        -24    2    1    2    0    0  0.13869662616E+03  0.97552267482E+01  0.59675041914E+02  0.17186935480E+03  0.81523284630E+02 0.  0.
        -11    1    3    3    0    0  0.29113521428E+02 -0.29502395577E+02 -0.26790104562E+03  0.27108847028E+03  0.00000000000E+00 0.  1.
         12    1    3    3    0    0  0.47211145108E+02  0.53856848251E+02 -0.53221700053E+03  0.53701432754E+03  0.00000000000E+00 0. -1.
         11    1    5    5    0    0  0.93374478504E+02  0.40740547517E+02  0.19219836730E+02  0.10367250152E+03  0.00000000000E+00 0. -1.
        -12    1    5    5    0    0  0.45322147654E+02 -0.30985320769E+02  0.40455205185E+02  0.68196853282E+02  0.00000000000E+00 0.  1.
          5    1    4    4  501    0 -0.54897134690E+02 -0.94941776203E+01  0.61727897360E+02  0.83256474333E+02  0.41800000000E+01 0.  1.
         -5    1    4    4    0  501 -0.16012415800E+03 -0.24615501802E+02 -0.45592112889E+02  0.16835017690E+03  0.41800000000E+01 0.  1.
</event>
<event>
11    1  0.7105277E-009  0.1793452E+03  0.7561462E-02  0.1070174E+00
         22   -1    0    0    0    0  0.00000000000E+00  0.00000000000E+00  0.98374998904E+03  0.98374998904E+03  0.00000000000E+00 0.  1.
         22   -1    0    0    0    0 -0.00000000000E+00 -0.00000000000E+00 -0.23702964713E+03  0.23702964713E+03  0.00000000000E+00 0. -1.
         24    2    1    2    0    0  0.54551448305E+02 -0.11681546056E+03 -0.18861880591E+03  0.24226594945E+03  0.80585507246E+02 0.  0.
         25    2    1    2    0    0 -0.48475526082E+02  0.11231828156E+03  0.39434536099E+03  0.43141727017E+03  0.12508926519E+03 0.  0.
        -24    2    1    2    0    0 -0.60759222227E+01  0.44971789961E+01  0.54099378684E+03  0.54709641655E+03  0.81136121167E+02 0.  0.
        -13    1    3    3    0    0 -0.19942887300E+02 -0.12472604372E+02 -0.23896270328E+02  0.33530826851E+02  0.00000000000E+00 0.  1.
         14    1    3    3    0    0  0.74494335605E+02 -0.10434285619E+03 -0.16472253559E+03  0.20873512259E+03  0.00000000000E+00 0. -1.
         13    1    5    5    0    0  0.19911296881E+02 -0.53512856720E+01  0.37158759754E+02  0.42495522449E+02  0.00000000000E+00 0. -1.
        -14    1    5    5    0    0 -0.25987219103E+02  0.98484646681E+01  0.50383502708E+03  0.50460089410E+03  0.00000000000E+00 0.  1.
          5    1    4    4  501    0  0.13402178227E+02  0.10886042497E+03  0.28874017162E+03  0.30889896343E+03  0.41800000000E+01 0. -1.
         -5    1    4    4    0  501 -0.61877704308E+02  0.34578565907E+01  0.10560518938E+03  0.12251830674E+03  0.41800000000E+01 0. -1.
</event>
<event>
11    1  0.7105277E-009  0.1511722E+03  0.7561462E-02  0.1095687E+00
         22   -1    0    0    0    0  0.00000000000E+00  0.00000000000E+00  0.21240703985E+04  0.21240703985E+04  0.00000000000E+00 0.  1.
         22   -1    0    0    0    0 -0.00000000000E+00 -0.00000000000E+00 -0.18115931467E+03  0.18115931467E+03  0.00000000000E+00 0. -1.
        -24    2    1    2    0    0  0.20945881498E+01  0.43022559029E+02 -0.11515839473E+03  0.14907162926E+03  0.84294524654E+02 0.  0.
         25    2    1    2    0    0 -0.32679255888E+02  0.37646367659E+02  0.48457992018E+02  0.14310840197E+03  0.12508658985E+03 0.  0.
         24    2    1    2    0    0  0.30584667738E+02 -0.80668926688E+02  0.20096114865E+04  0.20130496819E+04  0.79923697760E+02 0.  0.
        -11    1    5    5    0    0  0.48189145515E+02 -0.75641046044E+02  0.18815227451E+04  0.18836590992E+04  0.00000000000E+00 0.  1.
         12    1    5    5    0    0 -0.17604477777E+02 -0.50278806440E+01  0.12808874138E+03  0.12939058270E+03  0.00000000000E+00 0. -1.
         11    1    3    3    0    0  0.82014336646E+01  0.13560069027E+02 -0.11780554859E+03  0.11886667432E+03  0.00000000000E+00 0. -1.
        -12    1    3    3    0    0 -0.61068455148E+01  0.29462490003E+02  0.26471538510E+01  0.30204954938E+02  0.00000000000E+00 0.  1.
          5    1    4    4  501    0 -0.60387059841E+02  0.11700988956E+02  0.74637718038E+02  0.96807910280E+02  0.41800000000E+01 0.  1.
         -5    1    4    4    0  501  0.27707803954E+02  0.25945378703E+02 -0.26179726020E+02  0.46300491687E+02  0.41800000000E+01 0.  1.
</event>
<event>
11    1  0.7105277E-009  0.1291979E+03  0.7561462E-02  0.1120258E+00
         22   -1    0    0    0    0  0.00000000000E+00  0.00000000000E+00  0.27165486861E+03  0.27165486861E+03  0.00000000000E+00 0.  1.
         22   -1    0    0    0    0 -0.00000000000E+00 -0.00000000000E+00 -0.64441115412E+03  0.64441115412E+03  0.00000000000E+00 0.  1.
        -24    2    1    2    0    0 -0.28076301510E+02  0.15621768203E+02 -0.53042505107E+03  0.53734923494E+03  0.79756800008E+02 0.  0.
         25    2    1    2    0    0  0.22566982242E+02 -0.29946479409E+02 -0.61394700480E+02  0.14430208742E+03  0.12509085846E+03 0.  0.
         24    2    1    2    0    0  0.55093192673E+01  0.14324711206E+02  0.21906346603E+03  0.23441470037E+03  0.82011582404E+02 0.  0.
        -13    1    5    5    0    0 -0.26255556155E+02  0.20509831255E+02  0.18279941108E+03  0.18581074269E+03  0.00000000000E+00 0.  1.
         14    1    5    5    0    0  0.31764875422E+02 -0.61851200499E+01  0.36264054957E+02  0.48603957684E+02  0.00000000000E+00 0. -1.
         13    1    3    3    0    0 -0.33135917294E+02 -0.26791426917E+02 -0.29811259934E+03  0.30114264304E+03  0.00000000000E+00 0. -1.
        -14    1    3    3    0    0  0.50596157841E+01  0.42413195120E+02 -0.23231245173E+03  0.23620659191E+03  0.00000000000E+00 0.  1.
          5    1    4    4  501    0  0.47130755262E+02 -0.55910433417E+02 -0.75922886216E+02  0.10549427334E+03  0.41800000000E+01 0. -1.
         -5    1    4    4    0  501 -0.24563773020E+02  0.25963954008E+02  0.14528185736E+02  0.38807814078E+02  0.41800000000E+01 0. -1.
</event>
<event>
11    1  0.7105277E-009  0.3430203E+03  0.7561462E-02  0.9834669E-01
         22   -1    0    0    0    0  0.00000000000E+00  0.00000000000E+00  0.48480754014E+03  0.48480754014E+03  0.00000000000E+00 0.  1.
         22   -1    0    0    0    0 -0.00000000000E+00 -0.00000000000E+00 -0.23923563015E+04  0.23923563015E+04  0.00000000000E+00 0.  1.
        -24    2    1    2    0    0  0.31140578360E+03 -0.11238570057E+03 -0.21916040848E+04  0.22179152115E+04  0.80095649409E+02 0.  0.
         25    2    1    2    0    0 -0.43527490598E+02  0.24909860565E+03  0.12032266334E+03  0.30671770711E+03  0.12511375130E+03 0.  0.
         24    2    1    2    0    0 -0.26787829300E+03 -0.13671290509E+03  0.16373266013E+03  0.35253092303E+03  0.83788241540E+02 0.  0.
        -13    1    5    5    0    0 -0.12963638681E+03 -0.22947645925E+02  0.86644883511E+02  0.15760559342E+03  0.00000000000E+00 0.  1.
         14    1    5    5    0    0 -0.13824190620E+03 -0.11376525916E+03  0.77087776620E+02  0.19492532961E+03  0.00000000000E+00 0. -1.
         11    1    3    3    0    0  0.22310804924E+02 -0.27786113721E+02 -0.14790746003E+03  0.15213959664E+03  0.00000000000E+00 0. -1.
        -12    1    3    3    0    0  0.28909497868E+03 -0.84599586846E+02 -0.20436966248E+04  0.20657756149E+04  0.00000000000E+00 0.  1.
          5    1    4    4  501    0  0.38482646781E+02  0.32908896000E+02  0.24208902746E+02  0.56280128921E+02  0.41800000000E+01 0. -1.
         -5    1    4    4    0  501 -0.82010137378E+02  0.21618970965E+03  0.96113760592E+02  0.25043757819E+03  0.41800000000E+01 0. -1.
</event>
<event>
11    1  0.7105277E-009  0.1487430E+03  0.7561462E-02  0.1098170E+00
         22   -1    0    0    0    0  0.00000000000E+00  0.00000000000E+00  0.38404914533E+03  0.38404914533E+03  0.00000000000E+00 0.  1.
         22   -1    0    0    0    0 -0.00000000000E+00 -0.00000000000E+00 -0.13629899147E+04  0.13629899147E+04  0.00000000000E+00 0.  1.
         24    2    1    2    0    0 -0.46958823687E+02 -0.16636840840E+02 -0.95723302624E+03  0.96246287400E+03  0.86935618240E+02 0.  0.
         25    2    1    2    0    0  0.28282542499E+02  0.94784121810E+02 -0.37829654669E+03  0.41053795048E+03  0.12509676092E+03 0.  0.
        -24    2    1    2    0    0  0.18676281189E+02 -0.78147280970E+02  0.35658880352E+03  0.37403823558E+03  0.79329854896E+02 0.  0.
        -13    1    3    3    0    0 -0.33817117433E+02 -0.31962952201E+02 -0.90880003929E+03  0.90999051597E+03  0.00000000000E+00 0.  1.
         14    1    3    3    0    0 -0.13141706254E+02  0.15326111361E+02 -0.48432986953E+02  0.52472358037E+02  0.00000000000E+00 0. -1.
         11    1    5    5    0    0 -0.16797384302E+01 -0.16154103297E+02  0.58204742435E+01  0.17252666314E+02  0.00000000000E+00 0. -1.
        -12    1    5    5    0    0  0.20356019619E+02 -0.61993177673E+02  0.35076832928E+03  0.35678556927E+03  0.00000000000E+00 0.  1.
          5    1    4    4  501    0 -0.26577195612E+02  0.13718610220E+02 -0.23510839576E+03  0.23704003407E+03  0.41800000000E+01 0. -1.
         -5    1    4    4    0  501  0.54859738111E+02  0.81065511590E+02 -0.14318815093E+03  0.17349791642E+03  0.41800000000E+01 0. -1.
</event>
<event>
11    1  0.7105277E-009  0.1336881E+03  0.7561462E-02  0.1114819E+00
         22   -1    0    0    0    0  0.00000000000E+00  0.00000000000E+00  0.54936436625E+03  0.54936436625E+03  0.00000000000E+00 0.  1.
         22   -1    0    0    0    0 -0.00000000000E+00 -0.00000000000E+00 -0.32654792685E+03  0.32654792685E+03  0.00000000000E+00 0. -1.
        -24    2    1    2    0    0 -0.23331038143E+02 -0.37876070852E+02 -0.26504668823E+03  0.28102555151E+03  0.82138173663E+02 0.  0.
         25    2    1    2    0    0  0.32025159645E+02  0.83573968714E+02  0.73473230129E+02  0.17045871218E+03  0.12509051889E+03 0.  0.
         24    2    1    2    0    0 -0.86941215014E+01 -0.45697897862E+02  0.41438989751E+03  0.42442802941E+03  0.79096645786E+02 0.  0.
        -11    1    5    5    0    0  0.33922430124E+02 -0.91775941590E+01  0.18151367027E+03  0.18488421240E+03  0.00000000000E+00 0.  1.
         12    1    5    5    0    0 -0.42616551625E+02 -0.36520303703E+02  0.23287622723E+03  0.23954381700E+03  0.00000000000E+00 0. -1.
         11    1    3    3    0    0 -0.35682902483E+02 -0.47598438550E+02 -0.25614212587E+03  0.26295944464E+03  0.00000000000E+00 0. -1.
        -12    1    3    3    0    0  0.12351864340E+02  0.97223676984E+01 -0.89045623631E+01  0.18066106864E+02  0.00000000000E+00 0.  1.
          5    1    4    4  501    0 -0.12476778132E+02 -0.24726662852E+02  0.39588222770E+02  0.48495129966E+02  0.41800000000E+01 0. -1.
         -5    1    4    4    0  501  0.44501937777E+02  0.10830063157E+03  0.33885007359E+02  0.12196358222E+03  0.41800000000E+01 0. -1.
</event>
<event>
11    1  0.7105277E-009  0.1733423E+03  0.7561462E-02  0.1075159E+00
         22   -1    0    0    0    0  0.00000000000E+00  0.00000000000E+00  0.24353287515E+04  0.24353287515E+04  0.00000000000E+00 0. -1.
         22   -1    0    0    0    0 -0.00000000000E+00 -0.00000000000E+00 -0.30948103765E+03  0.30948103765E+03  0.00000000000E+00 0.  1.
         24    2    1    2    0    0  0.11699643210E+03  0.28138517689E+02 -0.28489116179E+03  0.31911954298E+03  0.78704303237E+02 0.  0.
         25    2    1    2    0    0 -0.99656110223E+02  0.13100859393E+00  0.10506614481E+04  0.10627691122E+04  0.12512933289E+03 0.  0.
        -24    2    1    2    0    0 -0.17340321872E+02 -0.28269526282E+02  0.13600774275E+04  0.13629211339E+04  0.81508009096E+02 0.  0.
        -11    1    3    3    0    0  0.10723188564E+03  0.45943572865E+02 -0.26941375581E+03  0.29358688834E+03  0.00000000000E+00 0.  1.
         12    1    3    3    0    0  0.97645464530E+01 -0.17805055177E+02 -0.15477405978E+02  0.25532654642E+02  0.00000000000E+00 0. -1.
         11    1    5    5    0    0  0.25364918596E+02 -0.96530147442E+01  0.91695600043E+03  0.91735754563E+03  0.00000000000E+00 0. -1.
        -12    1    5    5    0    0 -0.42705240468E+02 -0.18616511538E+02  0.44312142710E+03  0.44556358830E+03  0.00000000000E+00 0.  1.
          5    1    4    4  501    0 -0.54007261008E+02 -0.61778360869E+02  0.59409579061E+03  0.59975047390E+03  0.41800000000E+01 0.  1.
         -5    1    4    4    0  501 -0.45648849215E+02  0.61909369463E+02  0.45656565747E+03  0.46301863833E+03  0.41800000000E+01 0.  1.
</event>
<event>
11    1  0.7105277E-009  0.1572202E+03  0.7561462E-02  0.1089721E+00
         22   -1    0    0    0    0  0.00000000000E+00  0.00000000000E+00  0.46058909361E+03  0.46058909361E+03  0.00000000000E+00 0.  1.
         22   -1    0    0    0    0 -0.00000000000E+00 -0.00000000000E+00 -0.53828903335E+03  0.53828903335E+03  0.00000000000E+00 0. -1.
         24    2    1    2    0    0 -0.47763288896E+02 -0.16184243989E+02 -0.41724380232E+03  0.42734198788E+03  0.77366158725E+02 0.  0.
         25    2    1    2    0    0 -0.42971189325E+02  0.54477490008E+02 -0.57508501760E+02  0.15417934241E+03  0.12509884820E+03 0.  0.
        -24    2    1    2    0    0  0.90734478220E+02 -0.38293246018E+02  0.39705236434E+03  0.41735679667E+03  0.82686138319E+02 0.  0.
        -11    1    3    3    0    0 -0.14737925017E+02  0.12846045972E+02 -0.21099503668E+02  0.28764846357E+02  0.00000000000E+00 0.  1.
         12    1    3    3    0    0 -0.33025363878E+02 -0.29030289961E+02 -0.39614429865E+03  0.39857714152E+03  0.00000000000E+00 0. -1.
         11    1    5    5    0    0  0.78430361474E+02 -0.48322733157E+02  0.20616538664E+03  0.22581092708E+03  0.00000000000E+00 0. -1.
        -12    1    5    5    0    0  0.12304116746E+02  0.10029487139E+02  0.19088697770E+03  0.19154586959E+03  0.00000000000E+00 0.  1.
          5    1    4    4  501    0 -0.43939475396E+02  0.71992124203E+02 -0.85956850237E+02  0.12049728606E+03  0.41800000000E+01 0.  1.
         -5    1    4    4    0  501  0.96828607174E+00 -0.17514634196E+02  0.28448348477E+02  0.33682056350E+02  0.41800000000E+01 0.  1.
</event>
<event>
11    1  0.7105277E-009  0.1615891E+03  0.7561462E-02  0.1085592E+00
         22   -1    0    0    0    0  0.00000000000E+00  0.00000000000E+00  0.73367919409E+03  0.73367919409E+03  0.00000000000E+00 0.  1.
         22   -1    0    0    0    0 -0.00000000000E+00 -0.00000000000E+00 -0.39616646396E+03  0.39616646396E+03  0.00000000000E+00 0.  1.
         24    2    1    2    0    0  0.33890298001E+02  0.44488480179E+02 -0.32550992088E+03  0.33920860757E+03  0.77317486329E+02 0.  0.
         25    2    1    2    0    0  0.22119108534E+02 -0.12750439939E+03  0.85836363805E+02  0.19940902710E+03  0.12509776940E+03 0.  0.
        -24    2    1    2    0    0 -0.56009406535E+02  0.83015919213E+02  0.57718628720E+03  0.59122802338E+03  0.79861561637E+02 0.  0.
        -11    1    3    3    0    0  0.22132710280E+02  0.12821416215E+02 -0.28636047992E+03  0.28750055659E+03  0.00000000000E+00 0.  1.
         12    1    3    3    0    0  0.11757587721E+02  0.31667063964E+02 -0.39149440960E+02  0.51708050984E+02  0.00000000000E+00 0. -1.
         11    1    5    5    0    0 -0.12900011199E+02  0.19634071443E+02  0.27264802024E+02  0.35989949705E+02  0.00000000000E+00 0. -1.
        -12    1    5    5    0    0 -0.43109395336E+02  0.63381847770E+02  0.54992148518E+03  0.55523807367E+03  0.00000000000E+00 0.  1.
          5    1    4    4  501    0 -0.48213148856E+02 -0.66773184771E+02  0.62594411899E+02  0.10353114859E+03  0.41800000000E+01 0.  1.
         -5    1    4    4    0  501  0.70332257390E+02 -0.60731214621E+02  0.23241951906E+02  0.95877878508E+02  0.41800000000E+01 0.  1.
</event>
<event>
11    1  0.7105277E-009  0.1356432E+03  0.7561462E-02  0.1112523E+00
         22   -1    0    0    0    0  0.00000000000E+00  0.00000000000E+00  0.18540722788E+03  0.18540722788E+03  0.00000000000E+00 0.  1.
         22   -1    0    0    0    0 -0.00000000000E+00 -0.00000000000E+00 -0.50866422257E+03  0.50866422257E+03  0.00000000000E+00 0. -1.
        -24    2    1    2    0    0  0.20695958939E+02  0.50369390185E+02 -0.35957959641E+03  0.37248854129E+03  0.80528436287E+02 0.  0.
         25    2    1    2    0    0 -0.31481997131E+02 -0.31811221593E+02 -0.95573438892E+02  0.16366469228E+03  0.12509508109E+03 0.  0.
         24    2    1    2    0    0  0.10786038193E+02 -0.18558168592E+02  0.13189604061E+03  0.15791821688E+03  0.84147807181E+02 0.  0.
        -13    1    5    5    0    0  0.17181777661E+02  0.31118816224E+01  0.13408599560E+03  0.13521816264E+03  0.00000000000E+00 0.  1.
         14    1    5    5    0    0 -0.63957394679E+01 -0.21670050215E+02 -0.21899549948E+01  0.22700054241E+02  0.00000000000E+00 0. -1.
         11    1    3    3    0    0 -0.83490354354E+00 -0.52235167225E+01 -0.22768272329E+03  0.22774416496E+03  0.00000000000E+00 0. -1.
        -12    1    3    3    0    0  0.21530862482E+02  0.55592906908E+02 -0.13189687312E+03  0.14474437632E+03  0.00000000000E+00 0.  1.
          5    1    4    4  501    0  0.32374616472E+02 -0.26787260791E+02  0.68596015274E+01  0.42780832922E+02  0.41800000000E+01 0. -1.
         -5    1    4    4    0  501 -0.63856613603E+02 -0.50239608020E+01 -0.10243304042E+03  0.12088385936E+03  0.41800000000E+01 0. -1.
</event>
<event>
11    1  0.7105277E-009  0.2282767E+03  0.7561462E-02  0.1036153E+00
         22   -1    0    0    0    0  0.00000000000E+00  0.00000000000E+00  0.12516222174E+04  0.12516222174E+04  0.00000000000E+00 0.  1.
         22   -1    0    0    0    0 -0.00000000000E+00 -0.00000000000E+00 -0.47849409811E+03  0.47849409811E+03  0.00000000000E+00 0.  1.
         24    2    1    2    0    0  0.12003720944E+02 -0.19278297598E+03 -0.39608802382E+03  0.44969432635E+03  0.89609705893E+02 0.  0.
         25    2    1    2    0    0 -0.87529944325E+02  0.16469373402E+03  0.18814440771E+03  0.29295637748E+03  0.12505840146E+03 0.  0.
        -24    2    1    2    0    0  0.75526223381E+02  0.28089241965E+02  0.98107173535E+03  0.98746561163E+03  0.78060030204E+02 0.  0.
        -11    1    3    3    0    0 -0.30860314107E+02 -0.13012241903E+03 -0.28882095892E+03  0.31827935722E+03  0.00000000000E+00 0.  1.
         12    1    3    3    0    0  0.42864035051E+02 -0.62660556951E+02 -0.10726706490E+03  0.13141496913E+03  0.00000000000E+00 0. -1.
         11    1    5    5    0    0  0.43620787230E+02 -0.24420923683E+02  0.38391154849E+03  0.38715272394E+03  0.00000000000E+00 0. -1.
        -12    1    5    5    0    0  0.31905436152E+02  0.52510165647E+02  0.59716018686E+03  0.60031288769E+03  0.00000000000E+00 0.  1.
          5    1    4    4  501    0 -0.11608751341E+03  0.15411967650E+03  0.15313175541E+03  0.24636556653E+03  0.41800000000E+01 0.  1.
         -5    1    4    4    0  501  0.28557569083E+02  0.10574057515E+02  0.35012652305E+02  0.46590810957E+02  0.41800000000E+01 0.  1.
</event>
<event>
11    1  0.7105277E-009  0.3789993E+03  0.7561462E-02  0.9713838E-01
         22   -1    0    0    0    0  0.00000000000E+00  0.00000000000E+00  0.79481742730E+03  0.79481742730E+03  0.00000000000E+00 0.  1.
         22   -1    0    0    0    0 -0.00000000000E+00 -0.00000000000E+00 -0.21532973426E+04  0.21532973426E+04  0.00000000000E+00 0. -1.
         24    2    1    2    0    0 -0.12735903054E+03 -0.33982262674E+03 -0.18660960006E+04  0.19027427962E+04  0.80100715128E+02 0.  0.
         25    2    1    2    0    0  0.15886386404E+03  0.28717478417E+03 -0.14868948299E+03  0.38139630571E+03  0.12508995044E+03 0.  0.
        -24    2    1    2    0    0 -0.31504833503E+02  0.52647842573E+02  0.65630556832E+03  0.66397566800E+03  0.79764270343E+02 0.  0.
        -13    1    3    3    0    0 -0.10982760190E+03 -0.18181816170E+03 -0.10325457072E+04  0.10541681950E+04  0.00000000000E+00 0.  1.
         14    1    3    3    0    0 -0.17531428642E+02 -0.15800446504E+03 -0.83355029344E+03  0.84857460112E+03  0.00000000000E+00 0. -1.
         11    1    5    5    0    0 -0.46109775117E+01  0.57680766568E+02  0.24417044927E+03  0.25093333825E+03  0.00000000000E+00 0. -1.
        -12    1    5    5    0    0 -0.26893855991E+02 -0.50329239950E+01  0.41213511905E+03  0.41304232975E+03  0.00000000000E+00 0.  1.
          5    1    4    4  501    0  0.11106816288E+03  0.18847940806E+03 -0.16001067896E+03  0.27107473849E+03  0.41800000000E+01 0.  1.
         -5    1    4    4    0  501  0.47795701160E+02  0.98695376113E+02  0.11321195977E+02  0.11032156722E+03  0.41800000000E+01 0.  1.
</event>
<event>
11    1  0.7105277E-009  0.1416995E+03  0.7561462E-02  0.1105675E+00
         22   -1    0    0    0    0  0.00000000000E+00  0.00000000000E+00  0.28791280463E+04  0.28791280463E+04  0.00000000000E+00 0. -1.
         22   -1    0    0    0    0 -0.00000000000E+00 -0.00000000000E+00 -0.71100943354E+03  0.71100943354E+03  0.00000000000E+00 0. -1.
        -24    2    1    2    0    0 -0.16446805135E+02 -0.37091326784E+02 -0.57716987112E+03  0.58397205202E+03  0.79069801406E+02 0.  0.
         25    2    1    2    0    0  0.51819467184E+02 -0.19561554773E+02 -0.93357587297E+02  0.16560124681E+03  0.12506087412E+03 0.  0.
         24    2    1    2    0    0 -0.35372662049E+02  0.56652881557E+02  0.28386460712E+04  0.28405641810E+04  0.80203333879E+02 0.  0.
        -11    1    5    5    0    0  0.12800078903E+02 -0.33768657359E+01  0.10452686748E+03  0.10536181123E+03  0.00000000000E+00 0.  1.
         12    1    5    5    0    0 -0.48172740952E+02  0.60029747292E+02  0.27341192037E+04  0.27352023698E+04  0.00000000000E+00 0. -1.
         11    1    3    3    0    0 -0.41500892761E+02 -0.36200528799E+02 -0.49523587346E+03  0.49828844332E+03  0.00000000000E+00 0. -1.
        -12    1    3    3    0    0  0.25054087626E+02 -0.89079798459E+00 -0.81933997660E+02  0.85683608703E+02  0.00000000000E+00 0.  1.
          5    1    4    4  501    0  0.89199849404E+02 -0.11472218192E+02 -0.89477406909E+02  0.12693267377E+03  0.41800000000E+01 0. -1.
         -5    1    4    4    0  501 -0.37380382221E+02 -0.80893365808E+01 -0.38801803886E+01  0.38668573042E+02  0.41800000000E+01 0. -1.
</event>
<event>
11    1  0.7105277E-009  0.1298363E+03  0.7561462E-02  0.1119470E+00
         22   -1    0    0    0    0  0.00000000000E+00  0.00000000000E+00  0.84370653680E+02  0.84370653680E+02  0.00000000000E+00 0.  1.
         22   -1    0    0    0    0 -0.00000000000E+00 -0.00000000000E+00 -0.86317171641E+03  0.86317171641E+03  0.00000000000E+00 0. -1.
         24    2    1    2    0    0  0.81213141503E+01 -0.52687469012E+02 -0.61392003956E+03  0.62089713685E+03  0.75983645928E+02 0.  0.
         25    2    1    2    0    0 -0.39953542138E+02  0.33900264267E+02 -0.18625943095E+03  0.23040433999E+03  0.12509224925E+03 0.  0.
        -24    2    1    2    0    0  0.31832227988E+02  0.18787204744E+02  0.21378407776E+02  0.96240893247E+02  0.86249773410E+02 0.  0.
        -13    1    3    3    0    0  0.41316804464E+01 -0.70023453382E+02 -0.38892619497E+03  0.39520113859E+03  0.00000000000E+00 0.  1.
         14    1    3    3    0    0  0.39896337039E+01  0.17335984371E+02 -0.22499384459E+03  0.22569599826E+03  0.00000000000E+00 0. -1.
         11    1    5    5    0    0 -0.12196912332E+02  0.39494674375E+02  0.23482802954E+02  0.47539836022E+02  0.00000000000E+00 0. -1.
        -12    1    5    5    0    0  0.44029140320E+02 -0.20707469630E+02 -0.21043951781E+01  0.48701057225E+02  0.00000000000E+00 0.  1.
          5    1    4    4  501    0 -0.15594142941E+02 -0.46508962665E+02 -0.89853083183E+02  0.10245638028E+03  0.41800000000E+01 0. -1.
         -5    1    4    4    0  501 -0.24359399197E+02  0.80409226932E+02 -0.96406347770E+02  0.12794795972E+03  0.41800000000E+01 0. -1.
</event>
<event>
11    1  0.7105277E-009  0.1493042E+03  0.7561462E-02  0.1097592E+00
         22   -1    0    0    0    0  0.00000000000E+00  0.00000000000E+00  0.34918916766E+03  0.34918916766E+03  0.00000000000E+00 0. -1.
         22   -1    0    0    0    0 -0.00000000000E+00 -0.00000000000E+00 -0.98589169292E+03  0.98589169292E+03  0.00000000000E+00 0.  1.
        -24    2    1    2    0    0  0.21958954596E+02  0.77301863430E+02 -0.89144959262E+03  0.89874328351E+03  0.81236320097E+02 0.  0.
         25    2    1    2    0    0  0.21476993824E+02 -0.12124908144E+03  0.14328399317E+02  0.17611482128E+03  0.12509406954E+03 0.  0.
         24    2    1    2    0    0 -0.43435948420E+02  0.43947218006E+02  0.24041866804E+03  0.26022275579E+03  0.78081413285E+02 0.  0.
        -13    1    5    5    0    0  0.22975245575E+01  0.21504511892E+01 -0.56537814809E+01  0.64705721882E+01  0.00000000000E+00 0.  1.
         14    1    5    5    0    0 -0.45733472978E+02  0.41796766817E+02  0.24607244952E+03  0.25375218360E+03  0.00000000000E+00 0. -1.
         13    1    3    3    0    0 -0.20645999299E+02  0.29191060177E+02 -0.55882378301E+03  0.55996642376E+03  0.00000000000E+00 0. -1.
        -14    1    3    3    0    0  0.42604953895E+02  0.48110803253E+02 -0.33262580961E+03  0.33877685975E+03  0.00000000000E+00 0.  1.
          5    1    4    4  501    0  0.41396015206E+02 -0.10859981541E+03  0.55202865959E+02  0.12873375157E+03  0.41800000000E+01 0.  1.
         -5    1    4    4    0  501 -0.19919021381E+02 -0.12649266026E+02 -0.40874466642E+02  0.47381069712E+02  0.41800000000E+01 0.  1.
</event>
<event>
11    1  0.7105277E-009  0.2630060E+03  0.7561462E-02  0.1017190E+00
         22   -1    0    0    0    0  0.00000000000E+00  0.00000000000E+00  0.93324160050E+03  0.93324160050E+03  0.00000000000E+00 0.  1.
         22   -1    0    0    0    0 -0.00000000000E+00 -0.00000000000E+00 -0.11029477404E+04  0.11029477404E+04  0.00000000000E+00 0.  1.
         24    2    1    2    0    0  0.17057180574E+02  0.66213501113E+02 -0.87239924687E+03  0.87855269704E+03  0.78097505742E+02 0.  0.
         25    2    1    2    0    0  0.56746058106E+02  0.15870726056E+03 -0.15703105804E+03  0.26213407431E+03  0.12508960812E+03 0.  0.
        -24    2    1    2    0    0 -0.73803238679E+02 -0.22492076167E+03  0.85972416503E+03  0.89550256953E+03  0.82237126790E+02 0.  0.
        -13    1    3    3    0    0  0.29811238452E+02 -0.42054683741E+01 -0.34669289573E+03  0.34799764346E+03  0.00000000000E+00 0.  1.
         14    1    3    3    0    0 -0.12754057879E+02  0.70418969487E+02 -0.52570635114E+03  0.53055505358E+03  0.00000000000E+00 0. -1.
         11    1    5    5    0    0  0.14625450150E+02 -0.27874320681E+02  0.69526361107E+02  0.76320353997E+02  0.00000000000E+00 0. -1.
        -12    1    5    5    0    0 -0.88428688830E+02 -0.19704644099E+03  0.79019780392E+03  0.81918221553E+03  0.00000000000E+00 0.  1.
          5    1    4    4  501    0 -0.33233272495E+02  0.85507495156E+02 -0.87427460079E+02  0.12679517067E+03  0.41800000000E+01 0.  1.
         -5    1    4    4    0  501  0.89979330600E+02  0.73199765400E+02 -0.69603597963E+02  0.13533890364E+03  0.41800000000E+01 0.  1.
</event>
<event>
11    1  0.7105277E-009  0.1335170E+03  0.7561462E-02  0.1115022E+00
         22   -1    0    0    0    0  0.00000000000E+00  0.00000000000E+00  0.47408329660E+03  0.47408329660E+03  0.00000000000E+00 0.  1.
         22   -1    0    0    0    0 -0.00000000000E+00 -0.00000000000E+00 -0.92973421107E+03  0.92973421107E+03  0.00000000000E+00 0.  1.
         24    2    1    2    0    0  0.32664572640E+02 -0.81328217751E+01 -0.86412417747E+03  0.86852105120E+03  0.80530150885E+02 0.  0.
         25    2    1    2    0    0 -0.56704283710E+02 -0.30800705988E+02  0.27121930997E+02  0.14334028784E+03  0.12508708845E+03 0.  0.
        -24    2    1    2    0    0  0.24039711070E+02  0.38933527763E+02  0.38135133200E+03  0.39195616863E+03  0.78147760144E+02 0.  0.
        -13    1    3    3    0    0  0.52071243229E+02 -0.38286297690E+01 -0.79165884509E+03  0.79337872406E+03  0.00000000000E+00 0.  1.
         14    1    3    3    0    0 -0.19406670589E+02 -0.43041920061E+01 -0.72465332378E+02  0.75142327145E+02  0.00000000000E+00 0. -1.
         13    1    5    5    0    0  0.20416208927E+02  0.43803028070E+02  0.10554491039E+03  0.11608296586E+03  0.00000000000E+00 0. -1.
        -14    1    5    5    0    0  0.36235021430E+01 -0.48695003073E+01  0.27580642161E+03  0.27587320277E+03  0.00000000000E+00 0.  1.
          5    1    4    4  501    0  0.36347484590E+02  0.98536213682E+01 -0.95310486115E+00  0.37902695141E+02  0.41800000000E+01 0.  1.
         -5    1    4    4    0  501 -0.93051768300E+02 -0.40654327356E+02  0.28075035858E+02  0.10543759270E+03  0.41800000000E+01 0.  1.
</event>
<event>
11    1  0.7105277E-009  0.3334695E+03  0.7561462E-02  0.9869435E-01
         22   -1    0    0    0    0  0.00000000000E+00  0.00000000000E+00  0.14252874283E+04  0.14252874283E+04  0.00000000000E+00 0. -1.
         22   -1    0    0    0    0 -0.00000000000E+00 -0.00000000000E+00 -0.15246688318E+04  0.15246688318E+04  0.00000000000E+00 0.  1.
         24    2    1    2    0    0 -0.20524082243E+03 -0.20897717917E+03 -0.84310665149E+03  0.89659099365E+03  0.85154726786E+02 0.  0.
         25    2    1    2    0    0  0.22015689345E+03  0.25929500229E+03 -0.60280421610E+03  0.70336541531E+03  0.12508808321E+03 0.  0.
        -24    2    1    2    0    0 -0.14916071014E+02 -0.50317823116E+02  0.13465294641E+04  0.13499998511E+04  0.81262709060E+02 0.  0.
        -13    1    3    3    0    0 -0.71704756309E+02 -0.13375509391E+03 -0.41640837418E+03  0.44320190807E+03  0.00000000000E+00 0.  1.
         14    1    3    3    0    0 -0.13353606612E+03 -0.75222085269E+02 -0.42669827731E+03  0.45338908558E+03  0.00000000000E+00 0. -1.
         11    1    5    5    0    0 -0.24094626251E+02  0.55034317323E+01  0.83250961075E+03  0.83287639585E+03  0.00000000000E+00 0. -1.
        -12    1    5    5    0    0  0.91785552368E+01 -0.55821254849E+02  0.51401985336E+03  0.51712345529E+03  0.00000000000E+00 0.  1.
          5    1    4    4  501    0  0.59799228076E+02  0.15190840484E+03 -0.34099958291E+03  0.37808768703E+03  0.41800000000E+01 0. -1.
         -5    1    4    4    0  501  0.16035766537E+03  0.10738659746E+03 -0.26180463319E+03  0.32527772828E+03  0.41800000000E+01 0. -1.
</event>
<event>
11    1  0.7105277E-009  0.1468071E+03  0.7561462E-02  0.1100187E+00
         22   -1    0    0    0    0  0.00000000000E+00  0.00000000000E+00  0.21991423872E+03  0.21991423872E+03  0.00000000000E+00 0.  1.
         22   -1    0    0    0    0 -0.00000000000E+00 -0.00000000000E+00 -0.10428329602E+04  0.10428329602E+04  0.00000000000E+00 0.  1.
        -24    2    1    2    0    0  0.25008359669E+02 -0.72870338126E+02 -0.90008032577E+03  0.90694944902E+03  0.80481090917E+02 0.  0.
         25    2    1    2    0    0 -0.52566358537E+02  0.60059394155E+02 -0.90458413030E+02  0.17378656093E+03  0.12509472970E+03 0.  0.
         24    2    1    2    0    0  0.27557998868E+02  0.12810943972E+02  0.16762001736E+03  0.18201118893E+03  0.64093986361E+02 0.  0.
        -11    1    5    5    0    0  0.30927793195E+02 -0.19134404474E+02  0.11228877612E+03  0.11803144949E+03  0.00000000000E+00 0.  1.
         12    1    5    5    0    0 -0.33697943269E+01  0.31945348445E+02  0.55331241246E+02  0.63979739441E+02  0.00000000000E+00 0. -1.
         13    1    3    3    0    0  0.91671488107E-01  0.13334706831E+00  0.17844408716E+01  0.17917629102E+01  0.00000000000E+00 0. -1.
        -14    1    3    3    0    0  0.24916688181E+02 -0.73003685195E+02 -0.90186476664E+03  0.90515768611E+03  0.00000000000E+00 0.  1.
          5    1    4    4  501    0 -0.97696256095E+01 -0.33998879782E+02  0.11320607750E+01  0.35638790279E+02  0.41800000000E+01 0.  1.
         -5    1    4    4    0  501 -0.42796732927E+02  0.94058273937E+02 -0.91590473805E+02  0.13814777066E+03  0.41800000000E+01 0.  1.
</event>
<event>
11    1  0.7105277E-009  0.2381915E+03  0.7561462E-02  0.1030385E+00
         22   -1    0    0    0    0  0.00000000000E+00  0.00000000000E+00  0.21585046302E+04  0.21585046302E+04  0.00000000000E+00 0. -1.
         22   -1    0    0    0    0 -0.00000000000E+00 -0.00000000000E+00 -0.25612579400E+04  0.25612579400E+04  0.00000000000E+00 0.  1.
         24    2    1    2    0    0 -0.64329774712E+01  0.18994813761E+03 -0.19895702692E+04  0.20002623736E+04  0.80858078427E+02 0.  0.
         25    2    1    2    0    0 -0.25467397964E+02 -0.34760358169E+03 -0.50151736113E+03  0.62341400595E+03  0.12509404833E+03 0.  0.
        -24    2    1    2    0    0  0.31900375435E+02  0.15765544408E+03  0.20883343205E+04  0.20960861907E+04  0.81019820591E+02 0.  0.
        -11    1    3    3    0    0  0.28605349285E+02  0.14129635887E+03 -0.12561034977E+04  0.12643492096E+04  0.00000000000E+00 0.  1.
         12    1    3    3    0    0 -0.35038326756E+02  0.48651778745E+02 -0.73346677151E+03  0.73591316391E+03  0.00000000000E+00 0. -1.
         11    1    5    5    0    0  0.22442910988E+02  0.15654333000E+03  0.20624776390E+04  0.20685317280E+04  0.00000000000E+00 0. -1.
        -12    1    5    5    0    0  0.94574644470E+01  0.11121140799E+01  0.25856681539E+02  0.27554462645E+02  0.00000000000E+00 0.  1.
          5    1    4    4  501    0 -0.16107976731E+02 -0.27197029435E+03 -0.28709925344E+03  0.39581657577E+03  0.41800000000E+01 0. -1.
         -5    1    4    4    0  501 -0.93594212333E+01 -0.75633287345E+02 -0.21441810769E+03  0.22759743018E+03  0.41800000000E+01 0. -1.
</event>
<event>
11    1  0.7105277E-009  0.1553571E+03  0.7561462E-02  0.1091527E+00
         22   -1    0    0    0    0  0.00000000000E+00  0.00000000000E+00  0.12080119196E+04  0.12080119196E+04  0.00000000000E+00 0. -1.
         22   -1    0    0    0    0 -0.00000000000E+00 -0.00000000000E+00 -0.11343922971E+04  0.11343922971E+04  0.00000000000E+00 0.  1.
        -24    2    1    2    0    0 -0.91866855105E+02  0.68013590363E+01 -0.10724694411E+04  0.10790463549E+04  0.75263246920E+02 0.  0.
         25    2    1    2    0    0  0.93203186860E+02  0.38783158439E+01  0.49613856376E+02  0.16373870938E+03  0.12508778850E+03 0.  0.
         24    2    1    2    0    0 -0.13363317556E+01 -0.10679674880E+02  0.10964752072E+04  0.10996191524E+04  0.82392712963E+02 0.  0.
        -13    1    5    5    0    0  0.19594719793E+02 -0.37282875464E+02  0.37648116751E+03  0.37882982371E+03  0.00000000000E+00 0.  1.
         14    1    5    5    0    0 -0.20931051548E+02  0.26603200584E+02  0.71999403971E+03  0.72078932873E+03  0.00000000000E+00 0. -1.
         13    1    3    3    0    0  0.95985707658E+01  0.14246734742E+02 -0.16481701708E+03  0.16570984018E+03  0.00000000000E+00 0. -1.
        -14    1    3    3    0    0 -0.10146542587E+03 -0.74453757054E+01 -0.90765242404E+03  0.91333651473E+03  0.00000000000E+00 0.  1.
          5    1    4    4  501    0  0.12247872323E+03 -0.48055412985E+01  0.27186063597E+02  0.12562119775E+03  0.41800000000E+01 0. -1.
         -5    1    4    4    0  501 -0.29275536365E+02  0.86838571423E+01  0.22427792779E+02  0.38117511635E+02  0.41800000000E+01 0. -1.
</event>
<event>
11    1  0.7105277E-009  0.1459477E+03  0.7561462E-02  0.1101093E+00
         22   -1    0    0    0    0  0.00000000000E+00  0.00000000000E+00  0.10761523000E+03  0.10761523000E+03  0.00000000000E+00 0.  1.
         22   -1    0    0    0    0 -0.00000000000E+00 -0.00000000000E+00 -0.13236138477E+04  0.13236138477E+04  0.00000000000E+00 0. -1.
         24    2    1    2    0    0 -0.60599200685E+02 -0.43565416211E+02 -0.10685587656E+04  0.10736210252E+04  0.72622733668E+02 0.  0.
         25    2    1    2    0    0  0.32757719850E+02  0.91049815676E+02 -0.19363536923E+03  0.25000975887E+03  0.12508831348E+03 0.  0.
        -24    2    1    2    0    0  0.27841480835E+02 -0.47484399465E+02  0.46195517132E+02  0.10759829370E+03  0.80084023097E+02 0.  0.
        -13    1    3    3    0    0 -0.12830760783E+02  0.27238511547E+01 -0.62173171382E+03  0.62187006019E+03  0.00000000000E+00 0.  1.
         14    1    3    3    0    0 -0.47768439902E+02 -0.46289267365E+02 -0.44682705181E+03  0.45175096497E+03  0.00000000000E+00 0. -1.
         13    1    5    5    0    0 -0.19639150888E+02  0.40303327142E+01 -0.51971358702E+01  0.20711109353E+02  0.00000000000E+00 0. -1.
        -14    1    5    5    0    0  0.47480631723E+02 -0.51514732180E+02  0.51392653002E+02  0.86887184342E+02  0.00000000000E+00 0.  1.
          5    1    4    4  501    0 -0.17943691444E+02  0.37344770838E+02  0.11417921620E+01  0.41657941151E+02  0.41800000000E+01 0. -1.
         -5    1    4    4    0  501  0.50701411294E+02  0.53705044838E+02 -0.19477716139E+03  0.20835181772E+03  0.41800000000E+01 0. -1.
</event>
<event>
11    1  0.7105277E-009  0.1359525E+03  0.7561462E-02  0.1112164E+00
         22   -1    0    0    0    0  0.00000000000E+00  0.00000000000E+00  0.65942371720E+03  0.65942371720E+03  0.00000000000E+00 0. -1.
         22   -1    0    0    0    0 -0.00000000000E+00 -0.00000000000E+00 -0.31724214848E+03  0.31724214848E+03  0.00000000000E+00 0. -1.
         24    2    1    2    0    0 -0.57061488476E+01 -0.51017799212E+02 -0.26058878611E+03  0.27732886157E+03  0.79808558695E+02 0.  0.
         25    2    1    2    0    0  0.30474138788E+02  0.79718725293E+02  0.84023122812E+02  0.17317547561E+03  0.12508441904E+03 0.  0.
        -24    2    1    2    0    0 -0.24767989941E+02 -0.28700926081E+02  0.51874723202E+03  0.52616152851E+03  0.79435929358E+02 0.  0.
        -13    1    3    3    0    0 -0.36140754701E+02 -0.10496370014E+02 -0.63367259968E+02  0.73700322724E+02  0.00000000000E+00 0.  1.
         14    1    3    3    0    0  0.30434605853E+02 -0.40521429198E+02 -0.19722152614E+03  0.20362853884E+03  0.00000000000E+00 0. -1.
         11    1    5    5    0    0 -0.23070019714E+02 -0.54684403575E+02  0.41366918413E+03  0.41790525685E+03  0.00000000000E+00 0. -1.
        -12    1    5    5    0    0 -0.16979702267E+01  0.25983477494E+02  0.10507804789E+03  0.10825627166E+03  0.00000000000E+00 0.  1.
          5    1    4    4  501    0  0.64295797362E+02  0.38633685636E+02  0.18038541528E+01  0.75148103862E+02  0.41800000000E+01 0.  1.
         -5    1    4    4    0  501 -0.33821658574E+02  0.41085039657E+02  0.82219268659E+02  0.98027371744E+02  0.41800000000E+01 0.  1.
</event>
<event>
11    1  0.7105277E-009  0.1429650E+03  0.7561462E-02  0.1104292E+00
         22   -1    0    0    0    0  0.00000000000E+00  0.00000000000E+00  0.35908845820E+03  0.35908845820E+03  0.00000000000E+00 0. -1.
         22   -1    0    0    0    0 -0.00000000000E+00 -0.00000000000E+00 -0.26554452336E+03  0.26554452336E+03  0.00000000000E+00 0. -1.
        -24    2    1    2    0    0 -0.56054326859E+02  0.93488605846E+01 -0.14333447132E+03  0.17459829742E+03  0.81916457685E+02 0.  0.
         25    2    1    2    0    0  0.11381759603E+03  0.20123699437E+02 -0.21437268899E+02  0.17165819509E+03  0.12509025141E+03 0.  0.
         24    2    1    2    0    0 -0.57763269167E+02 -0.29472560022E+02  0.25831567506E+03  0.27837648906E+03  0.81001571722E+02 0.  0.
        -13    1    5    5    0    0 -0.53545161240E+02  0.92757341845E+01  0.86178033398E+02  0.10188119050E+03  0.00000000000E+00 0.  1.
         14    1    5    5    0    0 -0.42181079275E+01 -0.38748294206E+02  0.17213764166E+03  0.17649529856E+03  0.00000000000E+00 0. -1.
         13    1    3    3    0    0 -0.66892851432E+02  0.25280433927E+02 -0.13660093779E+03  0.15418680267E+03  0.00000000000E+00 0. -1.
        -14    1    3    3    0    0  0.10838524572E+02 -0.15931573342E+02 -0.67335335237E+01  0.20411494746E+02  0.00000000000E+00 0.  1.
          5    1    4    4  501    0  0.95973042995E+02  0.16599221572E+02  0.41543536252E+02  0.10597026443E+03  0.41800000000E+01 0. -1.
         -5    1    4    4    0  501  0.17844553031E+02  0.35244778653E+01 -0.62980805150E+02  0.65687930661E+02  0.41800000000E+01 0. -1.
</event>
<event>
11    1  0.7105277E-009  0.3080366E+03  0.7561462E-02  0.9968462E-01
         22   -1    0    0    0    0  0.00000000000E+00  0.00000000000E+00  0.13225584131E+04  0.13225584131E+04  0.00000000000E+00 0.  1.
         22   -1    0    0    0    0 -0.00000000000E+00 -0.00000000000E+00 -0.44711469435E+03  0.44711469435E+03  0.00000000000E+00 0. -1.
        -24    2    1    2    0    0 -0.15029139478E+03 -0.45638190250E+02 -0.34085454050E+03  0.38408800486E+03  0.81678821883E+02 0.  0.
         25    2    1    2    0    0  0.28148264406E+03  0.25027663627E+03  0.61246779961E+03  0.72981907138E+03  0.12509275687E+03 0.  0.
         24    2    1    2    0    0 -0.13119124928E+03 -0.20463844602E+03  0.60383045968E+03  0.65576603125E+03  0.79560205006E+02 0.  0.
        -11    1    5    5    0    0 -0.90216607874E+02 -0.18900453544E+03  0.53019414965E+03  0.57005928383E+03  0.00000000000E+00 0.  1.
         12    1    5    5    0    0 -0.40974641404E+02 -0.15633910577E+02  0.73636310030E+02  0.85706747418E+02  0.00000000000E+00 0. -1.
         11    1    3    3    0    0 -0.14928596701E+03 -0.46719547871E+02 -0.34547427475E+03  0.37923803951E+03  0.00000000000E+00 0. -1.
        -12    1    3    3    0    0 -0.10054277728E+01  0.10813576210E+01  0.46197342520E+01  0.48499653473E+01  0.00000000000E+00 0.  1.
          5    1    4    4  501    0  0.27259718832E+03  0.21396407504E+03  0.59447842963E+03  0.68812203001E+03  0.41800000000E+01 0. -1.
         -5    1    4    4    0  501  0.88854557341E+01  0.36312561231E+02  0.17989369983E+02  0.41697041372E+02  0.41800000000E+01 0. -1.
</event>
<event>
11    1  0.7105277E-009  0.1778528E+03  0.7561462E-02  0.1071393E+00
         22   -1    0    0    0    0  0.00000000000E+00  0.00000000000E+00  0.27024594869E+04  0.27024594869E+04  0.00000000000E+00 0. -1.
         22   -1    0    0    0    0 -0.00000000000E+00 -0.00000000000E+00 -0.16593276175E+04  0.16593276175E+04  0.00000000000E+00 0. -1.
         24    2    1    2    0    0  0.10998975022E+03 -0.62840574370E+02 -0.13652622279E+04  0.13731289735E+04  0.74131937238E+02 0.  0.
         25    2    1    2    0    0 -0.87504809932E+02  0.96502321904E+02 -0.26120024910E+03  0.31755842097E+03  0.12509192903E+03 0.  0.
        -24    2    1    2    0    0 -0.22484940292E+02 -0.33661747534E+02  0.26695943464E+04  0.26710997100E+04  0.80006254473E+02 0.  0.
        -11    1    3    3    0    0  0.64465363850E+02 -0.30666097718E+02 -0.40451914096E+03  0.41076992111E+03  0.00000000000E+00 0.  1.
         12    1    3    3    0    0  0.45524386374E+02 -0.32174476652E+02 -0.96074308691E+03  0.96235905240E+03  0.00000000000E+00 0. -1.
         13    1    5    5    0    0 -0.51087476849E+02 -0.33078986555E+02  0.17319481020E+04  0.17330171314E+04  0.00000000000E+00 0. -1.
        -14    1    5    5    0    0  0.28602536557E+02 -0.58276097912E+00  0.93764624432E+03  0.93808257856E+03  0.00000000000E+00 0.  1.
          5    1    4    4  501    0 -0.13935855145E+02 -0.20265989738E+02 -0.34908860675E+01  0.25190813489E+02  0.41800000000E+01 0.  1.
         -5    1    4    4    0  501 -0.73568954786E+02  0.11676831164E+03 -0.25770936303E+03  0.29236760749E+03  0.41800000000E+01 0.  1.
</event>
<event>
11    1  0.7105277E-009  0.1306943E+03  0.7561462E-02  0.1118419E+00
         22   -1    0    0    0    0  0.00000000000E+00  0.00000000000E+00  0.11373944130E+04  0.11373944130E+04  0.00000000000E+00 0. -1.
         22   -1    0    0    0    0 -0.00000000000E+00 -0.00000000000E+00 -0.31747623852E+03  0.31747623852E+03  0.00000000000E+00 0.  1.
        -24    2    1    2    0    0 -0.26729649239E+02  0.26104747384E+02 -0.28357516911E+03  0.29699026532E+03  0.79952543275E+02 0.  0.
         25    2    1    2    0    0  0.34179354357E+02 -0.38073862074E+02  0.15378162143E+03  0.20473041879E+03  0.12509160664E+03 0.  0.
         24    2    1    2    0    0 -0.74497051181E+01  0.11969114690E+02  0.94971172218E+03  0.95314996742E+03  0.79647644983E+02 0.  0.
        -11    1    5    5    0    0 -0.37434704294E+02  0.19228367894E+01  0.25725309783E+03  0.25996963425E+03  0.00000000000E+00 0.  1.
         12    1    5    5    0    0  0.29984999176E+02  0.10046277901E+02  0.69245862435E+03  0.69318033318E+03  0.00000000000E+00 0. -1.
         13    1    3    3    0    0 -0.45248142720E+00 -0.14536336854E+02 -0.68693997563E+01  0.16084106490E+02  0.00000000000E+00 0. -1.
        -14    1    3    3    0    0 -0.26277167812E+02  0.40641084238E+02 -0.27670576935E+03  0.28090615883E+03  0.00000000000E+00 0.  1.
          5    1    4    4  501    0  0.71734926092E+02 -0.80384218867E+01  0.13459487599E+03  0.15278667772E+03  0.41800000000E+01 0.  1.
         -5    1    4    4    0  501 -0.37555571735E+02 -0.30035440187E+02  0.19186745440E+02  0.51943741068E+02  0.41800000000E+01 0.  1.
</event>
<event>
11    1  0.7120604E-009  0.2502949E+03  0.7561462E-02  0.1023742E+00
         22   -1    0    0    0    0  0.00000000000E+00  0.00000000000E+00  0.44608057639E+03  0.44608057639E+03  0.00000000000E+00 0. -1.
         22   -1    0    0    0    0 -0.00000000000E+00 -0.00000000000E+00 -0.65407314192E+03  0.65407314192E+03  0.00000000000E+00 0. -1.
         24    2    1    2    0    0  0.82691551215E+00 -0.20201687492E+02 -0.25854766287E+03  0.27159838903E+03  0.80684564716E+02 0.  0.
         25    2    1    2    0    0  0.42553450088E+02  0.23087782234E+03 -0.30557911649E+03  0.40514474881E+03  0.12509318962E+03 0.  0.
        -24    2    1    2    0    0 -0.43380365601E+02 -0.21067613485E+03  0.35613421383E+03  0.42341058046E+03  0.78604398585E+02 0.  0.
        -13    1    3    3    0    0  0.25393511998E+02 -0.37145922671E+02 -0.20873800234E+03  0.21353267582E+03  0.00000000000E+00 0.  1.
         14    1    3    3    0    0 -0.24566596486E+02  0.16944235179E+02 -0.49809660532E+02  0.58065713214E+02  0.00000000000E+00 0. -1.
         13    1    5    5    0    0 -0.35136836001E+02 -0.21598515892E+03  0.34529633673E+03  0.40879548221E+03  0.00000000000E+00 0. -1.
        -14    1    5    5    0    0 -0.82435295992E+01  0.53090240762E+01  0.10837877098E+02  0.14615098251E+02  0.00000000000E+00 0.  1.
          5    1    4    4  501    0 -0.39743386980E+02  0.43579424688E+02 -0.92001654254E+02  0.10936397876E+03  0.41800000000E+01 0.  1.
         -5    1    4    4    0  501  0.82296837068E+02  0.18729839765E+03 -0.21357746224E+03  0.29578077005E+03  0.41800000000E+01 0.  1.
</event>
<event>
11    1  0.7105277E-009  0.2043957E+03  0.7561462E-02  0.1051458E+00
         22   -1    0    0    0    0  0.00000000000E+00  0.00000000000E+00  0.72991447401E+03  0.72991447401E+03  0.00000000000E+00 0. -1.
         22   -1    0    0    0    0 -0.00000000000E+00 -0.00000000000E+00 -0.13077929794E+04  0.13077929794E+04  0.00000000000E+00 0.  1.
        -24    2    1    2    0    0  0.14076178185E+03 -0.56820349656E+02 -0.90182887135E+03  0.91764100710E+03  0.75678750965E+02 0.  0.
         25    2    1    2    0    0 -0.19748420745E+03  0.67470390968E+02 -0.35652104317E+03  0.43163225547E+03  0.12508750493E+03 0.  0.
         24    2    1    2    0    0  0.56722425599E+02 -0.10650041312E+02  0.68047140915E+03  0.68843419083E+03  0.87002525752E+02 0.  0.
        -11    1    5    5    0    0  0.11937579380E+02 -0.45858582084E+02  0.29843499586E+03  0.30217372836E+03  0.00000000000E+00 0.  1.
         12    1    5    5    0    0  0.44784846219E+02  0.35208540772E+02  0.38203641328E+03  0.38626046247E+03  0.00000000000E+00 0. -1.
         13    1    3    3    0    0  0.82738601101E+02 -0.66076205377E+02 -0.46657334377E+03  0.47843748405E+03  0.00000000000E+00 0. -1.
        -14    1    3    3    0    0  0.58023180745E+02  0.92558557212E+01 -0.43525552758E+03  0.43920352305E+03  0.00000000000E+00 0.  1.
          5    1    4    4  501    0 -0.16459300849E+03  0.14972434692E+02 -0.17948472297E+03  0.24402309404E+03  0.41800000000E+01 0. -1.
         -5    1    4    4    0  501 -0.32891198951E+02  0.52497956276E+02 -0.17703632020E+03  0.18760916143E+03  0.41800000000E+01 0. -1.
</event>
<event>
11    1  0.7105277E-009  0.1455652E+03  0.7561462E-02  0.1101498E+00
         22   -1    0    0    0    0  0.00000000000E+00  0.00000000000E+00  0.24947087612E+04  0.24947087612E+04  0.00000000000E+00 0.  1.
         22   -1    0    0    0    0 -0.00000000000E+00 -0.00000000000E+00 -0.78321357039E+03  0.78321357039E+03  0.00000000000E+00 0.  1.
         24    2    1    2    0    0  0.67287884386E+02 -0.30915049262E+02 -0.74372078541E+03  0.75117570307E+03  0.75239155861E+02 0.  0.
         25    2    1    2    0    0 -0.79594547047E+02  0.62975752998E+02  0.15074472627E+03  0.22058777091E+03  0.12503501425E+03 0.  0.
        -24    2    1    2    0    0  0.12306662661E+02 -0.32060703737E+02  0.23044712499E+04  0.23061588576E+04  0.81250181880E+02 0.  0.
        -11    1    3    3    0    0  0.77472838650E+02 -0.98296591771E+01 -0.64526803095E+03  0.64997653395E+03  0.00000000000E+00 0.  1.
         12    1    3    3    0    0 -0.10184954263E+02 -0.21085390085E+02 -0.98452754464E+02  0.10119916912E+03  0.00000000000E+00 0. -1.
         13    1    5    5    0    0 -0.33795397229E+02 -0.20080325217E+02  0.85134116802E+03  0.85224828114E+03  0.00000000000E+00 0. -1.
        -14    1    5    5    0    0  0.46102059889E+02 -0.11980378520E+02  0.14531300819E+04  0.14539105765E+04  0.00000000000E+00 0.  1.
          5    1    4    4  501    0  0.12534671456E+02  0.67421617386E+02  0.65413864646E+02  0.94864316618E+02  0.41800000000E+01 0. -1.
         -5    1    4    4    0  501 -0.92129218503E+02 -0.44458643875E+01  0.85330861628E+02  0.12572345429E+03  0.41800000000E+01 0. -1.
</event>
<event>
11    1  0.7105277E-009  0.1340042E+03  0.7561462E-02  0.1114445E+00
         22   -1    0    0    0    0  0.00000000000E+00  0.00000000000E+00  0.83523386427E+03  0.83523386427E+03  0.00000000000E+00 0. -1.
         22   -1    0    0    0    0 -0.00000000000E+00 -0.00000000000E+00 -0.63713644898E+03  0.63713644898E+03  0.00000000000E+00 0.  1.
        -24    2    1    2    0    0  0.24917823001E+02  0.89678116662E+01 -0.50892330719E+03  0.51546740894E+03  0.77475141352E+02 0.  0.
         25    2    1    2    0    0  0.13035015297E+02  0.21396506519E+02 -0.88909186476E+02  0.15550014070E+03  0.12509087977E+03 0.  0.
         24    2    1    2    0    0 -0.37952838298E+02 -0.30364318185E+02  0.79592990895E+03  0.80140276361E+03  0.79872146602E+02 0.  0.
        -11    1    5    5    0    0  0.22425859406E+02 -0.14938856738E+02  0.14386526209E+03  0.14636701215E+03  0.00000000000E+00 0.  1.
         12    1    5    5    0    0 -0.60378697704E+02 -0.15425461447E+02  0.65206464687E+03  0.65503575146E+03  0.00000000000E+00 0. -1.
         11    1    3    3    0    0  0.17681869921E+02 -0.46966522520E+01 -0.23423738469E+02  0.29721685520E+02  0.00000000000E+00 0. -1.
        -12    1    3    3    0    0  0.72359530796E+01  0.13664463918E+02 -0.48549956873E+03  0.48574572342E+03  0.00000000000E+00 0.  1.
          5    1    4    4  501    0 -0.15482135878E+02  0.13756751530E+02  0.27870464721E+02  0.34973989589E+02  0.41800000000E+01 0. -1.
         -5    1    4    4    0  501  0.28517151175E+02  0.76397549891E+01 -0.11677965120E+03  0.12052615111E+03  0.41800000000E+01 0. -1.
</event>
<event>
11    1  0.7105277E-009  0.1391670E+03  0.7561462E-02  0.1108492E+00
         22   -1    0    0    0    0  0.00000000000E+00  0.00000000000E+00  0.60144225910E+03  0.60144225910E+03  0.00000000000E+00 0.  1.
         22   -1    0    0    0    0 -0.00000000000E+00 -0.00000000000E+00 -0.38703420823E+03  0.38703420823E+03  0.00000000000E+00 0. -1.
         24    2    1    2    0    0 -0.52319673600E+02 -0.30230745337E+02 -0.34424300838E+03  0.35920814063E+03  0.82921609193E+02 0.  0.
         25    2    1    2    0    0  0.80794042628E+02  0.90716180253E+01  0.15218497177E+03  0.21311404906E+03  0.12508941080E+03 0.  0.
        -24    2    1    2    0    0 -0.28474369028E+02  0.21159127311E+02  0.40646608748E+03  0.41615427764E+03  0.81921939480E+02 0.  0.
        -11    1    3    3    0    0 -0.83044697055E+01  0.25497478433E+02 -0.52565668459E+02  0.59010466225E+02  0.00000000000E+00 0.  1.
         12    1    3    3    0    0 -0.44015203894E+02 -0.55728223769E+02 -0.29167733992E+03  0.30019767441E+03  0.00000000000E+00 0. -1.
         13    1    5    5    0    0  0.12098390391E+02 -0.18008627181E+02  0.41225291748E+02  0.46585473945E+02  0.00000000000E+00 0. -1.
        -14    1    5    5    0    0 -0.40572759419E+02  0.39167754492E+02  0.36524079573E+03  0.36956880369E+03  0.00000000000E+00 0.  1.
          5    1    4    4  501    0  0.98230323389E+02 -0.74018556822E+01  0.15965375895E+03  0.18764535445E+03  0.41800000000E+01 0. -1.
         -5    1    4    4    0  501 -0.17436280762E+02  0.16473473707E+02 -0.74687871790E+01  0.25468694602E+02  0.41800000000E+01 0. -1.
</event>
<event>
11    1  0.7105277E-009  0.1448426E+03  0.7561462E-02  0.1102268E+00
         22   -1    0    0    0    0  0.00000000000E+00  0.00000000000E+00  0.18151285455E+04  0.18151285455E+04  0.00000000000E+00 0.  1.
         22   -1    0    0    0    0 -0.00000000000E+00 -0.00000000000E+00 -0.12048337580E+03  0.12048337580E+03  0.00000000000E+00 0. -1.
         24    2    1    2    0    0 -0.71229370547E+01 -0.59053976441E+02 -0.75267994400E+02  0.12531927194E+03  0.80632131137E+02 0.  0.
         25    2    1    2    0    0 -0.62898544159E+02  0.30145783305E+02  0.26416963081E+03  0.30049691181E+03  0.12509118695E+03 0.  0.
        -24    2    1    2    0    0  0.70021481213E+02  0.28908193136E+02  0.15057435332E+04  0.15097957375E+04  0.80503972883E+02 0.  0.
        -11    1    3    3    0    0 -0.15108674364E+02 -0.46014613162E+02  0.83920114819E-01  0.48431639535E+02  0.00000000000E+00 0.  1.
         12    1    3    3    0    0  0.79857373092E+01 -0.13039363279E+02 -0.75351914515E+02  0.76887632400E+02  0.00000000000E+00 0. -1.
         13    1    5    5    0    0  0.66186736611E+02 -0.40779048677E+01  0.64234057419E+03  0.64575438571E+03  0.00000000000E+00 0. -1.
        -14    1    5    5    0    0  0.38347446029E+01  0.32986098004E+02  0.86340295905E+03  0.86404135181E+03  0.00000000000E+00 0.  1.
          5    1    4    4  501    0  0.24112768357E+02 -0.25902078491E+01  0.49806187395E+01  0.25108041293E+02  0.41800000000E+01 0.  1.
         -5    1    4    4    0  501 -0.87011312516E+02  0.32735991154E+02  0.25918901207E+03  0.27538887051E+03  0.41800000000E+01 0.  1.
</event>
<event>
11    1  0.1092594E-008  0.1874667E+03  0.7561462E-02  0.1063758E+00
         22   -1    0    0    0    0  0.00000000000E+00  0.00000000000E+00  0.60996721354E+03  0.60996721354E+03  0.00000000000E+00 0. -1.
         22   -1    0    0    0    0 -0.00000000000E+00 -0.00000000000E+00 -0.15544588573E+04  0.15544588573E+04  0.00000000000E+00 0.  1.
         24    2    1    2    0    0  0.75187427175E+02  0.95464585650E+02 -0.12630297956E+04  0.12714850983E+04  0.81629984124E+02 0.  0.
         25    2    1    2    0    0  0.28642473999E+02 -0.18823878750E+03 -0.22864146469E+03  0.32276849723E+03  0.12509336909E+03 0.  0.
        -24    2    1    2    0    0 -0.10382990117E+03  0.92774201852E+02  0.54717961647E+03  0.57017247537E+03  0.79394068289E+02 0.  0.
        -13    1    3    3    0    0  0.59762495312E+02  0.10715819458E+03 -0.95530924119E+03  0.96315636364E+03  0.00000000000E+00 0.  1.
         14    1    3    3    0    0  0.15424931863E+02 -0.11693608930E+02 -0.30772055437E+03  0.30832873463E+03  0.00000000000E+00 0. -1.
         13    1    5    5    0    0 -0.34805598445E+02  0.35303349685E+02  0.35007666641E+03  0.35356955263E+03  0.00000000000E+00 0. -1.
        -14    1    5    5    0    0 -0.69024302729E+02  0.57470852167E+02  0.19710295005E+03  0.21660292273E+03  0.00000000000E+00 0.  1.
          5    1    4    4  501    0  0.69784504933E+02 -0.11838650339E+03 -0.18533492973E+03  0.23076340674E+03  0.41800000000E+01 0. -1.
         -5    1    4    4    0  501 -0.41142030934E+02 -0.69852284115E+02 -0.43306534967E+02  0.92005090491E+02  0.41800000000E+01 0. -1.
</event>
<event>
11    1  0.7105277E-009  0.1760824E+03  0.7561462E-02  0.1072857E+00
         22   -1    0    0    0    0  0.00000000000E+00  0.00000000000E+00  0.54457959455E+03  0.54457959455E+03  0.00000000000E+00 0. -1.
         22   -1    0    0    0    0 -0.00000000000E+00 -0.00000000000E+00 -0.25425686574E+03  0.25425686574E+03  0.00000000000E+00 0. -1.
         24    2    1    2    0    0  0.93068148673E+02 -0.89793726325E+02 -0.79763448034E+02  0.17204876665E+03  0.80709211852E+02 0.  0.
         25    2    1    2    0    0 -0.81051023879E+02  0.84488430439E+02 -0.65745819370E+02  0.18351701003E+03  0.12509363236E+03 0.  0.
        -24    2    1    2    0    0 -0.12017124794E+02  0.53052958856E+01  0.43583199621E+03  0.44327068361E+03  0.79792308997E+02 0.  0.
        -11    1    3    3    0    0  0.55163826651E+02 -0.34262974678E+02  0.34957280774E+01  0.65032448204E+02  0.00000000000E+00 0.  1.
         12    1    3    3    0    0  0.37904322022E+02 -0.55530751646E+02 -0.83259176111E+02  0.10701631844E+03  0.00000000000E+00 0. -1.
         11    1    5    5    0    0  0.41738092113E+01 -0.16911660623E+02  0.38572251383E+03  0.38611563375E+03  0.00000000000E+00 0. -1.
        -12    1    5    5    0    0 -0.16190934006E+02  0.22216956508E+02  0.50109482380E+02  0.57155049863E+02  0.00000000000E+00 0.  1.
          5    1    4    4  501    0  0.17893670114E+02  0.54276414132E+02 -0.54992253170E+02  0.79421236894E+02  0.41800000000E+01 0.  1.
         -5    1    4    4    0  501 -0.98944693993E+02  0.30212016307E+02 -0.10753566201E+02  0.10409577314E+03  0.41800000000E+01 0.  1.
</event>
<event>
11    1  0.7105277E-009  0.1507021E+03  0.7561462E-02  0.1096164E+00
         22   -1    0    0    0    0  0.00000000000E+00  0.00000000000E+00  0.14140679714E+03  0.14140679714E+03  0.00000000000E+00 0. -1.
         22   -1    0    0    0    0 -0.00000000000E+00 -0.00000000000E+00 -0.12399524771E+04  0.12399524771E+04  0.00000000000E+00 0.  1.
        -24    2    1    2    0    0  0.22128893240E+01 -0.45042223012E+02 -0.87135636605E+03  0.87638049578E+03  0.82141085825E+02 0.  0.
         25    2    1    2    0    0 -0.67542861317E+01  0.12551709340E+03 -0.31490142329E+03  0.36140121312E+03  0.12509104421E+03 0.  0.
         24    2    1    2    0    0  0.45413968077E+01 -0.80474870385E+02  0.87712109397E+02  0.14357756533E+03  0.80151569429E+02 0.  0.
        -13    1    5    5    0    0 -0.28403213999E+02 -0.31018182433E+02  0.59128687531E+01  0.42471546049E+02  0.00000000000E+00 0.  1.
         14    1    5    5    0    0  0.32944610806E+02 -0.49456687952E+02  0.81799240643E+02  0.10110601928E+03  0.00000000000E+00 0. -1.
         13    1    3    3    0    0  0.11753592486E+02  0.15502675299E+02 -0.69106434789E+02  0.71792612483E+02  0.00000000000E+00 0. -1.
        -14    1    3    3    0    0 -0.95407031622E+01 -0.60544898311E+02 -0.80224993126E+03  0.80458788329E+03  0.00000000000E+00 0.  1.
          5    1    4    4  501    0 -0.57271432453E+02  0.70455272339E+02 -0.23479131732E+03  0.25177052540E+03  0.41800000000E+01 0.  1.
         -5    1    4    4    0  501  0.50517146321E+02  0.55061821058E+02 -0.80110105975E+02  0.10963068772E+03  0.41800000000E+01 0.  1.
</event>
<event>
11    1  0.7105277E-009  0.1502690E+03  0.7561462E-02  0.1096604E+00
         22   -1    0    0    0    0  0.00000000000E+00  0.00000000000E+00  0.12791892843E+04  0.12791892843E+04  0.00000000000E+00 0.  1.
         22   -1    0    0    0    0 -0.00000000000E+00 -0.00000000000E+00 -0.63524056902E+03  0.63524056902E+03  0.00000000000E+00 0.  1.
         24    2    1    2    0    0 -0.58445501683E+02 -0.65621407228E+02 -0.58441953986E+03  0.59640838945E+03  0.80216723206E+02 0.  0.
         25    2    1    2    0    0 -0.19586139027E+02  0.25817244426E+02  0.57981445584E+02  0.14162928241E+03  0.12508740405E+03 0.  0.
        -24    2    1    2    0    0  0.78031640710E+02  0.39804162802E+02  0.11703868095E+04  0.11763921814E+04  0.80124729542E+02 0.  0.
        -13    1    3    3    0    0 -0.35385542615E+02 -0.82900362792E+02 -0.44853552459E+03  0.45750270337E+03  0.00000000000E+00 0.  1.
         14    1    3    3    0    0 -0.23059959068E+02  0.17278955564E+02 -0.13588401527E+03  0.13890568607E+03  0.00000000000E+00 0. -1.
         13    1    5    5    0    0  0.70930727391E+01 -0.21473435471E+02  0.14811565159E+03  0.14983212726E+03  0.00000000000E+00 0. -1.
        -14    1    5    5    0    0  0.70938567971E+02  0.61277598273E+02  0.10222711579E+04  0.10265600542E+04  0.00000000000E+00 0.  1.
          5    1    4    4  501    0 -0.57090439879E+02 -0.18587431049E+02  0.57669194111E+02  0.83354779515E+02  0.41800000000E+01 0.  1.
         -5    1    4    4    0  501  0.37504300852E+02  0.44404675475E+02  0.31225147248E+00  0.58274502893E+02  0.41800000000E+01 0.  1.
</event>
<event>
11    1  0.7105277E-009  0.1465872E+03  0.7561462E-02  0.1100418E+00
         22   -1    0    0    0    0  0.00000000000E+00  0.00000000000E+00  0.39193732360E+03  0.39193732360E+03  0.00000000000E+00 0. -1.
         22   -1    0    0    0    0 -0.00000000000E+00 -0.00000000000E+00 -0.89818017260E+03  0.89818017260E+03  0.00000000000E+00 0. -1.
        -24    2    1    2    0    0  0.37771437320E+02 -0.21926114425E+02 -0.78945438768E+03  0.79480726780E+03  0.81073588489E+02 0.  0.
         25    2    1    2    0    0  0.13809903796E+02  0.79298481284E+02 -0.39172109852E+02  0.15381138244E+03  0.12507807402E+03 0.  0.
         24    2    1    2    0    0 -0.51581341115E+02 -0.57372366858E+02  0.32238364852E+03  0.34149884596E+03  0.82085453811E+02 0.  0.
        -13    1    5    5    0    0  0.17471121921E+02 -0.97357915399E+01  0.22508910999E+02  0.30111074582E+02  0.00000000000E+00 0.  1.
         14    1    5    5    0    0 -0.69052463037E+02 -0.47636575318E+02  0.29987473752E+03  0.31138777138E+03  0.00000000000E+00 0. -1.
         13    1    3    3    0    0  0.23400903778E+02 -0.50316149413E+02 -0.36883703972E+03  0.37298804144E+03  0.00000000000E+00 0. -1.
        -14    1    3    3    0    0  0.14370533541E+02  0.28390034987E+02 -0.42061734796E+03  0.42181922636E+03  0.00000000000E+00 0.  1.
          5    1    4    4  501    0 -0.48400935616E+02  0.81236832515E+01  0.47639908405E+01  0.49485480768E+02  0.41800000000E+01 0.  1.
         -5    1    4    4    0  501  0.62210839412E+02  0.71174798032E+02 -0.43936100693E+02  0.10432590167E+03  0.41800000000E+01 0.  1.
</event>
<event>
11    1  0.7105277E-009  0.1547487E+03  0.7561462E-02  0.1092123E+00
         22   -1    0    0    0    0  0.00000000000E+00  0.00000000000E+00  0.12458819424E+04  0.12458819424E+04  0.00000000000E+00 0. -1.
         22   -1    0    0    0    0 -0.00000000000E+00 -0.00000000000E+00 -0.94045689791E+02  0.94045689791E+02  0.00000000000E+00 0. -1.
         24    2    1    2    0    0  0.56409071692E+01 -0.55465295430E+01 -0.40479589787E+02  0.89200303195E+02  0.79091801580E+02 0.  0.
         25    2    1    2    0    0  0.74706505412E+02 -0.39474169157E+02  0.19909069290E+03  0.24984820266E+03  0.12509096046E+03 0.  0.
        -24    2    1    2    0    0 -0.80347412581E+02  0.45020698700E+02  0.99322514946E+03  0.10008791263E+04  0.82342321655E+02 0.  0.
        -13    1    3    3    0    0 -0.24224367012E+02 -0.58162633164E+00  0.13183890800E+02  0.27585743110E+02  0.00000000000E+00 0.  1.
         14    1    3    3    0    0  0.29865274181E+02 -0.49649032114E+01 -0.53663480587E+02  0.61614560085E+02  0.00000000000E+00 0. -1.
         13    1    5    5    0    0 -0.76126931503E+02  0.62721141531E+02  0.67893759941E+03  0.68606524120E+03  0.00000000000E+00 0. -1.
        -14    1    5    5    0    0 -0.42204810780E+01 -0.17700442831E+02  0.31428755006E+03  0.31481388511E+03  0.00000000000E+00 0.  1.
          5    1    4    4  501    0  0.52200953139E+02 -0.85091241089E+02  0.13219894780E+03  0.16570906136E+03  0.41800000000E+01 0.  1.
         -5    1    4    4    0  501  0.22505552272E+02  0.45617071932E+02  0.66891745107E+02  0.84139141297E+02  0.41800000000E+01 0.  1.
</event>
<event>
11    1  0.7105277E-009  0.1716646E+03  0.7561462E-02  0.1076592E+00
         22   -1    0    0    0    0  0.00000000000E+00  0.00000000000E+00  0.84423050074E+03  0.84423050074E+03  0.00000000000E+00 0.  1.
         22   -1    0    0    0    0 -0.00000000000E+00 -0.00000000000E+00 -0.17746570566E+04  0.17746570566E+04  0.00000000000E+00 0. -1.
        -24    2    1    2    0    0 -0.86057706985E+02  0.70368021349E+02 -0.16654873758E+04  0.16711024916E+04  0.79860823485E+02 0.  0.
         25    2    1    2    0    0  0.19893026474E+01  0.22084025282E+02 -0.58550137456E+02  0.13987507171E+03  0.12508099613E+03 0.  0.
         24    2    1    2    0    0  0.84068404338E+02 -0.92452046631E+02  0.79361095735E+03  0.80790999407E+03  0.85354140799E+02 0.  0.
        -11    1    5    5    0    0  0.59232126462E+02 -0.82388048477E+02  0.74920081414E+03  0.75604106717E+03  0.00000000000E+00 0.  1.
         12    1    5    5    0    0  0.24836277876E+02 -0.10063998154E+02  0.44410143211E+02  0.51868926898E+02  0.00000000000E+00 0. -1.
         11    1    3    3    0    0 -0.42496613206E+02  0.80947858893E+02 -0.10399688978E+04  0.10439798017E+04  0.00000000000E+00 0. -1.
        -12    1    3    3    0    0 -0.43561093779E+02 -0.10579837544E+02 -0.62551847797E+03  0.62712268986E+03  0.00000000000E+00 0.  1.
          5    1    4    4  501    0 -0.53311737573E+02  0.69245073924E+01  0.50289585210E+01  0.54155821381E+02  0.41800000000E+01 0. -1.
         -5    1    4    4    0  501  0.55301040220E+02  0.15159517889E+02 -0.63579095977E+02  0.85719250331E+02  0.41800000000E+01 0. -1.
</event>
<event>
11    1  0.7105277E-009  0.3017343E+03  0.7561462E-02  0.9994599E-01
         22   -1    0    0    0    0  0.00000000000E+00  0.00000000000E+00  0.23949933649E+04  0.23949933649E+04  0.00000000000E+00 0. -1.
         22   -1    0    0    0    0 -0.00000000000E+00 -0.00000000000E+00 -0.32713352867E+03  0.32713352867E+03  0.00000000000E+00 0. -1.
         24    2    1    2    0    0 -0.90306507452E+02 -0.25835930725E+03 -0.17927075469E+03  0.33685615791E+03  0.80182733190E+02 0.  0.
         25    2    1    2    0    0  0.15015793740E+03  0.24131115357E+03  0.28809664757E+03  0.42358819081E+03  0.12509515597E+03 0.  0.
        -24    2    1    2    0    0 -0.59851429948E+02  0.17048153676E+02  0.19590339434E+04  0.19616825449E+04  0.80694376396E+02 0.  0.
        -11    1    3    3    0    0  0.15172503380E+02 -0.34675055199E+02 -0.22004589829E+02  0.43780889500E+02  0.00000000000E+00 0.  1.
         12    1    3    3    0    0 -0.10547901083E+03 -0.22368425205E+03 -0.15726616486E+03  0.29307526841E+03  0.00000000000E+00 0. -1.
         13    1    5    5    0    0 -0.45460584953E+02  0.12333188796E+02  0.19045722293E+04  0.19051546260E+04  0.00000000000E+00 0. -1.
        -14    1    5    5    0    0 -0.14390844996E+02  0.47149648801E+01  0.54461714080E+02  0.56527918890E+02  0.00000000000E+00 0.  1.
          5    1    4    4  501    0  0.15195691888E+02 -0.13192215180E+02  0.89027061628E+01  0.22398084077E+02  0.41800000000E+01 0. -1.
         -5    1    4    4    0  501  0.13496224551E+03  0.25450336875E+03  0.27919394141E+03  0.40119010673E+03  0.41800000000E+01 0. -1.
</event>
<event>
11    1  0.7105277E-009  0.2364389E+03  0.7561462E-02  0.1031382E+00
         22   -1    0    0    0    0  0.00000000000E+00  0.00000000000E+00  0.20376412062E+04  0.20376412062E+04  0.00000000000E+00 0.  1.
         22   -1    0    0    0    0 -0.00000000000E+00 -0.00000000000E+00 -0.20725949054E+03  0.20725949054E+03  0.00000000000E+00 0.  1.
        -24    2    1    2    0    0 -0.60649704390E+02 -0.32144775904E+02 -0.12960139054E+03  0.16773724733E+03  0.81410014429E+02 0.  0.
         25    2    1    2    0    0  0.21719798633E+03 -0.87788576121E+02  0.28838755328E+03  0.39204139223E+03  0.12508906015E+03 0.  0.
         24    2    1    2    0    0 -0.15654828194E+03  0.11993335202E+03  0.16715955529E+04  0.16851220572E+04  0.80704904459E+02 0.  0.
        -11    1    5    5    0    0 -0.97985309994E+02  0.36500385703E+02  0.63794273574E+03  0.64645520588E+03  0.00000000000E+00 0.  1.
         12    1    5    5    0    0 -0.58562971945E+02  0.83432966322E+02  0.10336528172E+04  0.10386668513E+04  0.00000000000E+00 0. -1.
         13    1    3    3    0    0 -0.34358299752E+01 -0.62828369789E+01  0.11357722077E+02  0.13426720333E+02  0.00000000000E+00 0. -1.
        -14    1    3    3    0    0 -0.57213874415E+02 -0.25861938925E+02 -0.14095911262E+03  0.15431052699E+03  0.00000000000E+00 0.  1.
          5    1    4    4  501    0  0.13273213952E+03 -0.22908439971E+02  0.23942403008E+03  0.27474343679E+03  0.41800000000E+01 0. -1.
         -5    1    4    4    0  501  0.84465846813E+02 -0.64880136149E+02  0.48963523207E+02  0.11729795544E+03  0.41800000000E+01 0. -1.
</event>
<event>
11    1  0.7105277E-009  0.1410896E+03  0.7561462E-02  0.1106348E+00
         22   -1    0    0    0    0  0.00000000000E+00  0.00000000000E+00  0.92812964334E+03  0.92812964334E+03  0.00000000000E+00 0. -1.
         22   -1    0    0    0    0 -0.00000000000E+00 -0.00000000000E+00 -0.44376743846E+03  0.44376743846E+03  0.00000000000E+00 0.  1.
        -24    2    1    2    0    0  0.43958734251E+02  0.47796633509E+02 -0.35038012473E+03  0.36492212439E+03  0.78645003517E+02 0.  0.
         25    2    1    2    0    0 -0.21560053358E+02 -0.10791795959E+03  0.61776783717E+00  0.16661064533E+03  0.12509038172E+03 0.  0.
         24    2    1    2    0    0 -0.22398680893E+02  0.60121326078E+02  0.83412456177E+03  0.84036431208E+03  0.79574604739E+02 0.  0.
        -11    1    5    5    0    0  0.20359142447E+02  0.47266964273E+02  0.30050775505E+03  0.30488288151E+03  0.00000000000E+00 0.  1.
         12    1    5    5    0    0 -0.42757823340E+02  0.12854361805E+02  0.53361680671E+03  0.53548143057E+03  0.00000000000E+00 0. -1.
         13    1    3    3    0    0 -0.68952961054E+01 -0.16447651998E+02 -0.96925184478E+02  0.98552330012E+02  0.00000000000E+00 0. -1.
        -14    1    3    3    0    0  0.50854030357E+02  0.64244285507E+02 -0.25345494025E+03  0.26636979438E+03  0.00000000000E+00 0.  1.
          5    1    4    4  501    0 -0.61668527292E+02 -0.82475693010E+02 -0.33055969255E+02  0.10823777852E+03  0.41800000000E+01 0. -1.
         -5    1    4    4    0  501  0.40108473934E+02 -0.25442266577E+02  0.33673737093E+02  0.58372866810E+02  0.41800000000E+01 0. -1.
</event>
<event>
11    1  0.7105277E-009  0.4534619E+03  0.7561462E-02  0.9503982E-01
         22   -1    0    0    0    0  0.00000000000E+00  0.00000000000E+00  0.11183403144E+04  0.11183403144E+04  0.00000000000E+00 0. -1.
         22   -1    0    0    0    0 -0.00000000000E+00 -0.00000000000E+00 -0.58107215165E+03  0.58107215165E+03  0.00000000000E+00 0.  1.
        -24    2    1    2    0    0  0.31746265749E+03  0.33984706653E+03 -0.23237420076E+03  0.52589351992E+03  0.79294751316E+02 0.  0.
         25    2    1    2    0    0 -0.25603407871E+03 -0.29856193054E+03  0.17101114367E+02  0.41307751282E+03  0.12509159706E+03 0.  0.
         24    2    1    2    0    0 -0.61428578772E+02 -0.41285135992E+02  0.75254124917E+03  0.76044143334E+03  0.80466819805E+02 0.  0.
        -11    1    5    5    0    0 -0.31340615146E+02  0.95787168960E+01  0.10007391235E+03  0.10530324737E+03  0.00000000000E+00 0.  1.
         12    1    5    5    0    0 -0.30087963626E+02 -0.50863852888E+02  0.65246733683E+03  0.65513818597E+03  0.00000000000E+00 0. -1.
         11    1    3    3    0    0  0.11390361171E+03  0.69782075160E+02 -0.65300197666E+02  0.14868653802E+03  0.00000000000E+00 0. -1.
        -12    1    3    3    0    0  0.20355904578E+03  0.27006499137E+03 -0.16707400310E+03  0.37720698190E+03  0.00000000000E+00 0.  1.
          5    1    4    4  501    0 -0.20057169745E+03 -0.18514601403E+03  0.60302286155E+02  0.27957448103E+03  0.41800000000E+01 0. -1.
         -5    1    4    4    0  501 -0.55462381268E+02 -0.11341591651E+03 -0.43201171788E+02  0.13350303179E+03  0.41800000000E+01 0. -1.
</event>
<event>
11    1  0.7105277E-009  0.1478420E+03  0.7561462E-02  0.1099104E+00
         22   -1    0    0    0    0  0.00000000000E+00  0.00000000000E+00  0.30025427547E+03  0.30025427547E+03  0.00000000000E+00 0.  1.
         22   -1    0    0    0    0 -0.00000000000E+00 -0.00000000000E+00 -0.13259799390E+04  0.13259799390E+04  0.00000000000E+00 0. -1.
         24    2    1    2    0    0  0.44379891819E+02 -0.71019877547E+02 -0.10641311082E+04  0.10704958245E+04  0.81073405271E+02 0.  0.
         25    2    1    2    0    0  0.29335838981E+02  0.68466161453E+02 -0.22651114689E+03  0.26926354444E+03  0.12508936799E+03 0.  0.
        -24    2    1    2    0    0 -0.73715730799E+02  0.25537160939E+01  0.26491659153E+03  0.28647484555E+03  0.80290137829E+02 0.  0.
        -11    1    3    3    0    0  0.18991914339E+02 -0.50045085905E+02 -0.24847516266E+03  0.25417535265E+03  0.00000000000E+00 0.  1.
         12    1    3    3    0    0  0.25387977480E+02 -0.20974791642E+02 -0.81565594552E+03  0.81632047184E+03  0.00000000000E+00 0. -1.
         11    1    5    5    0    0 -0.22744910612E+02  0.34301544120E+02  0.58686555128E+02  0.71680113285E+02  0.00000000000E+00 0. -1.
        -12    1    5    5    0    0 -0.50970820188E+02 -0.31747828026E+02  0.20623003640E+03  0.21479473227E+03  0.00000000000E+00 0.  1.
          5    1    4    4  501    0 -0.33936679483E+02  0.26331935859E+02 -0.17063146308E+02  0.46407891811E+02  0.41800000000E+01 0.  1.
         -5    1    4    4    0  501  0.63272518464E+02  0.42134225594E+02 -0.20944800058E+03  0.22285565262E+03  0.41800000000E+01 0.  1.
</event>
<event>
11    1  0.7105277E-009  0.1347778E+03  0.7561462E-02  0.1113534E+00
         22   -1    0    0    0    0  0.00000000000E+00  0.00000000000E+00  0.19234892959E+04  0.19234892959E+04  0.00000000000E+00 0.  1.
         22   -1    0    0    0    0 -0.00000000000E+00 -0.00000000000E+00 -0.27207259574E+03  0.27207259574E+03  0.00000000000E+00 0.  1.
        -24    2    1    2    0    0 -0.82126551038E+00  0.14014957985E+02 -0.16785581455E+03  0.18646899967E+03  0.79987623021E+02 0.  0.
         25    2    1    2    0    0 -0.47373551458E+02 -0.27828591043E+02 -0.44028625935E+02  0.14354454514E+03  0.12509129738E+03 0.  0.
         24    2    1    2    0    0  0.48194816969E+02  0.13813633058E+02  0.18633011407E+04  0.18655483469E+04  0.76589403837E+02 0.  0.
        -13    1    5    5    0    0  0.55316224379E+02 -0.14093904467E+02  0.15086676145E+04  0.15097471623E+04  0.00000000000E+00 0.  1.
         14    1    5    5    0    0 -0.71214074103E+01  0.27907537525E+02  0.35463352614E+03  0.35580118460E+03  0.00000000000E+00 0. -1.
         13    1    3    3    0    0  0.18380525602E+02  0.26042408930E+02 -0.21684717152E+02  0.38552272854E+02  0.00000000000E+00 0. -1.
        -14    1    3    3    0    0 -0.19201791112E+02 -0.12027450945E+02 -0.14617109740E+03  0.14791672682E+03  0.00000000000E+00 0.  1.
          5    1    4    4  501    0 -0.74932764209E+02 -0.58189158695E+02 -0.35965086043E+02  0.10154731486E+03  0.41800000000E+01 0. -1.
         -5    1    4    4    0  501  0.27559212751E+02  0.30360567652E+02 -0.80635398919E+01  0.41997230280E+02  0.41800000000E+01 0. -1.
</event>
<event>
11    1  0.7105277E-009  0.2006695E+03  0.7561462E-02  0.1054051E+00
         22   -1    0    0    0    0  0.00000000000E+00  0.00000000000E+00  0.48826925937E+03  0.48826925937E+03  0.00000000000E+00 0.  1.
         22   -1    0    0    0    0 -0.00000000000E+00 -0.00000000000E+00 -0.20312764925E+04  0.20312764925E+04  0.00000000000E+00 0.  1.
         24    2    1    2    0    0 -0.28938608211E+02  0.10709258596E+02 -0.18820756420E+04  0.18839396424E+04  0.77895587751E+02 0.  0.
         25    2    1    2    0    0  0.11852950558E+03  0.11695533500E+03 -0.48469340683E+02  0.21383385291E+03  0.12509134897E+03 0.  0.
        -24    2    1    2    0    0 -0.89590897365E+02 -0.12766459360E+03  0.38753774962E+03  0.42177225653E+03  0.58151110439E+02 0.  0.
        -13    1    3    3    0    0 -0.22232213288E+02 -0.32774689396E+02 -0.82968075799E+03  0.83062543409E+03  0.00000000000E+00 0.  1.
         14    1    3    3    0    0 -0.67063949226E+01  0.43483947992E+02 -0.10523948841E+04  0.10533142083E+04  0.00000000000E+00 0. -1.
         13    1    5    5    0    0 -0.27580317040E+02 -0.39140577452E+01  0.72482038375E+02  0.77650754169E+02  0.00000000000E+00 0. -1.
        -14    1    5    5    0    0 -0.62010580325E+02 -0.12375053585E+03  0.31505571125E+03  0.34412150236E+03  0.00000000000E+00 0.  1.
          5    1    4    4  501    0  0.32825991164E+02  0.78469280544E+02  0.31084424344E+02  0.90656977238E+02  0.41800000000E+01 0. -1.
         -5    1    4    4    0  501  0.85703514411E+02  0.38486054459E+02 -0.79553765028E+02  0.12317687567E+03  0.41800000000E+01 0. -1.
</event>
<event>
11    1  0.7105277E-009  0.1692458E+03  0.7561462E-02  0.1078690E+00
         22   -1    0    0    0    0  0.00000000000E+00  0.00000000000E+00  0.51867457563E+03  0.51867457563E+03  0.00000000000E+00 0. -1.
         22   -1    0    0    0    0 -0.00000000000E+00 -0.00000000000E+00 -0.29953638395E+03  0.29953638395E+03  0.00000000000E+00 0. -1.
         24    2    1    2    0    0 -0.33556962163E+02  0.66748701290E+02 -0.22987226200E+03  0.25538147614E+03  0.82443815312E+02 0.  0.
         25    2    1    2    0    0  0.10168562657E+03 -0.13145012084E+03  0.22384965047E+03  0.30557387870E+03  0.12509048088E+03 0.  0.
        -24    2    1    2    0    0 -0.68128664410E+02  0.64701419547E+02  0.22516080322E+03  0.25725560474E+03  0.81579839775E+02 0.  0.
        -11    1    3    3    0    0 -0.21385849402E+02 -0.17725054614E+01 -0.80849639497E+01  0.22931702342E+02  0.00000000000E+00 0.  1.
         12    1    3    3    0    0 -0.12171112762E+02  0.68521206751E+02 -0.22178729805E+03  0.23244977380E+03  0.00000000000E+00 0. -1.
         11    1    5    5    0    0 -0.55102947667E+02  0.82360630740E+02  0.15707140590E+03  0.18571762137E+03  0.00000000000E+00 0. -1.
        -12    1    5    5    0    0 -0.13025716743E+02 -0.17659211193E+02  0.68089397319E+02  0.71537983365E+02  0.00000000000E+00 0.  1.
          5    1    4    4  501    0  0.12409729776E+03 -0.13451163438E+03  0.21055287358E+03  0.27900448754E+03  0.41800000000E+01 0. -1.
         -5    1    4    4    0  501 -0.22411671191E+02  0.30615135391E+01  0.13296776889E+02  0.26569391155E+02  0.41800000000E+01 0. -1.
</event>
<event>
11    1  0.7105277E-009  0.1314006E+03  0.7561462E-02  0.1117560E+00
         22   -1    0    0    0    0  0.00000000000E+00  0.00000000000E+00  0.21417438284E+04  0.21417438284E+04  0.00000000000E+00 0. -1.
         22   -1    0    0    0    0 -0.00000000000E+00 -0.00000000000E+00 -0.10550541737E+04  0.10550541737E+04  0.00000000000E+00 0.  1.
         24    2    1    2    0    0  0.19328820882E+02  0.15793851225E+02 -0.64136067740E+03  0.64693058139E+03  0.80948190656E+02 0.  0.
         25    2    1    2    0    0  0.12988805542E+02 -0.39786187610E+02 -0.39937943151E+03  0.42059807589E+03  0.12508861392E+03 0.  0.
        -24    2    1    2    0    0 -0.32317626424E+02  0.23992336385E+02  0.21274297636E+04  0.21292693448E+04  0.78806614647E+02 0.  0.
        -13    1    3    3    0    0 -0.11577214511E+02  0.42365264567E+02 -0.34159480879E+03  0.34440653439E+03  0.00000000000E+00 0.  1.
         14    1    3    3    0    0  0.30906035393E+02 -0.26571413343E+02 -0.29976586861E+03  0.30252404700E+03  0.00000000000E+00 0. -1.
         11    1    5    5    0    0 -0.28099505864E+02  0.18644130701E+02  0.21134445872E+04  0.21137136061E+04  0.00000000000E+00 0. -1.
        -12    1    5    5    0    0 -0.42181205598E+01  0.53482056845E+01  0.13985176439E+02  0.15555738656E+02  0.00000000000E+00 0.  1.
          5    1    4    4  501    0  0.33250581834E+02  0.23342712596E+02 -0.48134202102E+02  0.63125725625E+02  0.41800000000E+01 0.  1.
         -5    1    4    4    0  501 -0.20261776293E+02 -0.63128900206E+02 -0.35124522941E+03  0.35747235026E+03  0.41800000000E+01 0.  1.
</event>
<event>
11    1  0.7105277E-009  0.2301529E+03  0.7561462E-02  0.1035037E+00
         22   -1    0    0    0    0  0.00000000000E+00  0.00000000000E+00  0.13410603709E+04  0.13410603709E+04  0.00000000000E+00 0.  1.
         22   -1    0    0    0    0 -0.00000000000E+00 -0.00000000000E+00 -0.13739043965E+04  0.13739043965E+04  0.00000000000E+00 0. -1.
         24    2    1    2    0    0  0.36361690430E+02 -0.62934709186E+02 -0.11356114530E+04  0.11407430941E+04  0.79990526758E+02 0.  0.
         25    2    1    2    0    0 -0.10036432574E+03 -0.12117060127E+03 -0.18265832604E+03  0.27160087886E+03  0.12509061048E+03 0.  0.
        -24    2    1    2    0    0  0.64002635310E+02  0.18410531046E+03  0.12854257535E+04  0.13026207944E+04  0.80687443122E+02 0.  0.
        -13    1    3    3    0    0  0.55752108335E+01  0.93697180763E+01 -0.24036829408E+02  0.26394009939E+02  0.00000000000E+00 0.  1.
         14    1    3    3    0    0  0.30786479596E+02 -0.72304427262E+02 -0.11115746236E+04  0.11143490842E+04  0.00000000000E+00 0. -1.
         11    1    5    5    0    0  0.11460800444E+02  0.84349858329E+02  0.33992603927E+03  0.35042254597E+03  0.00000000000E+00 0. -1.
        -12    1    5    5    0    0  0.52541834866E+02  0.99755452131E+02  0.94549971427E+03  0.95219824844E+03  0.00000000000E+00 0.  1.
          5    1    4    4  501    0 -0.72418913041E+02 -0.11812736174E+02 -0.24943561448E+02  0.77612456214E+02  0.41800000000E+01 0.  1.
         -5    1    4    4    0  501 -0.27945412699E+02 -0.10935786510E+03 -0.15771476459E+03  0.19398842265E+03  0.41800000000E+01 0.  1.
</event>
<event>
11    1  0.7105277E-009  0.1326022E+03  0.7561462E-02  0.1116112E+00
         22   -1    0    0    0    0  0.00000000000E+00  0.00000000000E+00  0.32272437431E+03  0.32272437431E+03  0.00000000000E+00 0. -1.
         22   -1    0    0    0    0 -0.00000000000E+00 -0.00000000000E+00 -0.12468106151E+03  0.12468106151E+03  0.00000000000E+00 0. -1.
        -24    2    1    2    0    0 -0.13658234994E+02  0.52377183382E+02 -0.44628917213E+02  0.10657144330E+03  0.80223534910E+02 0.  0.
         25    2    1    2    0    0 -0.10908554475E+02 -0.11611745766E+02  0.70163525182E+02  0.14430439729E+03  0.12508800746E+03 0.  0.
         24    2    1    2    0    0  0.24566789469E+02 -0.40765437616E+02  0.17250870482E+03  0.19652959523E+03  0.81235955782E+02 0.  0.
        -13    1    5    5    0    0 -0.48859386667E+01 -0.69146343584E+01 -0.73170435056E+01  0.11190339165E+02  0.00000000000E+00 0.  1.
         14    1    5    5    0    0  0.29452728135E+02 -0.33850803258E+02  0.17982574833E+03  0.18533925606E+03  0.00000000000E+00 0. -1.
         11    1    3    3    0    0 -0.13125182594E+02  0.92748692120E+01 -0.58987175165E+02  0.61137389959E+02  0.00000000000E+00 0. -1.
        -12    1    3    3    0    0 -0.53305239948E+00  0.43102314170E+02  0.14358257952E+02  0.45434053342E+02  0.00000000000E+00 0.  1.
          5    1    4    4  501    0 -0.59255160607E+02  0.77790011289E+01  0.40702313152E+01  0.60047698541E+02  0.41800000000E+01 0. -1.
         -5    1    4    4    0  501  0.48346606132E+02 -0.19390746895E+02  0.66093293866E+02  0.84256698747E+02  0.41800000000E+01 0. -1.
</event>
<event>
11    1  0.7105277E-009  0.1909195E+03  0.7561462E-02  0.1061137E+00
         22   -1    0    0    0    0  0.00000000000E+00  0.00000000000E+00  0.30646249843E+03  0.30646249843E+03  0.00000000000E+00 0.  1.
         22   -1    0    0    0    0 -0.00000000000E+00 -0.00000000000E+00 -0.93800587692E+03  0.93800587692E+03  0.00000000000E+00 0. -1.
         24    2    1    2    0    0  0.69942752756E+02 -0.46282901412E+02 -0.80710203595E+03  0.81519769222E+03  0.78099202008E+02 0.  0.
         25    2    1    2    0    0  0.78561665020E+02 -0.39813237683E+02 -0.16738597019E+02  0.15388372855E+03  0.12507194800E+03 0.  0.
        -24    2    1    2    0    0 -0.14850441778E+03  0.86096139095E+02  0.19229725447E+03  0.27538695457E+03  0.96920758395E+02 0.  0.
        -13    1    3    3    0    0 -0.79788883039E+01 -0.15407487843E+02 -0.40944141293E+02  0.44468821059E+02  0.00000000000E+00 0.  1.
         14    1    3    3    0    0  0.77921641060E+02 -0.30875413569E+02 -0.76615789465E+03  0.77072887117E+03  0.00000000000E+00 0. -1.
         13    1    5    5    0    0 -0.12584748917E+03  0.70784935407E+02  0.91484481124E+02  0.17093129584E+03  0.00000000000E+00 0. -1.
        -14    1    5    5    0    0 -0.22656928605E+02  0.15311203688E+02  0.10081277335E+03  0.10445565873E+03  0.00000000000E+00 0.  1.
          5    1    4    4  501    0  0.16875635294E+01 -0.54840671695E+02  0.29900898797E+02  0.62624941449E+02  0.41800000000E+01 0.  1.
         -5    1    4    4    0  501  0.76874101490E+02  0.15027434012E+02 -0.46639495816E+02  0.91258787100E+02  0.41800000000E+01 0.  1.
</event>
<event>
11    1  0.7105277E-009  0.1471329E+03  0.7561462E-02  0.1099845E+00
         22   -1    0    0    0    0  0.00000000000E+00  0.00000000000E+00  0.89054012722E+03  0.89054012722E+03  0.00000000000E+00 0.  1.
         22   -1    0    0    0    0 -0.00000000000E+00 -0.00000000000E+00 -0.14815993873E+03  0.14815993873E+03  0.00000000000E+00 0.  1.
         24    2    1    2    0    0 -0.52295897566E+01 -0.75309212159E+02 -0.83212258236E+02  0.13854089457E+03  0.81058457324E+02 0.  0.
         25    2    1    2    0    0 -0.11472839324E+02  0.90420728802E+02  0.13789889941E+03  0.20729912520E+03  0.12509710873E+03 0.  0.
        -24    2    1    2    0    0  0.16702429081E+02 -0.15111516643E+02  0.68769354732E+03  0.69286004618E+03  0.81395942755E+02 0.  0.
        -13    1    3    3    0    0 -0.10772637304E+02 -0.74843843579E+02 -0.97397387351E+02  0.12330410252E+03  0.00000000000E+00 0.  1.
         14    1    3    3    0    0  0.55430475476E+01 -0.46536858005E+00  0.14185129115E+02  0.15236792052E+02  0.00000000000E+00 0. -1.
         13    1    5    5    0    0 -0.50716984412E+01 -0.68357642772E+01  0.52112129446E+01  0.99803075447E+01  0.00000000000E+00 0. -1.
        -14    1    5    5    0    0  0.21774127522E+02 -0.82757523658E+01  0.68248233437E+03  0.68287973864E+03  0.00000000000E+00 0.  1.
          5    1    4    4  501    0  0.15866041935E+02 -0.24650729666E+02  0.56092667025E+02  0.63429089965E+02  0.41800000000E+01 0.  1.
         -5    1    4    4    0  501 -0.27338881259E+02  0.11507145847E+03  0.81806232385E+02  0.14387003524E+03  0.41800000000E+01 0.  1.
</event>
<event>
11    1  0.7105277E-009  0.1484833E+03  0.7561462E-02  0.1098439E+00
         22   -1    0    0    0    0  0.00000000000E+00  0.00000000000E+00  0.75830918188E+03  0.75830918188E+03  0.00000000000E+00 0.  1.
         22   -1    0    0    0    0 -0.00000000000E+00 -0.00000000000E+00 -0.30427584369E+03  0.30427584369E+03  0.00000000000E+00 0. -1.
         24    2    1    2    0    0 -0.45201279111E+02  0.64548327119E+02 -0.20910062556E+03  0.23737407597E+03  0.80085817516E+02 0.  0.
         25    2    1    2    0    0  0.71553449550E+02 -0.54508289733E+02 -0.25269063707E+01  0.15409306746E+03  0.12508892194E+03 0.  0.
        -24    2    1    2    0    0 -0.26352170439E+02 -0.10040037386E+02  0.66566087012E+03  0.67111788213E+03  0.80619963225E+02 0.  0.
        -11    1    3    3    0    0 -0.37880505015E+01  0.20691418915E+02 -0.13888937469E+01  0.21081109296E+02  0.00000000000E+00 0.  1.
         12    1    3    3    0    0 -0.41413228610E+02  0.43856908204E+02 -0.20771173181E+03  0.21629296668E+03  0.00000000000E+00 0. -1.
         13    1    5    5    0    0 -0.19203591521E+02  0.16616704194E+02  0.64431462671E+02  0.69255369232E+02  0.00000000000E+00 0. -1.
        -14    1    5    5    0    0 -0.71485789184E+01 -0.26656741580E+02  0.60122940745E+03  0.60186251290E+03  0.00000000000E+00 0.  1.
          5    1    4    4  501    0  0.78900362237E+02 -0.12238267633E+00  0.36084681959E+02  0.86861146727E+02  0.41800000000E+01 0. -1.
         -5    1    4    4    0  501 -0.73469126864E+01 -0.54385907057E+02 -0.38611588330E+02  0.67231920735E+02  0.41800000000E+01 0. -1.
</event>
<event>
11    1  0.7105277E-009  0.1497456E+03  0.7561462E-02  0.1097139E+00
         22   -1    0    0    0    0  0.00000000000E+00  0.00000000000E+00  0.71039846567E+03  0.71039846567E+03  0.00000000000E+00 0.  1.
         22   -1    0    0    0    0 -0.00000000000E+00 -0.00000000000E+00 -0.96416997226E+03  0.96416997226E+03  0.00000000000E+00 0.  1.
        -24    2    1    2    0    0  0.38823036272E+02  0.55539268360E+02 -0.92964878534E+03  0.93561139330E+03  0.80808271385E+02 0.  0.
         25    2    1    2    0    0  0.31130799738E+02  0.13482841455E+02  0.15130362849E+03  0.19922805798E+03  0.12509243536E+03 0.  0.
         24    2    1    2    0    0 -0.69953836010E+02 -0.69022109815E+02  0.52457365025E+03  0.53972898665E+03  0.80450442375E+02 0.  0.
        -11    1    5    5    0    0 -0.84726870408E+00 -0.34608992463E+02  0.30540741674E+03  0.30736328737E+03  0.00000000000E+00 0.  1.
         12    1    5    5    0    0 -0.69106567306E+02 -0.34413117352E+02  0.21916623351E+03  0.23236569927E+03  0.00000000000E+00 0. -1.
         13    1    3    3    0    0 -0.19822399549E+02  0.14091914927E+02 -0.10228056622E+03  0.10513241088E+03  0.00000000000E+00 0. -1.
        -14    1    3    3    0    0  0.58645435820E+02  0.41447353434E+02 -0.82736821912E+03  0.83047898243E+03  0.00000000000E+00 0.  1.
          5    1    4    4  501    0  0.36579945385E+02 -0.90077302282E+01  0.16680855677E+03  0.17106080387E+03  0.41800000000E+01 0.  1.
         -5    1    4    4    0  501 -0.54491456467E+01  0.22490571683E+02 -0.15504928278E+02  0.28167254105E+02  0.41800000000E+01 0.  1.
</event>
<event>
11    1  0.7105277E-009  0.1677842E+03  0.7561462E-02  0.1079976E+00
         22   -1    0    0    0    0  0.00000000000E+00  0.00000000000E+00  0.10218139625E+04  0.10218139625E+04  0.00000000000E+00 0.  1.
         22   -1    0    0    0    0 -0.00000000000E+00 -0.00000000000E+00 -0.61795330254E+03  0.61795330254E+03  0.00000000000E+00 0.  1.
        -24    2    1    2    0    0 -0.12907527205E+03  0.51471492207E+02 -0.33457138304E+03  0.37104277643E+03  0.80156042994E+02 0.  0.
         25    2    1    2    0    0  0.73788678633E+02 -0.32218101067E+02 -0.24178559891E+03  0.28388606334E+03  0.12509294939E+03 0.  0.
         24    2    1    2    0    0  0.55286593413E+02 -0.19253391140E+02  0.98021764194E+03  0.98483842529E+03  0.75185090740E+02 0.  0.
        -11    1    5    5    0    0  0.63384164152E+02 -0.70355541341E+01  0.93768114041E+03  0.93984731333E+03  0.00000000000E+00 0.  1.
         12    1    5    5    0    0 -0.80975707390E+01 -0.12217837006E+02  0.42536501527E+02  0.44991111957E+02  0.00000000000E+00 0. -1.
         11    1    3    3    0    0 -0.68815835768E+01 -0.18316921830E+02 -0.46042406970E+02  0.50027682911E+02  0.00000000000E+00 0. -1.
        -12    1    3    3    0    0 -0.12219368847E+03  0.69788414037E+02 -0.28852897607E+03  0.32101509352E+03  0.00000000000E+00 0.  1.
          5    1    4    4  501    0 -0.14752188527E+02  0.25932939541E+02 -0.15237252792E+02  0.33760786309E+02  0.41800000000E+01 0.  1.
         -5    1    4    4    0  501  0.88540867160E+02 -0.58151040609E+02 -0.22654834612E+03  0.25012527704E+03  0.41800000000E+01 0.  1.
</event>
<event>
11    1  0.7105277E-009  0.1452780E+03  0.7561462E-02  0.1101804E+00
         22   -1    0    0    0    0  0.00000000000E+00  0.00000000000E+00  0.29489790290E+03  0.29489790290E+03  0.00000000000E+00 0.  1.
         22   -1    0    0    0    0 -0.00000000000E+00 -0.00000000000E+00 -0.49540395241E+03  0.49540395241E+03  0.00000000000E+00 0. -1.
         24    2    1    2    0    0  0.45568048319E+02 -0.61416688419E+02 -0.39122392556E+03  0.40625361387E+03  0.78341446322E+02 0.  0.
         25    2    1    2    0    0  0.14501542032E+02  0.73191770204E+02 -0.22403427120E+02  0.14736273229E+03  0.12508609585E+03 0.  0.
        -24    2    1    2    0    0 -0.60069590351E+02 -0.11775081785E+02  0.21312130317E+03  0.23668550915E+03  0.82778814567E+02 0.  0.
        -11    1    3    3    0    0 -0.10374706912E+01  0.15830657386E+02 -0.30029921038E+02  0.33962953586E+02  0.00000000000E+00 0.  1.
         12    1    3    3    0    0  0.46605519010E+02 -0.77247345804E+02 -0.36119400452E+03  0.37229066028E+03  0.00000000000E+00 0. -1.
         13    1    5    5    0    0  0.16315950784E+02 -0.10927775332E+01  0.94211851449E+01  0.18872285030E+02  0.00000000000E+00 0. -1.
        -14    1    5    5    0    0 -0.76385541135E+02 -0.10682304252E+02  0.20370011803E+03  0.21781322412E+03  0.00000000000E+00 0.  1.
          5    1    4    4  501    0 -0.10162188102E+02  0.84230410204E+02  0.28485651466E+02  0.89593173900E+02  0.41800000000E+01 0. -1.
         -5    1    4    4    0  501  0.24663730134E+02 -0.11038640000E+02 -0.50889078586E+02  0.57769558389E+02  0.41800000000E+01 0. -1.
</event>
<event>
11    1  0.7105277E-009  0.1372909E+03  0.7561462E-02  0.1110622E+00
         22   -1    0    0    0    0  0.00000000000E+00  0.00000000000E+00  0.84481223032E+03  0.84481223032E+03  0.00000000000E+00 0. -1.
         22   -1    0    0    0    0 -0.00000000000E+00 -0.00000000000E+00 -0.18048295659E+03  0.18048295659E+03  0.00000000000E+00 0. -1.
         24    2    1    2    0    0 -0.63685216448E+01 -0.76309944921E+01 -0.15214358056E+03  0.17202781806E+03  0.79668757599E+02 0.  0.
         25    2    1    2    0    0  0.22055194070E+02  0.59188898239E+02  0.36381429909E+03  0.38987012479E+03  0.12509241671E+03 0.  0.
        -24    2    1    2    0    0 -0.15686672425E+02 -0.51557903747E+02  0.45265855521E+03  0.46339724406E+03  0.83264332523E+02 0.  0.
        -11    1    3    3    0    0  0.53926465445E+01 -0.36605055841E+02 -0.35539705987E+02  0.51303815174E+02  0.00000000000E+00 0.  1.
         12    1    3    3    0    0 -0.11761168189E+02  0.28974061348E+02 -0.11660387457E+03  0.12072400289E+03  0.00000000000E+00 0. -1.
         11    1    5    5    0    0  0.49300661997E+00 -0.72613063194E+02  0.32793037922E+03  0.33587383587E+03  0.00000000000E+00 0. -1.
        -12    1    5    5    0    0 -0.16179679045E+02  0.21055159447E+02  0.12472817598E+03  0.12752340819E+03  0.00000000000E+00 0.  1.
          5    1    4    4  501    0  0.12075231826E+02  0.72996576330E+02  0.95007429116E+02  0.12049147425E+03  0.41800000000E+01 0.  1.
         -5    1    4    4    0  501  0.99799622441E+01 -0.13807678091E+02  0.26880686997E+03  0.26937865054E+03  0.41800000000E+01 0.  1.
</event>
<event>
11    1  0.7105277E-009  0.1322142E+03  0.7561462E-02  0.1116578E+00
         22   -1    0    0    0    0  0.00000000000E+00  0.00000000000E+00  0.35604430428E+03  0.35604430428E+03  0.00000000000E+00 0.  1.
         22   -1    0    0    0    0 -0.00000000000E+00 -0.00000000000E+00 -0.36907118697E+03  0.36907118697E+03  0.00000000000E+00 0.  1.
         24    2    1    2    0    0 -0.10691763502E+02  0.29747003640E+02 -0.31759824312E+03  0.32867974626E+03  0.78501805969E+02 0.  0.
         25    2    1    2    0    0 -0.34127235044E+02 -0.21549087458E+02  0.79452209843E+02  0.15358466261E+03  0.12508622466E+03 0.  0.
        -24    2    1    2    0    0  0.44818998547E+02 -0.81979161814E+01  0.22511915058E+03  0.24285108237E+03  0.78880084886E+02 0.  0.
        -11    1    3    3    0    0 -0.15123034614E+02  0.76204701272E+01 -0.29888436827E+03  0.29936373083E+03  0.00000000000E+00 0.  1.
         12    1    3    3    0    0  0.44312711121E+01  0.22126533513E+02 -0.18713874843E+02  0.29316015428E+02  0.00000000000E+00 0. -1.
         11    1    5    5    0    0 -0.11506247658E+02  0.17644733045E+02  0.21872151242E+02  0.30366450885E+02  0.00000000000E+00 0. -1.
        -12    1    5    5    0    0  0.56325246204E+02 -0.25842649226E+02  0.20324699934E+03  0.21248463149E+03  0.00000000000E+00 0.  1.
          5    1    4    4  501    0  0.45553822409E+02  0.64630560844E+01  0.35608652441E+02  0.58329841065E+02  0.41800000000E+01 0.  1.
         -5    1    4    4    0  501 -0.79681057453E+02 -0.28012143543E+02  0.43843557402E+02  0.95254821549E+02  0.41800000000E+01 0.  1.
</event>
<event>
11    1  0.7105277E-009  0.1514969E+03  0.7561462E-02  0.1095359E+00
         22   -1    0    0    0    0  0.00000000000E+00  0.00000000000E+00  0.16499691631E+04  0.16499691631E+04  0.00000000000E+00 0. -1.
         22   -1    0    0    0    0 -0.00000000000E+00 -0.00000000000E+00 -0.38462563935E+03  0.38462563935E+03  0.00000000000E+00 0. -1.
         24    2    1    2    0    0  0.71621417083E+02 -0.47461343422E+02 -0.36583593950E+03  0.38414604093E+03  0.79687135886E+02 0.  0.
         25    2    1    2    0    0  0.47050510170E-01  0.60190819673E+02  0.88154015362E+03  0.89241081613E+03  0.12514425804E+03 0.  0.
        -24    2    1    2    0    0 -0.71668467593E+02 -0.12729476251E+02  0.74963930965E+03  0.75803794541E+03  0.85813887523E+02 0.  0.
        -11    1    3    3    0    0  0.81691397725E+01  0.46511574224E+01 -0.19841628314E+00  0.94025251402E+01  0.00000000000E+00 0.  1.
         12    1    3    3    0    0  0.63452277311E+02 -0.52112500845E+02 -0.36563752322E+03  0.37474351579E+03  0.00000000000E+00 0. -1.
         11    1    5    5    0    0 -0.32183478321E+02 -0.92851500903E+01  0.64916519769E+03  0.65002880258E+03  0.00000000000E+00 0. -1.
        -12    1    5    5    0    0 -0.39484989272E+02 -0.34443261602E+01  0.10047411196E+03  0.10800914283E+03  0.00000000000E+00 0.  1.
          5    1    4    4  501    0 -0.56308273101E+02  0.31398178109E+02  0.27142165676E+03  0.27900475868E+03  0.41800000000E+01 0. -1.
         -5    1    4    4    0  501  0.56355323612E+02  0.28792641564E+02  0.61011849686E+03  0.61340605745E+03  0.41800000000E+01 0. -1.
</event>
<event>
11    1  0.7105277E-009  0.1324409E+03  0.7561462E-02  0.1116306E+00
         22   -1    0    0    0    0  0.00000000000E+00  0.00000000000E+00  0.12833673850E+04  0.12833673850E+04  0.00000000000E+00 0.  1.
         22   -1    0    0    0    0 -0.00000000000E+00 -0.00000000000E+00 -0.11934222685E+03  0.11934222685E+03  0.00000000000E+00 0.  1.
        -24    2    1    2    0    0 -0.18540891995E+02 -0.13100089949E+02 -0.78527623197E+02  0.11461815732E+03  0.80345238507E+02 0.  0.
         25    2    1    2    0    0 -0.23323301822E+02  0.28564936294E+02  0.18440496903E+03  0.22585988322E+03  0.12509021646E+03 0.  0.
         24    2    1    2    0    0  0.41864193816E+02 -0.15464846345E+02  0.10581478123E+04  0.10622315713E+04  0.81653819090E+02 0.  0.
        -13    1    5    5    0    0  0.30743688980E+02 -0.28574335993E+02  0.10137993161E+04  0.10146677882E+04  0.00000000000E+00 0.  1.
         14    1    5    5    0    0  0.11120504836E+02  0.13109489647E+02  0.44348496237E+02  0.47563783125E+02  0.00000000000E+00 0. -1.
         13    1    3    3    0    0 -0.20845712236E+02  0.14578667565E+02  0.55805288942E+01  0.26042725843E+02  0.00000000000E+00 0. -1.
        -14    1    3    3    0    0  0.23048202409E+01 -0.27678757514E+02 -0.84108152091E+02  0.88575431481E+02  0.00000000000E+00 0.  1.
          5    1    4    4  501    0 -0.29566531649E+02  0.62586974774E+02  0.46188628349E+02  0.83319691513E+02  0.41800000000E+01 0.  1.
         -5    1    4    4    0  501  0.62432298270E+01 -0.34022038480E+02  0.13821634068E+03  0.14254019171E+03  0.41800000000E+01 0.  1.
</event>
<event>
11    1  0.7105277E-009  0.1373434E+03  0.7561462E-02  0.1110562E+00
         22   -1    0    0    0    0  0.00000000000E+00  0.00000000000E+00  0.69494499951E+03  0.69494499951E+03  0.00000000000E+00 0. -1.
         22   -1    0    0    0    0 -0.00000000000E+00 -0.00000000000E+00 -0.16348358395E+03  0.16348358395E+03  0.00000000000E+00 0. -1.
         24    2    1    2    0    0  0.25835128340E+01 -0.51272151120E+02 -0.10047242623E+03  0.13930860661E+03  0.81710901504E+02 0.  0.
         25    2    1    2    0    0 -0.14120338665E+02 -0.94593903405E+01  0.62728079127E+02  0.14096413397E+03  0.12508881295E+03 0.  0.
        -24    2    1    2    0    0  0.11536825831E+02  0.60731541460E+02  0.56920576266E+03  0.57815584287E+03  0.80296699342E+02 0.  0.
        -11    1    3    3    0    0  0.41792677455E+02 -0.22622089898E+02 -0.56158171494E+02  0.73567160240E+02  0.00000000000E+00 0.  1.
         12    1    3    3    0    0 -0.39209164621E+02 -0.28650061222E+02 -0.44314254736E+02  0.65741446372E+02  0.00000000000E+00 0. -1.
         11    1    5    5    0    0  0.37428249591E+02  0.16594075387E+02  0.37836863673E+03  0.38057727529E+03  0.00000000000E+00 0. -1.
        -12    1    5    5    0    0 -0.25891423760E+02  0.44137466073E+02  0.19083712593E+03  0.19757856759E+03  0.00000000000E+00 0.  1.
          5    1    4    4  501    0  0.34275484761E+02 -0.48646321772E+02  0.12737884583E+02  0.60999996568E+02  0.41800000000E+01 0. -1.
         -5    1    4    4    0  501 -0.48395823426E+02  0.39186931432E+02  0.49990194544E+02  0.79964137403E+02  0.41800000000E+01 0. -1.
</event>
<event>
11    1  0.7105277E-009  0.1833590E+03  0.7561462E-02  0.1066958E+00
         22   -1    0    0    0    0  0.00000000000E+00  0.00000000000E+00  0.30655003065E+03  0.30655003065E+03  0.00000000000E+00 0. -1.
         22   -1    0    0    0    0 -0.00000000000E+00 -0.00000000000E+00 -0.66579159024E+03  0.66579159024E+03  0.00000000000E+00 0. -1.
         24    2    1    2    0    0 -0.95144944072E+02  0.11866481419E+03 -0.45686505249E+03  0.48790182585E+03  0.78667763236E+02 0.  0.
         25    2    1    2    0    0 -0.15628281327E+02 -0.11378178378E+03 -0.13354792344E+03  0.21603897245E+03  0.12508897739E+03 0.  0.
        -24    2    1    2    0    0  0.11077322540E+03 -0.48830304092E+01  0.23117141635E+03  0.26840082259E+03  0.79399158545E+02 0.  0.
        -13    1    3    3    0    0 -0.73133733383E+02  0.53706828768E+02 -0.16726206071E+03  0.19028810622E+03  0.00000000000E+00 0.  1.
         14    1    3    3    0    0 -0.22011210689E+02  0.64957985421E+02 -0.28960299178E+03  0.29761371963E+03  0.00000000000E+00 0. -1.
         11    1    5    5    0    0  0.92723967207E+02 -0.13469984113E+02  0.23002973313E+03  0.24838045956E+03  0.00000000000E+00 0. -1.
        -12    1    5    5    0    0  0.18049258192E+02  0.85869537033E+01  0.11416832172E+01  0.20020363028E+02  0.00000000000E+00 0.  1.
          5    1    4    4  501    0  0.24853511662E+01 -0.95763792778E+02 -0.17918770686E+02  0.97547094885E+02  0.41800000000E+01 0.  1.
         -5    1    4    4    0  501 -0.18113632493E+02 -0.18017991002E+02 -0.11562915276E+03  0.11849187757E+03  0.41800000000E+01 0.  1.
</event>
<event>
11    1  0.7105277E-009  0.1704640E+03  0.7561462E-02  0.1077629E+00
         22   -1    0    0    0    0  0.00000000000E+00  0.00000000000E+00  0.18086754034E+04  0.18086754034E+04  0.00000000000E+00 0.  1.
         22   -1    0    0    0    0 -0.00000000000E+00 -0.00000000000E+00 -0.28747052190E+03  0.28747052190E+03  0.00000000000E+00 0.  1.
        -24    2    1    2    0    0 -0.10753155151E+03  0.42828287975E+02 -0.24657137015E+03  0.28460242632E+03  0.82485172434E+02 0.  0.
         25    2    1    2    0    0  0.11092698039E+03 -0.37385623381E+02  0.33262428034E+03  0.37415034525E+03  0.12508832546E+03 0.  0.
         24    2    1    2    0    0 -0.33954288717E+01 -0.54426645949E+01  0.14351519713E+04  0.14373931537E+04  0.79979660745E+02 0.  0.
        -11    1    5    5    0    0 -0.14789439818E+02 -0.40581062344E+02  0.73678585361E+03  0.73805077348E+03  0.00000000000E+00 0.  1.
         12    1    5    5    0    0  0.11394010946E+02  0.35138397749E+02  0.69836611767E+03  0.69934238023E+03  0.00000000000E+00 0. -1.
         11    1    3    3    0    0 -0.61116147154E+02 -0.19377566640E+02 -0.10096389443E+03  0.11960092604E+03  0.00000000000E+00 0. -1.
        -12    1    3    3    0    0 -0.46415404360E+02  0.62205854616E+02 -0.14560747572E+03  0.16500150028E+03  0.00000000000E+00 0.  1.
          5    1    4    4  501    0  0.38635667009E+02 -0.78741192475E+02  0.17757160220E+03  0.19809602840E+03  0.41800000000E+01 0. -1.
         -5    1    4    4    0  501  0.72291313376E+02  0.41355569095E+02  0.15505267813E+03  0.17605431685E+03  0.41800000000E+01 0. -1.
</event>
<event>
11    1  0.7105277E-009  0.1265105E+03  0.7561462E-02  0.1123632E+00
         22   -1    0    0    0    0  0.00000000000E+00  0.00000000000E+00  0.19606878090E+03  0.19606878090E+03  0.00000000000E+00 0. -1.
         22   -1    0    0    0    0 -0.00000000000E+00 -0.00000000000E+00 -0.12368939875E+04  0.12368939875E+04  0.00000000000E+00 0.  1.
         24    2    1    2    0    0  0.25839021590E+02 -0.32103695064E+01 -0.66632233945E+03  0.67165464293E+03  0.80352584333E+02 0.  0.
         25    2    1    2    0    0 -0.28760093911E+00 -0.10215071317E+01 -0.55145722326E+03  0.56546765482E+03  0.12508986117E+03 0.  0.
        -24    2    1    2    0    0 -0.25551420651E+02  0.42318766381E+01  0.17695435613E+03  0.19584047063E+03  0.79811414628E+02 0.  0.
        -13    1    3    3    0    0  0.10425045947E+01 -0.25827301982E+02 -0.54948131954E+03  0.55008895360E+03  0.00000000000E+00 0.  1.
         14    1    3    3    0    0  0.24796516995E+02  0.22616932476E+02 -0.11684101991E+03  0.12156568933E+03  0.00000000000E+00 0. -1.
         13    1    5    5    0    0 -0.50969437202E+02  0.13375966500E+02  0.85077391150E+02  0.10007478450E+03  0.00000000000E+00 0. -1.
        -14    1    5    5    0    0  0.25418016551E+02 -0.91440898623E+01  0.91876964983E+02  0.95765686126E+02  0.00000000000E+00 0.  1.
          5    1    4    4  501    0  0.72814527788E+01 -0.30107787464E+01 -0.55560287341E+03  0.55567446377E+03  0.41800000000E+01 0.  1.
         -5    1    4    4    0  501 -0.75690537179E+01  0.19892716148E+01  0.41456501501E+01  0.97931910483E+01  0.41800000000E+01 0.  1.
</event>
<event>
11    1  0.7105277E-009  0.1991458E+03  0.7561462E-02  0.1055129E+00
         22   -1    0    0    0    0  0.00000000000E+00  0.00000000000E+00  0.16316351202E+03  0.16316351202E+03  0.00000000000E+00 0. -1.
         22   -1    0    0    0    0 -0.00000000000E+00 -0.00000000000E+00 -0.80346834940E+03  0.80346834940E+03  0.00000000000E+00 0. -1.
        -24    2    1    2    0    0 -0.97743711746E+02 -0.13344145744E+03 -0.64914731639E+03  0.67494443738E+03  0.82445736234E+02 0.  0.
         25    2    1    2    0    0  0.93935103649E+02  0.55442895922E+02 -0.37527531857E+02  0.17015809931E+03  0.12509094575E+03 0.  0.
         24    2    1    2    0    0  0.38086080973E+01  0.77998561514E+02  0.46370010866E+02  0.12152932473E+03  0.80752199769E+02 0.  0.
        -11    1    5    5    0    0 -0.28694555262E+02  0.68812515750E+02  0.16321030367E+02  0.76321136376E+02  0.00000000000E+00 0.  1.
         12    1    5    5    0    0  0.32503163359E+02  0.91860457638E+01  0.30048980499E+02  0.45208188353E+02  0.00000000000E+00 0. -1.
         13    1    3    3    0    0 -0.76944408776E+02 -0.88297628230E+02 -0.56667861077E+03  0.57865495858E+03  0.00000000000E+00 0. -1.
        -14    1    3    3    0    0 -0.20799302970E+02 -0.45143829206E+02 -0.82468705624E+02  0.96289478795E+02  0.00000000000E+00 0.  1.
          5    1    4    4  501    0  0.72914532815E+02  0.94898199991E+02 -0.36714352774E+02  0.12525020382E+03  0.41800000000E+01 0. -1.
         -5    1    4    4    0  501  0.21020570834E+02 -0.39455304069E+02 -0.81317908348E+00  0.44907895493E+02  0.41800000000E+01 0. -1.
</event>
<event>
11    1  0.7105277E-009  0.1268279E+03  0.7561462E-02  0.1123229E+00
         22   -1    0    0    0    0  0.00000000000E+00  0.00000000000E+00  0.10667032190E+04  0.10667032190E+04  0.00000000000E+00 0.  1.
         22   -1    0    0    0    0 -0.00000000000E+00 -0.00000000000E+00 -0.39857498122E+03  0.39857498122E+03  0.00000000000E+00 0. -1.
         24    2    1    2    0    0 -0.10169152278E+02 -0.16771133810E+02 -0.34992316037E+03  0.36071723698E+03  0.85358211677E+02 0.  0.
         25    2    1    2    0    0  0.14461328461E+02  0.47331803181E+02  0.68248552245E+02  0.15084292256E+03  0.12508514216E+03 0.  0.
        -24    2    1    2    0    0 -0.42921761833E+01 -0.30560669372E+02  0.94980284595E+03  0.95371804073E+03  0.80624299957E+02 0.  0.
        -13    1    3    3    0    0 -0.17502637681E+01  0.12526971732E+02 -0.37336527327E+01  0.13188199527E+02  0.00000000000E+00 0.  1.
         14    1    3    3    0    0 -0.84188885096E+01 -0.29298105541E+02 -0.34618950764E+03  0.34752903745E+03  0.00000000000E+00 0. -1.
         11    1    5    5    0    0 -0.11417688857E+02 -0.48071987423E+02  0.33495232434E+03  0.33857693243E+03  0.00000000000E+00 0. -1.
        -12    1    5    5    0    0  0.71255126739E+01  0.17511318051E+02  0.61485052162E+03  0.61514110830E+03  0.00000000000E+00 0.  1.
          5    1    4    4  501    0  0.21689133246E+02  0.87500998421E+02  0.30979985694E+02  0.95415277284E+02  0.41800000000E+01 0. -1.
         -5    1    4    4    0  501 -0.72278047849E+01 -0.40169195239E+02  0.37268566552E+02  0.55427645278E+02  0.41800000000E+01 0. -1.
</event>
<event>
11    1  0.7105277E-009  0.1383871E+03  0.7561462E-02  0.1109373E+00
         22   -1    0    0    0    0  0.00000000000E+00  0.00000000000E+00  0.15531544404E+04  0.15531544404E+04  0.00000000000E+00 0. -1.
         22   -1    0    0    0    0 -0.00000000000E+00 -0.00000000000E+00 -0.35784457897E+03  0.35784457897E+03  0.00000000000E+00 0.  1.
        -24    2    1    2    0    0 -0.40549046003E+02 -0.43156591807E+02 -0.33294026771E+03  0.34788492334E+03  0.81657709196E+02 0.  0.
         25    2    1    2    0    0  0.57164627349E+02  0.23925369300E+02  0.28984378859E+03  0.32171568799E+03  0.12510533240E+03 0.  0.
         24    2    1    2    0    0 -0.16615581345E+02  0.19231222507E+02  0.12384063406E+04  0.12413984081E+04  0.82303254681E+02 0.  0.
        -11    1    5    5    0    0  0.80007004804E+01 -0.22249288785E+02  0.14388358424E+03  0.14581333229E+03  0.00000000000E+00 0.  1.
         12    1    5    5    0    0 -0.24616281826E+02  0.41480511291E+02  0.10945227563E+04  0.10955850758E+04  0.00000000000E+00 0. -1.
         11    1    3    3    0    0 -0.52208914811E+02  0.29039492417E+01 -0.14906827021E+03  0.15797326638E+03  0.00000000000E+00 0. -1.
        -12    1    3    3    0    0  0.11659868808E+02 -0.46060541048E+02 -0.18387199751E+03  0.18991165696E+03  0.00000000000E+00 0.  1.
          5    1    4    4  501    0  0.44020805134E+02  0.74786046917E+02  0.18383031935E+03  0.20332693577E+03  0.41800000000E+01 0. -1.
         -5    1    4    4    0  501  0.13143822214E+02 -0.50860677617E+02  0.10601346924E+03  0.11838875221E+03  0.41800000000E+01 0. -1.
</event>
<event>
11    1  0.7105277E-009  0.1691954E+03  0.7561462E-02  0.1078734E+00
         22   -1    0    0    0    0  0.00000000000E+00  0.00000000000E+00  0.54556107315E+03  0.54556107315E+03  0.00000000000E+00 0. -1.
         22   -1    0    0    0    0 -0.00000000000E+00 -0.00000000000E+00 -0.46893861786E+03  0.46893861786E+03  0.00000000000E+00 0. -1.
        -24    2    1    2    0    0 -0.85582385674E+01 -0.11369159558E+03 -0.20401375738E+03  0.24658850474E+03  0.78646392906E+02 0.  0.
         25    2    1    2    0    0 -0.39293483427E+02  0.11300045124E+03 -0.20807465815E+03  0.27065849314E+03  0.12509147342E+03 0.  0.
         24    2    1    2    0    0  0.47851721994E+02  0.69114433902E+00  0.48871087082E+03  0.49725269313E+03  0.78304920597E+02 0.  0.
        -11    1    5    5    0    0 -0.17352694831E+02 -0.93334031993E+00  0.37245572111E+02  0.41100119026E+02  0.00000000000E+00 0.  1.
         12    1    5    5    0    0  0.65204416825E+02  0.16244846589E+01  0.45146529871E+03  0.45615257411E+03  0.00000000000E+00 0. -1.
         11    1    3    3    0    0  0.42447029010E+01 -0.46483580525E+02 -0.15644570227E+03  0.16326052346E+03  0.00000000000E+00 0. -1.
        -12    1    3    3    0    0 -0.12802941468E+02 -0.67208015056E+02 -0.47568055114E+02  0.83327981287E+02  0.00000000000E+00 0.  1.
          5    1    4    4  501    0  0.40353077325E+02  0.57117702936E+02 -0.12200615644E+03  0.14069036018E+03  0.41800000000E+01 0. -1.
         -5    1    4    4    0  501 -0.79646560752E+02  0.55882748305E+02 -0.86068501716E+02  0.12996813296E+03  0.41800000000E+01 0. -1.
</event>
<event>
11    1  0.1298929E-008  0.1705851E+03  0.7561462E-02  0.1077524E+00
         22   -1    0    0    0    0  0.00000000000E+00  0.00000000000E+00  0.87673685283E+03  0.87673685283E+03  0.00000000000E+00 0.  1.
         22   -1    0    0    0    0 -0.00000000000E+00 -0.00000000000E+00 -0.86982139459E+03  0.86982139459E+03  0.00000000000E+00 0. -1.
        -24    2    1    2    0    0 -0.45873698217E+02 -0.13505394484E+02 -0.61939220523E+03  0.62647202882E+03  0.80831349885E+02 0.  0.
         25    2    1    2    0    0  0.26694011117E+02  0.12774700269E+03 -0.20708340929E+03  0.27488663771E+03  0.12508900136E+03 0.  0.
         24    2    1    2    0    0  0.19179687100E+02 -0.11424160821E+03  0.83339107276E+03  0.84519958090E+03  0.80016535474E+02 0.  0.
        -13    1    5    5    0    0 -0.15567374460E+02 -0.89058131852E+02  0.42196906862E+03  0.43154558145E+03  0.00000000000E+00 0.  1.
         14    1    5    5    0    0  0.34747061560E+02 -0.25183476357E+02  0.41142200414E+03  0.41365399944E+03  0.00000000000E+00 0. -1.
         11    1    3    3    0    0 -0.35610865582E+02 -0.13947355992E+02 -0.61337688562E+03  0.61456803228E+03  0.00000000000E+00 0. -1.
        -12    1    3    3    0    0 -0.10262832635E+02  0.44196150752E+00 -0.60153196159E+01  0.11903996545E+02  0.00000000000E+00 0.  1.
          5    1    4    4  501    0  0.20820720550E+02  0.10899688765E+03 -0.59577101226E+02  0.12601875778E+03  0.41800000000E+01 0. -1.
         -5    1    4    4    0  501  0.58732905668E+01  0.18750115043E+02 -0.14750630806E+03  0.14886787993E+03  0.41800000000E+01 0. -1.
</event>
<event>
11    1  0.7105277E-009  0.1437543E+03  0.7561462E-02  0.1103437E+00
         22   -1    0    0    0    0  0.00000000000E+00  0.00000000000E+00  0.17695589168E+03  0.17695589168E+03  0.00000000000E+00 0. -1.
         22   -1    0    0    0    0 -0.00000000000E+00 -0.00000000000E+00 -0.12610048131E+04  0.12610048131E+04  0.00000000000E+00 0.  1.
        -24    2    1    2    0    0 -0.24323537829E+02  0.20187294643E+02 -0.11555268645E+04  0.11587235742E+04  0.79992658946E+02 0.  0.
         25    2    1    2    0    0 -0.70645780144E+01  0.51496333428E+02 -0.16024760488E+02  0.13640616079E+03  0.12509223450E+03 0.  0.
         24    2    1    2    0    0  0.31388115843E+02 -0.71683628072E+02  0.87502703622E+02  0.14283096974E+03  0.81364650959E+02 0.  0.
        -13    1    5    5    0    0  0.33912389942E+02 -0.55172366695E+02  0.12456600882E+02  0.65948518890E+02  0.00000000000E+00 0.  1.
         14    1    5    5    0    0 -0.25242740991E+01 -0.16511261377E+02  0.75046102740E+02  0.76882450848E+02  0.00000000000E+00 0. -1.
         11    1    3    3    0    0  0.97571614217E+01  0.78351103007E+00 -0.17742808096E+02  0.20263842865E+02  0.00000000000E+00 0. -1.
        -12    1    3    3    0    0 -0.34080699251E+02  0.19403783613E+02 -0.11377840564E+04  0.11384597314E+04  0.00000000000E+00 0.  1.
          5    1    4    4  501    0  0.97008360494E+01 -0.14702609175E+02  0.42613110881E+02  0.46299271653E+02  0.41800000000E+01 0. -1.
         -5    1    4    4    0  501 -0.16765414064E+02  0.66198942603E+02 -0.58637871370E+02  0.90106889133E+02  0.41800000000E+01 0. -1.
</event>
<event>
11    1  0.7105277E-009  0.1687890E+03  0.7561462E-02  0.1079090E+00
         22   -1    0    0    0    0  0.00000000000E+00  0.00000000000E+00  0.14251847537E+03  0.14251847537E+03  0.00000000000E+00 0.  1.
         22   -1    0    0    0    0 -0.00000000000E+00 -0.00000000000E+00 -0.51837245395E+03  0.51837245395E+03  0.00000000000E+00 0. -1.
         24    2    1    2    0    0  0.21487430875E+02  0.58750227880E+02 -0.30645762813E+03  0.32324284654E+03  0.81586524851E+02 0.  0.
         25    2    1    2    0    0 -0.57277434595E+02  0.79454852065E+02  0.12953859086E+01  0.15888182643E+03  0.12509188110E+03 0.  0.
        -24    2    1    2    0    0  0.35790003720E+02 -0.13820507995E+03 -0.70691736361E+02  0.17876625634E+03  0.81107856142E+02 0.  0.
        -13    1    3    3    0    0  0.96707731227E+01  0.25494625661E+02 -0.18087105512E+02  0.32720684226E+02  0.00000000000E+00 0.  1.
         14    1    3    3    0    0  0.11816657752E+02  0.33255602219E+02 -0.28837052262E+03  0.29052216231E+03  0.00000000000E+00 0. -1.
         13    1    5    5    0    0 -0.22681120875E+02 -0.41779722249E+02 -0.38930060065E+01  0.47698364030E+02  0.00000000000E+00 0. -1.
        -14    1    5    5    0    0  0.58471124595E+02 -0.96425357696E+02 -0.66798730354E+02  0.13106789231E+03  0.00000000000E+00 0.  1.
          5    1    4    4  501    0  0.20412471080E+02  0.68540984993E+02 -0.25244905768E+02  0.75955995594E+02  0.41800000000E+01 0. -1.
         -5    1    4    4    0  501 -0.77689905675E+02  0.10913867072E+02  0.26540291677E+02  0.82925830840E+02  0.41800000000E+01 0. -1.
</event>
<event>
11    1  0.7105277E-009  0.2181092E+03  0.7561462E-02  0.1042408E+00
         22   -1    0    0    0    0  0.00000000000E+00  0.00000000000E+00  0.46805116637E+03  0.46805116637E+03  0.00000000000E+00 0. -1.
         22   -1    0    0    0    0 -0.00000000000E+00 -0.00000000000E+00 -0.97952742389E+03  0.97952742389E+03  0.00000000000E+00 0. -1.
        -24    2    1    2    0    0 -0.10749910576E+01 -0.26296148777E+02 -0.88477876638E+03  0.88879748546E+03  0.80217589602E+02 0.  0.
         25    2    1    2    0    0  0.17911322187E+03  0.72336182707E+01  0.16180499317E+03  0.27196108465E+03  0.12509238293E+03 0.  0.
         24    2    1    2    0    0 -0.17803823081E+03  0.19062530506E+02  0.21149751569E+03  0.28682002015E+03  0.73983330007E+02 0.  0.
        -13    1    5    5    0    0 -0.21171493729E+02  0.23809736979E+02  0.14647425896E+02  0.35066833435E+02  0.00000000000E+00 0.  1.
         14    1    5    5    0    0 -0.15686673708E+03 -0.47472064729E+01  0.19685008979E+03  0.25175318672E+03  0.00000000000E+00 0. -1.
         11    1    3    3    0    0 -0.61182916396E+01 -0.24673049515E+02 -0.88276298285E+03  0.88312891287E+03  0.00000000000E+00 0. -1.
        -12    1    3    3    0    0  0.50433005820E+01 -0.16230992622E+01 -0.20157835342E+01  0.56685725922E+01  0.00000000000E+00 0.  1.
          5    1    4    4  501    0  0.10003324938E+03  0.64157360653E+02  0.10767970217E+03  0.16042197033E+03  0.41800000000E+01 0. -1.
         -5    1    4    4    0  501  0.79079972489E+02 -0.56923742383E+02  0.54125291001E+02  0.11153911431E+03  0.41800000000E+01 0. -1.
</event>
<event>
11    1  0.7105277E-009  0.1838868E+03  0.7561462E-02  0.1066542E+00
         22   -1    0    0    0    0  0.00000000000E+00  0.00000000000E+00  0.60647391179E+03  0.60647391179E+03  0.00000000000E+00 0. -1.
         22   -1    0    0    0    0 -0.00000000000E+00 -0.00000000000E+00 -0.69984064796E+03  0.69984064796E+03  0.00000000000E+00 0. -1.
         24    2    1    2    0    0  0.58915464793E+02 -0.47947905798E+02 -0.61824757566E+03  0.62885514989E+03  0.86363771755E+02 0.  0.
         25    2    1    2    0    0 -0.10627098217E+03  0.16100558626E+03  0.14869470045E+03  0.27381359442E+03  0.12508976811E+03 0.  0.
        -24    2    1    2    0    0  0.47355517379E+02 -0.11305768047E+03  0.37618613904E+03  0.40364581544E+03  0.79933403400E+02 0.  0.
        -13    1    3    3    0    0  0.98431170410E+01  0.18046074806E+01 -0.39048614383E+03  0.39061435213E+03  0.00000000000E+00 0.  1.
         14    1    3    3    0    0  0.49072347752E+02 -0.49752513279E+02 -0.22776143183E+03  0.23824079776E+03  0.00000000000E+00 0. -1.
         13    1    5    5    0    0  0.67660954513E+02 -0.82630641170E+02  0.31193926822E+03  0.32971492942E+03  0.00000000000E+00 0. -1.
        -14    1    5    5    0    0 -0.20305437134E+02 -0.30427039295E+02  0.64246870818E+02  0.73930886018E+02  0.00000000000E+00 0.  1.
          5    1    4    4  501    0 -0.43411215643E+02  0.22811493589E+02 -0.14076338055E+02  0.51190952095E+02  0.41800000000E+01 0.  1.
         -5    1    4    4    0  501 -0.62859766529E+02  0.13819409267E+03  0.16277103851E+03  0.22262264232E+03  0.41800000000E+01 0.  1.
</event>
<event>
11    1  0.7105277E-009  0.2532894E+03  0.7561462E-02  0.1022161E+00
         22   -1    0    0    0    0  0.00000000000E+00  0.00000000000E+00  0.22804225378E+04  0.22804225378E+04  0.00000000000E+00 0. -1.
         22   -1    0    0    0    0 -0.00000000000E+00 -0.00000000000E+00 -0.94205727413E+03  0.94205727413E+03  0.00000000000E+00 0.  1.
        -24    2    1    2    0    0 -0.16971272395E+03 -0.13030300805E+03 -0.71354043270E+03  0.74759033919E+03  0.63008599193E+02 0.  0.
         25    2    1    2    0    0  0.20254686039E+03  0.15636820263E+03 -0.11418781821E+03  0.30684787207E+03  0.12506203788E+03 0.  0.
         24    2    1    2    0    0 -0.32834136439E+02 -0.26065194575E+02  0.21660935145E+04  0.21680416006E+04  0.81766701396E+02 0.  0.
        -13    1    5    5    0    0  0.20999987519E+02 -0.24826037212E+02  0.48670592874E+03  0.48779093131E+03  0.00000000000E+00 0.  1.
         14    1    5    5    0    0 -0.53834123958E+02 -0.12391573627E+01  0.16793875858E+04  0.16802506693E+04  0.00000000000E+00 0. -1.
         11    1    3    3    0    0  0.52594042404E+01 -0.60637930451E+01 -0.18256453780E+02  0.19943144779E+02  0.00000000000E+00 0. -1.
        -12    1    3    3    0    0 -0.17497212819E+03 -0.12423921501E+03 -0.69528397892E+03  0.72764719441E+03  0.00000000000E+00 0.  1.
          5    1    4    4  501    0  0.20573566976E+03  0.11878140213E+03 -0.12348545832E+03  0.26777288533E+03  0.41800000000E+01 0. -1.
         -5    1    4    4    0  501 -0.31888093681E+01  0.37586800501E+02  0.92976401097E+01  0.39074986739E+02  0.41800000000E+01 0. -1.
</event>
<event>
11    1  0.7105277E-009  0.2130679E+03  0.7561462E-02  0.1045649E+00
         22   -1    0    0    0    0  0.00000000000E+00  0.00000000000E+00  0.15572388052E+04  0.15572388052E+04  0.00000000000E+00 0. -1.
         22   -1    0    0    0    0 -0.00000000000E+00 -0.00000000000E+00 -0.68697646189E+03  0.68697646189E+03  0.00000000000E+00 0.  1.
        -24    2    1    2    0    0 -0.48277663700E+02 -0.15207826561E+03 -0.43240636962E+03  0.46791769946E+03  0.80704233458E+02 0.  0.
         25    2    1    2    0    0  0.94267366147E+02  0.20447241875E+03 -0.16431137425E+03  0.30551930096E+03  0.12509400146E+03 0.  0.
         24    2    1    2    0    0 -0.45989702447E+02 -0.52394153138E+02  0.14669800871E+04  0.14707782666E+04  0.79359520755E+02 0.  0.
        -13    1    5    5    0    0  0.68476356406E+01  0.30507705122E+01  0.14898103582E+02  0.16677853726E+02  0.00000000000E+00 0.  1.
         14    1    5    5    0    0 -0.52837338087E+02 -0.55444923650E+02  0.14520819836E+04  0.14541004129E+04  0.00000000000E+00 0. -1.
         13    1    3    3    0    0  0.29366003568E+01 -0.15877901396E+02 -0.14380290243E+03  0.14470662086E+03  0.00000000000E+00 0. -1.
        -14    1    3    3    0    0 -0.51214264057E+02 -0.13620036421E+03 -0.28860346719E+03  0.32321107860E+03  0.00000000000E+00 0.  1.
          5    1    4    4  501    0  0.49237919640E+02  0.15268480549E+03 -0.43104377359E+02  0.16617004034E+03  0.41800000000E+01 0. -1.
         -5    1    4    4    0  501  0.45029446507E+02  0.51787613251E+02 -0.12120699689E+03  0.13934926062E+03  0.41800000000E+01 0. -1.
</event>
<event>
11    1  0.1052123E-008  0.1797275E+03  0.7561462E-02  0.1069863E+00
         22   -1    0    0    0    0  0.00000000000E+00  0.00000000000E+00  0.28979765470E+03  0.28979765470E+03  0.00000000000E+00 0.  1.
         22   -1    0    0    0    0 -0.00000000000E+00 -0.00000000000E+00 -0.15064338912E+04  0.15064338912E+04  0.00000000000E+00 0.  1.
         24    2    1    2    0    0  0.89111062610E+02 -0.19665799722E+02 -0.12313410828E+04  0.12374274674E+04  0.81843446651E+02 0.  0.
         25    2    1    2    0    0  0.10019187059E+02 -0.73681669819E+02 -0.22568840730E+03  0.26853689147E+03  0.12508969707E+03 0.  0.
        -24    2    1    2    0    0 -0.99130249669E+02  0.93347469541E+02  0.24039325367E+03  0.29026718695E+03  0.89025653258E+02 0.  0.
        -13    1    3    3    0    0  0.91063965117E+02 -0.41631082774E+02 -0.96807659190E+03  0.97324101875E+03  0.00000000000E+00 0.  1.
         14    1    3    3    0    0 -0.19529025063E+01  0.21965283051E+02 -0.26326449093E+03  0.26418644869E+03  0.00000000000E+00 0. -1.
         13    1    5    5    0    0 -0.20614100931E+02 -0.13587994875E+02  0.15474958033E+02  0.29138446905E+02  0.00000000000E+00 0. -1.
        -14    1    5    5    0    0 -0.78516148738E+02  0.10693546442E+03  0.22491829564E+03  0.26112874004E+03  0.00000000000E+00 0.  1.
          5    1    4    4  501    0 -0.44759611262E+01 -0.10664241678E+03 -0.18812271015E+03  0.21633369076E+03  0.41800000000E+01 0.  1.
         -5    1    4    4    0  501  0.14495148185E+02  0.32960746965E+02 -0.37565697150E+02  0.52203200704E+02  0.41800000000E+01 0.  1.
</event>
<event>
11    1  0.7105277E-009  0.1967964E+03  0.7561462E-02  0.1056812E+00
         22   -1    0    0    0    0  0.00000000000E+00  0.00000000000E+00  0.97824574798E+03  0.97824574798E+03  0.00000000000E+00 0.  1.
         22   -1    0    0    0    0 -0.00000000000E+00 -0.00000000000E+00 -0.65558004517E+03  0.65558004517E+03  0.00000000000E+00 0. -1.
        -24    2    1    2    0    0  0.13511959983E+03  0.20077138286E+02 -0.34684262825E+03  0.38116210749E+03  0.79525754790E+02 0.  0.
         25    2    1    2    0    0 -0.19367931390E+03 -0.72643128229E+01 -0.24284371318E+03  0.33493959984E+03  0.12508804754E+03 0.  0.
         24    2    1    2    0    0  0.58559714067E+02 -0.12812825463E+02  0.91235204424E+03  0.91772408582E+03  0.78979975087E+02 0.  0.
        -11    1    5    5    0    0  0.61860024140E+02 -0.23583317826E+02  0.89207440228E+03  0.89452757066E+03  0.00000000000E+00 0.  1.
         12    1    5    5    0    0 -0.33003100733E+01  0.10770492363E+02  0.20277641957E+02  0.23196515162E+02  0.00000000000E+00 0. -1.
         11    1    3    3    0    0  0.61506151749E+02  0.19682060540E+02 -0.25711607924E+03  0.26510199624E+03  0.00000000000E+00 0. -1.
        -12    1    3    3    0    0  0.73613448083E+02  0.39507774605E+00 -0.89726549018E+02  0.11606011125E+03  0.00000000000E+00 0.  1.
          5    1    4    4  501    0 -0.14580690542E+02 -0.44619210601E+02 -0.59400991838E+02  0.75824934703E+02  0.41800000000E+01 0.  1.
         -5    1    4    4    0  501 -0.17909862336E+03  0.37354897778E+02 -0.18344272134E+03  0.25911466514E+03  0.41800000000E+01 0.  1.
</event>
<event>
11    1  0.7105277E-009  0.2343489E+03  0.7561462E-02  0.1032584E+00
         22   -1    0    0    0    0  0.00000000000E+00  0.00000000000E+00  0.53430940526E+03  0.53430940526E+03  0.00000000000E+00 0. -1.
         22   -1    0    0    0    0 -0.00000000000E+00 -0.00000000000E+00 -0.19997115473E+04  0.19997115473E+04  0.00000000000E+00 0.  1.
         24    2    1    2    0    0 -0.20504146103E+02  0.40606495996E+00 -0.17718320858E+04  0.17739802730E+04  0.84832090872E+02 0.  0.
         25    2    1    2    0    0  0.92838771308E+01 -0.19832829494E+03 -0.13498727634E+03  0.27071963077E+03  0.12508897139E+03 0.  0.
        -24    2    1    2    0    0  0.11220268972E+02  0.19792222998E+03  0.44141722009E+03  0.48932104884E+03  0.72710543219E+02 0.  0.
        -11    1    3    3    0    0 -0.34089650353E+02  0.14394579419E+02 -0.16632204578E+04  0.16636320505E+04  0.00000000000E+00 0.  1.
         12    1    3    3    0    0  0.13585504251E+02 -0.13988514460E+02 -0.10861162801E+03  0.11034822247E+03  0.00000000000E+00 0. -1.
         13    1    5    5    0    0  0.48680483449E+00  0.19607970320E+03  0.43372385115E+03  0.47598725408E+03  0.00000000000E+00 0. -1.
        -14    1    5    5    0    0  0.10733464137E+02  0.18425267860E+01  0.76933689351E+01  0.13333794768E+02  0.00000000000E+00 0.  1.
          5    1    4    4  501    0 -0.11918753893E+02 -0.12969737305E+03 -0.15485180555E+02  0.13122777331E+03  0.41800000000E+01 0.  1.
         -5    1    4    4    0  501  0.21202631024E+02 -0.68630921889E+02 -0.11950209578E+03  0.13949185746E+03  0.41800000000E+01 0.  1.
</event>
<event>
11    1  0.7105277E-009  0.1351426E+03  0.7561462E-02  0.1113107E+00
         22   -1    0    0    0    0  0.00000000000E+00  0.00000000000E+00  0.31810033567E+03  0.31810033567E+03  0.00000000000E+00 0.  1.
         22   -1    0    0    0    0 -0.00000000000E+00 -0.00000000000E+00 -0.32478485944E+03  0.32478485944E+03  0.00000000000E+00 0.  1.
        -24    2    1    2    0    0  0.23331932730E+01  0.50430339822E+02 -0.27523266907E+03  0.29029941469E+03  0.77279137424E+02 0.  0.
         25    2    1    2    0    0  0.72161646199E+01 -0.63767873668E+02  0.12588237598E+03  0.18873164617E+03  0.12511933081E+03 0.  0.
         24    2    1    2    0    0 -0.95493578928E+01  0.13337533846E+02  0.14266576932E+03  0.16385413424E+03  0.78902316360E+02 0.  0.
        -13    1    5    5    0    0 -0.41268874351E+02 -0.59546279925E+01  0.92326622438E+02  0.10130539371E+03  0.00000000000E+00 0.  1.
         14    1    5    5    0    0  0.31719516458E+02  0.19292161839E+02  0.50339146882E+02  0.62548740527E+02  0.00000000000E+00 0. -1.
         11    1    3    3    0    0  0.13810487545E+02 -0.73620146705E+01 -0.99346390465E+01  0.18537148627E+02  0.00000000000E+00 0. -1.
        -12    1    3    3    0    0 -0.11477294272E+02  0.57792354493E+02 -0.26529803002E+03  0.27176226606E+03  0.00000000000E+00 0.  1.
          5    1    4    4  501    0  0.49973883320E+02 -0.69261307254E+02  0.44155858157E+02  0.96237881867E+02  0.41800000000E+01 0. -1.
         -5    1    4    4    0  501 -0.42757718700E+02  0.54934335860E+01  0.81726517819E+02  0.92493764307E+02  0.41800000000E+01 0. -1.
</event>
<event>
11    1  0.7105277E-009  0.2519083E+03  0.7561462E-02  0.1022888E+00
         22   -1    0    0    0    0  0.00000000000E+00  0.00000000000E+00  0.36856422352E+03  0.36856422352E+03  0.00000000000E+00 0. -1.
         22   -1    0    0    0    0 -0.00000000000E+00 -0.00000000000E+00 -0.60803074544E+03  0.60803074544E+03  0.00000000000E+00 0. -1.
        -24    2    1    2    0    0  0.18232881352E+02  0.51388744194E+02 -0.43421103209E+03  0.44653295555E+03  0.88764965039E+02 0.  0.
         25    2    1    2    0    0 -0.18544730803E+03  0.10121587813E+03  0.53790358410E+02  0.25134538119E+03  0.12508293227E+03 0.  0.
         24    2    1    2    0    0  0.16721442668E+03 -0.15260462232E+03  0.14095415176E+03  0.27871663222E+03  0.81031184932E+02 0.  0.
        -11    1    5    5    0    0  0.30814291961E+02 -0.79526410560E+01 -0.48134463886E+01  0.32185934117E+02  0.00000000000E+00 0.  1.
         12    1    5    5    0    0  0.13640013472E+03 -0.14465198127E+03  0.14576759814E+03  0.24653069810E+03  0.00000000000E+00 0. -1.
         11    1    3    3    0    0  0.21071869736E+02 -0.21576115045E+02 -0.10055901845E+03  0.10498413512E+03  0.00000000000E+00 0. -1.
        -12    1    3    3    0    0 -0.28389883837E+01  0.72964859238E+02 -0.33365201364E+03  0.34154882044E+03  0.00000000000E+00 0.  1.
          5    1    4    4  501    0 -0.52129059548E+01  0.11697242130E+02 -0.30332325827E+02  0.33189188782E+02  0.41800000000E+01 0.  1.
         -5    1    4    4    0  501 -0.18023440208E+03  0.89518635999E+02  0.84122684236E+02  0.21815619241E+03  0.41800000000E+01 0.  1.
</event>
<event>
11    1  0.7105277E-009  0.1374112E+03  0.7561462E-02  0.1110484E+00
         22   -1    0    0    0    0  0.00000000000E+00  0.00000000000E+00  0.73691284975E+02  0.73691284975E+02  0.00000000000E+00 0.  1.
         22   -1    0    0    0    0 -0.00000000000E+00 -0.00000000000E+00 -0.15639680174E+04  0.15639680174E+04  0.00000000000E+00 0. -1.
        -24    2    1    2    0    0 -0.35642403756E+02 -0.50975261204E+02 -0.11561082985E+04  0.11605886262E+04  0.80688928468E+02 0.  0.
         25    2    1    2    0    0 -0.89368218305E+00  0.36231329411E+02 -0.36223358400E+03  0.38493448338E+03  0.12509148338E+03 0.  0.
         24    2    1    2    0    0  0.36536085939E+02  0.14743931794E+02  0.28065150092E+02  0.92136192795E+02  0.78416556112E+02 0.  0.
        -11    1    5    5    0    0  0.38769249138E+02 -0.24390192361E+02  0.26479114486E+02  0.52906329168E+02  0.00000000000E+00 0.  1.
         12    1    5    5    0    0 -0.22331631987E+01  0.39134124154E+02  0.15860356065E+01  0.39229863626E+02  0.00000000000E+00 0. -1.
         13    1    3    3    0    0 -0.11365218823E+02  0.87612384586E+00 -0.78561271468E+03  0.78569540743E+03  0.00000000000E+00 0. -1.
        -14    1    3    3    0    0 -0.24277184933E+02 -0.51851385050E+02 -0.37049558380E+03  0.37489321874E+03  0.00000000000E+00 0.  1.
          5    1    4    4  501    0  0.46853535506E+02  0.37575585752E+02 -0.30201924173E+03  0.30796148007E+03  0.41800000000E+01 0.  1.
         -5    1    4    4    0  501 -0.47747217689E+02 -0.13442563417E+01 -0.60214342274E+02  0.76973003304E+02  0.41800000000E+01 0.  1.
</event>
<event>
11    1  0.7105277E-009  0.1289944E+03  0.7561462E-02  0.1120511E+00
         22   -1    0    0    0    0  0.00000000000E+00  0.00000000000E+00  0.10030126257E+04  0.10030126257E+04  0.00000000000E+00 0.  1.
         22   -1    0    0    0    0 -0.00000000000E+00 -0.00000000000E+00 -0.46840415884E+03  0.46840415884E+03  0.00000000000E+00 0. -1.
        -24    2    1    2    0    0 -0.17217226921E+02 -0.16461717863E+02 -0.44796247101E+03  0.45555438668E+03  0.79322145315E+02 0.  0.
         25    2    1    2    0    0 -0.78362434929E+01  0.36012402247E+02  0.29021080289E+03  0.31816785244E+03  0.12510064903E+03 0.  0.
         24    2    1    2    0    0  0.25053470414E+02 -0.19550684384E+02  0.69236013497E+03  0.69769454541E+03  0.80032596880E+02 0.  0.
        -11    1    5    5    0    0  0.34560093315E+02  0.10543494110E+02  0.57594514698E+03  0.57707744510E+03  0.00000000000E+00 0.  1.
         12    1    5    5    0    0 -0.95066229007E+01 -0.30094178494E+02  0.11641498799E+03  0.12061710031E+03  0.00000000000E+00 0. -1.
         11    1    3    3    0    0 -0.20805492760E+02 -0.20909077566E+02 -0.44880930344E+03  0.44977755492E+03  0.00000000000E+00 0. -1.
        -12    1    3    3    0    0  0.35882658384E+01  0.44473597029E+01  0.84683243417E+00  0.57768317637E+01  0.00000000000E+00 0.  1.
          5    1    4    4  501    0  0.10541471783E+02  0.71780795487E+02  0.25296548078E+03  0.26319690746E+03  0.41800000000E+01 0.  1.
         -5    1    4    4    0  501 -0.18377715275E+02 -0.35768393239E+02  0.37245322106E+02  0.54970944984E+02  0.41800000000E+01 0.  1.
</event>
<event>
11    1  0.7105277E-009  0.1480487E+03  0.7561462E-02  0.1098890E+00
         22   -1    0    0    0    0  0.00000000000E+00  0.00000000000E+00  0.53016322635E+03  0.53016322635E+03  0.00000000000E+00 0. -1.
         22   -1    0    0    0    0 -0.00000000000E+00 -0.00000000000E+00 -0.27994200200E+03  0.27994200200E+03  0.00000000000E+00 0.  1.
        -24    2    1    2    0    0 -0.86542271941E+02 -0.43561097962E+02 -0.20596007196E+03  0.23522857604E+03  0.59378427519E+02 0.  0.
         25    2    1    2    0    0  0.93667761868E+02 -0.39469265518E+02  0.77369586940E+02  0.17878928318E+03  0.12509229498E+03 0.  0.
         24    2    1    2    0    0 -0.71254899268E+01  0.83030363480E+02  0.37881170936E+03  0.39608736913E+03  0.80262562685E+02 0.  0.
        -11    1    5    5    0    0 -0.91799504715E+01 -0.10784047464E+01  0.13239282990E+01  0.93374104332E+01  0.00000000000E+00 0.  1.
         12    1    5    5    0    0  0.20544605447E+01  0.84108768226E+02  0.37748778106E+03  0.38674995870E+03  0.00000000000E+00 0. -1.
         13    1    3    3    0    0  0.68208885281E+01 -0.11698293715E+02 -0.39211016264E+02  0.41483471319E+02  0.00000000000E+00 0. -1.
        -14    1    3    3    0    0 -0.93363160469E+02 -0.31862804247E+02 -0.16674905569E+03  0.19374510472E+03  0.00000000000E+00 0.  1.
          5    1    4    4  501    0  0.91370865922E+02 -0.74023774167E+02  0.32725088975E+02  0.12213336207E+03  0.41800000000E+01 0.  1.
         -5    1    4    4    0  501  0.22968959452E+01  0.34554508649E+02  0.44644497965E+02  0.56655921116E+02  0.41800000000E+01 0.  1.
</event>
<event>
11    1  0.7105277E-009  0.1403272E+03  0.7561462E-02  0.1107194E+00
         22   -1    0    0    0    0  0.00000000000E+00  0.00000000000E+00  0.74887652925E+02  0.74887652925E+02  0.00000000000E+00 0.  1.
         22   -1    0    0    0    0 -0.00000000000E+00 -0.00000000000E+00 -0.46871432255E+03  0.46871432255E+03  0.00000000000E+00 0.  1.
        -24    2    1    2    0    0 -0.15059491688E+02  0.78631798889E+02 -0.23999389025E+03  0.26584697700E+03  0.81656596421E+02 0.  0.
         25    2    1    2    0    0  0.22278662614E+02 -0.17074542456E+02 -0.92189962738E+02  0.15790641064E+03  0.12509023337E+03 0.  0.
         24    2    1    2    0    0 -0.72191709261E+01 -0.61557256433E+02 -0.61642816634E+02  0.11984858782E+03  0.81990456228E+02 0.  0.
        -11    1    5    5    0    0 -0.17723093988E+02 -0.21808239895E+02  0.15749084229E+02  0.32213988295E+02  0.00000000000E+00 0.  1.
         12    1    5    5    0    0  0.10503923062E+02 -0.39749016538E+02 -0.77391900863E+02  0.87634599529E+02  0.00000000000E+00 0. -1.
         13    1    3    3    0    0  0.28531901486E+02  0.59912625090E+02 -0.12683087653E+03  0.14314210872E+03  0.00000000000E+00 0. -1.
        -14    1    3    3    0    0 -0.43591393174E+02  0.18719173799E+02 -0.11316301372E+03  0.12270486829E+03  0.00000000000E+00 0.  1.
          5    1    4    4  501    0  0.18408780886E+02 -0.41715981889E+02  0.14680359503E+02  0.48084214809E+02  0.41800000000E+01 0. -1.
         -5    1    4    4    0  501  0.38698817280E+01  0.24641439433E+02 -0.10687032224E+03  0.10982219583E+03  0.41800000000E+01 0. -1.
</event>
<event>
11    1  0.7105277E-009  0.2019330E+03  0.7561462E-02  0.1053165E+00
         22   -1    0    0    0    0  0.00000000000E+00  0.00000000000E+00  0.18680734652E+04  0.18680734652E+04  0.00000000000E+00 0.  1.
         22   -1    0    0    0    0 -0.00000000000E+00 -0.00000000000E+00 -0.65491734569E+03  0.65491734569E+03  0.00000000000E+00 0.  1.
         24    2    1    2    0    0 -0.14362350208E+03  0.45668159445E+02 -0.53158169022E+03  0.55839480197E+03  0.80699258669E+02 0.  0.
         25    2    1    2    0    0  0.29560288497E+03 -0.31673436870E+02  0.14178003849E+03  0.35232585027E+03  0.12509058019E+03 0.  0.
        -24    2    1    2    0    0 -0.15197938289E+03 -0.13994722575E+02  0.16029577713E+04  0.16122701587E+04  0.81534428134E+02 0.  0.
        -13    1    3    3    0    0 -0.12977937986E+03  0.11309857977E+02 -0.45569448618E+03  0.47394943302E+03  0.00000000000E+00 0.  1.
         14    1    3    3    0    0 -0.13844122221E+02  0.34358301468E+02 -0.75887204045E+02  0.84445368953E+02  0.00000000000E+00 0. -1.
         13    1    5    5    0    0 -0.10753823266E+03 -0.14407862891E+02  0.71346247666E+03  0.72166527116E+03  0.00000000000E+00 0. -1.
        -14    1    5    5    0    0 -0.44441150229E+02  0.41314031626E+00  0.88949529462E+03  0.89060488752E+03  0.00000000000E+00 0.  1.
          5    1    4    4  501    0  0.97873035904E+01  0.21957946737E+02  0.34668578412E+02  0.42394875464E+02  0.41800000000E+01 0.  1.
         -5    1    4    4    0  501  0.28581558138E+03 -0.53631383607E+02  0.10711146008E+03  0.30993097481E+03  0.41800000000E+01 0.  1.
</event>
<event>
11    1  0.7105277E-009  0.1623920E+03  0.7561462E-02  0.1084849E+00
         22   -1    0    0    0    0  0.00000000000E+00  0.00000000000E+00  0.35521471990E+03  0.35521471990E+03  0.00000000000E+00 0. -1.
         22   -1    0    0    0    0 -0.00000000000E+00 -0.00000000000E+00 -0.98198095366E+03  0.98198095366E+03  0.00000000000E+00 0. -1.
         24    2    1    2    0    0 -0.11149949476E+03  0.19859818811E+02 -0.80019543053E+03  0.81232158006E+03  0.82018733582E+02 0.  0.
         25    2    1    2    0    0  0.58098287983E+02  0.50652151053E+02 -0.13175427505E+03  0.19735549504E+03  0.12509576713E+03 0.  0.
        -24    2    1    2    0    0  0.53401206772E+02 -0.70511969864E+02  0.30518347182E+03  0.32751859846E+03  0.79422000013E+02 0.  0.
        -13    1    3    3    0    0 -0.19539771962E+01 -0.15076739452E+02 -0.30433713782E+02  0.34019656582E+02  0.00000000000E+00 0.  1.
         14    1    3    3    0    0 -0.10954551756E+03  0.34936558264E+02 -0.76976171675E+03  0.77830192348E+03  0.00000000000E+00 0. -1.
         11    1    5    5    0    0  0.27194299377E+02 -0.83521632602E+02  0.20209059177E+03  0.22035426094E+03  0.00000000000E+00 0. -1.
        -12    1    5    5    0    0  0.26206907396E+02  0.13009662737E+02  0.10309288005E+03  0.10716433752E+03  0.00000000000E+00 0.  1.
          5    1    4    4  501    0  0.17306778725E+02  0.56039531928E+02  0.48287918017E+00  0.58801864774E+02  0.41800000000E+01 0. -1.
         -5    1    4    4    0  501  0.40791509258E+02 -0.53873808749E+01 -0.13223715423E+03  0.13855363027E+03  0.41800000000E+01 0. -1.
</event>
<event>
11    1  0.7105277E-009  0.1797231E+03  0.7561462E-02  0.1069867E+00
         22   -1    0    0    0    0  0.00000000000E+00  0.00000000000E+00  0.34443054390E+03  0.34443054390E+03  0.00000000000E+00 0.  1.
         22   -1    0    0    0    0 -0.00000000000E+00 -0.00000000000E+00 -0.47977239717E+03  0.47977239717E+03  0.00000000000E+00 0. -1.
         24    2    1    2    0    0 -0.86273275651E+02 -0.28639861464E+02 -0.35693871384E+03  0.37576589841E+03  0.74373686314E+02 0.  0.
         25    2    1    2    0    0  0.75655974465E+02  0.15088055165E+03  0.38183109748E+02  0.21352259633E+03  0.12508070168E+03 0.  0.
        -24    2    1    2    0    0  0.10617301186E+02 -0.12224069019E+03  0.18341375082E+03  0.23491444634E+03  0.80552341278E+02 0.  0.
        -13    1    3    3    0    0 -0.11206165391E+02 -0.14435734584E+02 -0.10654221376E+02  0.21153746923E+02  0.00000000000E+00 0.  1.
         14    1    3    3    0    0 -0.75067110261E+02 -0.14204126880E+02 -0.34628449246E+03  0.35461215149E+03  0.00000000000E+00 0. -1.
         11    1    5    5    0    0 -0.39147874681E+01 -0.59893749685E+01 -0.78498044375E+01  0.10621563121E+02  0.00000000000E+00 0. -1.
        -12    1    5    5    0    0  0.14532088654E+02 -0.11625131522E+03  0.19126355526E+03  0.22429288321E+03  0.00000000000E+00 0.  1.
          5    1    4    4  501    0  0.10009104323E+03  0.65821202539E+02  0.34978856754E+02  0.12486649053E+03  0.41800000000E+01 0. -1.
         -5    1    4    4    0  501 -0.24435068766E+02  0.85059349114E+02  0.32042529944E+01  0.88656105794E+02  0.41800000000E+01 0. -1.
</event>
<event>
11    1  0.7105277E-009  0.2657967E+03  0.7561462E-02  0.1015805E+00
         22   -1    0    0    0    0  0.00000000000E+00  0.00000000000E+00  0.12084288319E+03  0.12084288319E+03  0.00000000000E+00 0. -1.
         22   -1    0    0    0    0 -0.00000000000E+00 -0.00000000000E+00 -0.17751326538E+04  0.17751326538E+04  0.00000000000E+00 0. -1.
         24    2    1    2    0    0 -0.22243605163E+03 -0.83787710328E-01 -0.70503640472E+03  0.74407171929E+03  0.84193749009E+02 0.  0.
         25    2    1    2    0    0  0.24589092437E+03  0.94827108464E+01 -0.10106118801E+04  0.10476327225E+04  0.12508269493E+03 0.  0.
        -24    2    1    2    0    0 -0.23454872739E+02 -0.93989231361E+01  0.61358514216E+02  0.10427109520E+03  0.80430859856E+02 0.  0.
        -11    1    3    3    0    0 -0.17530249167E+03 -0.37486030471E+01 -0.41985114180E+03  0.45499450203E+03  0.00000000000E+00 0.  1.
         12    1    3    3    0    0 -0.47133559961E+02  0.36648153368E+01 -0.28518526293E+03  0.28907721726E+03  0.00000000000E+00 0. -1.
         11    1    5    5    0    0 -0.39202584095E+02 -0.20301982462E+02  0.70394644140E+02  0.83092833717E+02  0.00000000000E+00 0. -1.
        -12    1    5    5    0    0  0.15747711356E+02  0.10903059326E+02 -0.90361299238E+01  0.21178261487E+02  0.00000000000E+00 0.  1.
          5    1    4    4  501    0  0.63149070655E+01  0.19215496249E+01 -0.25029470809E+03  0.25041662026E+03  0.41800000000E+01 0. -1.
         -5    1    4    4    0  501  0.23957601730E+03  0.75611612215E+01 -0.76031717200E+03  0.79721610224E+03  0.41800000000E+01 0. -1.
</event>
<event>
11    1  0.7419620E-009  0.1757751E+03  0.7561462E-02  0.1073112E+00
         22   -1    0    0    0    0  0.00000000000E+00  0.00000000000E+00  0.18080936045E+04  0.18080936045E+04  0.00000000000E+00 0.  1.
         22   -1    0    0    0    0 -0.00000000000E+00 -0.00000000000E+00 -0.29413364383E+03  0.29413364383E+03  0.00000000000E+00 0.  1.
        -24    2    1    2    0    0 -0.12518137876E+02 -0.12443590184E+03 -0.21447084669E+03  0.26166598487E+03  0.82645908039E+02 0.  0.
         25    2    1    2    0    0 -0.94380246290E+02  0.11630673427E+03  0.12539882152E+03  0.23196434680E+03  0.12509079272E+03 0.  0.
         24    2    1    2    0    0  0.10689838417E+03  0.81291675608E+01  0.16030319858E+04  0.16085969166E+04  0.79869548357E+02 0.  0.
        -13    1    5    5    0    0  0.93555953235E+02  0.35731169300E+02  0.10672142502E+04  0.10719028354E+04  0.00000000000E+00 0.  1.
         14    1    5    5    0    0  0.13342430931E+02 -0.27602001739E+02  0.53581773563E+03  0.53669408119E+03  0.00000000000E+00 0. -1.
         13    1    3    3    0    0  0.39873289102E+01 -0.89951342601E+02 -0.75414680059E+02  0.11745006086E+03  0.00000000000E+00 0. -1.
        -14    1    3    3    0    0 -0.16505466786E+02 -0.34484559234E+02 -0.13905616663E+03  0.14421592401E+03  0.00000000000E+00 0.  1.
          5    1    4    4  501    0 -0.76161829336E+02  0.40371933265E+02  0.12723364470E+03  0.15374130866E+03  0.41800000000E+01 0.  1.
         -5    1    4    4    0  501 -0.18218416954E+02  0.75934801010E+02 -0.18348231848E+01  0.78223038146E+02  0.41800000000E+01 0.  1.
</event>
<event>
11    1  0.7105277E-009  0.1443352E+03  0.7561462E-02  0.1102812E+00
         22   -1    0    0    0    0  0.00000000000E+00  0.00000000000E+00  0.65800865910E+03  0.65800865910E+03  0.00000000000E+00 0.  1.
         22   -1    0    0    0    0 -0.00000000000E+00 -0.00000000000E+00 -0.23063657415E+03  0.23063657415E+03  0.00000000000E+00 0.  1.
        -24    2    1    2    0    0  0.71551457071E+02 -0.70500514324E+01 -0.17442773630E+03  0.20533586016E+03  0.81046073571E+02 0.  0.
         25    2    1    2    0    0 -0.73539182963E+02 -0.19866749881E+01  0.10339917640E+03  0.17818617122E+03  0.12508782365E+03 0.  0.
         24    2    1    2    0    0  0.19877258912E+01  0.90367264205E+01  0.49840064485E+03  0.50512320187E+03  0.81612699984E+02 0.  0.
        -11    1    5    5    0    0 -0.12390779073E+02 -0.24087870842E+02  0.38847549394E+03  0.38941875446E+03  0.00000000000E+00 0.  1.
         12    1    5    5    0    0  0.14378504964E+02  0.33124597262E+02  0.10992515091E+03  0.11570444741E+03  0.00000000000E+00 0. -1.
         13    1    3    3    0    0 -0.10993604245E+02 -0.36383284254E+01  0.80144676994E+00  0.11607716613E+02  0.00000000000E+00 0. -1.
        -14    1    3    3    0    0  0.82545061317E+02 -0.34117230071E+01 -0.17522918307E+03  0.19372814354E+03  0.00000000000E+00 0.  1.
          5    1    4    4  501    0 -0.82219699521E+02  0.37404070397E+02  0.10376001941E+03  0.13763269052E+03  0.41800000000E+01 0.  1.
         -5    1    4    4    0  501  0.86805165587E+01 -0.39390745385E+02 -0.36084300078E+00  0.40553480706E+02  0.41800000000E+01 0.  1.
</event>
<event>
11    1  0.7105277E-009  0.1926515E+03  0.7561462E-02  0.1059845E+00
         22   -1    0    0    0    0  0.00000000000E+00  0.00000000000E+00  0.38862313891E+03  0.38862313891E+03  0.00000000000E+00 0. -1.
         22   -1    0    0    0    0 -0.00000000000E+00 -0.00000000000E+00 -0.74817130387E+03  0.74817130387E+03  0.00000000000E+00 0.  1.
        -24    2    1    2    0    0 -0.14670896562E+03  0.42706465231E+02 -0.51899274230E+03  0.54698259654E+03  0.80555146315E+02 0.  0.
         25    2    1    2    0    0  0.13585848648E+03  0.19200382591E+02 -0.16524093797E+03  0.24855287894E+03  0.12509109884E+03 0.  0.
         24    2    1    2    0    0  0.10850479140E+02 -0.61906847822E+02  0.32468551531E+03  0.34125896729E+03  0.84183182392E+02 0.  0.
        -13    1    5    5    0    0  0.17256034156E+02 -0.23013609284E+02  0.22515005908E+02  0.36528378257E+02  0.00000000000E+00 0.  1.
         14    1    5    5    0    0 -0.64055550156E+01 -0.38893238538E+02  0.30217050941E+03  0.30473058904E+03  0.00000000000E+00 0. -1.
         11    1    3    3    0    0 -0.55862477249E+02 -0.58133046949E+01 -0.92374022061E+02  0.10810814413E+03  0.00000000000E+00 0. -1.
        -12    1    3    3    0    0 -0.90846488367E+02  0.48519769926E+02 -0.42661872024E+03  0.43887445241E+03  0.00000000000E+00 0.  1.
          5    1    4    4  501    0  0.82264017789E+02  0.52071794779E+02 -0.15730571425E+03  0.18504432055E+03  0.41800000000E+01 0. -1.
         -5    1    4    4    0  501  0.53594468687E+02 -0.32871412188E+02 -0.79352237289E+01  0.63508558389E+02  0.41800000000E+01 0. -1.
</event>
<event>
11    1  0.7105277E-009  0.1722443E+03  0.7561462E-02  0.1076095E+00
         22   -1    0    0    0    0  0.00000000000E+00  0.00000000000E+00  0.63898654099E+03  0.63898654099E+03  0.00000000000E+00 0. -1.
         22   -1    0    0    0    0 -0.00000000000E+00 -0.00000000000E+00 -0.14226871650E+03  0.14226871650E+03  0.00000000000E+00 0. -1.
         24    2    1    2    0    0  0.38887647762E+01  0.21248340329E+01 -0.86302539388E+02  0.11643825014E+03  0.78039095195E+02 0.  0.
         25    2    1    2    0    0  0.98433620137E+02 -0.63333132824E+02  0.26012682208E+03  0.31147186819E+03  0.12509395598E+03 0.  0.
        -24    2    1    2    0    0 -0.10232238491E+03  0.61208298791E+02  0.32289354180E+03  0.35334513917E+03  0.79851247598E+02 0.  0.
        -13    1    3    3    0    0  0.17799712295E+02 -0.33913167165E+02 -0.32666008272E+02  0.50338859357E+02  0.00000000000E+00 0.  1.
         14    1    3    3    0    0 -0.13910947519E+02  0.36038001198E+02 -0.53636531116E+02  0.66099390779E+02  0.00000000000E+00 0. -1.
         13    1    5    5    0    0 -0.22829372344E+02  0.55546034721E+02  0.17968714919E+03  0.18945715558E+03  0.00000000000E+00 0. -1.
        -14    1    5    5    0    0 -0.79493012570E+02  0.56622640700E+01  0.14320639261E+03  0.16388798359E+03  0.00000000000E+00 0.  1.
          5    1    4    4  501    0  0.84618356589E+02 -0.81071787771E+02  0.11392040302E+03  0.16348771106E+03  0.41800000000E+01 0.  1.
         -5    1    4    4    0  501  0.13815263548E+02  0.17738654947E+02  0.14620641906E+03  0.14798415713E+03  0.41800000000E+01 0.  1.
</event>
<event>
11    1  0.7105277E-009  0.1914072E+03  0.7561462E-02  0.1060772E+00
         22   -1    0    0    0    0  0.00000000000E+00  0.00000000000E+00  0.45149968643E+03  0.45149968643E+03  0.00000000000E+00 0. -1.
         22   -1    0    0    0    0 -0.00000000000E+00 -0.00000000000E+00 -0.30815441560E+03  0.30815441560E+03  0.00000000000E+00 0. -1.
         24    2    1    2    0    0  0.48373172609E+01 -0.40944846092E+02 -0.12306512715E+03  0.15294826510E+03  0.80921358226E+02 0.  0.
         25    2    1    2    0    0 -0.71692962358E+02 -0.91737404183E+02 -0.10364480519E+03  0.19986278560E+03  0.12508898930E+03 0.  0.
        -24    2    1    2    0    0  0.66855645097E+02  0.13268225027E+03  0.37005520318E+03  0.40684305134E+03  0.80660759984E+02 0.  0.
        -13    1    3    3    0    0 -0.18826950923E+02 -0.56537854741E+02 -0.64063824013E+02  0.87493752046E+02  0.00000000000E+00 0.  1.
         14    1    3    3    0    0  0.23664268184E+02  0.15593008650E+02 -0.59001303137E+02  0.65454513055E+02  0.00000000000E+00 0. -1.
         13    1    5    5    0    0  0.15268162069E+02  0.53964257544E+02  0.23901818862E+03  0.24550957691E+03  0.00000000000E+00 0. -1.
        -14    1    5    5    0    0  0.51587483028E+02  0.78717992730E+02  0.13103701456E+03  0.16133347442E+03  0.00000000000E+00 0.  1.
          5    1    4    4  501    0 -0.10363711976E+03 -0.43839485802E+02 -0.60766155530E+02  0.12795527017E+03  0.41800000000E+01 0.  1.
         -5    1    4    4    0  501  0.31944157401E+02 -0.47897918381E+02 -0.42878649662E+02  0.71907515422E+02  0.41800000000E+01 0.  1.
</event>
<event>
11    1  0.7105277E-009  0.2384665E+03  0.7561462E-02  0.1030229E+00
         22   -1    0    0    0    0  0.00000000000E+00  0.00000000000E+00  0.23967365071E+03  0.23967365071E+03  0.00000000000E+00 0.  1.
         22   -1    0    0    0    0 -0.00000000000E+00 -0.00000000000E+00 -0.68832230962E+03  0.68832230962E+03  0.00000000000E+00 0. -1.
         24    2    1    2    0    0  0.74336698360E+02 -0.12193133698E+03 -0.41744331424E+03  0.44822986706E+03  0.79106873696E+02 0.  0.
         25    2    1    2    0    0  0.12968797967E+03 -0.48360762084E+02 -0.70163717319E+02  0.19931984406E+03  0.12509083751E+03 0.  0.
        -24    2    1    2    0    0 -0.20402467803E+03  0.17029209906E+03  0.38958372643E+02  0.28044624921E+03  0.80665207183E+02 0.  0.
        -11    1    3    3    0    0  0.86235240065E+02 -0.12394061018E+03 -0.39188045005E+03  0.41996199662E+03  0.00000000000E+00 0.  1.
         12    1    3    3    0    0 -0.11898541705E+02  0.20092732002E+01 -0.25562864189E+02  0.28267870437E+02  0.00000000000E+00 0. -1.
         11    1    5    5    0    0 -0.12281597118E+03  0.83388605635E+02 -0.16211460116E+02  0.14933262793E+03  0.00000000000E+00 0. -1.
        -12    1    5    5    0    0 -0.81208706851E+02  0.86903493426E+02  0.55169832759E+02  0.13111362128E+03  0.00000000000E+00 0.  1.
          5    1    4    4  501    0  0.96214334906E+02 -0.55779480227E+02  0.10288145014E+02  0.11176702100E+03  0.41800000000E+01 0.  1.
         -5    1    4    4    0  501  0.33473644760E+02  0.74187181427E+01 -0.80451862332E+02  0.87552823057E+02  0.41800000000E+01 0.  1.
</event>
<event>
11    1  0.7105277E-009  0.2392189E+03  0.7561462E-02  0.1029804E+00
         22   -1    0    0    0    0  0.00000000000E+00  0.00000000000E+00  0.36184941852E+03  0.36184941852E+03  0.00000000000E+00 0. -1.
         22   -1    0    0    0    0 -0.00000000000E+00 -0.00000000000E+00 -0.11096015784E+04  0.11096015784E+04  0.00000000000E+00 0.  1.
        -24    2    1    2    0    0  0.12407099872E+03 -0.16342956937E+03 -0.95456085189E+03  0.97955877639E+03  0.79032522235E+02 0.  0.
         25    2    1    2    0    0  0.10617940313E+02  0.22852028726E+03  0.18467270712E+03  0.31950734788E+03  0.12508666696E+03 0.  0.
         24    2    1    2    0    0 -0.13468893903E+03 -0.65090717888E+02  0.22135984934E+02  0.17238487260E+03  0.82756453654E+02 0.  0.
        -13    1    5    5    0    0 -0.45788107759E+02  0.14162129495E+02  0.23276072436E+02  0.53281256292E+02  0.00000000000E+00 0.  1.
         14    1    5    5    0    0 -0.88900831270E+02 -0.79252847383E+02 -0.11400875024E+01  0.11910361631E+03  0.00000000000E+00 0. -1.
         11    1    3    3    0    0  0.59600268820E+02 -0.31469497600E+02 -0.20661612184E+03  0.21733095299E+03  0.00000000000E+00 0. -1.
        -12    1    3    3    0    0  0.64470729896E+02 -0.13196007177E+03 -0.74794473005E+03  0.76222782340E+03  0.00000000000E+00 0.  1.
          5    1    4    4  501    0  0.67747755538E+02  0.13020479458E+03  0.10865197373E+03  0.18266299764E+03  0.41800000000E+01 0. -1.
         -5    1    4    4    0  501 -0.57129815225E+02  0.98315492678E+02  0.76020733387E+02  0.13684435024E+03  0.41800000000E+01 0. -1.
</event>
<event>
11    1  0.7105277E-009  0.1390297E+03  0.7561462E-02  0.1108647E+00
         22   -1    0    0    0    0  0.00000000000E+00  0.00000000000E+00  0.14792726593E+03  0.14792726593E+03  0.00000000000E+00 0. -1.
         22   -1    0    0    0    0 -0.00000000000E+00 -0.00000000000E+00 -0.60811425239E+03  0.60811425239E+03  0.00000000000E+00 0.  1.
         24    2    1    2    0    0 -0.32481074892E+02  0.57295284681E+02 -0.43479275110E+03  0.44742658859E+03  0.82510883479E+02 0.  0.
         25    2    1    2    0    0  0.21344643806E+02 -0.31015704422E+02 -0.12291637778E+03  0.17936896540E+03  0.12508885675E+03 0.  0.
        -24    2    1    2    0    0  0.11136431086E+02 -0.26279580259E+02  0.97522142413E+02  0.12924596433E+03  0.79870611611E+02 0.  0.
        -11    1    3    3    0    0 -0.89478730522E+01  0.51372464125E+02 -0.40783518690E+03  0.41115536501E+03  0.00000000000E+00 0.  1.
         12    1    3    3    0    0 -0.23533201840E+02  0.59228205560E+01 -0.26957564200E+02  0.36271223577E+02  0.00000000000E+00 0. -1.
         13    1    5    5    0    0  0.16418484754E+02 -0.53701949356E+02  0.56844315628E+02  0.79904582005E+02  0.00000000000E+00 0. -1.
        -14    1    5    5    0    0 -0.52820536680E+01  0.27422369097E+02  0.40677826785E+02  0.49341382326E+02  0.00000000000E+00 0.  1.
          5    1    4    4  501    0  0.52226013013E+02  0.28415185235E+02 -0.79815344141E+02  0.99613958598E+02  0.41800000000E+01 0. -1.
         -5    1    4    4    0  501 -0.30881369206E+02 -0.59430889657E+02 -0.43101033642E+02  0.79755006805E+02  0.41800000000E+01 0. -1.
</event>
<event>
11    1  0.7105277E-009  0.1536433E+03  0.7561462E-02  0.1093213E+00
         22   -1    0    0    0    0  0.00000000000E+00  0.00000000000E+00  0.45012927350E+03  0.45012927350E+03  0.00000000000E+00 0.  1.
         22   -1    0    0    0    0 -0.00000000000E+00 -0.00000000000E+00 -0.42951852277E+03  0.42951852277E+03  0.00000000000E+00 0. -1.
        -24    2    1    2    0    0  0.54999346826E+01  0.51651186609E+02 -0.37812008578E+03  0.39004369617E+03  0.80381535760E+02 0.  0.
         25    2    1    2    0    0 -0.70119686582E+02 -0.93028569245E+02  0.21747860139E+03  0.27661602746E+03  0.12509356275E+03 0.  0.
         24    2    1    2    0    0  0.64619751899E+02  0.41377382637E+02  0.18125223511E+03  0.21298807264E+03  0.81386400733E+02 0.  0.
        -11    1    5    5    0    0  0.37875959270E+02 -0.15212209024E+02  0.11413945828E+03  0.12121804953E+03  0.00000000000E+00 0.  1.
         12    1    5    5    0    0  0.26743792629E+02  0.56589591661E+02  0.67112776832E+02  0.91770023116E+02  0.00000000000E+00 0. -1.
         11    1    3    3    0    0 -0.31614030019E+02  0.14356752057E+02 -0.78457402837E+02  0.85797012090E+02  0.00000000000E+00 0. -1.
        -12    1    3    3    0    0  0.37113964701E+02  0.37294434552E+02 -0.29966268294E+03  0.30424668408E+03  0.00000000000E+00 0.  1.
          5    1    4    4  501    0  0.36150053053E+02 -0.24662565739E+02  0.66120280988E+02  0.79400456186E+02  0.41800000000E+01 0. -1.
         -5    1    4    4    0  501 -0.10626973964E+03 -0.68366003506E+02  0.15135832040E+03  0.19721557127E+03  0.41800000000E+01 0. -1.
</event>
<event>
11    1  0.7105277E-009  0.3251516E+03  0.7561462E-02  0.9900747E-01
         22   -1    0    0    0    0  0.00000000000E+00  0.00000000000E+00  0.12751625549E+04  0.12751625549E+04  0.00000000000E+00 0. -1.
         22   -1    0    0    0    0 -0.00000000000E+00 -0.00000000000E+00 -0.19260481210E+04  0.19260481210E+04  0.00000000000E+00 0.  1.
         24    2    1    2    0    0 -0.29402886522E+03  0.51712814956E+02 -0.18464714841E+04  0.18722192151E+04  0.81367433068E+02 0.  0.
         25    2    1    2    0    0  0.40642410182E+03 -0.76894239694E+01  0.77073820785E+03  0.88029826001E+03  0.12509182130E+03 0.  0.
        -24    2    1    2    0    0 -0.11239523660E+03 -0.44023390987E+02  0.42484771009E+03  0.44869320078E+03  0.79115507265E+02 0.  0.
        -13    1    3    3    0    0 -0.11784193529E+03  0.61499239640E+02 -0.80979786395E+03  0.82063479005E+03  0.00000000000E+00 0.  1.
         14    1    3    3    0    0 -0.17618692993E+03 -0.97864246841E+01 -0.10366736201E+04  0.10515844251E+04  0.00000000000E+00 0. -1.
         13    1    5    5    0    0 -0.23646770774E+02  0.22731148856E+02  0.82365348629E+02  0.88656221164E+02  0.00000000000E+00 0. -1.
        -14    1    5    5    0    0 -0.88748465825E+02 -0.66754539843E+02  0.34248236146E+03  0.36003697961E+03  0.00000000000E+00 0.  1.
          5    1    4    4  501    0  0.38283228216E+03 -0.91523440672E+01  0.76517173817E+03  0.85565739812E+03  0.41800000000E+01 0. -1.
         -5    1    4    4    0  501  0.23591819655E+02  0.14629200978E+01  0.55664696801E+01  0.24640861887E+02  0.41800000000E+01 0. -1.
</event>
<event>
11    1  0.7105277E-009  0.1366472E+03  0.7561462E-02  0.1111361E+00
         22   -1    0    0    0    0  0.00000000000E+00  0.00000000000E+00  0.60209662263E+03  0.60209662263E+03  0.00000000000E+00 0.  1.
         22   -1    0    0    0    0 -0.00000000000E+00 -0.00000000000E+00 -0.10579791222E+03  0.10579791222E+03  0.00000000000E+00 0. -1.
         24    2    1    2    0    0  0.26675113434E+02 -0.22498020172E+02 -0.29172671971E+02  0.93187852685E+02  0.81333932092E+02 0.  0.
         25    2    1    2    0    0 -0.34137879869E+02 -0.34251547545E+02  0.76089615329E+02  0.15418966670E+03  0.12508501271E+03 0.  0.
        -24    2    1    2    0    0  0.74627664347E+01  0.56749567718E+02  0.44938176705E+03  0.46051701546E+03  0.82799412186E+02 0.  0.
        -13    1    3    3    0    0 -0.17919624005E+01  0.12244116865E+02  0.21912483147E+02  0.25165183184E+02  0.00000000000E+00 0.  1.
         14    1    3    3    0    0  0.28467075835E+02 -0.34742137037E+02 -0.51085155118E+02  0.68022669500E+02  0.00000000000E+00 0. -1.
         11    1    5    5    0    0  0.36646400773E+02  0.38149069260E+01  0.11635999350E+03  0.12205392370E+03  0.00000000000E+00 0. -1.
        -12    1    5    5    0    0 -0.29183634339E+02  0.52934660792E+02  0.33302177355E+03  0.33846309176E+03  0.00000000000E+00 0.  1.
          5    1    4    4  501    0 -0.67099572677E+02 -0.60192290874E+02  0.62988891995E+02  0.11004788707E+03  0.41800000000E+01 0. -1.
         -5    1    4    4    0  501  0.32961692808E+02  0.25940743328E+02  0.13100723335E+02  0.44141779632E+02  0.41800000000E+01 0. -1.
</event>
<event>
11    1  0.7105277E-009  0.1728288E+03  0.7561462E-02  0.1075596E+00
         22   -1    0    0    0    0  0.00000000000E+00  0.00000000000E+00  0.22602179796E+03  0.22602179796E+03  0.00000000000E+00 0. -1.
         22   -1    0    0    0    0 -0.00000000000E+00 -0.00000000000E+00 -0.47224759190E+03  0.47224759190E+03  0.00000000000E+00 0. -1.
         24    2    1    2    0    0  0.63674496740E+02  0.97471013095E+02 -0.36095060004E+03  0.38776762431E+03  0.80767288354E+02 0.  0.
         25    2    1    2    0    0 -0.78393057222E+02 -0.11897004426E+03  0.29913358995E+02  0.19195554630E+03  0.12511107008E+03 0.  0.
        -24    2    1    2    0    0  0.14718560482E+02  0.21499031163E+02  0.84811447109E+02  0.11854621924E+03  0.78621753814E+02 0.  0.
        -11    1    3    3    0    0 -0.11290382050E+02  0.27025219071E+02 -0.33300473632E+02  0.44348131153E+02  0.00000000000E+00 0.  1.
         12    1    3    3    0    0  0.74964878790E+02  0.70445794025E+02 -0.32765012641E+03  0.34341949316E+03  0.00000000000E+00 0. -1.
         11    1    5    5    0    0 -0.19857432600E+02  0.57370918665E+01  0.77034603055E+02  0.79759400201E+02  0.00000000000E+00 0. -1.
        -12    1    5    5    0    0  0.34575993083E+02  0.15761939297E+02  0.77768440535E+01  0.38786819043E+02  0.00000000000E+00 0.  1.
          5    1    4    4  501    0 -0.10379832864E+03 -0.60529404135E+02  0.41222570744E+02  0.12710104064E+03  0.41800000000E+01 0. -1.
         -5    1    4    4    0  501  0.25405271416E+02 -0.58440640123E+02 -0.11309211750E+02  0.64854505658E+02  0.41800000000E+01 0. -1.
</event>
<event>
11    1  0.7105277E-009  0.1348895E+03  0.7561462E-02  0.1113403E+00
         22   -1    0    0    0    0  0.00000000000E+00  0.00000000000E+00  0.78247564452E+03  0.78247564452E+03  0.00000000000E+00 0. -1.
         22   -1    0    0    0    0 -0.00000000000E+00 -0.00000000000E+00 -0.22132092174E+03  0.22132092174E+03  0.00000000000E+00 0.  1.
         24    2    1    2    0    0 -0.11681818573E+02  0.13271522966E+02 -0.19562305691E+03  0.21214257167E+03  0.80146691201E+02 0.  0.
         25    2    1    2    0    0  0.36448299866E+02 -0.50301323986E+02  0.41088202847E+03  0.43396984456E+03  0.12508830045E+03 0.  0.
        -24    2    1    2    0    0 -0.24766481293E+02  0.37029801020E+02  0.34589575122E+03  0.35768415003E+03  0.79432334166E+02 0.  0.
        -11    1    3    3    0    0 -0.11745222063E+01 -0.27222479069E+02 -0.13953695673E+03  0.14217244867E+03  0.00000000000E+00 0.  1.
         12    1    3    3    0    0 -0.10507296367E+02  0.40494002035E+02 -0.56086100187E+02  0.69970122995E+02  0.00000000000E+00 0. -1.
         11    1    5    5    0    0  0.23744686867E+02  0.31283396494E+02  0.20023081833E+03  0.20404617531E+03  0.00000000000E+00 0. -1.
        -12    1    5    5    0    0 -0.48511168160E+02  0.57464045259E+01  0.14566493289E+03  0.15363797472E+03  0.00000000000E+00 0.  1.
          5    1    4    4  501    0  0.23607604659E+02 -0.17214431187E+02  0.39282169105E+03  0.39392893902E+03  0.41800000000E+01 0. -1.
         -5    1    4    4    0  501  0.12840695207E+02 -0.33086892799E+02  0.18060337417E+02  0.40040905535E+02  0.41800000000E+01 0. -1.
</event>
<event>
11    1  0.7105277E-009  0.1648950E+03  0.7561462E-02  0.1082562E+00
         22   -1    0    0    0    0  0.00000000000E+00  0.00000000000E+00  0.43980887325E+03  0.43980887325E+03  0.00000000000E+00 0.  1.
         22   -1    0    0    0    0 -0.00000000000E+00 -0.00000000000E+00 -0.80278549348E+03  0.80278549348E+03  0.00000000000E+00 0. -1.
         24    2    1    2    0    0  0.69549445334E+02 -0.81918171615E+02 -0.75900999657E+03  0.77067212521E+03  0.79319843026E+02 0.  0.
         25    2    1    2    0    0 -0.92770647241E+02  0.60521215503E+02  0.22285546637E+03  0.27853573984E+03  0.12509352085E+03 0.  0.
        -24    2    1    2    0    0  0.23221201907E+02  0.21396956111E+02  0.17317790997E+03  0.19338650169E+03  0.80066825739E+02 0.  0.
        -11    1    3    3    0    0 -0.76686621696E+01 -0.28758102194E+02 -0.82642443946E+02  0.87838547135E+02  0.00000000000E+00 0.  1.
         12    1    3    3    0    0  0.77218107504E+02 -0.53160069421E+02 -0.67636755262E+03  0.68283357807E+03  0.00000000000E+00 0. -1.
         13    1    5    5    0    0 -0.28019214012E+02  0.19635406877E+02  0.58531365835E+02  0.67797834357E+02  0.00000000000E+00 0. -1.
        -14    1    5    5    0    0  0.51240415918E+02  0.17615492340E+01  0.11464654414E+03  0.12558866733E+03  0.00000000000E+00 0.  1.
          5    1    4    4  501    0 -0.73878685778E+02 -0.24668226592E+02  0.12518630906E+03  0.14749802029E+03  0.41800000000E+01 0.  1.
         -5    1    4    4    0  501 -0.18891961463E+02  0.85189442096E+02  0.97669157314E+02  0.13103771954E+03  0.41800000000E+01 0.  1.
</event>
<event>
11    1  0.7105277E-009  0.1719355E+03  0.7561462E-02  0.1076360E+00
         22   -1    0    0    0    0  0.00000000000E+00  0.00000000000E+00  0.12157687653E+04  0.12157687653E+04  0.00000000000E+00 0.  1.
         22   -1    0    0    0    0 -0.00000000000E+00 -0.00000000000E+00 -0.52106682835E+03  0.52106682835E+03  0.00000000000E+00 0.  1.
        -24    2    1    2    0    0  0.80614206517E+02 -0.58798276416E+02 -0.47701809175E+03  0.49404428413E+03  0.81102448925E+02 0.  0.
         25    2    1    2    0    0 -0.12110858603E+03 -0.55828367914E+02  0.25088596382E+03  0.31044381024E+03  0.12508995243E+03 0.  0.
         24    2    1    2    0    0  0.40494379515E+02  0.11462664433E+03  0.92083406484E+03  0.93234749925E+03  0.80977910693E+02 0.  0.
        -11    1    5    5    0    0  0.63882450526E+02  0.89853735889E+02  0.75909066579E+03  0.76705495254E+03  0.00000000000E+00 0.  1.
         12    1    5    5    0    0 -0.23388071011E+02  0.24772908441E+02  0.16174339906E+03  0.16529254671E+03  0.00000000000E+00 0. -1.
         11    1    3    3    0    0  0.32129652864E+02 -0.38639771002E+02 -0.86706482588E+02  0.10021656859E+03  0.00000000000E+00 0. -1.
        -12    1    3    3    0    0  0.48484553653E+02 -0.20158505415E+02 -0.39031160916E+03  0.39382771555E+03  0.00000000000E+00 0.  1.
          5    1    4    4  501    0 -0.21731254094E+02  0.50711826000E+00 -0.10984569922E+02  0.24711085565E+02  0.41800000000E+01 0.  1.
         -5    1    4    4    0  501 -0.99377331938E+02 -0.56335486174E+02  0.26187053374E+03  0.28573272467E+03  0.41800000000E+01 0.  1.
</event>
<event>
11    1  0.8666119E-009  0.1646113E+03  0.7561462E-02  0.1082819E+00
         22   -1    0    0    0    0  0.00000000000E+00  0.00000000000E+00  0.27257214852E+03  0.27257214852E+03  0.00000000000E+00 0.  1.
         22   -1    0    0    0    0 -0.00000000000E+00 -0.00000000000E+00 -0.91449641943E+03  0.91449641943E+03  0.00000000000E+00 0. -1.
         24    2    1    2    0    0  0.42025324147E+02 -0.71285632433E+02 -0.73988162232E+03  0.74950326597E+03  0.86501799861E+02 0.  0.
         25    2    1    2    0    0 -0.41440699936E+02 -0.44569853110E+02 -0.11589062075E+03  0.18105662668E+03  0.12508821956E+03 0.  0.
        -24    2    1    2    0    0 -0.58462421106E+00  0.11585548554E+03  0.21384797217E+03  0.25650867530E+03  0.81504048903E+02 0.  0.
        -13    1    3    3    0    0 -0.79043208623E+01 -0.24110548836E+02 -0.48669950289E+02  0.54886800914E+02  0.00000000000E+00 0.  1.
         14    1    3    3    0    0  0.49929645010E+02 -0.47175083598E+02 -0.69121167204E+03  0.69461646505E+03  0.00000000000E+00 0. -1.
         13    1    5    5    0    0  0.51665314088E+01  0.37813877451E+01 -0.65660084672E+01  0.91708455045E+01  0.00000000000E+00 0. -1.
        -14    1    5    5    0    0 -0.57511556198E+01  0.11207409780E+03  0.22041398064E+03  0.24733782980E+03  0.00000000000E+00 0.  1.
          5    1    4    4  501    0  0.12808026601E+02  0.59128242669E+01 -0.10501667913E+03  0.10604236103E+03  0.41800000000E+01 0.  1.
         -5    1    4    4    0  501 -0.54248726537E+02 -0.50482677377E+02 -0.10873941615E+02  0.75014265659E+02  0.41800000000E+01 0.  1.
</event>
<event>
11    1  0.7105277E-009  0.2448886E+03  0.7561462E-02  0.1026658E+00
         22   -1    0    0    0    0  0.00000000000E+00  0.00000000000E+00  0.69272041144E+03  0.69272041144E+03  0.00000000000E+00 0.  1.
         22   -1    0    0    0    0 -0.00000000000E+00 -0.00000000000E+00 -0.95836216857E+03  0.95836216857E+03  0.00000000000E+00 0.  1.
        -24    2    1    2    0    0  0.20670020248E+03 -0.34723922213E+02 -0.53771005283E+03  0.58248990372E+03  0.78940880052E+02 0.  0.
         25    2    1    2    0    0 -0.21808314668E+03 -0.90509409052E+02 -0.34346876509E+03  0.43516661946E+03  0.12508789754E+03 0.  0.
         24    2    1    2    0    0  0.11382944196E+02  0.12523333127E+03  0.61553706079E+03  0.63342605682E+03  0.80806791561E+02 0.  0.
        -11    1    5    5    0    0  0.19563921583E+02  0.13493415229E+03  0.57526416294E+03  0.59120117528E+03  0.00000000000E+00 0.  1.
         12    1    5    5    0    0 -0.81809773861E+01 -0.97008210258E+01  0.40272897852E+02  0.42224881539E+02  0.00000000000E+00 0. -1.
         13    1    3    3    0    0  0.13141260348E+03  0.16449311889E+01 -0.24439314364E+03  0.27748871475E+03  0.00000000000E+00 0. -1.
        -14    1    3    3    0    0  0.75287599003E+02 -0.36368853402E+02 -0.29331690919E+03  0.30500118898E+03  0.00000000000E+00 0.  1.
          5    1    4    4  501    0 -0.20299198098E+03 -0.30887533280E+02 -0.25710349914E+03  0.32905845335E+03  0.41800000000E+01 0. -1.
         -5    1    4    4    0  501 -0.15091165699E+02 -0.59621875772E+02 -0.86365265951E+02  0.10610816611E+03  0.41800000000E+01 0. -1.
</event>
<event>
11    1  0.7105277E-009  0.1495211E+03  0.7561462E-02  0.1097369E+00
         22   -1    0    0    0    0  0.00000000000E+00  0.00000000000E+00  0.22633293573E+03  0.22633293573E+03  0.00000000000E+00 0. -1.
         22   -1    0    0    0    0 -0.00000000000E+00 -0.00000000000E+00 -0.36382238212E+03  0.36382238212E+03  0.00000000000E+00 0. -1.
        -24    2    1    2    0    0  0.65299979955E+02 -0.53634711468E+02 -0.29615202240E+03  0.31828382264E+03  0.80360448755E+02 0.  0.
         25    2    1    2    0    0 -0.30859455558E+02  0.43726153090E+02  0.92134630591E+02  0.16432444669E+03  0.12509776642E+03 0.  0.
         24    2    1    2    0    0 -0.34440524397E+02  0.99085583779E+01  0.66527945418E+02  0.10754704853E+03  0.76524968965E+02 0.  0.
        -11    1    5    5    0    0  0.22026298813E+02  0.16395395155E+02  0.25229785804E+02  0.37289528200E+02  0.00000000000E+00 0.  1.
         12    1    5    5    0    0 -0.56466823209E+02 -0.64868367771E+01  0.41298159614E+02  0.70257520325E+02  0.00000000000E+00 0. -1.
         11    1    3    3    0    0  0.34108924876E+02 -0.29806686672E+02 -0.26309777449E+03  0.26696871777E+03  0.00000000000E+00 0. -1.
        -12    1    3    3    0    0  0.31191055079E+02 -0.23828024796E+02 -0.33054247914E+02  0.51315104870E+02  0.00000000000E+00 0.  1.
          5    1    4    4  501    0  0.47860005957E+02  0.11401407279E+02  0.45762138341E+02  0.67321749559E+02  0.41800000000E+01 0. -1.
         -5    1    4    4    0  501 -0.78719461516E+02  0.32324745811E+02  0.46372492249E+02  0.97002697130E+02  0.41800000000E+01 0. -1.
</event>
<event>
11    1  0.7105277E-009  0.1323785E+03  0.7561462E-02  0.1116381E+00
         22   -1    0    0    0    0  0.00000000000E+00  0.00000000000E+00  0.86500979849E+03  0.86500979849E+03  0.00000000000E+00 0. -1.
         22   -1    0    0    0    0 -0.00000000000E+00 -0.00000000000E+00 -0.89412852312E+03  0.89412852312E+03  0.00000000000E+00 0. -1.
        -24    2    1    2    0    0 -0.32022295023E+02 -0.28890146700E+02 -0.87251417628E+03  0.87785657711E+03  0.86551222985E+02 0.  0.
         25    2    1    2    0    0  0.79290248071E+02  0.17200932885E+02  0.37683855370E+03  0.40526292312E+03  0.12509166946E+03 0.  0.
         24    2    1    2    0    0 -0.47267953048E+02  0.11689213814E+02  0.46655689796E+03  0.47601882138E+03  0.80917749453E+02 0.  0.
        -13    1    5    5    0    0  0.23133858722E+01  0.36375621658E+02  0.13342885055E+03  0.13831773481E+03  0.00000000000E+00 0.  1.
         14    1    5    5    0    0 -0.49581338920E+02 -0.24686407844E+02  0.33312804741E+03  0.33770108657E+03  0.00000000000E+00 0. -1.
         13    1    3    3    0    0 -0.32189319393E+02 -0.52651807675E+02 -0.77639552801E+03  0.77884425982E+03  0.00000000000E+00 0. -1.
        -14    1    3    3    0    0  0.16702437078E+00  0.23761660976E+02 -0.96118648269E+02  0.99012317287E+02  0.00000000000E+00 0.  1.
          5    1    4    4  501    0  0.15228341200E+02  0.40356978084E+02  0.32350405051E+02  0.54079655719E+02  0.41800000000E+01 0.  1.
         -5    1    4    4    0  501  0.64061906871E+02 -0.23156045199E+02  0.34448814865E+03  0.35118326740E+03  0.41800000000E+01 0.  1.
</event>
<event>
11    1  0.7105277E-009  0.1818577E+03  0.7561462E-02  0.1068150E+00
         22   -1    0    0    0    0  0.00000000000E+00  0.00000000000E+00  0.68923451602E+03  0.68923451602E+03  0.00000000000E+00 0. -1.
         22   -1    0    0    0    0 -0.00000000000E+00 -0.00000000000E+00 -0.39598624504E+03  0.39598624504E+03  0.00000000000E+00 0. -1.
         24    2    1    2    0    0 -0.19887037165E+02 -0.12648475185E+03 -0.31043804345E+03  0.34528642344E+03  0.80355763276E+02 0.  0.
         25    2    1    2    0    0  0.29384070872E+02  0.16993618465E+03  0.11361276491E+03  0.24144553382E+03  0.12508539076E+03 0.  0.
        -24    2    1    2    0    0 -0.94970337064E+01 -0.43451432792E+02  0.49007354952E+03  0.49848880381E+03  0.79629033142E+02 0.  0.
        -11    1    3    3    0    0  0.29214864448E+02 -0.70624115337E+02 -0.14535786907E+03  0.16422601521E+03  0.00000000000E+00 0.  1.
         12    1    3    3    0    0 -0.49101901613E+02 -0.55860636515E+02 -0.16508017438E+03  0.18106040823E+03  0.00000000000E+00 0. -1.
         13    1    5    5    0    0  0.27653330097E+02 -0.46165766589E+02  0.30327553463E+03  0.30801304287E+03  0.00000000000E+00 0. -1.
        -14    1    5    5    0    0 -0.37150363804E+02  0.27143337968E+01  0.18679801489E+03  0.19047576094E+03  0.00000000000E+00 0.  1.
          5    1    4    4  501    0  0.18847366594E+02  0.99845656518E+02 -0.65156201549E+01  0.10190340553E+03  0.41800000000E+01 0.  1.
         -5    1    4    4    0  501  0.10536704278E+02  0.70090528127E+02  0.12012838506E+03  0.13954212829E+03  0.41800000000E+01 0.  1.
</event>
<event>
11    1  0.7105277E-009  0.1258616E+03  0.7561462E-02  0.1124461E+00
         22   -1    0    0    0    0  0.00000000000E+00  0.00000000000E+00  0.46944145678E+03  0.46944145678E+03  0.00000000000E+00 0. -1.
         22   -1    0    0    0    0 -0.00000000000E+00 -0.00000000000E+00 -0.94063599279E+02  0.94063599279E+02  0.00000000000E+00 0.  1.
        -24    2    1    2    0    0  0.10007009607E+02  0.11131410535E+02 -0.45360732744E+02  0.94199314969E+02  0.81190309298E+02 0.  0.
         25    2    1    2    0    0  0.51129388235E+01 -0.89821281801E+01  0.23490224529E+03  0.26633111816E+03  0.12508548633E+03 0.  0.
         24    2    1    2    0    0 -0.15119948431E+02 -0.21492823550E+01  0.18583634496E+03  0.20297462293E+03  0.80189264801E+02 0.  0.
        -13    1    5    5    0    0 -0.45341566727E+02  0.11277117539E+02  0.86997150581E+02  0.98749862088E+02  0.00000000000E+00 0.  1.
         14    1    5    5    0    0  0.30221618296E+02 -0.13426399894E+02  0.98839194384E+02  0.10422476084E+03  0.00000000000E+00 0. -1.
         11    1    3    3    0    0 -0.12395486763E+01 -0.78818596312E+01  0.21950644103E+02  0.23355748087E+02  0.00000000000E+00 0. -1.
        -12    1    3    3    0    0  0.11246558284E+02  0.19013270166E+02 -0.67311376847E+02  0.70843566883E+02  0.00000000000E+00 0.  1.
          5    1    4    4  501    0 -0.12780157558E+02  0.54743504407E+02  0.80371040226E+02  0.98169038953E+02  0.41800000000E+01 0.  1.
         -5    1    4    4    0  501  0.17893096382E+02 -0.63725632587E+02  0.15453120506E+03  0.16816207921E+03  0.41800000000E+01 0.  1.
</event>
<event>
11    1  0.7105277E-009  0.1295036E+03  0.7561462E-02  0.1119880E+00
         22   -1    0    0    0    0  0.00000000000E+00  0.00000000000E+00  0.54972944396E+03  0.54972944396E+03  0.00000000000E+00 0.  1.
         22   -1    0    0    0    0 -0.00000000000E+00 -0.00000000000E+00 -0.23406768278E+03  0.23406768278E+03  0.00000000000E+00 0. -1.
         24    2    1    2    0    0 -0.31625870773E+01 -0.16778715955E+00 -0.15845829835E+03  0.17821794108E+03  0.81501976031E+02 0.  0.
         25    2    1    2    0    0 -0.27929363518E+02  0.12653220597E+02  0.48575105270E+01  0.12893065663E+03  0.12513738639E+03 0.  0.
        -24    2    1    2    0    0  0.31091950596E+02 -0.12485433437E+02  0.46926254900E+03  0.47664852904E+03  0.76576007320E+02 0.  0.
        -11    1    3    3    0    0 -0.26185510864E+02  0.10947379393E+01 -0.10113711465E+02  0.28092109034E+02  0.00000000000E+00 0.  1.
         12    1    3    3    0    0  0.23022923787E+02 -0.12625250988E+01 -0.14834458688E+03  0.15012583204E+03  0.00000000000E+00 0. -1.
         13    1    5    5    0    0 -0.12985934291E+02 -0.30729426187E+02  0.13836134830E+03  0.14232636730E+03  0.00000000000E+00 0. -1.
        -14    1    5    5    0    0  0.44077884887E+02  0.18243992750E+02  0.33090120070E+03  0.33432216174E+03  0.00000000000E+00 0.  1.
          5    1    4    4  501    0  0.18081583090E+02 -0.47404370087E+02 -0.95645544283E+01  0.51798369200E+02  0.41800000000E+01 0.  1.
         -5    1    4    4    0  501 -0.46010946608E+02  0.60057590684E+02  0.14422064955E+02  0.77132287429E+02  0.41800000000E+01 0.  1.
</event>
<event>
11    1  0.7105277E-009  0.1481479E+03  0.7561462E-02  0.1098786E+00
         22   -1    0    0    0    0  0.00000000000E+00  0.00000000000E+00  0.14403916735E+03  0.14403916735E+03  0.00000000000E+00 0.  1.
         22   -1    0    0    0    0 -0.00000000000E+00 -0.00000000000E+00 -0.25861191366E+03  0.25861191366E+03  0.00000000000E+00 0. -1.
         24    2    1    2    0    0  0.20559303281E+02  0.12476953379E+02 -0.84838330747E+02  0.11908714181E+03  0.80036527059E+02 0.  0.
         25    2    1    2    0    0 -0.26410815098E+02  0.69944206494E+02 -0.55564642962E+02  0.15596909314E+03  0.12509678370E+03 0.  0.
        -24    2    1    2    0    0  0.58515118175E+01 -0.82421159873E+02  0.25830227402E+02  0.12759484605E+03  0.93732365306E+02 0.  0.
        -11    1    3    3    0    0 -0.10140773776E+02  0.94427080474E+01  0.11451588379E+02  0.17976064765E+02  0.00000000000E+00 0.  1.
         12    1    3    3    0    0  0.30700077056E+02  0.30342453320E+01 -0.96289919126E+02  0.10111107705E+03  0.00000000000E+00 0. -1.
         11    1    5    5    0    0 -0.27208110412E+02  0.73597219630E+01 -0.10851191064E+01  0.28206812351E+02  0.00000000000E+00 0. -1.
        -12    1    5    5    0    0  0.33059622229E+02 -0.89780881836E+02  0.26915346509E+02  0.99388033701E+02  0.00000000000E+00 0.  1.
          5    1    4    4  501    0 -0.41532900341E+02 -0.25060764212E+02 -0.26254082459E+02  0.55315214538E+02  0.41800000000E+01 0. -1.
         -5    1    4    4    0  501  0.15122085243E+02  0.95004970706E+02 -0.29310560503E+02  0.10065387860E+03  0.41800000000E+01 0. -1.
</event>
<event>
11    1  0.7105277E-009  0.2092641E+03  0.7561462E-02  0.1048159E+00
         22   -1    0    0    0    0  0.00000000000E+00  0.00000000000E+00  0.97357902821E+03  0.97357902821E+03  0.00000000000E+00 0. -1.
         22   -1    0    0    0    0 -0.00000000000E+00 -0.00000000000E+00 -0.37753458054E+03  0.37753458054E+03  0.00000000000E+00 0.  1.
        -24    2    1    2    0    0 -0.54688367275E+02 -0.15146947333E+03 -0.27498405977E+03  0.32877497295E+03  0.80888385118E+02 0.  0.
         25    2    1    2    0    0 -0.15559799117E+02  0.27733019625E+03  0.29791799503E+03  0.42610106378E+03  0.12511130922E+03 0.  0.
         24    2    1    2    0    0  0.70248166392E+02 -0.12586072292E+03  0.57311051241E+03  0.59623757202E+03  0.79169794737E+02 0.  0.
        -11    1    5    5    0    0  0.55725137368E+02 -0.90534643906E+02  0.26132932067E+03  0.28212555100E+03  0.00000000000E+00 0.  1.
         12    1    5    5    0    0  0.14523029024E+02 -0.35326079011E+02  0.31178119174E+03  0.31411202102E+03  0.00000000000E+00 0. -1.
         13    1    3    3    0    0 -0.71478880042E+02 -0.82389534619E+02 -0.17014409783E+03  0.20210462571E+03  0.00000000000E+00 0. -1.
        -14    1    3    3    0    0  0.16790512767E+02 -0.69079938714E+02 -0.10483996194E+03  0.12667034724E+03  0.00000000000E+00 0.  1.
          5    1    4    4  501    0 -0.61295476208E+02  0.23144792029E+03  0.24145114854E+03  0.34006088388E+03  0.41800000000E+01 0. -1.
         -5    1    4    4    0  501  0.45735677091E+02  0.45882275957E+02  0.56466846487E+02  0.86040179905E+02  0.41800000000E+01 0. -1.
</event>
<event>
11    1  0.7105277E-009  0.1427704E+03  0.7561462E-02  0.1104504E+00
         22   -1    0    0    0    0  0.00000000000E+00  0.00000000000E+00  0.51671289793E+03  0.51671289793E+03  0.00000000000E+00 0. -1.
         22   -1    0    0    0    0 -0.00000000000E+00 -0.00000000000E+00 -0.13944079287E+04  0.13944079287E+04  0.00000000000E+00 0. -1.
        -24    2    1    2    0    0  0.14385993553E+02 -0.29554865346E+02 -0.12177514985E+04  0.12207828039E+04  0.79444920275E+02 0.  0.
         25    2    1    2    0    0 -0.66425812566E+02 -0.15858904650E+02 -0.14015369665E+03  0.19988389322E+03  0.12508644472E+03 0.  0.
         24    2    1    2    0    0  0.52039819012E+02  0.45413769996E+02  0.48021016433E+03  0.49045412955E+03  0.71922861465E+02 0.  0.
        -11    1    5    5    0    0 -0.94038527314E+01  0.36335568999E+02  0.17184935856E+03  0.17590027874E+03  0.00000000000E+00 0.  1.
         12    1    5    5    0    0  0.61443671743E+02  0.90782009964E+01  0.30836080576E+03  0.31455385081E+03  0.00000000000E+00 0. -1.
         13    1    3    3    0    0 -0.19531766336E+02  0.69994052202E+01 -0.76714093474E+03  0.76742145874E+03  0.00000000000E+00 0. -1.
        -14    1    3    3    0    0  0.33917759889E+02 -0.36554270566E+02 -0.45061056373E+03  0.45336134515E+03  0.00000000000E+00 0.  1.
          5    1    4    4  501    0 -0.90903094076E+02  0.18792084239E+02 -0.64717986097E+02  0.11323605904E+03  0.41800000000E+01 0.  1.
         -5    1    4    4    0  501  0.24477281511E+02 -0.34650988889E+02 -0.75435710556E+02  0.86647834181E+02  0.41800000000E+01 0.  1.
</event>
<event>
11    1  0.7105277E-009  0.1343500E+03  0.7561462E-02  0.1114037E+00
         22   -1    0    0    0    0  0.00000000000E+00  0.00000000000E+00  0.23483571211E+04  0.23483571211E+04  0.00000000000E+00 0.  1.
         22   -1    0    0    0    0 -0.00000000000E+00 -0.00000000000E+00 -0.51337171746E+02  0.51337171746E+02  0.00000000000E+00 0.  1.
         24    2    1    2    0    0 -0.49420558016E+02  0.24661161540E+02  0.34486683102E+02  0.10156217001E+03  0.77942149202E+02 0.  0.
         25    2    1    2    0    0  0.22934851099E+02 -0.14330812779E+02  0.22423320096E+03  0.25818620508E+03  0.12509279952E+03 0.  0.
        -24    2    1    2    0    0  0.26485706917E+02 -0.10330348761E+02  0.20383000653E+04  0.20399459177E+04  0.76837376451E+02 0.  0.
        -11    1    3    3    0    0 -0.44124664895E+02 -0.71456384522E+01 -0.10784049143E+02  0.45981973825E+02  0.00000000000E+00 0.  1.
         12    1    3    3    0    0 -0.52958931212E+01  0.31806799992E+02  0.45270732245E+02  0.55580196182E+02  0.00000000000E+00 0. -1.
         11    1    5    5    0    0 -0.47562072947E+00 -0.60371579242E+01  0.11811594346E+02  0.13273554606E+02  0.00000000000E+00 0. -1.
        -12    1    5    5    0    0  0.26961327647E+02 -0.42931908372E+01  0.20264884709E+04  0.20266723631E+04  0.00000000000E+00 0.  1.
          5    1    4    4  501    0  0.71613119299E+02 -0.17015405879E+02  0.96777195837E+02  0.12166043287E+03  0.41800000000E+01 0.  1.
         -5    1    4    4    0  501 -0.48678268201E+02  0.26845931001E+01  0.12745600513E+03  0.13652577221E+03  0.41800000000E+01 0.  1.
</event>
<event>
11    1  0.7105277E-009  0.1611901E+03  0.7561462E-02  0.1085963E+00
         22   -1    0    0    0    0  0.00000000000E+00  0.00000000000E+00  0.16142613855E+03  0.16142613855E+03  0.00000000000E+00 0. -1.
         22   -1    0    0    0    0 -0.00000000000E+00 -0.00000000000E+00 -0.90320440797E+03  0.90320440797E+03  0.00000000000E+00 0. -1.
        -24    2    1    2    0    0  0.45080793883E+02  0.90708388933E+02 -0.70705034937E+03  0.71880067903E+03  0.80584923026E+02 0.  0.
         25    2    1    2    0    0 -0.62513029110E+02 -0.84861521516E+02 -0.13723298167E+03  0.21351810969E+03  0.12509090800E+03 0.  0.
         24    2    1    2    0    0  0.17432235227E+02 -0.58468674170E+01  0.10250506163E+03  0.13231175780E+03  0.81615224734E+02 0.  0.
        -11    1    5    5    0    0 -0.12978504048E+02 -0.58321066901E+01 -0.89318959969E+01  0.16799815531E+02  0.00000000000E+00 0.  1.
         12    1    5    5    0    0  0.30410739275E+02 -0.14760726837E-01  0.11143695763E+03  0.11551194227E+03  0.00000000000E+00 0. -1.
         13    1    3    3    0    0  0.48747781519E+02  0.86578948852E+02 -0.70626817927E+03  0.71322296769E+03  0.00000000000E+00 0. -1.
        -14    1    3    3    0    0 -0.36669876353E+01  0.41294400811E+01 -0.78217010282E+00  0.55777113381E+01  0.00000000000E+00 0.  1.
          5    1    4    4  501    0 -0.72105267055E+02 -0.42965939274E+02 -0.14692430424E+03  0.16926152856E+03  0.41800000000E+01 0.  1.
         -5    1    4    4    0  501  0.95922379457E+01 -0.41895582243E+02  0.96913225637E+01  0.44256581130E+02  0.41800000000E+01 0.  1.
</event>
<event>
11    1  0.7105277E-009  0.1904770E+03  0.7561462E-02  0.1061470E+00
         22   -1    0    0    0    0  0.00000000000E+00  0.00000000000E+00  0.70715163850E+03  0.70715163850E+03  0.00000000000E+00 0.  1.
         22   -1    0    0    0    0 -0.00000000000E+00 -0.00000000000E+00 -0.78838324856E+03  0.78838324856E+03  0.00000000000E+00 0.  1.
        -24    2    1    2    0    0 -0.36414559532E+02  0.49085114062E+01 -0.66713088406E+03  0.67287584210E+03  0.79675396376E+02 0.  0.
         25    2    1    2    0    0 -0.11017077501E+03 -0.17151187224E+02 -0.41109847177E+02  0.17257479035E+03  0.12514102382E+03 0.  0.
         24    2    1    2    0    0  0.14658533454E+03  0.12242675818E+02  0.62700912118E+03  0.65008425460E+03  0.88498342508E+02 0.  0.
        -13    1    5    5    0    0  0.14127159906E+03  0.37230252817E+02  0.53752008872E+03  0.55702028886E+03  0.00000000000E+00 0.  1.
         14    1    5    5    0    0  0.53137354826E+01 -0.24987576999E+02  0.89489032457E+02  0.93063965740E+02  0.00000000000E+00 0. -1.
         13    1    3    3    0    0  0.20742591655E+02 -0.80547885018E+00 -0.70677459393E+02  0.73662793668E+02  0.00000000000E+00 0. -1.
        -14    1    3    3    0    0 -0.57157151187E+02  0.57139902564E+01 -0.59645342466E+03  0.59921304843E+03  0.00000000000E+00 0.  1.
          5    1    4    4  501    0 -0.91414204003E+02  0.45412428847E+02 -0.24946787879E+02  0.10516016362E+03  0.41800000000E+01 0. -1.
         -5    1    4    4    0  501 -0.18756571005E+02 -0.62563616071E+02 -0.16163059298E+02  0.67414626734E+02  0.41800000000E+01 0. -1.
</event>
<event>
11    1  0.7105277E-009  0.1595178E+03  0.7561462E-02  0.1087532E+00
         22   -1    0    0    0    0  0.00000000000E+00  0.00000000000E+00  0.28150094590E+04  0.28150094590E+04  0.00000000000E+00 0.  1.
         22   -1    0    0    0    0 -0.00000000000E+00 -0.00000000000E+00 -0.60358952577E+03  0.60358952577E+03  0.00000000000E+00 0.  1.
        -24    2    1    2    0    0 -0.90343305005E+02 -0.40391533858E+02 -0.58974727639E+03  0.60415267518E+03  0.86053565589E+02 0.  0.
         25    2    1    2    0    0  0.81948249097E+02  0.70020356920E+02  0.12651310194E+04  0.12758614431E+04  0.12509020741E+03 0.  0.
         24    2    1    2    0    0  0.83950559079E+01 -0.29628823063E+02  0.15360361903E+04  0.15385848665E+04  0.82993188855E+02 0.  0.
        -13    1    5    5    0    0 -0.83623564518E+01 -0.54302280254E+02  0.11892300536E+04  0.11904985456E+04  0.00000000000E+00 0.  1.
         14    1    5    5    0    0  0.16757412360E+02  0.24673457191E+02  0.34680613663E+03  0.34808632085E+03  0.00000000000E+00 0. -1.
         13    1    3    3    0    0 -0.42237131998E+02 -0.18546359300E+01 -0.78126101671E+02  0.88831879166E+02  0.00000000000E+00 0. -1.
        -14    1    3    3    0    0 -0.48106173007E+02 -0.38536897928E+02 -0.51162117472E+03  0.51532079601E+03  0.00000000000E+00 0.  1.
          5    1    4    4  501    0  0.10839724889E+03  0.23471722809E+02  0.80805179375E+03  0.81563843651E+03  0.41800000000E+01 0. -1.
         -5    1    4    4    0  501 -0.26448999794E+02  0.46548634111E+02  0.45707922563E+03  0.46022300663E+03  0.41800000000E+01 0. -1.
</event>
<event>
11    1  0.7105277E-009  0.1392253E+03  0.7561462E-02  0.1108427E+00
         22   -1    0    0    0    0  0.00000000000E+00  0.00000000000E+00  0.22337820655E+03  0.22337820655E+03  0.00000000000E+00 0. -1.
         22   -1    0    0    0    0 -0.00000000000E+00 -0.00000000000E+00 -0.77402486997E+03  0.77402486997E+03  0.00000000000E+00 0. -1.
         24    2    1    2    0    0  0.18260534486E+02 -0.55969380792E+02 -0.60178264300E+03  0.60976139765E+03  0.78743850207E+02 0.  0.
         25    2    1    2    0    0 -0.77750536586E+02  0.47821921704E+02 -0.11578477688E+03  0.19336768896E+03  0.12511141611E+03 0.  0.
        -24    2    1    2    0    0  0.59490002100E+02  0.81474590877E+01  0.16692075646E+03  0.19427398991E+03  0.79211127870E+02 0.  0.
        -13    1    3    3    0    0  0.30946751651E+02 -0.71483479254E+02 -0.49900813882E+03  0.50505119726E+03  0.00000000000E+00 0.  1.
         14    1    3    3    0    0 -0.12686217165E+02  0.15514098462E+02 -0.10277450418E+03  0.10471020039E+03  0.00000000000E+00 0. -1.
         11    1    5    5    0    0  0.38994082991E+02  0.43570859609E+02  0.98220879160E+02  0.11430791494E+03  0.00000000000E+00 0. -1.
        -12    1    5    5    0    0  0.20495919110E+02 -0.35423400521E+02  0.68699877296E+02  0.79966074964E+02  0.00000000000E+00 0.  1.
          5    1    4    4  501    0  0.72287974549E+01 -0.35040505988E+02 -0.29669407743E+02  0.46667319704E+02  0.41800000000E+01 0. -1.
         -5    1    4    4    0  501 -0.84979334041E+02  0.82862427692E+02 -0.86115369137E+02  0.14670036925E+03  0.41800000000E+01 0. -1.
</event>
<event>
11    1  0.7105277E-009  0.1508331E+03  0.7561462E-02  0.1096031E+00
         22   -1    0    0    0    0  0.00000000000E+00  0.00000000000E+00  0.78072455033E+03  0.78072455033E+03  0.00000000000E+00 0.  1.
         22   -1    0    0    0    0 -0.00000000000E+00 -0.00000000000E+00 -0.68117804420E+03  0.68117804420E+03  0.00000000000E+00 0.  1.
         24    2    1    2    0    0  0.43282820208E+02 -0.67169111763E+02 -0.44267050332E+03  0.45833505485E+03  0.87913343124E+02 0.  0.
         25    2    1    2    0    0 -0.65050532490E+02  0.76832472227E+02 -0.20025844333E+03  0.25668162103E+03  0.12508880799E+03 0.  0.
        -24    2    1    2    0    0  0.21767712282E+02 -0.96633604642E+01  0.74247545277E+03  0.74688591865E+03  0.77469759807E+02 0.  0.
        -13    1    3    3    0    0  0.30826174736E+02  0.15978291357E+02 -0.13134780267E+03  0.13585950136E+03  0.00000000000E+00 0.  1.
         14    1    3    3    0    0  0.12456645472E+02 -0.83147403119E+02 -0.31132270065E+03  0.32247555349E+03  0.00000000000E+00 0. -1.
         13    1    5    5    0    0 -0.15528904554E+02  0.96681067074E+01  0.51817181832E+02  0.54951246546E+02  0.00000000000E+00 0. -1.
        -14    1    5    5    0    0  0.37296616836E+02 -0.19331467172E+02  0.69065827094E+03  0.69193467211E+03  0.00000000000E+00 0.  1.
          5    1    4    4  501    0 -0.10871359432E+02  0.67490510710E+02 -0.18815398537E+03  0.20023124157E+03  0.41800000000E+01 0.  1.
         -5    1    4    4    0  501 -0.54179173058E+02  0.93419615165E+01 -0.12104457961E+02  0.56450379456E+02  0.41800000000E+01 0.  1.
</event>
<event>
11    1  0.7105277E-009  0.1888309E+03  0.7561462E-02  0.1062715E+00
         22   -1    0    0    0    0  0.00000000000E+00  0.00000000000E+00  0.62186308307E+03  0.62186308307E+03  0.00000000000E+00 0.  1.
         22   -1    0    0    0    0 -0.00000000000E+00 -0.00000000000E+00 -0.16815458204E+04  0.16815458204E+04  0.00000000000E+00 0.  1.
        -24    2    1    2    0    0 -0.92272762103E+02 -0.10457858157E+03 -0.13207254491E+04  0.13305452375E+04  0.81141694715E+02 0.  0.
         25    2    1    2    0    0  0.16198770498E+03  0.59012621218E+02 -0.31784731048E+03  0.38261768512E+03  0.12508746603E+03 0.  0.
         24    2    1    2    0    0 -0.69714942878E+02  0.45565960348E+02  0.57889002232E+03  0.59024598085E+03  0.79625560996E+02 0.  0.
        -11    1    5    5    0    0 -0.11504688291E+02  0.51206439575E+02  0.35431497801E+03  0.35818090534E+03  0.00000000000E+00 0.  1.
         12    1    5    5    0    0 -0.58210254587E+02 -0.56404792267E+01  0.22457504430E+03  0.23206507550E+03  0.00000000000E+00 0. -1.
         11    1    3    3    0    0 -0.27060802229E+02  0.95479994334E+01 -0.30581253857E+03  0.30715592141E+03  0.00000000000E+00 0. -1.
        -12    1    3    3    0    0 -0.65211959874E+02 -0.11412658100E+03 -0.10149129106E+04  0.10233893161E+04  0.00000000000E+00 0.  1.
          5    1    4    4  501    0  0.10604086851E+03 -0.12195566366E+02 -0.24160045772E+03  0.26416216838E+03  0.41800000000E+01 0. -1.
         -5    1    4    4    0  501  0.55946836466E+02  0.71208187584E+02 -0.76246852762E+02  0.11845551674E+03  0.41800000000E+01 0. -1.
</event>
<event>
11    1  0.7105277E-009  0.1890350E+03  0.7561462E-02  0.1062560E+00
         22   -1    0    0    0    0  0.00000000000E+00  0.00000000000E+00  0.42526747972E+03  0.42526747972E+03  0.00000000000E+00 0. -1.
         22   -1    0    0    0    0 -0.00000000000E+00 -0.00000000000E+00 -0.16602151874E+03  0.16602151874E+03  0.00000000000E+00 0. -1.
         24    2    1    2    0    0 -0.24513645998E+02  0.10967049815E+03  0.49685817308E+01  0.13796324433E+03  0.79878864407E+02 0.  0.
         25    2    1    2    0    0 -0.11675638634E+03  0.12368212177E+02  0.12074263883E+03  0.20978861862E+03  0.12508978075E+03 0.  0.
        -24    2    1    2    0    0  0.14127003233E+03 -0.12203871032E+03  0.13353474041E+03  0.24353713550E+03  0.81413393370E+02 0.  0.
        -11    1    3    3    0    0  0.21759415002E+02  0.47233970370E+02 -0.20913096306E+02  0.56052454855E+02  0.00000000000E+00 0.  1.
         12    1    3    3    0    0 -0.46273060999E+02  0.62436527776E+02  0.25881678037E+02  0.81910789479E+02  0.00000000000E+00 0. -1.
         11    1    5    5    0    0  0.14945898330E+03 -0.12509432219E+03  0.12850889402E+03  0.23345473432E+03  0.00000000000E+00 0. -1.
        -12    1    5    5    0    0 -0.81889509630E+01  0.30556118681E+01  0.50258463949E+01  0.10082401190E+02  0.00000000000E+00 0.  1.
          5    1    4    4  501    0 -0.11972604055E+03  0.41875879709E+02  0.12661638543E+03  0.17926822235E+03  0.41800000000E+01 0.  1.
         -5    1    4    4    0  501  0.29696542158E+01 -0.29507667532E+02 -0.58737465924E+01  0.30520396269E+02  0.41800000000E+01 0.  1.
</event>
<event>
11    1  0.7105277E-009  0.1524968E+03  0.7561462E-02  0.1094355E+00
         22   -1    0    0    0    0  0.00000000000E+00  0.00000000000E+00  0.23080156558E+03  0.23080156558E+03  0.00000000000E+00 0.  1.
         22   -1    0    0    0    0 -0.00000000000E+00 -0.00000000000E+00 -0.71636437270E+03  0.71636437270E+03  0.00000000000E+00 0. -1.
        -24    2    1    2    0    0  0.30640853664E+01  0.85169136813E+02 -0.61202110599E+03  0.62327208337E+03  0.81456032633E+02 0.  0.
         25    2    1    2    0    0 -0.45235359061E+01 -0.11845540047E+03  0.42233596089E+01  0.17238907707E+03  0.12509201753E+03 0.  0.
         24    2    1    2    0    0  0.14594505397E+01  0.33286263654E+02  0.12223493926E+03  0.15150477783E+03  0.83079552163E+02 0.  0.
        -11    1    5    5    0    0 -0.12240680215E+02  0.30517206429E+02  0.13096215938E+03  0.13502674301E+03  0.00000000000E+00 0.  1.
         12    1    5    5    0    0  0.13700130754E+02  0.27690572249E+01 -0.87272201183E+01  0.16478034822E+02  0.00000000000E+00 0. -1.
         13    1    3    3    0    0 -0.34437158395E+02  0.18071290044E+02 -0.26509505510E+03  0.26793259906E+03  0.00000000000E+00 0. -1.
        -14    1    3    3    0    0  0.37501243762E+02  0.67097846769E+02 -0.34692605089E+03  0.35533948431E+03  0.00000000000E+00 0.  1.
          5    1    4    4  501    0  0.50293139321E+02 -0.10179665636E+03 -0.70923084114E+01  0.11384082022E+03  0.41800000000E+01 0. -1.
         -5    1    4    4    0  501 -0.54816675227E+02 -0.16658744106E+02  0.11315668020E+02  0.58548256856E+02  0.41800000000E+01 0. -1.
</event>
<event>
11    1  0.7105277E-009  0.1897567E+03  0.7561462E-02  0.1062013E+00
         22   -1    0    0    0    0  0.00000000000E+00  0.00000000000E+00  0.69689098983E+03  0.69689098983E+03  0.00000000000E+00 0.  1.
         22   -1    0    0    0    0 -0.00000000000E+00 -0.00000000000E+00 -0.61546066085E+03  0.61546066085E+03  0.00000000000E+00 0. -1.
        -24    2    1    2    0    0  0.15924405972E+02  0.35181675709E+02 -0.40810334642E+03  0.41746578235E+03  0.78981017079E+02 0.  0.
         25    2    1    2    0    0  0.79103284677E+02 -0.14053902163E+03 -0.13806162374E+03  0.24640775328E+03  0.12508885913E+03 0.  0.
         24    2    1    2    0    0 -0.95027690649E+02  0.10535734592E+03  0.62759529915E+03  0.64847811505E+03  0.80731492353E+02 0.  0.
        -13    1    5    5    0    0 -0.18868604242E+02  0.79306772257E+02  0.27602662570E+03  0.28781293655E+03  0.00000000000E+00 0.  1.
         14    1    5    5    0    0 -0.76159086407E+02  0.26050573660E+02  0.35156867346E+03  0.36066517851E+03  0.00000000000E+00 0. -1.
         11    1    3    3    0    0 -0.26366882616E+02  0.99280065375E+01 -0.25692557922E+03  0.25846572513E+03  0.00000000000E+00 0. -1.
        -12    1    3    3    0    0  0.42291288588E+02  0.25253669171E+02 -0.15117776721E+03  0.15900005722E+03  0.00000000000E+00 0.  1.
          5    1    4    4  501    0  0.76699900277E+02 -0.16272314869E+03 -0.13119133526E+03  0.22268887864E+03  0.41800000000E+01 0. -1.
         -5    1    4    4    0  501  0.24033844000E+01  0.22184127067E+02 -0.68702884859E+01  0.23718874640E+02  0.41800000000E+01 0. -1.
</event>
<event>
11    1  0.7105277E-009  0.1620831E+03  0.7561462E-02  0.1085134E+00
         22   -1    0    0    0    0  0.00000000000E+00  0.00000000000E+00  0.13841628171E+04  0.13841628171E+04  0.00000000000E+00 0.  1.
         22   -1    0    0    0    0 -0.00000000000E+00 -0.00000000000E+00 -0.19222426420E+03  0.19222426420E+03  0.00000000000E+00 0.  1.
         24    2    1    2    0    0  0.16290242580E+02 -0.23517488776E+02 -0.15209321109E+03  0.17442435558E+03  0.80455370727E+02 0.  0.
         25    2    1    2    0    0  0.82539500775E+02  0.56171071527E+02  0.22993766157E+03  0.28015423780E+03  0.12508840988E+03 0.  0.
        -24    2    1    2    0    0 -0.98829743355E+02 -0.32653582752E+02  0.11140941024E+04  0.11218084879E+04  0.80093944224E+02 0.  0.
        -13    1    3    3    0    0 -0.26277066900E+02 -0.15003845856E+02 -0.22368681977E+02  0.37629211641E+02  0.00000000000E+00 0.  1.
         14    1    3    3    0    0  0.42567309480E+02 -0.85136429197E+01 -0.12972452911E+03  0.13679514394E+03  0.00000000000E+00 0. -1.
         13    1    5    5    0    0 -0.32051396484E+02  0.26679359289E+02  0.32005896939E+03  0.32276434766E+03  0.00000000000E+00 0. -1.
        -14    1    5    5    0    0 -0.66778346871E+02 -0.59332942041E+02  0.79403513297E+03  0.79904414022E+03  0.00000000000E+00 0.  1.
          5    1    4    4  501    0 -0.10802509589E+02 -0.28938150889E+02  0.67414980790E+02  0.74272221087E+02  0.41800000000E+01 0. -1.
         -5    1    4    4    0  501  0.93342010364E+02  0.85109222417E+02  0.16252268078E+03  0.20588201672E+03  0.41800000000E+01 0. -1.
</event>
<event>
11    1  0.7105277E-009  0.1365021E+03  0.7561462E-02  0.1111528E+00
         22   -1    0    0    0    0  0.00000000000E+00  0.00000000000E+00  0.26039448256E+03  0.26039448256E+03  0.00000000000E+00 0. -1.
         22   -1    0    0    0    0 -0.00000000000E+00 -0.00000000000E+00 -0.38593314228E+03  0.38593314228E+03  0.00000000000E+00 0. -1.
        -24    2    1    2    0    0  0.41626856417E+02 -0.22564331627E+02 -0.32408162694E+03  0.33625334228E+03  0.76127951776E+02 0.  0.
         25    2    1    2    0    0  0.19365141093E+02 -0.15030427843E+02  0.78152612691E+02  0.14952227836E+03  0.12509259933E+03 0.  0.
         24    2    1    2    0    0 -0.60991997510E+02  0.37594759470E+02  0.12039035453E+03  0.16055200420E+03  0.78420143378E+02 0.  0.
        -13    1    5    5    0    0 -0.41056523650E+02  0.35013951423E+02  0.19028725403E+02  0.57216320390E+02  0.00000000000E+00 0.  1.
         14    1    5    5    0    0 -0.19935473860E+02  0.25808080466E+01  0.10136162913E+03  0.10333568381E+03  0.00000000000E+00 0. -1.
         11    1    3    3    0    0  0.21547052344E+02 -0.20047479099E+02 -0.31047640319E+03  0.31186819944E+03  0.00000000000E+00 0. -1.
        -12    1    3    3    0    0  0.20079804073E+02 -0.25168525287E+01 -0.13605223741E+02  0.24385142839E+02  0.00000000000E+00 0.  1.
          5    1    4    4  501    0 -0.46466698067E+02 -0.32718052195E+02  0.49424891578E+02  0.75431540327E+02  0.41800000000E+01 0.  1.
         -5    1    4    4    0  501  0.65831839160E+02  0.17687624353E+02  0.28727721113E+02  0.74090738036E+02  0.41800000000E+01 0.  1.
</event>
<event>
11    1  0.7105277E-009  0.1410721E+03  0.7561462E-02  0.1106367E+00
         22   -1    0    0    0    0  0.00000000000E+00  0.00000000000E+00  0.23473088493E+03  0.23473088493E+03  0.00000000000E+00 0.  1.
         22   -1    0    0    0    0 -0.00000000000E+00 -0.00000000000E+00 -0.19819105284E+03  0.19819105284E+03  0.00000000000E+00 0.  1.
         24    2    1    2    0    0  0.75654957614E+02 -0.40305579651E+02  0.34259178804E+02  0.11803913576E+03  0.73561769117E+02 0.  0.
         25    2    1    2    0    0  0.14816176458E+02  0.65863712464E+02 -0.83479596611E+02  0.16484393159E+03  0.12508849279E+03 0.  0.
        -24    2    1    2    0    0 -0.90471134073E+02 -0.25558132813E+02  0.85760249896E+02  0.15003887041E+03  0.79489608877E+02 0.  0.
        -11    1    3    3    0    0  0.87941976699E+02 -0.22736074223E+02  0.22468034753E+02  0.93571004710E+02  0.00000000000E+00 0.  1.
         12    1    3    3    0    0 -0.12287019085E+02 -0.17569505427E+02  0.11791144051E+02  0.24468131048E+02  0.00000000000E+00 0. -1.
         13    1    5    5    0    0 -0.11245000666E+02 -0.38416795066E+02  0.14095682357E+02  0.42438054199E+02  0.00000000000E+00 0. -1.
        -14    1    5    5    0    0 -0.79226133407E+02  0.12858662252E+02  0.71664567538E+02  0.10760081621E+03  0.00000000000E+00 0.  1.
          5    1    4    4  501    0  0.20106474615E+02 -0.10682516025E+02 -0.84888763810E+02  0.87988414529E+02  0.41800000000E+01 0. -1.
         -5    1    4    4    0  501 -0.52902981574E+01  0.76546228489E+02  0.14091671997E+01  0.76855517061E+02  0.41800000000E+01 0. -1.
</event>
<event>
11    1  0.7105277E-009  0.1448447E+03  0.7561462E-02  0.1102266E+00
         22   -1    0    0    0    0  0.00000000000E+00  0.00000000000E+00  0.10035029199E+04  0.10035029199E+04  0.00000000000E+00 0. -1.
         22   -1    0    0    0    0 -0.00000000000E+00 -0.00000000000E+00 -0.12335864538E+03  0.12335864538E+03  0.00000000000E+00 0.  1.
         24    2    1    2    0    0  0.67319581214E+01  0.91018658851E+01 -0.55632991246E+02  0.97384872791E+02  0.79124083001E+02 0.  0.
         25    2    1    2    0    0  0.46797965633E+02  0.41756363567E+02  0.69180288008E+02  0.15609629089E+03  0.12508595563E+03 0.  0.
        -24    2    1    2    0    0 -0.53529923755E+02 -0.50858229452E+02  0.86659697779E+03  0.87338040163E+03  0.79693110095E+02 0.  0.
        -13    1    3    3    0    0 -0.11015296432E+01  0.43762356272E+02 -0.24646608644E+02  0.50237560766E+02  0.00000000000E+00 0.  1.
         14    1    3    3    0    0  0.78334877646E+01 -0.34660490387E+02 -0.30986382602E+02  0.47147312025E+02  0.00000000000E+00 0. -1.
         11    1    5    5    0    0  0.11373122544E+02 -0.61901106355E+01  0.39765087894E+03  0.39786164292E+03  0.00000000000E+00 0. -1.
        -12    1    5    5    0    0 -0.64903046299E+02 -0.44668118816E+02  0.46894609885E+03  0.47551875871E+03  0.00000000000E+00 0.  1.
          5    1    4    4  501    0  0.31254536611E+02 -0.41595842260E+02  0.11460519230E+02  0.53440397202E+02  0.41800000000E+01 0.  1.
         -5    1    4    4    0  501  0.15543429022E+02  0.83352205827E+02  0.57719768778E+02  0.10265589369E+03  0.41800000000E+01 0.  1.
</event>
<event>
11    1  0.7105277E-009  0.1715056E+03  0.7561462E-02  0.1076729E+00
         22   -1    0    0    0    0  0.00000000000E+00  0.00000000000E+00  0.10654804072E+03  0.10654804072E+03  0.00000000000E+00 0.  1.
         22   -1    0    0    0    0 -0.00000000000E+00 -0.00000000000E+00 -0.15541508601E+04  0.15541508601E+04  0.00000000000E+00 0.  1.
        -24    2    1    2    0    0 -0.59112276767E+02 -0.16332927758E+01 -0.12293660762E+04  0.12334418117E+04  0.80875366022E+02 0.  0.
         25    2    1    2    0    0 -0.67838981975E+01  0.10575797274E+03 -0.22819472531E+03  0.28098215009E+03  0.12508943175E+03 0.  0.
         24    2    1    2    0    0  0.65896174965E+02 -0.10412467996E+03  0.99579821367E+01  0.14627493895E+03  0.78185302363E+02 0.  0.
        -11    1    5    5    0    0  0.79546615102E+02 -0.68994746695E+02  0.20199914845E+02  0.10721928747E+03  0.00000000000E+00 0.  1.
         12    1    5    5    0    0 -0.13650440138E+02 -0.35129933265E+02 -0.10241932708E+02  0.39055651483E+02  0.00000000000E+00 0. -1.
         13    1    3    3    0    0 -0.55097663107E+02  0.11388008660E+02 -0.39727374415E+03  0.40123791821E+03  0.00000000000E+00 0. -1.
        -14    1    3    3    0    0 -0.40146136604E+01 -0.13021301435E+02 -0.83209233201E+03  0.83220389353E+03  0.00000000000E+00 0.  1.
          5    1    4    4  501    0 -0.14739166242E+02  0.11042597324E+03 -0.24047797120E+03  0.26506275789E+03  0.41800000000E+01 0.  1.
         -5    1    4    4    0  501  0.79552680449E+01 -0.46680005064E+01  0.12283245886E+02  0.15919392196E+02  0.41800000000E+01 0.  1.
</event>
<event>
11    1  0.7105277E-009  0.1475843E+03  0.7561462E-02  0.1099373E+00
         22   -1    0    0    0    0  0.00000000000E+00  0.00000000000E+00  0.71874336672E+02  0.71874336672E+02  0.00000000000E+00 0. -1.
         22   -1    0    0    0    0 -0.00000000000E+00 -0.00000000000E+00 -0.18679818939E+04  0.18679818939E+04  0.00000000000E+00 0.  1.
        -24    2    1    2    0    0 -0.58252164981E+02 -0.45682326569E+02 -0.15181800809E+04  0.15227565267E+04  0.91850377988E+02 0.  0.
         25    2    1    2    0    0  0.10781713254E+03  0.82439213582E+02 -0.24732626625E+03  0.30860809843E+03  0.12509164015E+03 0.  0.
         24    2    1    2    0    0 -0.49564967561E+02 -0.36756887013E+02 -0.30601210065E+02  0.10849160541E+03  0.83822667784E+02 0.  0.
        -13    1    5    5    0    0  0.31269903085E+01  0.23325161636E+02 -0.12105880348E+02  0.26464949891E+02  0.00000000000E+00 0.  1.
         14    1    5    5    0    0 -0.52691957870E+02 -0.60082048649E+02 -0.18495329717E+02  0.82026655517E+02  0.00000000000E+00 0. -1.
         13    1    3    3    0    0  0.19256706539E+02 -0.13988255900E+02 -0.13792029482E+03  0.13995892173E+03  0.00000000000E+00 0. -1.
        -14    1    3    3    0    0 -0.77508871519E+02 -0.31694070668E+02 -0.13802597861E+04  0.13827976050E+04  0.00000000000E+00 0.  1.
          5    1    4    4  501    0  0.96916497373E+02  0.77738900887E+02 -0.26156603695E+03  0.28960388164E+03  0.41800000000E+01 0.  1.
         -5    1    4    4    0  501  0.10900635169E+02  0.47003126948E+01  0.14239770698E+02  0.19004216796E+02  0.41800000000E+01 0.  1.
</event>
<event>
11    1  0.7105277E-009  0.1404828E+03  0.7561462E-02  0.1107020E+00
         22   -1    0    0    0    0  0.00000000000E+00  0.00000000000E+00  0.14704444869E+04  0.14704444869E+04  0.00000000000E+00 0. -1.
         22   -1    0    0    0    0 -0.00000000000E+00 -0.00000000000E+00 -0.17295403046E+03  0.17295403046E+03  0.00000000000E+00 0. -1.
         24    2    1    2    0    0 -0.44879514935E+01 -0.48598946925E+02 -0.12148446133E+03  0.15484929922E+03  0.82691183163E+02 0.  0.
         25    2    1    2    0    0 -0.31651136045E+02  0.98651649678E+02  0.16859926733E+03  0.23411741950E+03  0.12510519883E+03 0.  0.
        -24    2    1    2    0    0  0.36139087538E+02 -0.50052702753E+02  0.12503756504E+04  0.12544317986E+04  0.79677873255E+02 0.  0.
        -11    1    3    3    0    0 -0.18701360842E+02  0.15412019237E+02 -0.11550035932E+02  0.26845382552E+02  0.00000000000E+00 0.  1.
         12    1    3    3    0    0  0.14213409349E+02 -0.64010966162E+02 -0.10993442540E+03  0.12800391667E+03  0.00000000000E+00 0. -1.
         13    1    5    5    0    0  0.28745548963E+02 -0.70170663565E+02  0.81219439180E+03  0.81572664458E+03  0.00000000000E+00 0. -1.
        -14    1    5    5    0    0  0.73935385759E+01  0.20117960812E+02  0.43818125864E+03  0.43870515404E+03  0.00000000000E+00 0.  1.
          5    1    4    4  501    0 -0.78245551368E+02  0.64645974366E+02  0.12821193210E+03  0.16357640491E+03  0.41800000000E+01 0.  1.
         -5    1    4    4    0  501  0.46594415323E+02  0.34005675312E+02  0.40387335226E+02  0.70541014589E+02  0.41800000000E+01 0.  1.
</event>
<event>
11    1  0.7105277E-009  0.1298110E+03  0.7561462E-02  0.1119501E+00
         22   -1    0    0    0    0  0.00000000000E+00  0.00000000000E+00  0.46776982381E+03  0.46776982381E+03  0.00000000000E+00 0.  1.
         22   -1    0    0    0    0 -0.00000000000E+00 -0.00000000000E+00 -0.54083283590E+03  0.54083283590E+03  0.00000000000E+00 0.  1.
         24    2    1    2    0    0 -0.21148165026E+02  0.29439949184E+02 -0.41038018697E+03  0.41981997954E+03  0.80764855452E+02 0.  0.
         25    2    1    2    0    0  0.23167088135E+02 -0.12194034643E+02 -0.88769573248E+02  0.15560487142E+03  0.12508968951E+03 0.  0.
        -24    2    1    2    0    0 -0.20189231081E+01 -0.17245914541E+02  0.42608674813E+03  0.43317780874E+03  0.76102558658E+02 0.  0.
        -11    1    3    3    0    0 -0.37191407105E+02  0.18730318402E+02 -0.38819311528E+03  0.39042018434E+03  0.00000000000E+00 0.  1.
         12    1    3    3    0    0  0.16043242079E+02  0.10709630781E+02 -0.22187071687E+02  0.29399795202E+02  0.00000000000E+00 0. -1.
         13    1    5    5    0    0  0.26772718813E+02 -0.17658497365E+02  0.84534630295E+02  0.90414073688E+02  0.00000000000E+00 0. -1.
        -14    1    5    5    0    0 -0.28791641921E+02  0.41258282432E+00  0.34155211784E+03  0.34276373506E+03  0.00000000000E+00 0.  1.
          5    1    4    4  501    0  0.25774309367E+00 -0.75817044998E+01  0.31677624124E+02  0.32840416330E+02  0.41800000000E+01 0. -1.
         -5    1    4    4    0  501  0.22909345041E+02 -0.46123301431E+01 -0.12044719737E+03  0.12276445509E+03  0.41800000000E+01 0. -1.
</event>
<event>
11    1  0.8290115E-009  0.1697875E+03  0.7561462E-02  0.1078217E+00
         22   -1    0    0    0    0  0.00000000000E+00  0.00000000000E+00  0.37290277416E+03  0.37290277416E+03  0.00000000000E+00 0.  1.
         22   -1    0    0    0    0 -0.00000000000E+00 -0.00000000000E+00 -0.54579317770E+03  0.54579317770E+03  0.00000000000E+00 0. -1.
         24    2    1    2    0    0 -0.69563433534E+02 -0.83864759770E+00 -0.25853573932E+03  0.28011655189E+03  0.82369773110E+02 0.  0.
         25    2    1    2    0    0  0.53167551522E+02  0.11490517719E+03 -0.23117901499E+03  0.29175445115E+03  0.12508770729E+03 0.  0.
        -24    2    1    2    0    0  0.16395882012E+02 -0.11406652959E+03  0.31682435077E+03  0.34682494883E+03  0.81424061374E+02 0.  0.
        -13    1    3    3    0    0 -0.58458514692E+02  0.19492141792E+02 -0.84703177148E+02  0.10474717061E+03  0.00000000000E+00 0.  1.
         14    1    3    3    0    0 -0.11104918843E+02 -0.20330789390E+02 -0.17383256217E+03  0.17536938128E+03  0.00000000000E+00 0. -1.
         11    1    5    5    0    0 -0.24337780456E+02 -0.10864171614E+02  0.35340956770E+02  0.44264444058E+02  0.00000000000E+00 0. -1.
        -12    1    5    5    0    0  0.40733662469E+02 -0.10320235798E+03  0.28148339400E+03  0.30256050477E+03  0.00000000000E+00 0.  1.
          5    1    4    4  501    0 -0.70709797074E+01  0.35130826606E+02  0.38820975341E+01  0.36286592748E+02  0.41800000000E+01 0. -1.
         -5    1    4    4    0  501  0.60238531229E+02  0.79774350585E+02 -0.23506111252E+03  0.25546785840E+03  0.41800000000E+01 0. -1.
</event>
<event>
11    1  0.7105277E-009  0.1648838E+03  0.7561462E-02  0.1082572E+00
         22   -1    0    0    0    0  0.00000000000E+00  0.00000000000E+00  0.21100449842E+03  0.21100449842E+03  0.00000000000E+00 0.  1.
         22   -1    0    0    0    0 -0.00000000000E+00 -0.00000000000E+00 -0.51850620533E+03  0.51850620533E+03  0.00000000000E+00 0.  1.
         24    2    1    2    0    0 -0.10981637894E+02 -0.10888507812E+03 -0.41905984848E+03  0.44048449864E+03  0.80242634075E+02 0.  0.
         25    2    1    2    0    0  0.10830046296E+02  0.91616107904E+02  0.75251308711E+01  0.15559721951E+03  0.12507224310E+03 0.  0.
        -24    2    1    2    0    0  0.15159159839E+00  0.17268970217E+02  0.10403301070E+03  0.13342898560E+03  0.81744642465E+02 0.  0.
        -13    1    3    3    0    0 -0.29759136750E+02 -0.10424312140E+03 -0.39503944252E+03  0.40964423068E+03  0.00000000000E+00 0.  1.
         14    1    3    3    0    0  0.18777498855E+02 -0.46419567172E+01 -0.24020405962E+02  0.30840267962E+02  0.00000000000E+00 0. -1.
         11    1    5    5    0    0  0.29666995173E+02  0.17640922554E+02  0.11624563110E+02  0.36420642754E+02  0.00000000000E+00 0. -1.
        -12    1    5    5    0    0 -0.29515403574E+02 -0.37195233726E+00  0.92408447587E+02  0.97008342848E+02  0.00000000000E+00 0.  1.
          5    1    4    4  501    0  0.54411343041E+02  0.96542513084E+02  0.10769109131E+02  0.11142036257E+03  0.41800000000E+01 0.  1.
         -5    1    4    4    0  501 -0.43581296745E+02 -0.49264051803E+01 -0.32439782599E+01  0.44176856938E+02  0.41800000000E+01 0.  1.
</event>
<event>
11    1  0.7105277E-009  0.1387738E+03  0.7561462E-02  0.1108935E+00
         22   -1    0    0    0    0  0.00000000000E+00  0.00000000000E+00  0.46720169433E+02  0.46720169433E+02  0.00000000000E+00 0.  1.
         22   -1    0    0    0    0 -0.00000000000E+00 -0.00000000000E+00 -0.31792739720E+04  0.31792739720E+04  0.00000000000E+00 0.  1.
         24    2    1    2    0    0 -0.18091983321E+02 -0.47382694382E+02 -0.27255269621E+04  0.27271988283E+04  0.80893688703E+02 0.  0.
         25    2    1    2    0    0  0.20570959097E+02 -0.20516032222E+02 -0.36473554014E+03  0.38668414541E+03  0.12509413309E+03 0.  0.
        -24    2    1    2    0    0 -0.24789757754E+01  0.67898726604E+02 -0.42291300386E+02  0.11211116769E+03  0.78511002011E+02 0.  0.
        -11    1    3    3    0    0  0.26169577099E+02 -0.32577296389E+01 -0.13442380869E+04  0.13444967437E+04  0.00000000000E+00 0.  1.
         12    1    3    3    0    0 -0.44261560420E+02 -0.44124964744E+02 -0.13812888751E+04  0.13827020846E+04  0.00000000000E+00 0. -1.
         13    1    5    5    0    0  0.42833947477E+00  0.44108806489E+02 -0.65355738275E+02  0.78848860550E+02  0.00000000000E+00 0. -1.
        -14    1    5    5    0    0 -0.29073152501E+01  0.23789920116E+02  0.23064437888E+02  0.33262307139E+02  0.00000000000E+00 0.  1.
          5    1    4    4  501    0 -0.30111460647E+01 -0.59432938640E+02 -0.30854116194E+03  0.31425540919E+03  0.41800000000E+01 0. -1.
         -5    1    4    4    0  501  0.23582105161E+02  0.38916906418E+02 -0.56194378206E+02  0.72428736224E+02  0.41800000000E+01 0. -1.
</event>
<event>
11    1  0.7105277E-009  0.1568934E+03  0.7561462E-02  0.1090036E+00
         22   -1    0    0    0    0  0.00000000000E+00  0.00000000000E+00  0.18745089429E+04  0.18745089429E+04  0.00000000000E+00 0.  1.
         22   -1    0    0    0    0 -0.00000000000E+00 -0.00000000000E+00 -0.28036170095E+03  0.28036170095E+03  0.00000000000E+00 0.  1.
        -24    2    1    2    0    0  0.95722399551E+01 -0.93730036920E+02 -0.24680720079E+03  0.27679640092E+03  0.82616618196E+02 0.  0.
         25    2    1    2    0    0 -0.64026937704E+01  0.10706492958E+03  0.37171143308E+03  0.40659698782E+03  0.12509127623E+03 0.  0.
         24    2    1    2    0    0 -0.31695461847E+01 -0.13334892659E+02  0.14692430097E+04  0.14714772552E+04  0.79890083796E+02 0.  0.
        -13    1    5    5    0    0 -0.39897732703E+01  0.50707737037E+01  0.13938782164E+04  0.13938931498E+04  0.00000000000E+00 0.  1.
         14    1    5    5    0    0  0.82022708561E+00 -0.18405666363E+02  0.75364793327E+02  0.77584105331E+02  0.00000000000E+00 0. -1.
         11    1    3    3    0    0  0.73045678925E+01 -0.36010513058E+02 -0.18200120002E+02  0.41004367217E+02  0.00000000000E+00 0. -1.
        -12    1    3    3    0    0  0.22676720626E+01 -0.57719523862E+02 -0.22860708079E+03  0.23579203371E+03  0.00000000000E+00 0.  1.
          5    1    4    4  501    0 -0.47907598548E+01  0.55201953345E+02  0.34531873502E+02  0.65422700347E+02  0.41800000000E+01 0.  1.
         -5    1    4    4    0  501 -0.16119339156E+01  0.51862976234E+02  0.33717955958E+03  0.34117428748E+03  0.41800000000E+01 0.  1.
</event>
<event>
11    1  0.7105277E-009  0.1425105E+03  0.7561462E-02  0.1104787E+00
         22   -1    0    0    0    0  0.00000000000E+00  0.00000000000E+00  0.16746783450E+03  0.16746783450E+03  0.00000000000E+00 0.  1.
         22   -1    0    0    0    0 -0.00000000000E+00 -0.00000000000E+00 -0.85205544410E+03  0.85205544410E+03  0.00000000000E+00 0.  1.
        -24    2    1    2    0    0 -0.13662349277E+02  0.35537627498E+02 -0.75328689288E+03  0.75819825714E+03  0.77290823456E+02 0.  0.
         25    2    1    2    0    0 -0.15744060663E+02 -0.84456628367E+02  0.48908622763E+02  0.15944173613E+03  0.12509522900E+03 0.  0.
         24    2    1    2    0    0  0.29406409939E+02  0.48919000869E+02  0.19790660518E+02  0.10188328533E+03  0.82041014101E+02 0.  0.
        -13    1    5    5    0    0  0.10495478382E+02  0.29373940537E+02  0.51437296998E+02  0.60156287881E+02  0.00000000000E+00 0.  1.
         14    1    5    5    0    0  0.18910931557E+02  0.19545060332E+02 -0.31646636480E+02  0.41726997450E+02  0.00000000000E+00 0. -1.
         11    1    3    3    0    0  0.16752745074E+02 -0.15535994120E+02 -0.12217194802E+03  0.12429000951E+03  0.00000000000E+00 0. -1.
        -12    1    3    3    0    0 -0.30415094351E+02  0.51073621619E+02 -0.63111494486E+03  0.63390824763E+03  0.00000000000E+00 0.  1.
          5    1    4    4  501    0  0.44298713330E+02 -0.31990958202E+02  0.57141336681E+02  0.79173241484E+02  0.41800000000E+01 0. -1.
         -5    1    4    4    0  501 -0.60042773993E+02 -0.52465670165E+02 -0.82327139187E+01  0.80268494648E+02  0.41800000000E+01 0. -1.
</event>
<event>
11    1  0.7105277E-009  0.1748220E+03  0.7561462E-02  0.1073910E+00
         22   -1    0    0    0    0  0.00000000000E+00  0.00000000000E+00  0.13515959428E+04  0.13515959428E+04  0.00000000000E+00 0.  1.
         22   -1    0    0    0    0 -0.00000000000E+00 -0.00000000000E+00 -0.61937860204E+03  0.61937860204E+03  0.00000000000E+00 0. -1.
        -24    2    1    2    0    0  0.78889694768E+02 -0.92151019810E+02 -0.57364631973E+03  0.59199010201E+03  0.81650391005E+02 0.  0.
         25    2    1    2    0    0 -0.11197692838E+03  0.95953482084E+02  0.23369275498E+03  0.30332943401E+03  0.12510211266E+03 0.  0.
         24    2    1    2    0    0  0.33087233612E+02 -0.38024622743E+01  0.10721709055E+04  0.10756550089E+04  0.79837482775E+02 0.  0.
        -11    1    5    5    0    0 -0.20433434201E+02 -0.75678336215E+01  0.60853814941E+03  0.60892813749E+03  0.00000000000E+00 0.  1.
         12    1    5    5    0    0  0.53520667813E+02  0.37653713471E+01  0.46363275613E+03  0.46672687137E+03  0.00000000000E+00 0. -1.
         13    1    3    3    0    0  0.47017830397E+02 -0.67841754689E+02 -0.20236913459E+03  0.21855536298E+03  0.00000000000E+00 0. -1.
        -14    1    3    3    0    0  0.31871864371E+02 -0.24309265121E+02 -0.37127718514E+03  0.37343473903E+03  0.00000000000E+00 0.  1.
          5    1    4    4  501    0 -0.12541256529E+03  0.45940275754E+02  0.20285344200E+03  0.24291111914E+03  0.41800000000E+01 0. -1.
         -5    1    4    4    0  501  0.13435636909E+02  0.50013206330E+02  0.30839312978E+02  0.60418314868E+02  0.41800000000E+01 0. -1.
</event>
<event>
11    1  0.7105277E-009  0.2421551E+03  0.7561462E-02  0.1028163E+00
         22   -1    0    0    0    0  0.00000000000E+00  0.00000000000E+00  0.21581574431E+04  0.21581574431E+04  0.00000000000E+00 0.  1.
         22   -1    0    0    0    0 -0.00000000000E+00 -0.00000000000E+00 -0.15828555289E+04  0.15828555289E+04  0.00000000000E+00 0.  1.
         24    2    1    2    0    0 -0.19995645284E+03  0.54841542719E+02 -0.15429959771E+04  0.15582263131E+04  0.65134319425E+02 0.  0.
         25    2    1    2    0    0  0.21734743531E+03  0.90350565405E+01  0.48467712368E+03  0.54578584306E+03  0.12509489353E+03 0.  0.
        -24    2    1    2    0    0 -0.17390982470E+02 -0.63876599259E+02  0.16336207677E+04  0.16370008158E+04  0.81683486550E+02 0.  0.
        -13    1    3    3    0    0 -0.18313976975E+03  0.66103570855E+02 -0.13153622353E+04  0.13296945767E+04  0.00000000000E+00 0.  1.
         14    1    3    3    0    0 -0.16816683091E+02 -0.11262028137E+02 -0.22763374188E+03  0.22853173642E+03  0.00000000000E+00 0. -1.
         11    1    5    5    0    0 -0.32423515585E+02 -0.52341725921E+02  0.58922032270E+03  0.59242850144E+03  0.00000000000E+00 0. -1.
        -12    1    5    5    0    0  0.15032533115E+02 -0.11534873339E+02  0.10444004450E+04  0.10445723143E+04  0.00000000000E+00 0.  1.
          5    1    4    4  501    0  0.33538595627E+02  0.52093356385E+02  0.12213575471E+03  0.13701521870E+03  0.41800000000E+01 0. -1.
         -5    1    4    4    0  501  0.18380883968E+03 -0.43058299844E+02  0.36254136897E+03  0.40877062436E+03  0.41800000000E+01 0. -1.
</event>
<event>
11    1  0.7105277E-009  0.1674777E+03  0.7561462E-02  0.1080248E+00
         22   -1    0    0    0    0  0.00000000000E+00  0.00000000000E+00  0.90329842840E+03  0.90329842840E+03  0.00000000000E+00 0.  1.
         22   -1    0    0    0    0 -0.00000000000E+00 -0.00000000000E+00 -0.30222681263E+04  0.30222681263E+04  0.00000000000E+00 0. -1.
         24    2    1    2    0    0 -0.71922975979E+02 -0.11811935388E+02 -0.27246008010E+04  0.27267445777E+04  0.79837526611E+02 0.  0.
         25    2    1    2    0    0 -0.18170711773E+02  0.78838211896E+02 -0.27211678592E+03  0.31022391912E+03  0.12508275818E+03 0.  0.
        -24    2    1    2    0    0  0.90093687752E+02 -0.67026276509E+02  0.87774788904E+03  0.88859805790E+03  0.80967632220E+02 0.  0.
        -13    1    3    3    0    0 -0.30002524394E+02 -0.44024049364E+02 -0.11088261777E+04  0.11101052926E+04  0.00000000000E+00 0.  1.
         14    1    3    3    0    0 -0.41920451585E+02  0.32212113977E+02 -0.16157746234E+04  0.16166392851E+04  0.00000000000E+00 0. -1.
         13    1    5    5    0    0  0.38826897644E+02 -0.61712432641E+02  0.30749987902E+03  0.31602551783E+03  0.00000000000E+00 0. -1.
        -14    1    5    5    0    0  0.51266790108E+02 -0.53138438673E+01  0.57024801002E+03  0.57257254007E+03  0.00000000000E+00 0.  1.
          5    1    4    4  501    0  0.11477911630E+02 -0.12776856258E+02 -0.16572641807E+03  0.16666645901E+03  0.41800000000E+01 0.  1.
         -5    1    4    4    0  501 -0.29648623402E+02  0.91615068155E+02 -0.10639036784E+03  0.14355746011E+03  0.41800000000E+01 0.  1.
</event>
<event>
11    1  0.7105277E-009  0.1333822E+03  0.7561462E-02  0.1115182E+00
         22   -1    0    0    0    0  0.00000000000E+00  0.00000000000E+00  0.78244383826E+03  0.78244383826E+03  0.00000000000E+00 0. -1.
         22   -1    0    0    0    0 -0.00000000000E+00 -0.00000000000E+00 -0.81720418744E+03  0.81720418744E+03  0.00000000000E+00 0.  1.
        -24    2    1    2    0    0  0.42534314899E+02  0.20742543771E+02 -0.72888887247E+03  0.73475253922E+03  0.79642227612E+02 0.  0.
         25    2    1    2    0    0 -0.38115821701E+02  0.15162371021E+02 -0.30241235000E+02  0.13506955146E+03  0.12508612264E+03 0.  0.
         24    2    1    2    0    0 -0.44184931979E+01 -0.35904914792E+02  0.72436975828E+03  0.72982593503E+03  0.81398174018E+02 0.  0.
        -11    1    5    5    0    0  0.34772601385E+02 -0.13954263771E+01  0.21656388550E+03  0.21934219276E+03  0.00000000000E+00 0.  1.
         12    1    5    5    0    0 -0.39191094583E+02 -0.34509488415E+02  0.50780587279E+03  0.51048374227E+03  0.00000000000E+00 0. -1.
         13    1    3    3    0    0  0.21371952345E+02  0.18848939998E+02 -0.70783856176E+02  0.76304634074E+02  0.00000000000E+00 0. -1.
        -14    1    3    3    0    0  0.21162362554E+02  0.18936037727E+01 -0.65810501629E+03  0.65844790515E+03  0.00000000000E+00 0.  1.
          5    1    4    4  501    0  0.12525823150E+02  0.25532786791E+02 -0.66058660682E+02  0.72041921809E+02  0.41800000000E+01 0.  1.
         -5    1    4    4    0  501 -0.50641644851E+02 -0.10370415770E+02  0.35817425682E+02  0.63027629647E+02  0.41800000000E+01 0.  1.
</event>
<event>
11    1  0.7105277E-009  0.1424439E+03  0.7561462E-02  0.1104860E+00
         22   -1    0    0    0    0  0.00000000000E+00  0.00000000000E+00  0.51464673427E+03  0.51464673427E+03  0.00000000000E+00 0. -1.
         22   -1    0    0    0    0 -0.00000000000E+00 -0.00000000000E+00 -0.52074849050E+03  0.52074849050E+03  0.00000000000E+00 0. -1.
        -24    2    1    2    0    0  0.43666288053E+02 -0.48129882990E+02 -0.42001353496E+03  0.43271615001E+03  0.81293705655E+02 0.  0.
         25    2    1    2    0    0 -0.77768826382E+02  0.71268012459E+02 -0.15161282381E+02  0.16433220301E+03  0.12509231993E+03 0.  0.
         24    2    1    2    0    0  0.34102538329E+02 -0.23138129468E+02  0.42907306112E+03  0.43834687175E+03  0.79661358509E+02 0.  0.
        -11    1    5    5    0    0  0.23077130251E+01 -0.28281734115E+02  0.36981006923E+03  0.37089711421E+03  0.00000000000E+00 0.  1.
         12    1    5    5    0    0  0.31794825304E+02  0.51436046466E+01  0.59262991888E+02  0.67449757541E+02  0.00000000000E+00 0. -1.
         11    1    3    3    0    0  0.26294745963E+02 -0.35822765654E+02 -0.40305703872E+03  0.40549927333E+03  0.00000000000E+00 0. -1.
        -12    1    3    3    0    0  0.17371542089E+02 -0.12307117336E+02 -0.16956496239E+02  0.27216876684E+02  0.00000000000E+00 0.  1.
          5    1    4    4  501    0 -0.47868835060E+02  0.41580052468E+02 -0.70332033943E+02  0.94786040807E+02  0.41800000000E+01 0.  1.
         -5    1    4    4    0  501 -0.29899991322E+02  0.29687959991E+02  0.55170751562E+02  0.69546162204E+02  0.41800000000E+01 0.  1.
</event>
<event>
11    1  0.7105277E-009  0.1436362E+03  0.7561462E-02  0.1103565E+00
         22   -1    0    0    0    0  0.00000000000E+00  0.00000000000E+00  0.17207838133E+04  0.17207838133E+04  0.00000000000E+00 0. -1.
         22   -1    0    0    0    0 -0.00000000000E+00 -0.00000000000E+00 -0.91610553721E+03  0.91610553721E+03  0.00000000000E+00 0. -1.
         24    2    1    2    0    0  0.68800232507E+02  0.16721502831E+02 -0.90189801828E+03  0.90823504624E+03  0.80360333437E+02 0.  0.
         25    2    1    2    0    0 -0.44100530781E+02  0.43024511220E+01  0.43919024716E+03  0.45880104794E+03  0.12508781113E+03 0.  0.
        -24    2    1    2    0    0 -0.24699701725E+02 -0.21023953953E+02  0.12673860473E+04  0.12698532564E+04  0.72165213673E+02 0.  0.
        -13    1    3    3    0    0  0.83870851113E+02  0.18292154216E+02 -0.61805765819E+03  0.62399053792E+03  0.00000000000E+00 0.  1.
         14    1    3    3    0    0 -0.15070618606E+02 -0.15706513851E+01 -0.28384036009E+03  0.28424450832E+03  0.00000000000E+00 0. -1.
         13    1    5    5    0    0  0.94253420714E+01  0.10823529141E+02  0.80279021985E+03  0.80291850330E+03  0.00000000000E+00 0. -1.
        -14    1    5    5    0    0 -0.34125043797E+02 -0.31847483094E+02  0.46459582740E+03  0.46693475308E+03  0.00000000000E+00 0.  1.
          5    1    4    4  501    0  0.11881386490E+02 -0.51743889472E+02  0.16681111403E+03  0.17510573265E+03  0.41800000000E+01 0.  1.
         -5    1    4    4    0  501 -0.55981917271E+02  0.56046340594E+02  0.27237913312E+03  0.28369531529E+03  0.41800000000E+01 0.  1.
</event>
<event>
11    1  0.7105277E-009  0.1531136E+03  0.7561462E-02  0.1093739E+00
         22   -1    0    0    0    0  0.00000000000E+00  0.00000000000E+00  0.33161165280E+03  0.33161165280E+03  0.00000000000E+00 0.  1.
         22   -1    0    0    0    0 -0.00000000000E+00 -0.00000000000E+00 -0.38575825569E+03  0.38575825569E+03  0.00000000000E+00 0. -1.
         24    2    1    2    0    0 -0.13549436469E+02  0.86367853493E+02 -0.31444860144E+03  0.33597297519E+03  0.79730318947E+02 0.  0.
         25    2    1    2    0    0  0.19440635680E+02 -0.96156550149E+02  0.66611029637E+02  0.17236019734E+03  0.12508792070E+03 0.  0.
        -24    2    1    2    0    0 -0.58911992110E+01  0.97886966566E+01  0.19369096891E+03  0.20903673597E+03  0.77779436465E+02 0.  0.
        -13    1    3    3    0    0 -0.17585963853E+02  0.13338278241E+02 -0.12654535797E+02  0.25442347913E+02  0.00000000000E+00 0.  1.
         14    1    3    3    0    0  0.40365273842E+01  0.73029575252E+02 -0.30179406565E+03  0.31053062727E+03  0.00000000000E+00 0. -1.
         11    1    5    5    0    0 -0.55708136439E+01 -0.16131989021E+02  0.39301020186E+01  0.17513444444E+02  0.00000000000E+00 0. -1.
        -12    1    5    5    0    0 -0.32038556710E+00  0.25920685678E+02  0.18976086689E+03  0.19152329153E+03  0.00000000000E+00 0.  1.
          5    1    4    4  501    0  0.20746054254E+02 -0.95701389986E+02 -0.73310232337E+01  0.98287186927E+02  0.41800000000E+01 0.  1.
         -5    1    4    4    0  501 -0.13054185746E+01 -0.45516016332E+00  0.73942052870E+02  0.74073010409E+02  0.41800000000E+01 0.  1.
</event>
<event>
11    1  0.7105277E-009  0.1423805E+03  0.7561462E-02  0.1104929E+00
         22   -1    0    0    0    0  0.00000000000E+00  0.00000000000E+00  0.16117294372E+04  0.16117294372E+04  0.00000000000E+00 0.  1.
         22   -1    0    0    0    0 -0.00000000000E+00 -0.00000000000E+00 -0.56027028572E+03  0.56027028572E+03  0.00000000000E+00 0. -1.
        -24    2    1    2    0    0  0.46099227506E+02  0.26302298563E+02 -0.48650575247E+03  0.49593743263E+03  0.80306539008E+02 0.  0.
         25    2    1    2    0    0 -0.12635670955E+02 -0.85483435254E+02  0.18673771567E+02  0.15317687358E+03  0.12508943589E+03 0.  0.
         24    2    1    2    0    0 -0.33463556551E+02  0.59181136691E+02  0.15192911324E+04  0.15228854167E+04  0.79449549600E+02 0.  0.
        -13    1    5    5    0    0 -0.10049088817E+02  0.25780298556E+02  0.12682631364E+04  0.12685649337E+04  0.00000000000E+00 0.  1.
         14    1    5    5    0    0 -0.23414467734E+02  0.33400838135E+02  0.25102799598E+03  0.25432048296E+03  0.00000000000E+00 0. -1.
         11    1    3    3    0    0  0.60802740558E+02  0.26878308208E+02 -0.46588898758E+03  0.47060808052E+03  0.00000000000E+00 0. -1.
        -12    1    3    3    0    0 -0.14703513051E+02 -0.57600964548E+00 -0.20616764895E+02  0.25329352101E+02  0.00000000000E+00 0.  1.
          5    1    4    4  501    0  0.30978601663E+02  0.14570484993E+02  0.26758219167E+02  0.43651431671E+02  0.41800000000E+01 0. -1.
         -5    1    4    4    0  501 -0.43614272618E+02 -0.10005392025E+03 -0.80844476000E+01  0.10952544191E+03  0.41800000000E+01 0. -1.
</event>
<event>
11    1  0.7105277E-009  0.2087074E+03  0.7561462E-02  0.1048531E+00
         22   -1    0    0    0    0  0.00000000000E+00  0.00000000000E+00  0.33582580904E+04  0.33582580904E+04  0.00000000000E+00 0. -1.
         22   -1    0    0    0    0 -0.00000000000E+00 -0.00000000000E+00 -0.26997026477E+03  0.26997026477E+03  0.00000000000E+00 0. -1.
         24    2    1    2    0    0 -0.53717620934E+02  0.17104131545E+02 -0.14081892804E+03  0.17092117755E+03  0.78777816217E+02 0.  0.
         25    2    1    2    0    0  0.14821228785E+03  0.12020096891E+03  0.53691145582E+01  0.22823579541E+03  0.12509035023E+03 0.  0.
        -24    2    1    2    0    0 -0.94494666912E+02 -0.13730510045E+03  0.32237376391E+04  0.32290713822E+04  0.81459761942E+02 0.  0.
        -11    1    3    3    0    0  0.14794308989E+02 -0.13625112683E+02 -0.44154670458E+02  0.48519585709E+02  0.00000000000E+00 0.  1.
         12    1    3    3    0    0 -0.68511929924E+02  0.30729244228E+02 -0.96664257581E+02  0.12240159185E+03  0.00000000000E+00 0. -1.
         13    1    5    5    0    0 -0.88674701067E+02 -0.59402936202E+02  0.17243591433E+04  0.17276592160E+04  0.00000000000E+00 0. -1.
        -14    1    5    5    0    0 -0.58199658441E+01 -0.77902164250E+02  0.14993784958E+04  0.15014121662E+04  0.00000000000E+00 0.  1.
          5    1    4    4  501    0  0.12536183933E+03  0.79048161099E+02  0.56452866353E+02  0.15864615045E+03  0.41800000000E+01 0.  1.
         -5    1    4    4    0  501  0.22850448514E+02  0.41152807807E+02 -0.51083751795E+02  0.69589644956E+02  0.41800000000E+01 0.  1.
</event>
<event>
11    1  0.7105277E-009  0.2176550E+03  0.7561462E-02  0.1042696E+00
         22   -1    0    0    0    0  0.00000000000E+00  0.00000000000E+00  0.38309184404E+03  0.38309184404E+03  0.00000000000E+00 0.  1.
         22   -1    0    0    0    0 -0.00000000000E+00 -0.00000000000E+00 -0.22618824292E+04  0.22618824292E+04  0.00000000000E+00 0.  1.
        -24    2    1    2    0    0 -0.15912974900E+02 -0.71782266723E+02 -0.20286724837E+04  0.20315729206E+04  0.79815843493E+02 0.  0.
         25    2    1    2    0    0  0.42025937371E+01  0.24031002065E+03 -0.11062103153E+03  0.29266281283E+03  0.12509173265E+03 0.  0.
         24    2    1    2    0    0  0.11710381163E+02 -0.16852775393E+03  0.26050293002E+03  0.32073853989E+03  0.80453076702E+02 0.  0.
        -13    1    5    5    0    0 -0.11130052271E+02 -0.14950716607E+03  0.24496137636E+03  0.28719740019E+03  0.00000000000E+00 0.  1.
         14    1    5    5    0    0  0.22840433434E+02 -0.19020587863E+02  0.15541553658E+02  0.33541139697E+02  0.00000000000E+00 0. -1.
         11    1    3    3    0    0  0.18677068741E+02  0.87060576730E+01 -0.32981176125E+03  0.33045487770E+03  0.00000000000E+00 0. -1.
        -12    1    3    3    0    0 -0.34590043641E+02 -0.80488324396E+02 -0.16988607225E+04  0.17011180429E+04  0.00000000000E+00 0.  1.
          5    1    4    4  501    0 -0.11477139610E+01  0.15817022299E+03 -0.13361226224E+03  0.20709622331E+03  0.41800000000E+01 0. -1.
         -5    1    4    4    0  501  0.53503076980E+01  0.82139797660E+02  0.22991230714E+02  0.85566589519E+02  0.41800000000E+01 0. -1.
</event>
<event>
11    1  0.7105277E-009  0.1351189E+03  0.7561462E-02  0.1113135E+00
         22   -1    0    0    0    0  0.00000000000E+00  0.00000000000E+00  0.79843871377E+02  0.79843871377E+02  0.00000000000E+00 0.  1.
         22   -1    0    0    0    0 -0.00000000000E+00 -0.00000000000E+00 -0.10045099369E+04  0.10045099369E+04  0.00000000000E+00 0.  1.
        -24    2    1    2    0    0  0.34803406548E+02  0.39456258182E+02 -0.84270731735E+03  0.84819370937E+03  0.80677583504E+02 0.  0.
         25    2    1    2    0    0 -0.21586753746E+02 -0.22687152817E+02 -0.81268804871E+02  0.15242244289E+03  0.12508911868E+03 0.  0.
         24    2    1    2    0    0 -0.13216652801E+02 -0.16769105365E+02 -0.68994330399E+00  0.83737656017E+02  0.80966883399E+02 0.  0.
        -13    1    5    5    0    0  0.31419688597E+00 -0.38875027452E+02  0.25814874741E+02  0.46666628729E+02  0.00000000000E+00 0.  1.
         14    1    5    5    0    0 -0.13530849687E+02  0.22105922086E+02 -0.26504818045E+02  0.37071027287E+02  0.00000000000E+00 0. -1.
         13    1    3    3    0    0 -0.61239003301E+01 -0.13521874018E+02 -0.39429823475E+02  0.42131392233E+02  0.00000000000E+00 0. -1.
        -14    1    3    3    0    0  0.40927306878E+02  0.52978132201E+02 -0.80327749388E+03  0.80606231714E+03  0.00000000000E+00 0.  1.
          5    1    4    4  501    0  0.38804300423E+02  0.92362234644E+01  0.70183641238E+01  0.40716230059E+02  0.41800000000E+01 0. -1.
         -5    1    4    4    0  501 -0.60391054169E+02 -0.31923376281E+02 -0.88287168995E+02  0.11170621284E+03  0.41800000000E+01 0. -1.
</event>
<event>
11    1  0.7105277E-009  0.1342267E+03  0.7561462E-02  0.1114182E+00
         22   -1    0    0    0    0  0.00000000000E+00  0.00000000000E+00  0.27418356034E+03  0.27418356034E+03  0.00000000000E+00 0.  1.
         22   -1    0    0    0    0 -0.00000000000E+00 -0.00000000000E+00 -0.26229129650E+04  0.26229129650E+04  0.00000000000E+00 0.  1.
        -24    2    1    2    0    0 -0.91986483017E+01 -0.29803787076E+02 -0.22355753824E+04  0.22372683374E+04  0.81236951057E+02 0.  0.
         25    2    1    2    0    0 -0.39691136538E+02  0.28794583808E+02 -0.36589495281E+03  0.38978226431E+03  0.12508630100E+03 0.  0.
         24    2    1    2    0    0  0.48889784839E+02  0.10092032682E+01  0.25274093056E+03  0.27004592364E+03  0.81581819914E+02 0.  0.
        -13    1    5    5    0    0  0.52355720471E+02  0.24816639506E+02  0.22911186589E+03  0.23632442564E+03  0.00000000000E+00 0.  1.
         14    1    5    5    0    0 -0.34659356319E+01 -0.23807436238E+02  0.23629064667E+02  0.33721497995E+02  0.00000000000E+00 0. -1.
         11    1    3    3    0    0  0.10886150744E+02 -0.52383091012E+02 -0.11116391073E+04  0.11129258742E+04  0.00000000000E+00 0. -1.
        -12    1    3    3    0    0 -0.20084799045E+02  0.22579303935E+02 -0.11239362751E+04  0.11243424632E+04  0.00000000000E+00 0.  1.
          5    1    4    4  501    0 -0.77903289493E+02  0.30389321458E+02 -0.16271680303E+03  0.18299361672E+03  0.41800000000E+01 0.  1.
         -5    1    4    4    0  501  0.38212152955E+02 -0.15947376498E+01 -0.20317814978E+03  0.20678864759E+03  0.41800000000E+01 0.  1.
</event>
<event>
11    1  0.7105277E-009  0.1431234E+03  0.7561462E-02  0.1104120E+00
         22   -1    0    0    0    0  0.00000000000E+00  0.00000000000E+00  0.26934276951E+03  0.26934276951E+03  0.00000000000E+00 0. -1.
         22   -1    0    0    0    0 -0.00000000000E+00 -0.00000000000E+00 -0.27427966472E+03  0.27427966472E+03  0.00000000000E+00 0. -1.
        -24    2    1    2    0    0 -0.24664754074E+02 -0.34314201301E+02 -0.88144498236E+02  0.12713562674E+03  0.81290839052E+02 0.  0.
         25    2    1    2    0    0  0.88066757373E+02  0.79043803035E+01 -0.11472208319E+03  0.19138263971E+03  0.12509166810E+03 0.  0.
         24    2    1    2    0    0 -0.63402003299E+02  0.26409820998E+02  0.19792968622E+03  0.22510416778E+03  0.82331239503E+02 0.  0.
        -11    1    5    5    0    0 -0.56421869084E+02  0.51726443263E+02  0.11524318398E+03  0.13834754677E+03  0.00000000000E+00 0.  1.
         12    1    5    5    0    0 -0.69801342155E+01 -0.25316622265E+02  0.82686502240E+02  0.86756621011E+02  0.00000000000E+00 0. -1.
         13    1    3    3    0    0 -0.38016288301E+02 -0.51033295806E+02 -0.83931565020E+02  0.10532873807E+03  0.00000000000E+00 0. -1.
        -14    1    3    3    0    0  0.13351534227E+02  0.16719094505E+02 -0.42129332159E+01  0.21806888672E+02  0.00000000000E+00 0.  1.
          5    1    4    4  501    0  0.61060446133E+02 -0.53091477854E+02 -0.87395208125E+02  0.11917414949E+03  0.41800000000E+01 0. -1.
         -5    1    4    4    0  501  0.27006311240E+02  0.60995858158E+02 -0.27326875063E+02  0.72208490220E+02  0.41800000000E+01 0. -1.
</event>
<event>
11    1  0.7105277E-009  0.1841520E+03  0.7561462E-02  0.1066333E+00
         22   -1    0    0    0    0  0.00000000000E+00  0.00000000000E+00  0.57055838120E+03  0.57055838120E+03  0.00000000000E+00 0.  1.
         22   -1    0    0    0    0 -0.00000000000E+00 -0.00000000000E+00 -0.66012213074E+03  0.66012213074E+03  0.00000000000E+00 0.  1.
         24    2    1    2    0    0  0.82021736224E+02 -0.85017806499E+02 -0.56497787419E+03  0.58258338381E+03  0.79043077662E+02 0.  0.
         25    2    1    2    0    0 -0.81392779665E+02 -0.64813842864E+02  0.22991282100E+02  0.16431924705E+03  0.12508635853E+03 0.  0.
        -24    2    1    2    0    0 -0.62895655957E+00  0.14983164936E+03  0.45242284254E+03  0.48377788108E+03  0.83094470525E+02 0.  0.
        -13    1    3    3    0    0  0.55111304615E+02 -0.68062434000E+02 -0.52099807441E+03  0.52830743357E+03  0.00000000000E+00 0.  1.
         14    1    3    3    0    0  0.26910431609E+02 -0.16955372499E+02 -0.43979799777E+02  0.54275950240E+02  0.00000000000E+00 0. -1.
         13    1    5    5    0    0 -0.33354974296E+02  0.12046115126E+03  0.36699936757E+03  0.38770088867E+03  0.00000000000E+00 0. -1.
        -14    1    5    5    0    0  0.32726017737E+02  0.29370498099E+02  0.85423474971E+02  0.96076992416E+02  0.00000000000E+00 0.  1.
          5    1    4    4  501    0 -0.55306536166E+02 -0.79442814467E+02  0.61969291000E+02  0.11501147395E+03  0.41800000000E+01 0.  1.
         -5    1    4    4    0  501 -0.26086243499E+02  0.14628971603E+02 -0.38978008900E+02  0.49307773098E+02  0.41800000000E+01 0.  1.
</event>
<event>
11    1  0.7105277E-009  0.1725981E+03  0.7561462E-02  0.1075793E+00
         22   -1    0    0    0    0  0.00000000000E+00  0.00000000000E+00  0.11271811387E+04  0.11271811387E+04  0.00000000000E+00 0. -1.
         22   -1    0    0    0    0 -0.00000000000E+00 -0.00000000000E+00 -0.30857305739E+03  0.30857305739E+03  0.00000000000E+00 0. -1.
         24    2    1    2    0    0 -0.21514643297E+01  0.11833306162E+03 -0.27006671787E+03  0.30595838382E+03  0.81652668397E+02 0.  0.
         25    2    1    2    0    0 -0.21665878552E+02 -0.13455396900E+03  0.46424042866E+03  0.49974085937E+03  0.12509024763E+03 0.  0.
        -24    2    1    2    0    0  0.23817342882E+02  0.16220907381E+02  0.62443437048E+03  0.63005495286E+03  0.78870634107E+02 0.  0.
        -11    1    3    3    0    0 -0.19746803331E+02  0.80088265111E+02 -0.94598489008E+02  0.12551071896E+03  0.00000000000E+00 0.  1.
         12    1    3    3    0    0  0.17595339001E+02  0.38244796513E+02 -0.17546822886E+03  0.18044766486E+03  0.00000000000E+00 0. -1.
         11    1    5    5    0    0 -0.13877327717E+02 -0.24664110927E+02  0.19950159123E+03  0.20149884242E+03  0.00000000000E+00 0. -1.
        -12    1    5    5    0    0  0.37694670598E+02  0.40885018308E+02  0.42493277925E+03  0.42855611044E+03  0.00000000000E+00 0.  1.
          5    1    4    4  501    0 -0.36475959959E+02 -0.12407366518E+03  0.46337587361E+03  0.48110232040E+03  0.41800000000E+01 0. -1.
         -5    1    4    4    0  501  0.14810081407E+02 -0.10480303825E+02  0.86455504769E+00  0.18638538971E+02  0.41800000000E+01 0. -1.
</event>
<event>
11    1  0.7105277E-009  0.2301788E+03  0.7561462E-02  0.1035022E+00
         22   -1    0    0    0    0  0.00000000000E+00  0.00000000000E+00  0.29552777713E+04  0.29552777713E+04  0.00000000000E+00 0. -1.
         22   -1    0    0    0    0 -0.00000000000E+00 -0.00000000000E+00 -0.10872880860E+04  0.10872880860E+04  0.00000000000E+00 0. -1.
        -24    2    1    2    0    0  0.17333931597E+03 -0.86241677329E+02 -0.10556194411E+04  0.10768047472E+04  0.87703555345E+02 0.  0.
         25    2    1    2    0    0 -0.12106664020E+03  0.13952218850E+03  0.60100729279E+03  0.64107696267E+03  0.12508530544E+03 0.  0.
         24    2    1    2    0    0 -0.52272675769E+02 -0.53280511173E+02  0.23226018337E+04  0.23246841475E+04  0.64077002018E+02 0.  0.
        -13    1    5    5    0    0  0.94226508440E+00 -0.23507336447E+02  0.23127121319E+03  0.23246474309E+03  0.00000000000E+00 0.  1.
         14    1    5    5    0    0 -0.53214940853E+02 -0.29773174726E+02  0.20913306205E+04  0.20922194044E+04  0.00000000000E+00 0. -1.
         11    1    3    3    0    0  0.18056749291E+03 -0.92562011457E+02 -0.10036930595E+04  0.10239980972E+04  0.00000000000E+00 0. -1.
        -12    1    3    3    0    0 -0.72281769426E+01  0.63203341284E+01 -0.51926381664E+02  0.52806649942E+02  0.00000000000E+00 0.  1.
          5    1    4    4  501    0  0.41804397485E+00 -0.30957483123E+01  0.18200002670E+03  0.18207482126E+03  0.41800000000E+01 0. -1.
         -5    1    4    4    0  501 -0.12148468417E+03  0.14261793681E+03  0.41900726609E+03  0.45900214141E+03  0.41800000000E+01 0. -1.
</event>
<event>
11    1  0.7105277E-009  0.2019347E+03  0.7561462E-02  0.1053164E+00
         22   -1    0    0    0    0  0.00000000000E+00  0.00000000000E+00  0.15356437564E+04  0.15356437564E+04  0.00000000000E+00 0. -1.
         22   -1    0    0    0    0 -0.00000000000E+00 -0.00000000000E+00 -0.31521029750E+03  0.31521029750E+03  0.00000000000E+00 0.  1.
        -24    2    1    2    0    0 -0.14304882917E+03 -0.77545364715E+02 -0.25757693236E+03  0.31449995993E+03  0.78026262215E+02 0.  0.
         25    2    1    2    0    0  0.11236321744E+03  0.40764173011E+02  0.24578444796E+03  0.30057405450E+03  0.12509019523E+03 0.  0.
         24    2    1    2    0    0  0.30685611738E+02  0.36781191704E+02  0.12322259433E+04  0.12357800395E+04  0.80480232337E+02 0.  0.
        -13    1    5    5    0    0  0.32499736177E+02 -0.13828739293E+02  0.76555590054E+03  0.76637021323E+03  0.00000000000E+00 0.  1.
         14    1    5    5    0    0 -0.18141244386E+01  0.50609930997E+02  0.46667004276E+03  0.46940982624E+03  0.00000000000E+00 0. -1.
         11    1    3    3    0    0 -0.71188608737E+02  0.35480445310E+01 -0.11717189673E+03  0.13714831394E+03  0.00000000000E+00 0. -1.
        -12    1    3    3    0    0 -0.71860220437E+02 -0.81093409246E+02 -0.14040503563E+03  0.17735164599E+03  0.00000000000E+00 0.  1.
          5    1    4    4  501    0  0.45784876948E+02 -0.43788384995E+02  0.11287276388E+03  0.12950448194E+03  0.41800000000E+01 0.  1.
         -5    1    4    4    0  501  0.66578340488E+02  0.84552558006E+02  0.13291168409E+03  0.17106957255E+03  0.41800000000E+01 0.  1.
</event>
<event>
11    1  0.7105277E-009  0.1838746E+03  0.7561462E-02  0.1066551E+00
         22   -1    0    0    0    0  0.00000000000E+00  0.00000000000E+00  0.17879151223E+04  0.17879151223E+04  0.00000000000E+00 0.  1.
         22   -1    0    0    0    0 -0.00000000000E+00 -0.00000000000E+00 -0.79835169335E+03  0.79835169335E+03  0.00000000000E+00 0.  1.
        -24    2    1    2    0    0 -0.13250242058E+03  0.42652361210E+02 -0.70295321360E+03  0.72104468065E+03  0.79913050259E+02 0.  0.
         25    2    1    2    0    0  0.91384291969E+02 -0.36893587500E+02 -0.10757352582E+02  0.15961054681E+03  0.12509028899E+03 0.  0.
         24    2    1    2    0    0  0.41118128612E+02 -0.57587737105E+01  0.17032739951E+04  0.17056115882E+04  0.79023561656E+02 0.  0.
        -11    1    5    5    0    0 -0.18140810700E+02  0.41602018084E+01  0.85932890655E+03  0.85953043339E+03  0.00000000000E+00 0.  1.
         12    1    5    5    0    0  0.59258939312E+02 -0.99189755190E+01  0.84394508856E+03  0.84608115477E+03  0.00000000000E+00 0. -1.
         11    1    3    3    0    0 -0.19296947361E+02 -0.19924607044E+02 -0.19100042271E+03  0.19300394716E+03  0.00000000000E+00 0. -1.
        -12    1    3    3    0    0 -0.11320547322E+03  0.62576968255E+02 -0.51195279089E+03  0.52804073349E+03  0.00000000000E+00 0.  1.
          5    1    4    4  501    0  0.11002840269E+03  0.79860690908E+01 -0.96864427994E+01  0.11082114542E+03  0.41800000000E+01 0.  1.
         -5    1    4    4    0  501 -0.18644110718E+02 -0.44879656591E+02 -0.10709097822E+01  0.48789401389E+02  0.41800000000E+01 0.  1.
</event>
<event>
11    1  0.7105277E-009  0.2358089E+03  0.7561462E-02  0.1031743E+00
         22   -1    0    0    0    0  0.00000000000E+00  0.00000000000E+00  0.19542581260E+04  0.19542581260E+04  0.00000000000E+00 0. -1.
         22   -1    0    0    0    0 -0.00000000000E+00 -0.00000000000E+00 -0.19620376631E+04  0.19620376631E+04  0.00000000000E+00 0.  1.
        -24    2    1    2    0    0 -0.14084825556E+02  0.30348511417E+02 -0.17598313093E+04  0.17618898124E+04  0.78294695498E+02 0.  0.
         25    2    1    2    0    0 -0.12126942471E+03 -0.17690954384E+03 -0.11600883290E+03  0.27406204720E+03  0.12509474942E+03 0.  0.
         24    2    1    2    0    0  0.13535425027E+03  0.14656103243E+03  0.18680606052E+04  0.18803439295E+04  0.79006069989E+02 0.  0.
        -13    1    5    5    0    0  0.81129937684E+02  0.85080705607E+02  0.73709964737E+03  0.74641589172E+03  0.00000000000E+00 0.  1.
         14    1    5    5    0    0  0.54224312585E+02  0.61480326820E+02  0.11309609578E+04  0.11339280378E+04  0.00000000000E+00 0. -1.
         11    1    3    3    0    0 -0.78678378229E+01 -0.47337870540E+01 -0.24055411445E+02  0.25748289879E+02  0.00000000000E+00 0. -1.
        -12    1    3    3    0    0 -0.62169877333E+01  0.35082298471E+02 -0.17357758979E+04  0.17361415226E+04  0.00000000000E+00 0.  1.
          5    1    4    4  501    0 -0.63809144543E+02 -0.19541886972E+02 -0.77037010085E+02  0.10200816436E+03  0.41800000000E+01 0.  1.
         -5    1    4    4    0  501 -0.57460280169E+02 -0.15736765687E+03 -0.38971822819E+02  0.17205388284E+03  0.41800000000E+01 0.  1.
</event>
<event>
11    1  0.7105277E-009  0.2402420E+03  0.7561462E-02  0.1029230E+00
         22   -1    0    0    0    0  0.00000000000E+00  0.00000000000E+00  0.78917975712E+03  0.78917975712E+03  0.00000000000E+00 0.  1.
         22   -1    0    0    0    0 -0.00000000000E+00 -0.00000000000E+00 -0.40583441814E+03  0.40583441814E+03  0.00000000000E+00 0. -1.
        -24    2    1    2    0    0 -0.10232470620E+03  0.15127226443E+03 -0.16317221053E+03  0.25817422743E+03  0.81701394936E+02 0.  0.
         25    2    1    2    0    0  0.87377567430E+02 -0.24920648668E+03 -0.75538997908E+02  0.30181506826E+03  0.12508989939E+03 0.  0.
         24    2    1    2    0    0  0.14947138765E+02  0.97934222251E+02  0.62205654742E+03  0.63502487957E+03  0.80546388124E+02 0.  0.
        -13    1    5    5    0    0  0.74708822856E+01  0.92878545398E+02  0.61824596202E+03  0.62522820460E+03  0.00000000000E+00 0.  1.
         14    1    5    5    0    0  0.74762564791E+01  0.50556768531E+01  0.38105854059E+01  0.97966749727E+01  0.00000000000E+00 0. -1.
         13    1    3    3    0    0 -0.10937969297E+03  0.10042385075E+03 -0.11554009838E+03  0.18814457570E+03  0.00000000000E+00 0. -1.
        -14    1    3    3    0    0  0.70549867765E+01  0.50848413680E+02 -0.47632112154E+02  0.70029651723E+02  0.00000000000E+00 0.  1.
          5    1    4    4  501    0  0.40657317055E+02 -0.18858131845E+03 -0.10502102144E+03  0.21968800250E+03  0.41800000000E+01 0.  1.
         -5    1    4    4    0  501  0.46720250376E+02 -0.60625168229E+02  0.29482023533E+02  0.82127065755E+02  0.41800000000E+01 0.  1.
</event>
<event>
11    1  0.7105277E-009  0.1558464E+03  0.7561462E-02  0.1091050E+00
         22   -1    0    0    0    0  0.00000000000E+00  0.00000000000E+00  0.68710006808E+03  0.68710006808E+03  0.00000000000E+00 0. -1.
         22   -1    0    0    0    0 -0.00000000000E+00 -0.00000000000E+00 -0.81673765541E+03  0.81673765541E+03  0.00000000000E+00 0. -1.
         24    2    1    2    0    0 -0.48648605498E+02  0.26804205977E+02 -0.75127781390E+03  0.75778850147E+03  0.82096936778E+02 0.  0.
         25    2    1    2    0    0  0.11163315646E+03  0.39298887114E+02  0.77395884081E+02  0.18879603651E+03  0.12508979327E+03 0.  0.
        -24    2    1    2    0    0 -0.62984550964E+02 -0.66103093091E+02  0.54424434249E+03  0.55725318550E+03  0.77411471006E+02 0.  0.
        -11    1    3    3    0    0 -0.55886416213E+02  0.46799865545E+02 -0.46044452097E+03  0.46617880241E+03  0.00000000000E+00 0.  1.
         12    1    3    3    0    0  0.72378107153E+01 -0.19995659567E+02 -0.29083329294E+03  0.29160969906E+03  0.00000000000E+00 0. -1.
         13    1    5    5    0    0 -0.60814034421E+02 -0.82783666684E+02  0.47725451886E+03  0.48818373388E+03  0.00000000000E+00 0. -1.
        -14    1    5    5    0    0 -0.21705165432E+01  0.16680573593E+02  0.66989823632E+02  0.69069451625E+02  0.00000000000E+00 0.  1.
          5    1    4    4  501    0  0.13607772498E+03  0.50127066424E+02  0.67105409841E+02  0.15984517025E+03  0.41800000000E+01 0. -1.
         -5    1    4    4    0  501 -0.24444568516E+02 -0.10828179310E+02  0.10290474240E+02  0.28950866259E+02  0.41800000000E+01 0. -1.
</event>
<event>
11    1  0.7105277E-009  0.1394716E+03  0.7561462E-02  0.1108150E+00
         22   -1    0    0    0    0  0.00000000000E+00  0.00000000000E+00  0.11213419073E+04  0.11213419073E+04  0.00000000000E+00 0. -1.
         22   -1    0    0    0    0 -0.00000000000E+00 -0.00000000000E+00 -0.61182724479E+03  0.61182724479E+03  0.00000000000E+00 0.  1.
        -24    2    1    2    0    0  0.92429319287E+01  0.93183586257E+01 -0.58592799167E+03  0.59190791528E+03  0.82892129609E+02 0.  0.
         25    2    1    2    0    0  0.26122529563E+02  0.43316065149E+02  0.20959910992E+03  0.24927447209E+03  0.12508919819E+03 0.  0.
         24    2    1    2    0    0 -0.35365461492E+02 -0.52634423775E+02  0.88584354427E+03  0.89198676474E+03  0.83069278973E+02 0.  0.
        -11    1    5    5    0    0  0.82360885293E+01 -0.34530564896E+02  0.13273938677E+03  0.13740428620E+03  0.00000000000E+00 0.  1.
         12    1    5    5    0    0 -0.43601550021E+02 -0.18103858879E+02  0.75310415750E+03  0.75458247853E+03  0.00000000000E+00 0. -1.
         13    1    3    3    0    0 -0.55375641201E+01 -0.10801321935E+02 -0.10826720370E+02  0.16265025235E+02  0.00000000000E+00 0. -1.
        -14    1    3    3    0    0  0.14780496049E+02  0.20119680560E+02 -0.57510127130E+03  0.57564289004E+03  0.00000000000E+00 0.  1.
          5    1    4    4  501    0 -0.48781137852E+02  0.32514066388E+02  0.10067651732E+03  0.11657614449E+03  0.41800000000E+01 0.  1.
         -5    1    4    4    0  501  0.74903667415E+02  0.10801998760E+02  0.10892259260E+03  0.13269832760E+03  0.41800000000E+01 0.  1.
</event>
<event>
11    1  0.7105277E-009  0.1447940E+03  0.7561462E-02  0.1102320E+00
         22   -1    0    0    0    0  0.00000000000E+00  0.00000000000E+00  0.40239708120E+03  0.40239708120E+03  0.00000000000E+00 0.  1.
         22   -1    0    0    0    0 -0.00000000000E+00 -0.00000000000E+00 -0.35966982849E+03  0.35966982849E+03  0.00000000000E+00 0.  1.
        -24    2    1    2    0    0 -0.57137428913E+02 -0.59648004617E+02 -0.26077981177E+03  0.28516340362E+03  0.80557347904E+02 0.  0.
         25    2    1    2    0    0  0.31124448204E+02  0.13097198229E+02 -0.27316841728E+02  0.13241578001E+03  0.12508981204E+03 0.  0.
         24    2    1    2    0    0  0.26012980708E+02  0.46550806388E+02  0.33082390620E+03  0.34448772605E+03  0.79897958348E+02 0.  0.
        -13    1    5    5    0    0  0.25931925318E+02 -0.11904428896E+02  0.18817942000E+03  0.19033043448E+03  0.00000000000E+00 0.  1.
         14    1    5    5    0    0  0.81055389911E-01  0.58455235284E+02  0.14264448620E+03  0.15415729157E+03  0.00000000000E+00 0. -1.
         13    1    3    3    0    0 -0.74138814120E+01 -0.59310654485E+02 -0.96396408779E+02  0.11342392604E+03  0.00000000000E+00 0. -1.
        -14    1    3    3    0    0 -0.49723547501E+02 -0.33735013171E+00 -0.16438340299E+03  0.17173947758E+03  0.00000000000E+00 0.  1.
          5    1    4    4  501    0  0.52995168034E+02 -0.27192273057E+02 -0.52880849696E+02  0.79760668337E+02  0.41800000000E+01 0. -1.
         -5    1    4    4    0  501 -0.21870719830E+02  0.40289471286E+02  0.25564007967E+02  0.52655111677E+02  0.41800000000E+01 0. -1.
</event>
<event>
11    1  0.7105277E-009  0.3707334E+03  0.7561462E-02  0.9740289E-01
         22   -1    0    0    0    0  0.00000000000E+00  0.00000000000E+00  0.34516534706E+03  0.34516534706E+03  0.00000000000E+00 0.  1.
         22   -1    0    0    0    0 -0.00000000000E+00 -0.00000000000E+00 -0.24183522178E+04  0.24183522178E+04  0.00000000000E+00 0.  1.
         24    2    1    2    0    0 -0.34468110880E+03  0.68524014731E+02 -0.19649519172E+04  0.19976947574E+04  0.79042390019E+02 0.  0.
         25    2    1    2    0    0  0.35711601275E+03  0.11874850470E+03 -0.29100725092E+03  0.49189897235E+03  0.12508527085E+03 0.  0.
        -24    2    1    2    0    0 -0.12434903946E+02 -0.18727251943E+03  0.18277229730E+03  0.27392383520E+03  0.80018319536E+02 0.  0.
        -13    1    3    3    0    0 -0.25955037285E+03  0.23286829575E+02 -0.15447344059E+04  0.15665609012E+04  0.00000000000E+00 0.  1.
         14    1    3    3    0    0 -0.85130735948E+02  0.45237185156E+02 -0.42021751129E+03  0.43113385615E+03  0.00000000000E+00 0. -1.
         11    1    5    5    0    0 -0.15173190688E+00 -0.53125442022E+02  0.10676398443E+03  0.11925134794E+03  0.00000000000E+00 0. -1.
        -12    1    5    5    0    0 -0.12283172039E+02 -0.13414707741E+03  0.76008312872E+02  0.15467248727E+03  0.00000000000E+00 0.  1.
          5    1    4    4  501    0  0.50219722600E+02 -0.21556375657E+02 -0.17583320431E+02  0.57561648924E+02  0.41800000000E+01 0.  1.
         -5    1    4    4    0  501  0.30689629015E+03  0.14030488035E+03 -0.27342393049E+03  0.43433732343E+03  0.41800000000E+01 0.  1.
</event>
<event>
11    1  0.7105277E-009  0.1333511E+03  0.7561462E-02  0.1115219E+00
         22   -1    0    0    0    0  0.00000000000E+00  0.00000000000E+00  0.27547633235E+03  0.27547633235E+03  0.00000000000E+00 0. -1.
         22   -1    0    0    0    0 -0.00000000000E+00 -0.00000000000E+00 -0.14029556771E+04  0.14029556771E+04  0.00000000000E+00 0.  1.
        -24    2    1    2    0    0 -0.48029477946E+02  0.15551975786E+02 -0.11466011150E+04  0.11506198663E+04  0.81751239147E+02 0.  0.
         25    2    1    2    0    0  0.16747760442E+02  0.17755870883E+02 -0.22961177955E+03  0.26261227709E+03  0.12509148787E+03 0.  0.
         24    2    1    2    0    0  0.31281717505E+02 -0.33307846669E+02  0.24873354977E+03  0.26519986609E+03  0.79841290665E+02 0.  0.
        -13    1    5    5    0    0 -0.13979339146E+02 -0.39192402430E+02  0.77225546591E+02  0.87722581913E+02  0.00000000000E+00 0.  1.
         14    1    5    5    0    0  0.45261056650E+02  0.58845557618E+01  0.17150800318E+03  0.17747728418E+03  0.00000000000E+00 0. -1.
         13    1    3    3    0    0 -0.24689223224E+01  0.54076844595E+01 -0.87617017582E+03  0.87619034213E+03  0.00000000000E+00 0. -1.
        -14    1    3    3    0    0 -0.45560555624E+02  0.10144291326E+02 -0.27043093913E+03  0.27442952413E+03  0.00000000000E+00 0.  1.
          5    1    4    4  501    0  0.92100091177E+01 -0.52020703215E+02 -0.13264085139E+03  0.14283572974E+03  0.41800000000E+01 0.  1.
         -5    1    4    4    0  501  0.75377513240E+01  0.69776574098E+02 -0.96970928157E+02  0.11977654735E+03  0.41800000000E+01 0.  1.
</event>
<event>
11    1  0.7105277E-009  0.2487920E+03  0.7561462E-02  0.1024545E+00
         22   -1    0    0    0    0  0.00000000000E+00  0.00000000000E+00  0.48830652240E+03  0.48830652240E+03  0.00000000000E+00 0.  1.
         22   -1    0    0    0    0 -0.00000000000E+00 -0.00000000000E+00 -0.21998860263E+04  0.21998860263E+04  0.00000000000E+00 0. -1.
         24    2    1    2    0    0  0.20977876803E+03 -0.55099506258E+01 -0.18055788679E+04  0.18194877780E+04  0.79895148387E+02 0.  0.
         25    2    1    2    0    0 -0.25383815907E+03  0.41754613088E+02 -0.32803222215E+03  0.43523629836E+03  0.12509291716E+03 0.  0.
        -24    2    1    2    0    0  0.44059391037E+02 -0.36244662462E+02  0.42203158620E+03  0.43346847238E+03  0.80804401494E+02 0.  0.
        -11    1    3    3    0    0  0.17547072766E+02  0.12476693938E+02 -0.41640745620E+03  0.41696371213E+03  0.00000000000E+00 0.  1.
         12    1    3    3    0    0  0.19223169527E+03 -0.17986644564E+02 -0.13891714117E+04  0.14025240658E+04  0.00000000000E+00 0. -1.
         13    1    5    5    0    0  0.33997589900E+02 -0.15027862906E+02  0.59361472325E+02  0.70038969004E+02  0.00000000000E+00 0. -1.
        -14    1    5    5    0    0  0.10061801136E+02 -0.21216799556E+02  0.36267011387E+03  0.36342950337E+03  0.00000000000E+00 0.  1.
          5    1    4    4  501    0  0.56767606940E+01  0.83201634724E+01  0.47407424255E+01  0.11891079469E+02  0.41800000000E+01 0. -1.
         -5    1    4    4    0  501 -0.25951491976E+03  0.33434449615E+02 -0.33277296458E+03  0.42334521889E+03  0.41800000000E+01 0. -1.
</event>
<event>
11    1  0.7105277E-009  0.1662492E+03  0.7561462E-02  0.1081343E+00
         22   -1    0    0    0    0  0.00000000000E+00  0.00000000000E+00  0.18017855547E+04  0.18017855547E+04  0.00000000000E+00 0.  1.
         22   -1    0    0    0    0 -0.00000000000E+00 -0.00000000000E+00 -0.52905878891E+03  0.52905878891E+03  0.00000000000E+00 0.  1.
         24    2    1    2    0    0  0.29021519249E+02 -0.37334084931E+02 -0.48799954455E+03  0.49688433096E+03  0.80711835565E+02 0.  0.
         25    2    1    2    0    0 -0.11706622790E+03 -0.27501826463E+02  0.18970816488E+03  0.25709438521E+03  0.12508989931E+03 0.  0.
        -24    2    1    2    0    0  0.88044708649E+02  0.64835911394E+02  0.15710181454E+04  0.15768656274E+04  0.80322024138E+02 0.  0.
        -13    1    3    3    0    0 -0.54310295565E+01 -0.24566764263E+02 -0.40883955218E+03  0.40961298980E+03  0.00000000000E+00 0.  1.
         14    1    3    3    0    0  0.34452548805E+02 -0.12767320668E+02 -0.79159992369E+02  0.87271341161E+02  0.00000000000E+00 0. -1.
         11    1    5    5    0    0  0.23609293598E+02 -0.68255541051E+01  0.11183147790E+03  0.11450007154E+03  0.00000000000E+00 0. -1.
        -12    1    5    5    0    0  0.64435415051E+02  0.71661465499E+02  0.14591866675E+04  0.14623655559E+04  0.00000000000E+00 0.  1.
          5    1    4    4  501    0 -0.13698779980E+03 -0.25048124495E+02  0.11820573749E+03  0.18271052134E+03  0.41800000000E+01 0. -1.
         -5    1    4    4    0  501  0.19921571902E+02 -0.24537019679E+01  0.71502427389E+02  0.74383863861E+02  0.41800000000E+01 0. -1.
</event>
<event>
11    1  0.7105277E-009  0.1373551E+03  0.7561462E-02  0.1110548E+00
         22   -1    0    0    0    0  0.00000000000E+00  0.00000000000E+00  0.12297837145E+03  0.12297837145E+03  0.00000000000E+00 0.  1.
         22   -1    0    0    0    0 -0.00000000000E+00 -0.00000000000E+00 -0.63169051410E+03  0.63169051410E+03  0.00000000000E+00 0.  1.
        -24    2    1    2    0    0 -0.89314557115E+01 -0.31240040693E+02 -0.26417401012E+03  0.27811181036E+03  0.80638454784E+02 0.  0.
         25    2    1    2    0    0 -0.47540347412E+02  0.39013324426E+02 -0.32176738818E+03  0.35066195994E+03  0.12508970358E+03 0.  0.
         24    2    1    2    0    0  0.56471803124E+02 -0.77732837332E+01  0.77229255658E+02  0.12589511525E+03  0.81460012441E+02 0.  0.
        -13    1    5    5    0    0  0.76337681981E+02 -0.15872463063E+02  0.60375688178E+02  0.98613389035E+02  0.00000000000E+00 0.  1.
         14    1    5    5    0    0 -0.19865878858E+02  0.80991793299E+01  0.16853567480E+02  0.27281726218E+02  0.00000000000E+00 0. -1.
         13    1    3    3    0    0  0.95328723990E+01  0.54240012961E+01 -0.20498331114E+00  0.10969843408E+02  0.00000000000E+00 0. -1.
        -14    1    3    3    0    0 -0.18464328111E+02 -0.36664041989E+02 -0.26396902681E+03  0.26714196695E+03  0.00000000000E+00 0.  1.
          5    1    4    4  501    0 -0.53353747762E+01  0.80022289352E+02 -0.19154163742E+03  0.20769618264E+03  0.41800000000E+01 0.  1.
         -5    1    4    4    0  501 -0.42204972636E+02 -0.41008964927E+02 -0.13022575076E+03  0.14296577730E+03  0.41800000000E+01 0.  1.
</event>
<event>
11    1  0.7105277E-009  0.1313586E+03  0.7561462E-02  0.1117611E+00
         22   -1    0    0    0    0  0.00000000000E+00  0.00000000000E+00  0.25812143996E+03  0.25812143996E+03  0.00000000000E+00 0. -1.
         22   -1    0    0    0    0 -0.00000000000E+00 -0.00000000000E+00 -0.40434712346E+03  0.40434712346E+03  0.00000000000E+00 0.  1.
         24    2    1    2    0    0  0.38109175509E+02 -0.18502197685E+02 -0.30854876794E+03  0.32054919729E+03  0.75860431771E+02 0.  0.
         25    2    1    2    0    0 -0.22953922939E+02  0.12939483413E+01 -0.31585591281E+02  0.13104759650E+03  0.12508903266E+03 0.  0.
        -24    2    1    2    0    0 -0.15155252569E+02  0.17208249344E+02  0.19390867572E+03  0.21087176962E+03  0.79627402167E+02 0.  0.
        -11    1    3    3    0    0  0.11902874284E+02 -0.18206254951E+02 -0.28337778173E+03  0.28421138843E+03  0.00000000000E+00 0.  1.
         12    1    3    3    0    0  0.26206301224E+02 -0.29594273487E+00 -0.25170986215E+02  0.36337808864E+02  0.00000000000E+00 0. -1.
         11    1    5    5    0    0 -0.26856918088E+02 -0.25978639488E+02  0.74268024016E+02  0.83137976581E+02  0.00000000000E+00 0. -1.
        -12    1    5    5    0    0  0.11701665518E+02  0.43186888833E+02  0.11964065171E+03  0.12773379304E+03  0.00000000000E+00 0.  1.
          5    1    4    4  501    0  0.36270796667E+01 -0.57127547322E+02 -0.33949410093E+02  0.66683935213E+02  0.41800000000E+01 0.  1.
         -5    1    4    4    0  501 -0.26581002606E+02  0.58421495663E+02  0.23638188112E+01  0.64363661288E+02  0.41800000000E+01 0.  1.
</event>
<event>
11    1  0.7105277E-009  0.1953722E+03  0.7561462E-02  0.1057845E+00
         22   -1    0    0    0    0  0.00000000000E+00  0.00000000000E+00  0.67740375764E+03  0.67740375764E+03  0.00000000000E+00 0. -1.
         22   -1    0    0    0    0 -0.00000000000E+00 -0.00000000000E+00 -0.31778476069E+03  0.31778476069E+03  0.00000000000E+00 0. -1.
        -24    2    1    2    0    0  0.13025772311E+03 -0.76085266685E+02 -0.15930399845E+03  0.23372314998E+03  0.80577321099E+02 0.  0.
         25    2    1    2    0    0 -0.10758014308E+03  0.10704969578E+03 -0.35458598781E+02  0.19983579961E+03  0.12507561723E+03 0.  0.
         24    2    1    2    0    0 -0.22677580029E+02 -0.30964429090E+02  0.55438159418E+03  0.56162956874E+03  0.81337273186E+02 0.  0.
        -11    1    5    5    0    0 -0.43680023877E+02 -0.42794998992E+02  0.30393216147E+03  0.31002276562E+03  0.00000000000E+00 0.  1.
         12    1    5    5    0    0  0.21002443848E+02  0.11830569902E+02  0.25044943271E+03  0.25160680312E+03  0.00000000000E+00 0. -1.
         11    1    3    3    0    0  0.11544793651E+03 -0.55038803395E+02 -0.16357132430E+03  0.20763688029E+03  0.00000000000E+00 0. -1.
        -12    1    3    3    0    0  0.14809786604E+02 -0.21046463290E+02  0.42673258495E+01  0.26086269687E+02  0.00000000000E+00 0.  1.
          5    1    4    4  501    0 -0.94076139306E+02  0.60226266088E+01 -0.11600509633E+02  0.95071742604E+02  0.41800000000E+01 0.  1.
         -5    1    4    4    0  501 -0.13504003778E+02  0.10102706917E+03 -0.23858089148E+02  0.10476405701E+03  0.41800000000E+01 0.  1.
</event>
<event>
11    1  0.7105277E-009  0.1935668E+03  0.7561462E-02  0.1059168E+00
         22   -1    0    0    0    0  0.00000000000E+00  0.00000000000E+00  0.16295091010E+03  0.16295091010E+03  0.00000000000E+00 0. -1.
         22   -1    0    0    0    0 -0.00000000000E+00 -0.00000000000E+00 -0.14093573980E+04  0.14093573980E+04  0.00000000000E+00 0. -1.
         24    2    1    2    0    0  0.85442356690E+02  0.11013328635E+03 -0.90689836314E+03  0.92089771080E+03  0.78474299082E+02 0.  0.
         25    2    1    2    0    0 -0.13199728403E+03 -0.12135688437E+03 -0.45286968330E+03  0.50288154676E+03  0.12509246039E+03 0.  0.
        -24    2    1    2    0    0  0.46554927336E+02  0.11223598023E+02  0.11336155852E+03  0.14852905056E+03  0.83166733130E+02 0.  0.
        -13    1    3    3    0    0  0.19095133178E+02  0.38062030653E+02 -0.10923658092E+03  0.11724322112E+03  0.00000000000E+00 0.  1.
         14    1    3    3    0    0  0.66347223512E+02  0.72071255698E+02 -0.79766178222E+03  0.80365448968E+03  0.00000000000E+00 0. -1.
         13    1    5    5    0    0  0.68448040159E+02  0.16559741089E+02  0.10007448212E+03  0.12236936381E+03  0.00000000000E+00 0. -1.
        -14    1    5    5    0    0 -0.21893112823E+02 -0.53361430654E+01  0.13287076392E+02  0.26159686752E+02  0.00000000000E+00 0.  1.
          5    1    4    4  501    0 -0.25860183971E+02 -0.39882850417E+02 -0.23621361152E+02  0.53243140169E+02  0.41800000000E+01 0. -1.
         -5    1    4    4    0  501 -0.10613710006E+03 -0.81474033958E+02 -0.42924832215E+03  0.44963840659E+03  0.41800000000E+01 0. -1.
</event>
<event>
11    1  0.7105277E-009  0.2083377E+03  0.7561462E-02  0.1048779E+00
         22   -1    0    0    0    0  0.00000000000E+00  0.00000000000E+00  0.15242120165E+04  0.15242120165E+04  0.00000000000E+00 0. -1.
         22   -1    0    0    0    0 -0.00000000000E+00 -0.00000000000E+00 -0.13669906308E+03  0.13669906308E+03  0.00000000000E+00 0. -1.
         24    2    1    2    0    0  0.10006657063E+03  0.12796558592E+03 -0.38428448046E+02  0.18186157156E+03  0.72169078221E+02 0.  0.
         25    2    1    2    0    0 -0.98117073111E+02 -0.17812104938E+03  0.57068833631E+03  0.61861673551E+03  0.12508964780E+03 0.  0.
        -24    2    1    2    0    0 -0.19494975234E+01  0.50155463456E+02  0.85525306516E+03  0.86043277252E+03  0.79795861501E+02 0.  0.
        -13    1    3    3    0    0  0.32082486118E+02  0.97823690818E+02 -0.15997078629E+02  0.10418573283E+03  0.00000000000E+00 0.  1.
         14    1    3    3    0    0  0.67984084517E+02  0.30141895104E+02 -0.22431369418E+02  0.77675838727E+02  0.00000000000E+00 0. -1.
         13    1    5    5    0    0 -0.56484614759E+01  0.53710720421E+02  0.85319861089E+03  0.85490620317E+03  0.00000000000E+00 0. -1.
        -14    1    5    5    0    0  0.36989639525E+01 -0.35552569649E+01  0.20544542705E+01  0.55265693480E+01  0.00000000000E+00 0.  1.
          5    1    4    4  501    0 -0.95313752421E+02 -0.17917387635E+03  0.57630030399E+03  0.61100532088E+03  0.41800000000E+01 0. -1.
         -5    1    4    4    0  501 -0.28033206905E+01  0.10528269743E+01 -0.56119676753E+01  0.76114146333E+01  0.41800000000E+01 0. -1.
</event>
<event>
11    1  0.7105277E-009  0.1895608E+03  0.7561462E-02  0.1062161E+00
         22   -1    0    0    0    0  0.00000000000E+00  0.00000000000E+00  0.18642516415E+03  0.18642516415E+03  0.00000000000E+00 0.  1.
         22   -1    0    0    0    0 -0.00000000000E+00 -0.00000000000E+00 -0.87423347206E+03  0.87423347206E+03  0.00000000000E+00 0.  1.
         24    2    1    2    0    0 -0.19769262906E+02  0.68307213076E+02 -0.60433400635E+03  0.61427410570E+03  0.84002301073E+02 0.  0.
         25    2    1    2    0    0  0.11644967672E+03 -0.15632600988E+03 -0.15212471214E+03  0.27710487559E+03  0.12508731134E+03 0.  0.
        -24    2    1    2    0    0 -0.96680413818E+02  0.88018796801E+02  0.68650410572E+02  0.16927965493E+03  0.82754526744E+02 0.  0.
        -11    1    3    3    0    0 -0.41503700416E+02  0.76065790968E+02 -0.45679222825E+03  0.46493838462E+03  0.00000000000E+00 0.  1.
         12    1    3    3    0    0  0.21734437510E+02 -0.77585778924E+01 -0.14754177810E+03  0.14933572107E+03  0.00000000000E+00 0. -1.
         13    1    5    5    0    0  0.48980310009E+01 -0.11153020304E+02  0.16205834999E+01  0.12288484873E+02  0.00000000000E+00 0. -1.
        -14    1    5    5    0    0 -0.10157844482E+03  0.99171817105E+02  0.67029827073E+02  0.15699117006E+03  0.00000000000E+00 0.  1.
          5    1    4    4  501    0  0.13523807596E+03 -0.15602696279E+03 -0.15420747627E+03  0.25774244595E+03  0.41800000000E+01 0. -1.
         -5    1    4    4    0  501 -0.18788399234E+02 -0.29904708171E+00  0.20827641358E+01  0.19362429635E+02  0.41800000000E+01 0. -1.
</event>
<event>
11    1  0.7105277E-009  0.1651567E+03  0.7561462E-02  0.1082325E+00
         22   -1    0    0    0    0  0.00000000000E+00  0.00000000000E+00  0.27888640965E+04  0.27888640965E+04  0.00000000000E+00 0. -1.
         22   -1    0    0    0    0 -0.00000000000E+00 -0.00000000000E+00 -0.41393328160E+02  0.41393328160E+02  0.00000000000E+00 0. -1.
        -24    2    1    2    0    0  0.10897212296E+03 -0.20657710949E+02  0.99698833898E+02  0.17129427157E+03  0.84262716480E+02 0.  0.
         25    2    1    2    0    0 -0.77019277614E+02 -0.17848128032E+02  0.15440201051E+04  0.15510951562E+04  0.12509026254E+03 0.  0.
         24    2    1    2    0    0 -0.31952845348E+02  0.38505838981E+02  0.11037518293E+04  0.11078679969E+04  0.81238622757E+02 0.  0.
        -13    1    5    5    0    0 -0.57831376074E+02  0.35339956931E+02  0.69924398327E+03  0.70252083866E+03  0.00000000000E+00 0.  1.
         14    1    5    5    0    0  0.25878530726E+02  0.31658820504E+01  0.40450784603E+03  0.40534715820E+03  0.00000000000E+00 0. -1.
         11    1    3    3    0    0  0.97654212911E+02 -0.28197023033E+02  0.38641626326E+02  0.10874094304E+03  0.00000000000E+00 0. -1.
        -12    1    3    3    0    0  0.11317910051E+02  0.75393120839E+01  0.61057207572E+02  0.62553328537E+02  0.00000000000E+00 0.  1.
          5    1    4    4  501    0 -0.23115007624E+02  0.39331704607E+01  0.44757484748E+02  0.50699884105E+02  0.41800000000E+01 0.  1.
         -5    1    4    4    0  501 -0.53904269990E+02 -0.21781298493E+02  0.14992626204E+04  0.15003952721E+04  0.41800000000E+01 0.  1.
</event>
<event>
11    1  0.7105277E-009  0.2158225E+03  0.7561462E-02  0.1043866E+00
         22   -1    0    0    0    0  0.00000000000E+00  0.00000000000E+00  0.20689418032E+03  0.20689418032E+03  0.00000000000E+00 0. -1.
         22   -1    0    0    0    0 -0.00000000000E+00 -0.00000000000E+00 -0.88901888179E+03  0.88901888179E+03  0.00000000000E+00 0.  1.
        -24    2    1    2    0    0  0.12626756030E+03  0.11890023454E+03 -0.70383892553E+03  0.72949296490E+03  0.81792360225E+02 0.  0.
         25    2    1    2    0    0 -0.15746997110E+03 -0.11271272711E+03 -0.69431332934E+02  0.24076658845E+03  0.12508752724E+03 0.  0.
         24    2    1    2    0    0  0.31202410796E+02 -0.61875074214E+01  0.91145556987E+02  0.12565350876E+03  0.80432680029E+02 0.  0.
        -13    1    5    5    0    0  0.18001181297E+02 -0.41316004826E+02  0.30784248069E+02  0.54577694272E+02  0.00000000000E+00 0.  1.
         14    1    5    5    0    0  0.13201229499E+02  0.35128497405E+02  0.60361308918E+02  0.71075814484E+02  0.00000000000E+00 0. -1.
         11    1    3    3    0    0  0.33343920362E+02  0.37421681016E+01 -0.58808437562E+02  0.67707113184E+02  0.00000000000E+00 0. -1.
        -12    1    3    3    0    0  0.92923639942E+02  0.11515806643E+03 -0.64503048797E+03  0.66178585172E+03  0.00000000000E+00 0.  1.
          5    1    4    4  501    0 -0.13465998037E+03 -0.13834694249E+03 -0.44561596454E+02  0.19818273156E+03  0.41800000000E+01 0. -1.
         -5    1    4    4    0  501 -0.22809990734E+02  0.25634215379E+02 -0.24869736481E+02  0.42583856894E+02  0.41800000000E+01 0. -1.
</event>
<event>
11    1  0.7105277E-009  0.1977291E+03  0.7561462E-02  0.1056141E+00
         22   -1    0    0    0    0  0.00000000000E+00  0.00000000000E+00  0.14843040779E+03  0.14843040779E+03  0.00000000000E+00 0.  1.
         22   -1    0    0    0    0 -0.00000000000E+00 -0.00000000000E+00 -0.91887749131E+03  0.91887749131E+03  0.00000000000E+00 0.  1.
        -24    2    1    2    0    0  0.15547493589E+03  0.90742849589E+01 -0.75146499711E+03  0.77170790889E+03  0.81108917103E+02 0.  0.
         25    2    1    2    0    0 -0.13279326515E+03 -0.43487099273E+02 -0.61669830564E+02  0.19742314440E+03  0.12509017096E+03 0.  0.
         24    2    1    2    0    0 -0.22681670736E+02  0.34412814314E+02  0.42687744153E+02  0.98176845812E+02  0.78216044238E+02 0.  0.
        -13    1    5    5    0    0 -0.24613890946E+02  0.13475084170E+02  0.62984212259E+02  0.68952393104E+02  0.00000000000E+00 0.  1.
         14    1    5    5    0    0  0.19322202092E+01  0.20937730144E+02 -0.20296468106E+02  0.29224452708E+02  0.00000000000E+00 0. -1.
         11    1    3    3    0    0  0.35109056956E+02  0.32305551324E+02 -0.13526978442E+03  0.14343712596E+03  0.00000000000E+00 0. -1.
        -12    1    3    3    0    0  0.12036587893E+03 -0.23231266365E+02 -0.61619521269E+03  0.62827078293E+03  0.00000000000E+00 0.  1.
          5    1    4    4  501    0 -0.61746480658E+02  0.23858933415E+02  0.20630954545E+02  0.69462113866E+02  0.41800000000E+01 0.  1.
         -5    1    4    4    0  501 -0.71046784492E+02 -0.67346032688E+02 -0.82300785109E+02  0.12796103053E+03  0.41800000000E+01 0.  1.
</event>
<event>
11    1  0.7105277E-009  0.1424711E+03  0.7561462E-02  0.1104830E+00
         22   -1    0    0    0    0  0.00000000000E+00  0.00000000000E+00  0.24089669120E+03  0.24089669120E+03  0.00000000000E+00 0.  1.
         22   -1    0    0    0    0 -0.00000000000E+00 -0.00000000000E+00 -0.65837451897E+03  0.65837451897E+03  0.00000000000E+00 0. -1.
        -24    2    1    2    0    0 -0.60423384192E+02  0.39444322955E+02 -0.56538545992E+03  0.57600527067E+03  0.83153554231E+02 0.  0.
         25    2    1    2    0    0  0.35530567767E+02  0.75312389957E+01 -0.18421940523E+02  0.13154869553E+03  0.12508617268E+03 0.  0.
         24    2    1    2    0    0  0.24892816425E+02 -0.46975561951E+02  0.16632957268E+03  0.19171724397E+03  0.79143029768E+02 0.  0.
        -11    1    5    5    0    0 -0.16998907338E+02 -0.34213342325E+02  0.12779951691E+03  0.13338752627E+03  0.00000000000E+00 0.  1.
         12    1    5    5    0    0  0.41891723763E+02 -0.12762219626E+02  0.38530055770E+02  0.58329717703E+02  0.00000000000E+00 0. -1.
         13    1    3    3    0    0 -0.76884465251E+02  0.21729567036E+02 -0.49893349822E+03  0.50529004613E+03  0.00000000000E+00 0. -1.
        -14    1    3    3    0    0  0.16461081060E+02  0.17714755919E+02 -0.66451961699E+02  0.70715224532E+02  0.00000000000E+00 0.  1.
          5    1    4    4  501    0 -0.35445319766E+02  0.31187561080E+02  0.14698521300E+02  0.49624123044E+02  0.41800000000E+01 0. -1.
         -5    1    4    4    0  501  0.70975887533E+02 -0.23656322085E+02 -0.33120461823E+02  0.81924572486E+02  0.41800000000E+01 0. -1.
</event>
<event>
11    1  0.7105277E-009  0.1312709E+03  0.7561462E-02  0.1117717E+00
         22   -1    0    0    0    0  0.00000000000E+00  0.00000000000E+00  0.19525243367E+04  0.19525243367E+04  0.00000000000E+00 0.  1.
         22   -1    0    0    0    0 -0.00000000000E+00 -0.00000000000E+00 -0.44393335898E+02  0.44393335898E+02  0.00000000000E+00 0. -1.
         24    2    1    2    0    0 -0.47744888724E+02 -0.26894751682E+02  0.10762593936E+03  0.15705195003E+03  0.10039457215E+03 0.  0.
         25    2    1    2    0    0  0.99242457931E+01  0.13015072411E+02  0.19911348332E+03  0.23571135686E+03  0.12508309938E+03 0.  0.
        -24    2    1    2    0    0  0.37820642931E+02  0.13879679270E+02  0.16013915781E+04  0.16041543657E+04  0.85048198082E+02 0.  0.
        -11    1    3    3    0    0 -0.10953037933E+02  0.18904393829E+02  0.94319469416E+02  0.96816875889E+02  0.00000000000E+00 0.  1.
         12    1    3    3    0    0 -0.36791850791E+02 -0.45799145510E+02  0.13306469943E+02  0.60235074138E+02  0.00000000000E+00 0. -1.
         13    1    5    5    0    0  0.53744545158E+02  0.28145194291E+02  0.73517244080E+03  0.73767143486E+03  0.00000000000E+00 0. -1.
        -14    1    5    5    0    0 -0.15923902227E+02 -0.14265515021E+02  0.86621913731E+03  0.86648293083E+03  0.00000000000E+00 0.  1.
          5    1    4    4  501    0  0.82979823518E+01  0.18930364862E+02 -0.12136697283E+02  0.24330783913E+02  0.41800000000E+01 0. -1.
         -5    1    4    4    0  501  0.16262634413E+01 -0.59152924504E+01  0.21125018060E+03  0.21138057295E+03  0.41800000000E+01 0. -1.
</event>
<event>
11    1  0.7105277E-009  0.1460136E+03  0.7561462E-02  0.1101023E+00
         22   -1    0    0    0    0  0.00000000000E+00  0.00000000000E+00  0.12223194326E+04  0.12223194326E+04  0.00000000000E+00 0. -1.
         22   -1    0    0    0    0 -0.00000000000E+00 -0.00000000000E+00 -0.21228636605E+03  0.21228636605E+03  0.00000000000E+00 0.  1.
         24    2    1    2    0    0  0.30078118995E+02 -0.90457526462E+02 -0.16212346399E+03  0.19484241435E+03  0.50914551127E+02 0.  0.
         25    2    1    2    0    0  0.47684788311E+02  0.74061705510E+02  0.16060156657E+03  0.22180681460E+03  0.12508566887E+03 0.  0.
        -24    2    1    2    0    0 -0.77762907306E+02  0.16395820952E+02  0.10115549640E+04  0.10179565697E+04  0.81708261289E+02 0.  0.
        -13    1    3    3    0    0  0.39466379477E+02 -0.86301998686E+02 -0.15679153045E+03  0.18327360450E+03  0.00000000000E+00 0.  1.
         14    1    3    3    0    0 -0.93882604816E+01 -0.41555277755E+01 -0.53319335414E+01  0.11568809846E+02  0.00000000000E+00 0. -1.
         13    1    5    5    0    0 -0.17265185055E+02  0.26409764319E+02  0.68298433145E+03  0.68371277542E+03  0.00000000000E+00 0. -1.
        -14    1    5    5    0    0 -0.60497722251E+02 -0.10013943368E+02  0.32857063255E+03  0.33424379431E+03  0.00000000000E+00 0.  1.
          5    1    4    4  501    0  0.33555357844E+02  0.70680347938E+02  0.20632555983E+02  0.81023752018E+02  0.41800000000E+01 0.  1.
         -5    1    4    4    0  501  0.14129430467E+02  0.33813575723E+01  0.13996901059E+03  0.14078306258E+03  0.41800000000E+01 0.  1.
</event>
<event>
11    1  0.7105277E-009  0.2094850E+03  0.7561462E-02  0.1048012E+00
         22   -1    0    0    0    0  0.00000000000E+00  0.00000000000E+00  0.21518490295E+03  0.21518490295E+03  0.00000000000E+00 0. -1.
         22   -1    0    0    0    0 -0.00000000000E+00 -0.00000000000E+00 -0.26508811755E+04  0.26508811755E+04  0.00000000000E+00 0. -1.
         24    2    1    2    0    0 -0.30185086659E+02 -0.16566435536E+03 -0.24843668631E+04  0.24914287999E+04  0.82358586555E+02 0.  0.
         25    2    1    2    0    0  0.75044536032E+02  0.14928521487E+03 -0.74159730134E+02  0.22150652907E+03  0.12509084331E+03 0.  0.
        -24    2    1    2    0    0 -0.44859449373E+02  0.16379140485E+02  0.12283032062E+03  0.15313074947E+03  0.77981358858E+02 0.  0.
        -11    1    3    3    0    0 -0.46705535175E+02 -0.49470824406E+02 -0.10964145952E+04  0.10985234336E+04  0.00000000000E+00 0.  1.
         12    1    3    3    0    0  0.16520448516E+02 -0.11619353095E+03 -0.13879522678E+04  0.13929053664E+04  0.00000000000E+00 0. -1.
         13    1    5    5    0    0 -0.50722802720E+01  0.16082485639E+02  0.11005842510E+03  0.11134285476E+03  0.00000000000E+00 0. -1.
        -14    1    5    5    0    0 -0.39787169101E+02  0.29665484653E+00  0.12771895523E+02  0.41787894712E+02  0.00000000000E+00 0.  1.
          5    1    4    4  501    0 -0.23653349400E+02  0.80323198546E+01  0.12873163530E+02  0.28411086557E+02  0.41800000000E+01 0.  1.
         -5    1    4    4    0  501  0.98697885432E+02  0.14125289502E+03 -0.87032893665E+02  0.19309544251E+03  0.41800000000E+01 0.  1.
</event>
<event>
11    1  0.7105277E-009  0.1547421E+03  0.7561462E-02  0.1092129E+00
         22   -1    0    0    0    0  0.00000000000E+00  0.00000000000E+00  0.24754723024E+03  0.24754723024E+03  0.00000000000E+00 0. -1.
         22   -1    0    0    0    0 -0.00000000000E+00 -0.00000000000E+00 -0.51730679555E+03  0.51730679555E+03  0.00000000000E+00 0. -1.
        -24    2    1    2    0    0  0.47354242146E+02  0.70003251703E+02 -0.31041383161E+03  0.33144166173E+03  0.79711660219E+02 0.  0.
         25    2    1    2    0    0 -0.86838875875E+02 -0.80466010480E+02 -0.14560583585E+03  0.22552734850E+03  0.12508299758E+03 0.  0.
         24    2    1    2    0    0  0.39484633728E+02  0.10462758777E+02  0.18626010215E+03  0.20788501557E+03  0.82794011989E+02 0.  0.
        -11    1    5    5    0    0  0.19873224743E+02 -0.23440822671E+02  0.19067763707E+02  0.36166238980E+02  0.00000000000E+00 0.  1.
         12    1    5    5    0    0  0.19611408985E+02  0.33903581448E+02  0.16719233845E+03  0.17171877659E+03  0.00000000000E+00 0. -1.
         11    1    3    3    0    0  0.41755692061E+02  0.48756986176E+02 -0.30060030147E+03  0.30737814295E+03  0.00000000000E+00 0. -1.
        -12    1    3    3    0    0  0.55985500850E+01  0.21246265528E+02 -0.98135301366E+01  0.24063518771E+02  0.00000000000E+00 0.  1.
          5    1    4    4  501    0 -0.18903111160E+02 -0.56129387614E+02 -0.14112260911E+03  0.15310420951E+03  0.41800000000E+01 0. -1.
         -5    1    4    4    0  501 -0.67935764715E+02 -0.24336622867E+02 -0.44832267368E+01  0.72423138995E+02  0.41800000000E+01 0. -1.
</event>
<event>
11    1  0.7105277E-009  0.1328450E+03  0.7561462E-02  0.1115822E+00
         22   -1    0    0    0    0  0.00000000000E+00  0.00000000000E+00  0.13506085934E+04  0.13506085934E+04  0.00000000000E+00 0. -1.
         22   -1    0    0    0    0 -0.00000000000E+00 -0.00000000000E+00 -0.38182103872E+03  0.38182103872E+03  0.00000000000E+00 0.  1.
        -24    2    1    2    0    0  0.37772910643E+02  0.24304381721E+02 -0.34676447047E+03  0.35899276719E+03  0.81318590536E+02 0.  0.
         25    2    1    2    0    0 -0.44709318460E+02 -0.37986222310E+01  0.13189612814E+03  0.18723527061E+03  0.12508838977E+03 0.  0.
         24    2    1    2    0    0  0.69364078173E+01 -0.20505759490E+02  0.11836558970E+04  0.11862015943E+04  0.74594503296E+02 0.  0.
        -13    1    5    5    0    0  0.25176502774E+02 -0.24568130587E+01  0.14238705578E+03  0.14461661687E+03  0.00000000000E+00 0.  1.
         14    1    5    5    0    0 -0.18240094956E+02 -0.18048946431E+02  0.10412688412E+04  0.10415849774E+04  0.00000000000E+00 0. -1.
         13    1    3    3    0    0 -0.73788127622E+01 -0.19095326091E+02 -0.31497742387E+02  0.37565757436E+02  0.00000000000E+00 0. -1.
        -14    1    3    3    0    0  0.45151723405E+02  0.43399707811E+02 -0.31526672808E+03  0.32142700975E+03  0.00000000000E+00 0.  1.
          5    1    4    4  501    0  0.32583201095E+02  0.32697581879E+02  0.57383749637E+02  0.73764245924E+02  0.41800000000E+01 0. -1.
         -5    1    4    4    0  501 -0.77292519556E+02 -0.36496204110E+02  0.74512378499E+02  0.11347102469E+03  0.41800000000E+01 0. -1.
</event>
<event>
11    1  0.7105277E-009  0.1317126E+03  0.7561462E-02  0.1117183E+00
         22   -1    0    0    0    0  0.00000000000E+00  0.00000000000E+00  0.15518696132E+03  0.15518696132E+03  0.00000000000E+00 0. -1.
         22   -1    0    0    0    0 -0.00000000000E+00 -0.00000000000E+00 -0.11039761336E+04  0.11039761336E+04  0.00000000000E+00 0.  1.
         24    2    1    2    0    0 -0.11620345894E+02 -0.27782369482E+02 -0.98085160315E+03  0.98464521536E+03  0.80928611986E+02 0.  0.
         25    2    1    2    0    0 -0.31119220169E+02  0.28548090418E+02 -0.59458505717E+02  0.14479961347E+03  0.12509282485E+03 0.  0.
        -24    2    1    2    0    0  0.42739566063E+02 -0.76572093545E+00  0.91520936615E+02  0.12971826605E+03  0.81384825811E+02 0.  0.
        -13    1    3    3    0    0 -0.76893762518E+01 -0.55831086821E+02 -0.73768729823E+03  0.73983700011E+03  0.00000000000E+00 0.  1.
         14    1    3    3    0    0 -0.39309696424E+01  0.28048717339E+02 -0.24316430493E+03  0.24480821526E+03  0.00000000000E+00 0. -1.
         11    1    5    5    0    0  0.27586701784E+02 -0.12492740228E+02  0.10301528206E+03  0.10737431263E+03  0.00000000000E+00 0. -1.
        -12    1    5    5    0    0  0.15152864279E+02  0.11727019293E+02 -0.11494345447E+02  0.22343953424E+02  0.00000000000E+00 0.  1.
          5    1    4    4  501    0  0.12822039345E+02  0.57905798966E+02  0.69133172983E+01  0.59856099129E+02  0.41800000000E+01 0.  1.
         -5    1    4    4    0  501 -0.43941259514E+02 -0.29357708548E+02 -0.66371823016E+02  0.84943514345E+02  0.41800000000E+01 0.  1.
</event>
<event>
11    1  0.7105277E-009  0.1546660E+03  0.7561462E-02  0.1092204E+00
         22   -1    0    0    0    0  0.00000000000E+00  0.00000000000E+00  0.50736954392E+03  0.50736954392E+03  0.00000000000E+00 0. -1.
         22   -1    0    0    0    0 -0.00000000000E+00 -0.00000000000E+00 -0.13878277573E+03  0.13878277573E+03  0.00000000000E+00 0.  1.
         24    2    1    2    0    0 -0.95173341827E+01 -0.33254768049E+02 -0.53401590877E+02  0.10267973231E+03  0.80591179856E+02 0.  0.
         25    2    1    2    0    0  0.63277938724E+02 -0.44899269833E+02  0.59606385054E+02  0.15881302510E+03  0.12509441971E+03 0.  0.
        -24    2    1    2    0    0 -0.53760604541E+02  0.78154037882E+02  0.36238197401E+03  0.38465956224E+03  0.87430129204E+02 0.  0.
        -13    1    3    3    0    0 -0.26794792579E+02 -0.25010545811E+02 -0.68903943229E+02  0.78046407372E+02  0.00000000000E+00 0.  1.
         14    1    3    3    0    0  0.17277458396E+02 -0.82442222385E+01  0.15502352352E+02  0.24633324936E+02  0.00000000000E+00 0. -1.
         13    1    5    5    0    0 -0.53534260574E+02  0.59034141699E+02  0.35552296598E+03  0.36434533932E+03  0.00000000000E+00 0. -1.
        -14    1    5    5    0    0 -0.22634396711E+00  0.19119896183E+02  0.68590080304E+01  0.20314222919E+02  0.00000000000E+00 0.  1.
          5    1    4    4  501    0  0.93427525724E+02 -0.51811455617E+02  0.20642138821E+02  0.10888847410E+03  0.41800000000E+01 0.  1.
         -5    1    4    4    0  501 -0.30149587001E+02  0.69121857835E+01  0.38964246234E+02  0.49924551006E+02  0.41800000000E+01 0.  1.
</event>
<event>
11    1  0.7105277E-009  0.1367528E+03  0.7561462E-02  0.1111240E+00
         22   -1    0    0    0    0  0.00000000000E+00  0.00000000000E+00  0.18101290926E+03  0.18101290926E+03  0.00000000000E+00 0.  1.
         22   -1    0    0    0    0 -0.00000000000E+00 -0.00000000000E+00 -0.19790347469E+04  0.19790347469E+04  0.00000000000E+00 0. -1.
         24    2    1    2    0    0  0.17333777126E+02 -0.57638412235E+02 -0.16681120346E+04  0.16711663927E+04  0.81096889842E+02 0.  0.
         25    2    1    2    0    0 -0.17397158797E+02  0.68474131070E+01 -0.28307850712E+03  0.31004898446E+03  0.12508950144E+03 0.  0.
        -24    2    1    2    0    0  0.63381671556E-01  0.50790999128E+02  0.15316870409E+03  0.17883227906E+03  0.77075304163E+02 0.  0.
        -13    1    3    3    0    0  0.28466424924E+02 -0.28463014946E+01 -0.20501441148E+03  0.20700083984E+03  0.00000000000E+00 0.  1.
         14    1    3    3    0    0 -0.11132647799E+02 -0.54792110740E+02 -0.14630976232E+04  0.14641655528E+04  0.00000000000E+00 0. -1.
         13    1    5    5    0    0 -0.37502640450E+01 -0.31884798568E+01 -0.76814824059E+01  0.91233796455E+01  0.00000000000E+00 0. -1.
        -14    1    5    5    0    0  0.38136457166E+01  0.53979478985E+02  0.16085018649E+03  0.16970889941E+03  0.00000000000E+00 0.  1.
          5    1    4    4  501    0  0.53646860308E+01 -0.41771970128E+02 -0.23200516279E+03  0.23583372385E+03  0.41800000000E+01 0. -1.
         -5    1    4    4    0  501 -0.22761844828E+02  0.48619383235E+02 -0.51073344334E+02  0.74215260611E+02  0.41800000000E+01 0. -1.
</event>
<event>
11    1  0.7105277E-009  0.1310846E+03  0.7561462E-02  0.1117944E+00
         22   -1    0    0    0    0  0.00000000000E+00  0.00000000000E+00  0.64794153681E+03  0.64794153681E+03  0.00000000000E+00 0.  1.
         22   -1    0    0    0    0 -0.00000000000E+00 -0.00000000000E+00 -0.49078536410E+03  0.49078536410E+03  0.00000000000E+00 0.  1.
         24    2    1    2    0    0  0.37523594653E+02 -0.89365485192E+01 -0.45495284024E+03  0.46358653491E+03  0.80265225671E+02 0.  0.
         25    2    1    2    0    0 -0.62300270672E+02  0.17073849873E+02  0.15183687228E+03  0.20706300246E+03  0.12509121123E+03 0.  0.
        -24    2    1    2    0    0  0.24776676019E+02 -0.81373013537E+01  0.46027214067E+03  0.46807736355E+03  0.81030089744E+02 0.  0.
        -11    1    3    3    0    0  0.32536055569E+01 -0.41438733161E+02 -0.19555782556E+03  0.19992653074E+03  0.00000000000E+00 0.  1.
         12    1    3    3    0    0  0.34269989096E+02  0.32502184641E+02 -0.25939501468E+03  0.26366000417E+03  0.00000000000E+00 0. -1.
         13    1    5    5    0    0  0.34064926149E+02  0.30286050814E+02  0.25038615003E+03  0.25450125381E+03  0.00000000000E+00 0. -1.
        -14    1    5    5    0    0 -0.92882501298E+01 -0.38423352167E+02  0.20988599064E+03  0.21357610974E+03  0.00000000000E+00 0.  1.
          5    1    4    4  501    0 -0.91838107577E+02 -0.78124970785E+01  0.13763514902E+03  0.16569906385E+03  0.41800000000E+01 0.  1.
         -5    1    4    4    0  501  0.29537836905E+02  0.24886346951E+02  0.14201723254E+02  0.41363938606E+02  0.41800000000E+01 0.  1.
</event>
<event>
11    1  0.7105277E-009  0.1662153E+03  0.7561462E-02  0.1081373E+00
         22   -1    0    0    0    0  0.00000000000E+00  0.00000000000E+00  0.42920828365E+03  0.42920828365E+03  0.00000000000E+00 0.  1.
         22   -1    0    0    0    0 -0.00000000000E+00 -0.00000000000E+00 -0.40588739823E+03  0.40588739823E+03  0.00000000000E+00 0.  1.
         24    2    1    2    0    0 -0.13268180959E+02 -0.63481796163E+02 -0.31856166154E+03  0.33510980802E+03  0.81308475324E+02 0.  0.
         25    2    1    2    0    0  0.10759295113E+03  0.18872733895E+00  0.43490901607E+02  0.17062941014E+03  0.12508660333E+03 0.  0.
        -24    2    1    2    0    0 -0.94324770167E+02  0.63293068824E+02  0.29839164536E+03  0.32935646372E+03  0.80838922220E+02 0.  0.
        -13    1    3    3    0    0  0.84893722726E+01 -0.74591669175E+02 -0.27607429926E+03  0.28609964220E+03  0.00000000000E+00 0.  1.
         14    1    3    3    0    0 -0.21757553231E+02  0.11109873011E+02 -0.42487362279E+02  0.49010165827E+02  0.00000000000E+00 0. -1.
         11    1    5    5    0    0  0.10301047355E+02 -0.68389467342E+01  0.16630375442E+02  0.20723227461E+02  0.00000000000E+00 0. -1.
        -12    1    5    5    0    0 -0.10462581752E+03  0.70132015558E+02  0.28176126992E+03  0.30863323626E+03  0.00000000000E+00 0.  1.
          5    1    4    4  501    0  0.12090285042E+03 -0.33903835746E+02  0.45791836060E+02  0.13372110517E+03  0.41800000000E+01 0.  1.
         -5    1    4    4    0  501 -0.13309899293E+02  0.34092563085E+02 -0.23009344527E+01  0.36908304977E+02  0.41800000000E+01 0.  1.
</event>
<event>
11    1  0.7105277E-009  0.1775235E+03  0.7561462E-02  0.1071664E+00
         22   -1    0    0    0    0  0.00000000000E+00  0.00000000000E+00  0.45721823039E+03  0.45721823039E+03  0.00000000000E+00 0.  1.
         22   -1    0    0    0    0 -0.00000000000E+00 -0.00000000000E+00 -0.92504779253E+03  0.92504779253E+03  0.00000000000E+00 0.  1.
        -24    2    1    2    0    0 -0.23043449229E+01  0.91068770556E+02 -0.83842147765E+03  0.84744713553E+03  0.83169960695E+02 0.  0.
         25    2    1    2    0    0  0.12650526103E+03 -0.53021815922E+02  0.71255461762E+02  0.19884325933E+03  0.12508559837E+03 0.  0.
         24    2    1    2    0    0 -0.12420091611E+03 -0.38046954634E+02  0.29933645374E+03  0.33597562806E+03  0.80024195041E+02 0.  0.
        -11    1    5    5    0    0 -0.11783047053E+03 -0.21691682649E+02  0.18572661807E+03  0.22101793037E+03  0.00000000000E+00 0.  1.
         12    1    5    5    0    0 -0.63704455755E+01 -0.16355271985E+02  0.11360983566E+03  0.11495769769E+03  0.00000000000E+00 0. -1.
         13    1    3    3    0    0 -0.24286889905E+02 -0.42025092349E+01 -0.13071975225E+03  0.13302318494E+03  0.00000000000E+00 0. -1.
        -14    1    3    3    0    0  0.21982544982E+02  0.95271279791E+02 -0.70770172540E+03  0.71442395059E+03  0.00000000000E+00 0.  1.
          5    1    4    4  501    0  0.10814207359E+03 -0.42073775256E+02 -0.82510650790E+01  0.11640645652E+03  0.41800000000E+01 0. -1.
         -5    1    4    4    0  501  0.18363187440E+02 -0.10948040666E+02  0.79506526841E+02  0.82436802811E+02  0.41800000000E+01 0. -1.
</event>
<event>
11    1  0.7105277E-009  0.1273333E+03  0.7561462E-02  0.1122590E+00
         22   -1    0    0    0    0  0.00000000000E+00  0.00000000000E+00  0.11073522253E+04  0.11073522253E+04  0.00000000000E+00 0.  1.
         22   -1    0    0    0    0 -0.00000000000E+00 -0.00000000000E+00 -0.10334667302E+03  0.10334667302E+03  0.00000000000E+00 0. -1.
         24    2    1    2    0    0  0.22641020422E+02  0.40765468155E+01 -0.41609980189E+02  0.93817209101E+02  0.80876722439E+02 0.  0.
         25    2    1    2    0    0 -0.26736706027E+02 -0.67793699118E+01  0.86985620352E+02  0.15483618969E+03  0.12508771397E+03 0.  0.
        -24    2    1    2    0    0  0.40956856057E+01  0.27028230963E+01  0.95862991212E+03  0.96204549954E+03  0.80846489579E+02 0.  0.
        -13    1    3    3    0    0  0.21455656912E+02 -0.30237793628E+02  0.33710521626E+01  0.37229469103E+02  0.00000000000E+00 0.  1.
         14    1    3    3    0    0  0.11853635096E+01  0.34314340443E+02 -0.44981032351E+02  0.56587739998E+02  0.00000000000E+00 0. -1.
         13    1    5    5    0    0  0.25004367023E+02  0.16472057720E+02  0.14643838892E+03  0.14946822005E+03  0.00000000000E+00 0. -1.
        -14    1    5    5    0    0 -0.20908681417E+02 -0.13769234624E+02  0.81219152320E+03  0.81257727949E+03  0.00000000000E+00 0.  1.
          5    1    4    4  501    0 -0.30089202510E+02 -0.14009992267E+02 -0.25454661862E+02  0.42036320028E+02  0.41800000000E+01 0.  1.
         -5    1    4    4    0  501  0.33524964824E+01  0.72306223547E+01  0.11244028221E+03  0.11279986967E+03  0.41800000000E+01 0.  1.
</event>
<event>
11    1  0.7105277E-009  0.1364110E+03  0.7561462E-02  0.1111634E+00
         22   -1    0    0    0    0  0.00000000000E+00  0.00000000000E+00  0.40105169830E+03  0.40105169830E+03  0.00000000000E+00 0. -1.
         22   -1    0    0    0    0 -0.00000000000E+00 -0.00000000000E+00 -0.88886117979E+03  0.88886117979E+03  0.00000000000E+00 0.  1.
        -24    2    1    2    0    0  0.23323436816E+02  0.49825278778E+02 -0.79001691049E+03  0.79570726608E+03  0.77438965056E+02 0.  0.
         25    2    1    2    0    0 -0.38713955145E+02 -0.29946690553E+02 -0.41268021422E+02  0.14052283096E+03  0.12509213337E+03 0.  0.
         24    2    1    2    0    0  0.15390518329E+02 -0.19878588225E+02  0.34347545043E+03  0.35368278105E+03  0.80523898592E+02 0.  0.
        -11    1    5    5    0    0  0.19090077704E+02 -0.44298160146E+02  0.12784091886E+03  0.13663842284E+03  0.00000000000E+00 0.  1.
         12    1    5    5    0    0 -0.36995593758E+01  0.24419571920E+02  0.21563453156E+03  0.21704435822E+03  0.00000000000E+00 0. -1.
         13    1    3    3    0    0  0.25610437219E+02 -0.99492362432E+01 -0.12389551028E+03  0.12690539494E+03  0.00000000000E+00 0. -1.
        -14    1    3    3    0    0 -0.22870004023E+01  0.59774515021E+02 -0.66612140021E+03  0.66880187114E+03  0.00000000000E+00 0.  1.
          5    1    4    4  501    0 -0.78657732325E+02 -0.70386048010E+01 -0.81268565113E+00  0.79086747752E+02  0.41800000000E+01 0.  1.
         -5    1    4    4    0  501  0.39943777180E+02 -0.22908085752E+02 -0.40455335771E+02  0.61436083213E+02  0.41800000000E+01 0.  1.
</event>
<event>
11    1  0.7105277E-009  0.2107025E+03  0.7561462E-02  0.1047203E+00
         22   -1    0    0    0    0  0.00000000000E+00  0.00000000000E+00  0.20195586711E+03  0.20195586711E+03  0.00000000000E+00 0.  1.
         22   -1    0    0    0    0 -0.00000000000E+00 -0.00000000000E+00 -0.11468995061E+04  0.11468995061E+04  0.00000000000E+00 0. -1.
         24    2    1    2    0    0 -0.29178707860E+01 -0.14615411995E+02 -0.93823457007E+03  0.94172796746E+03  0.79657592199E+02 0.  0.
         25    2    1    2    0    0  0.13576749346E+03  0.11323529467E+03 -0.41407583397E+02  0.22049341225E+03  0.12509081759E+03 0.  0.
        -24    2    1    2    0    0 -0.13284962267E+03 -0.98619882673E+02  0.34698514427E+02  0.18663399355E+03  0.79078171087E+02 0.  0.
        -13    1    3    3    0    0  0.21479917433E+02 -0.10485957132E+02 -0.89623541063E+02  0.92756246489E+02  0.00000000000E+00 0.  1.
         14    1    3    3    0    0 -0.24397788219E+02 -0.41294548627E+01 -0.84861102900E+03  0.84897172097E+03  0.00000000000E+00 0. -1.
         13    1    5    5    0    0 -0.64654600341E+02 -0.26607589450E+01  0.32891960071E+01  0.64792868387E+02  0.00000000000E+00 0. -1.
        -14    1    5    5    0    0 -0.68195022330E+02 -0.95959123728E+02  0.31409318420E+02  0.12184112516E+03  0.00000000000E+00 0.  1.
          5    1    4    4  501    0  0.15597307738E+03  0.11440196069E+03 -0.46961808559E+02  0.19909367981E+03  0.41800000000E+01 0. -1.
         -5    1    4    4    0  501 -0.20205583923E+02 -0.11666660238E+01  0.55542251622E+01  0.21399732439E+02  0.41800000000E+01 0. -1.
</event>
<event>
11    1  0.7105277E-009  0.1473557E+03  0.7561462E-02  0.1099612E+00
         22   -1    0    0    0    0  0.00000000000E+00  0.00000000000E+00  0.11211299057E+04  0.11211299057E+04  0.00000000000E+00 0. -1.
         22   -1    0    0    0    0 -0.00000000000E+00 -0.00000000000E+00 -0.27530024920E+04  0.27530024920E+04  0.00000000000E+00 0.  1.
        -24    2    1    2    0    0 -0.41295354441E+02 -0.57335516329E+02 -0.27277313940E+04  0.27298403415E+04  0.80728340763E+02 0.  0.
         25    2    1    2    0    0 -0.23999464033E+02 -0.29565011528E+01  0.17890277316E+03  0.21963060994E+03  0.12508671954E+03 0.  0.
         24    2    1    2    0    0  0.65294818474E+02  0.60292017482E+02  0.91695603450E+03  0.92466144626E+03  0.79321373596E+02 0.  0.
        -11    1    5    5    0    0  0.32239981393E+02  0.74323836379E+02  0.54704048846E+03  0.55300700273E+03  0.00000000000E+00 0.  1.
         12    1    5    5    0    0  0.33054837081E+02 -0.14031818897E+02  0.36991554604E+03  0.37165444354E+03  0.00000000000E+00 0. -1.
         13    1    3    3    0    0  0.13838371436E+02 -0.43901676045E+01 -0.12875378528E+04  0.12876197018E+04  0.00000000000E+00 0. -1.
        -14    1    3    3    0    0 -0.55133725877E+02 -0.52945348725E+02 -0.14401935412E+04  0.14422206397E+04  0.00000000000E+00 0.  1.
          5    1    4    4  501    0 -0.18408519716E+01 -0.40970549132E+02  0.16950196223E+03  0.17444300569E+03  0.41800000000E+01 0.  1.
         -5    1    4    4    0  501 -0.22158612061E+02  0.38014047979E+02  0.94008109277E+01  0.45187604256E+02  0.41800000000E+01 0.  1.
</event>
<event>
11    1  0.7105277E-009  0.2306716E+03  0.7561462E-02  0.1034731E+00
         22   -1    0    0    0    0  0.00000000000E+00  0.00000000000E+00  0.18074071055E+03  0.18074071055E+03  0.00000000000E+00 0. -1.
         22   -1    0    0    0    0 -0.00000000000E+00 -0.00000000000E+00 -0.51560262883E+03  0.51560262883E+03  0.00000000000E+00 0. -1.
         24    2    1    2    0    0  0.23657418477E+00 -0.58270429688E+02 -0.19548149539E+03  0.21867599642E+03  0.78807851299E+02 0.  0.
         25    2    1    2    0    0 -0.16732689925E+03  0.13548712383E+03 -0.12002632537E+03  0.27642311218E+03  0.12509343001E+03 0.  0.
        -24    2    1    2    0    0  0.16709032506E+03 -0.77216694144E+02 -0.19354097522E+02  0.20124423078E+03  0.79013066940E+02 0.  0.
        -13    1    3    3    0    0 -0.10557675702E+02 -0.14856804585E+02 -0.87443820777E-01  0.18226266900E+02  0.00000000000E+00 0.  1.
         14    1    3    3    0    0  0.10794249887E+02 -0.43413625104E+02 -0.19539405157E+03  0.20044972952E+03  0.00000000000E+00 0. -1.
         13    1    5    5    0    0  0.16905902205E+03 -0.83814736526E+02 -0.91276391666E+01  0.18891579286E+03  0.00000000000E+00 0. -1.
        -14    1    5    5    0    0 -0.19686969849E+01  0.65980423815E+01 -0.10226458356E+02  0.12328437922E+02  0.00000000000E+00 0.  1.
          5    1    4    4  501    0 -0.15442803282E+03  0.65228594979E+02 -0.11761846022E+03  0.20482763854E+03  0.41800000000E+01 0.  1.
         -5    1    4    4    0  501 -0.12898866422E+02  0.70258528853E+02 -0.24078651423E+01  0.71595473643E+02  0.41800000000E+01 0.  1.
</event>
<event>
11    1  0.7105277E-009  0.1468776E+03  0.7561462E-02  0.1100113E+00
         22   -1    0    0    0    0  0.00000000000E+00  0.00000000000E+00  0.20391916642E+04  0.20391916642E+04  0.00000000000E+00 0.  1.
         22   -1    0    0    0    0 -0.00000000000E+00 -0.00000000000E+00 -0.26820756277E+03  0.26820756277E+03  0.00000000000E+00 0.  1.
        -24    2    1    2    0    0  0.60756210016E+02  0.47395592619E+02 -0.24857864058E+03  0.27269350956E+03  0.81441699099E+02 0.  0.
         25    2    1    2    0    0 -0.37108261091E+02 -0.70024630365E+02  0.92653431586E+03  0.93829142837E+03  0.12507795244E+03 0.  0.
         24    2    1    2    0    0 -0.23647948924E+02  0.22629037746E+02  0.10930284261E+04  0.10964142890E+04  0.79635758399E+02 0.  0.
        -11    1    5    5    0    0 -0.40683380022E+02  0.34853565824E+02  0.97962729635E+03  0.98109099895E+03  0.00000000000E+00 0.  1.
         12    1    5    5    0    0  0.17035431098E+02 -0.12224528078E+02  0.11340112978E+03  0.11532329008E+03  0.00000000000E+00 0. -1.
         11    1    3    3    0    0  0.81677442016E+01 -0.22590951132E+02 -0.43072108083E+02  0.49318045512E+02  0.00000000000E+00 0. -1.
        -12    1    3    3    0    0  0.52588465814E+02  0.69986543751E+02 -0.20550653249E+03  0.22337546405E+03  0.00000000000E+00 0.  1.
          5    1    4    4  501    0 -0.83162264025E+02 -0.39190618118E+02  0.61281718720E+03  0.61968882839E+03  0.41800000000E+01 0.  1.
         -5    1    4    4    0  501  0.46054002933E+02 -0.30834012247E+02  0.31371712866E+03  0.31860259998E+03  0.41800000000E+01 0.  1.
</event>
<event>
11    1  0.7105277E-009  0.1811048E+03  0.7561462E-02  0.1068753E+00
         22   -1    0    0    0    0  0.00000000000E+00  0.00000000000E+00  0.19213588658E+03  0.19213588658E+03  0.00000000000E+00 0. -1.
         22   -1    0    0    0    0 -0.00000000000E+00 -0.00000000000E+00 -0.25280819801E+04  0.25280819801E+04  0.00000000000E+00 0. -1.
        -24    2    1    2    0    0 -0.18233405205E+02 -0.68128693261E+01 -0.19657216093E+04  0.19674916671E+04  0.81136567029E+02 0.  0.
         25    2    1    2    0    0  0.55545362622E+02  0.13162231016E+03 -0.51093897256E+03  0.54508155930E+03  0.12508218403E+03 0.  0.
         24    2    1    2    0    0 -0.37311957417E+02 -0.12480944084E+03  0.14071448840E+03  0.20764464023E+03  0.79662730825E+02 0.  0.
        -13    1    5    5    0    0  0.19376175736E+02 -0.16859130060E+02  0.68657307097E+01  0.26585799042E+02  0.00000000000E+00 0.  1.
         14    1    5    5    0    0 -0.56688133153E+02 -0.10795031077E+03  0.13384875769E+03  0.18105884119E+03  0.00000000000E+00 0. -1.
         13    1    3    3    0    0 -0.44267151665E+02  0.17702587039E+02 -0.11145694450E+04  0.11155886384E+04  0.00000000000E+00 0. -1.
        -14    1    3    3    0    0  0.26033746460E+02 -0.24515456365E+02 -0.85115216432E+03  0.85190302874E+03  0.00000000000E+00 0.  1.
          5    1    4    4  501    0  0.76867270912E+02  0.10942722453E+03 -0.26172331974E+03  0.29393785619E+03  0.41800000000E+01 0. -1.
         -5    1    4    4    0  501 -0.21321908291E+02  0.22195085631E+02 -0.24921565282E+03  0.25114370311E+03  0.41800000000E+01 0. -1.
</event>
<event>
11    1  0.7105277E-009  0.1383716E+03  0.7561462E-02  0.1109391E+00
         22   -1    0    0    0    0  0.00000000000E+00  0.00000000000E+00  0.19472163722E+03  0.19472163722E+03  0.00000000000E+00 0. -1.
         22   -1    0    0    0    0 -0.00000000000E+00 -0.00000000000E+00 -0.20544705888E+03  0.20544705888E+03  0.00000000000E+00 0.  1.
         24    2    1    2    0    0 -0.96686646668E+00 -0.21235940632E+01 -0.97293029094E+02  0.12593257464E+03  0.79922683661E+02 0.  0.
         25    2    1    2    0    0  0.59107045292E+02 -0.80185319922E+01 -0.53314329591E+01  0.13868482846E+03  0.12508843995E+03 0.  0.
        -24    2    1    2    0    0 -0.58140178825E+02  0.10142126055E+02  0.91899040391E+02  0.13555129300E+03  0.80284346504E+02 0.  0.
        -13    1    3    3    0    0  0.69433790089E+01 -0.38296578538E+02 -0.30060486102E+02  0.49177955066E+02  0.00000000000E+00 0.  1.
         14    1    3    3    0    0 -0.79102454756E+01  0.36172984475E+02 -0.67232542992E+02  0.76754619578E+02  0.00000000000E+00 0. -1.
         11    1    5    5    0    0 -0.77537800215E+02  0.15331550433E+02  0.78591864918E+02  0.11146231709E+03  0.00000000000E+00 0. -1.
        -12    1    5    5    0    0  0.19397621390E+02 -0.51894243772E+01  0.13307175474E+02  0.24088975903E+02  0.00000000000E+00 0.  1.
          5    1    4    4  501    0 -0.21368612346E+02 -0.10899777069E+02  0.39516850545E+02  0.46416339911E+02  0.41800000000E+01 0.  1.
         -5    1    4    4    0  501  0.80475657637E+02  0.28812450764E+01 -0.44848283504E+02  0.92268488546E+02  0.41800000000E+01 0.  1.
</event>
<event>
11    1  0.7105277E-009  0.2360796E+03  0.7561462E-02  0.1031588E+00
         22   -1    0    0    0    0  0.00000000000E+00  0.00000000000E+00  0.12402235996E+04  0.12402235996E+04  0.00000000000E+00 0.  1.
         22   -1    0    0    0    0 -0.00000000000E+00 -0.00000000000E+00 -0.11057199743E+03  0.11057199743E+03  0.00000000000E+00 0. -1.
        -24    2    1    2    0    0 -0.11142392226E+03  0.14741974921E+03  0.27504830474E+03  0.34084847699E+03  0.79863893053E+02 0.  0.
         25    2    1    2    0    0  0.16773093172E+03 -0.13150885209E+03  0.13168764394E+03  0.28003013523E+03  0.12508795879E+03 0.  0.
         24    2    1    2    0    0 -0.56307009456E+02 -0.15910897115E+02  0.72291565348E+03  0.72991698480E+03  0.82146982289E+02 0.  0.
        -11    1    5    5    0    0 -0.12674291568E+02 -0.78092912232E+01  0.58173991407E+03  0.58193036552E+03  0.00000000000E+00 0.  1.
         12    1    5    5    0    0 -0.43632717889E+02 -0.81016058920E+01  0.14117573941E+03  0.14798661928E+03  0.00000000000E+00 0. -1.
         11    1    3    3    0    0 -0.94732747549E+02  0.14921925854E+03  0.21410811934E+03  0.27763819504E+03  0.00000000000E+00 0. -1.
        -12    1    3    3    0    0 -0.16691174710E+02 -0.17995093299E+01  0.60940185400E+02  0.63210281946E+02  0.00000000000E+00 0.  1.
          5    1    4    4  501    0  0.14397270225E+03 -0.67536121490E+02  0.13902298853E+03  0.21126791152E+03  0.41800000000E+01 0. -1.
         -5    1    4    4    0  501  0.23758229470E+02 -0.63972730603E+02 -0.73353445955E+01  0.68762223704E+02  0.41800000000E+01 0. -1.
</event>
<event>
11    1  0.7105277E-009  0.1500227E+03  0.7561462E-02  0.1096856E+00
         22   -1    0    0    0    0  0.00000000000E+00  0.00000000000E+00  0.48712636603E+03  0.48712636603E+03  0.00000000000E+00 0. -1.
         22   -1    0    0    0    0 -0.00000000000E+00 -0.00000000000E+00 -0.99973375293E+03  0.99973375293E+03  0.00000000000E+00 0. -1.
         24    2    1    2    0    0  0.76158586045E+02 -0.34504871999E+02 -0.96716996961E+03  0.97409885499E+03  0.80374826618E+02 0.  0.
         25    2    1    2    0    0 -0.43761131665E+02 -0.13661786409E+02  0.19169938628E+03  0.23344809557E+03  0.12509067739E+03 0.  0.
        -24    2    1    2    0    0 -0.32397454380E+02  0.48166658408E+02  0.26286319643E+03  0.27931316840E+03  0.74492710871E+02 0.  0.
        -13    1    3    3    0    0 -0.13663910531E+02  0.27108453213E+01 -0.24739405366E+03  0.24778593366E+03  0.00000000000E+00 0.  1.
         14    1    3    3    0    0  0.89822496576E+02 -0.37215717320E+02 -0.71977591595E+03  0.72631292133E+03  0.00000000000E+00 0. -1.
         13    1    5    5    0    0 -0.18426232580E+02 -0.17584585432E+02  0.98407775581E+02  0.10165054838E+03  0.00000000000E+00 0. -1.
        -14    1    5    5    0    0 -0.13971221800E+02  0.65751243841E+02  0.16445542085E+03  0.17766262002E+03  0.00000000000E+00 0.  1.
          5    1    4    4  501    0 -0.56639955546E+02 -0.49024876370E+01  0.20485355846E+03  0.21263718340E+03  0.41800000000E+01 0. -1.
         -5    1    4    4    0  501  0.12878823881E+02 -0.87592987723E+01 -0.13154172179E+02  0.20810912168E+02  0.41800000000E+01 0. -1.
</event>
<event>
11    1  0.7105277E-009  0.1336806E+03  0.7561462E-02  0.1114828E+00
         22   -1    0    0    0    0  0.00000000000E+00  0.00000000000E+00  0.10072961838E+03  0.10072961838E+03  0.00000000000E+00 0. -1.
         22   -1    0    0    0    0 -0.00000000000E+00 -0.00000000000E+00 -0.12179159827E+04  0.12179159827E+04  0.00000000000E+00 0. -1.
         24    2    1    2    0    0 -0.35173295020E+02  0.11004094645E+02 -0.82795622017E+03  0.83266835081E+03  0.80416597422E+02 0.  0.
         25    2    1    2    0    0  0.77747060978E+02 -0.24501459462E+02 -0.34599605593E+03  0.37683601087E+03  0.12508869399E+03 0.  0.
        -24    2    1    2    0    0 -0.42573765958E+02  0.13497364817E+02  0.56765911806E+02  0.10914123937E+03  0.81821372415E+02 0.  0.
        -13    1    3    3    0    0 -0.47631047823E+02 -0.14501862304E+02 -0.31345771336E+03  0.31738739546E+03  0.00000000000E+00 0.  1.
         14    1    3    3    0    0  0.12457752803E+02  0.25505956949E+02 -0.51449850681E+03  0.51528095536E+03  0.00000000000E+00 0. -1.
         11    1    5    5    0    0  0.38124973273E+00 -0.23773653645E+02  0.45249929274E+02  0.51116416720E+02  0.00000000000E+00 0. -1.
        -12    1    5    5    0    0 -0.42955015691E+02  0.37271018462E+02  0.11515982531E+02  0.58024822652E+02  0.00000000000E+00 0.  1.
          5    1    4    4  501    0 -0.85962121673E+01 -0.32949424762E+02 -0.20533703661E+02  0.39983307040E+02  0.41800000000E+01 0.  1.
         -5    1    4    4    0  501  0.86343273145E+02  0.84479652999E+01 -0.32546235227E+03  0.33685270383E+03  0.41800000000E+01 0.  1.
</event>
<event>
11    1  0.7105277E-009  0.2716951E+03  0.7561462E-02  0.1012937E+00
         22   -1    0    0    0    0  0.00000000000E+00  0.00000000000E+00  0.19079934111E+04  0.19079934111E+04  0.00000000000E+00 0. -1.
         22   -1    0    0    0    0 -0.00000000000E+00 -0.00000000000E+00 -0.27595404866E+03  0.27595404866E+03  0.00000000000E+00 0.  1.
        -24    2    1    2    0    0 -0.21358614889E+03 -0.11601025619E+03 -0.19873136720E+03  0.32382930989E+03  0.79333745028E+02 0.  0.
         25    2    1    2    0    0  0.18207577196E+03  0.83728208738E+02  0.13675505272E+04  0.13878051972E+04  0.12508725519E+03 0.  0.
         24    2    1    2    0    0  0.31510376930E+02  0.32282047448E+02  0.46322020246E+03  0.47231295265E+03  0.80445850279E+02 0.  0.
        -11    1    5    5    0    0  0.49339050903E+02 -0.59313577404E+01  0.22940352640E+03  0.23472430823E+03  0.00000000000E+00 0.  1.
         12    1    5    5    0    0 -0.17828673973E+02  0.38213405188E+02  0.23381667606E+03  0.23758864442E+03  0.00000000000E+00 0. -1.
         13    1    3    3    0    0 -0.13175093062E+02  0.40574101436E+01 -0.37542715524E+02  0.39993763804E+02  0.00000000000E+00 0. -1.
        -14    1    3    3    0    0 -0.20041105583E+03 -0.12006766633E+03 -0.16118865167E+03  0.28383554609E+03  0.00000000000E+00 0.  1.
          5    1    4    4  501    0  0.14931729727E+03  0.11126854561E+03  0.12192797366E+04  0.12334248632E+04  0.41800000000E+01 0.  1.
         -5    1    4    4    0  501  0.32758474692E+02 -0.27540336867E+02  0.14827079054E+03  0.15438033407E+03  0.41800000000E+01 0.  1.
</event>
<event>
11    1  0.7105277E-009  0.1585511E+03  0.7561462E-02  0.1088448E+00
         22   -1    0    0    0    0  0.00000000000E+00  0.00000000000E+00  0.35512473454E+03  0.35512473454E+03  0.00000000000E+00 0.  1.
         22   -1    0    0    0    0 -0.00000000000E+00 -0.00000000000E+00 -0.93567933810E+03  0.93567933810E+03  0.00000000000E+00 0.  1.
         24    2    1    2    0    0 -0.61808160650E+00  0.98180834940E+02 -0.67836707904E+03  0.68995765804E+03  0.78865820201E+02 0.  0.
         25    2    1    2    0    0 -0.49294766648E+02 -0.91950186749E+02 -0.21774410514E+03  0.27192608493E+03  0.12508592837E+03 0.  0.
        -24    2    1    2    0    0  0.49912848255E+02 -0.62306481910E+01  0.31555658063E+03  0.32892032968E+03  0.77990475696E+02 0.  0.
        -11    1    3    3    0    0  0.31336360479E+02  0.15198331320E+02 -0.25380163558E+03  0.25618006750E+03  0.00000000000E+00 0.  1.
         12    1    3    3    0    0 -0.31954442086E+02  0.82982503620E+02 -0.42456544346E+03  0.43377759054E+03  0.00000000000E+00 0. -1.
         13    1    5    5    0    0  0.55436814875E+02 -0.10327538836E+02  0.11340179070E+03  0.12664858719E+03  0.00000000000E+00 0. -1.
        -14    1    5    5    0    0 -0.55239666205E+01  0.40968906450E+01  0.20215478992E+03  0.20227174249E+03  0.00000000000E+00 0.  1.
          5    1    4    4  501    0 -0.86812740031E+02 -0.80611370353E+02 -0.13115266402E+03  0.17678557221E+03  0.41800000000E+01 0. -1.
         -5    1    4    4    0  501  0.37517973383E+02 -0.11338816396E+02 -0.86591441126E+02  0.95140512718E+02  0.41800000000E+01 0. -1.
</event>
<event>
11    1  0.7105277E-009  0.2076284E+03  0.7561462E-02  0.1049257E+00
         22   -1    0    0    0    0  0.00000000000E+00  0.00000000000E+00  0.81695718106E+03  0.81695718106E+03  0.00000000000E+00 0.  1.
         22   -1    0    0    0    0 -0.00000000000E+00 -0.00000000000E+00 -0.22193134335E+03  0.22193134335E+03  0.00000000000E+00 0. -1.
         24    2    1    2    0    0 -0.64065309570E+02  0.84566323103E+02 -0.12385914900E+03  0.18122700549E+03  0.79033612051E+02 0.  0.
         25    2    1    2    0    0  0.19264408277E+03 -0.15025622182E+03  0.29387137851E+03  0.40211585608E+03  0.12509236500E+03 0.  0.
        -24    2    1    2    0    0 -0.12857877320E+03  0.65689898714E+02  0.42501360820E+03  0.45554566284E+03  0.77702123921E+02 0.  0.
        -11    1    3    3    0    0 -0.19189670251E+02  0.34726452125E+02  0.78713031774E+00  0.39683617472E+02  0.00000000000E+00 0.  1.
         12    1    3    3    0    0 -0.44875639319E+02  0.49839870979E+02 -0.12464627932E+03  0.14154338802E+03  0.00000000000E+00 0. -1.
         13    1    5    5    0    0 -0.28332889640E+02  0.23387656175E+02  0.22382096406E+03  0.22681613490E+03  0.00000000000E+00 0. -1.
        -14    1    5    5    0    0 -0.10024588356E+03  0.42302242539E+02  0.20119264414E+03  0.22872952793E+03  0.00000000000E+00 0.  1.
          5    1    4    4  501    0  0.13844275583E+03 -0.91335899951E+02  0.10348242826E+03  0.19553702622E+03  0.41800000000E+01 0. -1.
         -5    1    4    4    0  501  0.54201326940E+02 -0.58920321866E+02  0.19038895025E+03  0.20657882987E+03  0.41800000000E+01 0. -1.
</event>
<event>
11    1  0.7105277E-009  0.1582323E+03  0.7561462E-02  0.1088752E+00
         22   -1    0    0    0    0  0.00000000000E+00  0.00000000000E+00  0.31206544727E+03  0.31206544727E+03  0.00000000000E+00 0. -1.
         22   -1    0    0    0    0 -0.00000000000E+00 -0.00000000000E+00 -0.90323170595E+03  0.90323170595E+03  0.00000000000E+00 0. -1.
        -24    2    1    2    0    0 -0.42531990389E+02  0.39465651121E+02 -0.78022375091E+03  0.78664278001E+03  0.81800085721E+02 0.  0.
         25    2    1    2    0    0  0.22651038289E+02  0.61771717802E+02 -0.55189122275E+02  0.15174093403E+03  0.12510258665E+03 0.  0.
         24    2    1    2    0    0  0.19880952101E+02 -0.10123736892E+03  0.24424661451E+03  0.27691343918E+03  0.79877324552E+02 0.  0.
        -11    1    5    5    0    0 -0.26537649203E+02 -0.42614816838E+02  0.13916214959E+03  0.14794043841E+03  0.00000000000E+00 0.  1.
         12    1    5    5    0    0  0.46418601304E+02 -0.58622552086E+02  0.10508446492E+03  0.12897300077E+03  0.00000000000E+00 0. -1.
         13    1    3    3    0    0 -0.38205866154E+02  0.20904223027E+02 -0.74754355113E+03  0.74881108137E+03  0.00000000000E+00 0. -1.
        -14    1    3    3    0    0 -0.43261242355E+01  0.18561428094E+02 -0.32680199784E+02  0.37831698636E+02  0.00000000000E+00 0.  1.
          5    1    4    4  501    0  0.48269201945E+02 -0.11179426733E+02  0.97656908363E+01  0.50672838445E+02  0.41800000000E+01 0.  1.
         -5    1    4    4    0  501 -0.25618163657E+02  0.72951144535E+02 -0.64954813111E+02  0.10106809558E+03  0.41800000000E+01 0.  1.
</event>
<event>
11    1  0.7105277E-009  0.2133002E+03  0.7561462E-02  0.1045497E+00
         22   -1    0    0    0    0  0.00000000000E+00  0.00000000000E+00  0.34988409014E+03  0.34988409014E+03  0.00000000000E+00 0.  1.
         22   -1    0    0    0    0 -0.00000000000E+00 -0.00000000000E+00 -0.91051364076E+03  0.91051364076E+03  0.00000000000E+00 0.  1.
        -24    2    1    2    0    0 -0.45753404430E+02 -0.16442185694E+03 -0.75030240764E+03  0.77374980450E+03  0.81284291226E+02 0.  0.
         25    2    1    2    0    0  0.11981183561E+02  0.19298380528E+03 -0.46729332632E+02  0.23498292026E+03  0.12508814663E+03 0.  0.
         24    2    1    2    0    0  0.33772220869E+02 -0.28561948341E+02  0.23640218966E+03  0.25166500614E+03  0.74114318750E+02 0.  0.
        -13    1    5    5    0    0 -0.35085225715E+01 -0.16402598021E+02  0.19073872126E+03  0.19147484101E+03  0.00000000000E+00 0.  1.
         14    1    5    5    0    0  0.37280743440E+02 -0.12159350319E+02  0.45663468394E+02  0.60190165122E+02  0.00000000000E+00 0. -1.
         13    1    3    3    0    0 -0.28282621556E+02 -0.32618689001E+02 -0.85489973253E+02  0.95772757510E+02  0.00000000000E+00 0. -1.
        -14    1    3    3    0    0 -0.17470782874E+02 -0.13180316794E+03 -0.66481243438E+03  0.67797704699E+03  0.00000000000E+00 0.  1.
          5    1    4    4  501    0 -0.32148124554E+02  0.19975644318E+00 -0.83891926151E+01  0.33487203044E+02  0.41800000000E+01 0. -1.
         -5    1    4    4    0  501  0.44129308115E+02  0.19278404884E+03 -0.38340140017E+02  0.20149571722E+03  0.41800000000E+01 0. -1.
</event>
<event>
11    1  0.7105277E-009  0.1593125E+03  0.7561462E-02  0.1087726E+00
         22   -1    0    0    0    0  0.00000000000E+00  0.00000000000E+00  0.14962292413E+04  0.14962292413E+04  0.00000000000E+00 0.  1.
         22   -1    0    0    0    0 -0.00000000000E+00 -0.00000000000E+00 -0.65526154178E+03  0.65526154178E+03  0.00000000000E+00 0. -1.
        -24    2    1    2    0    0  0.38203559100E+02  0.74534205379E+02 -0.62066322082E+03  0.63150534491E+03  0.81001896757E+02 0.  0.
         25    2    1    2    0    0 -0.97592793794E+02  0.94741779973E+01  0.21984450974E+03  0.27127544178E+03  0.12507854893E+03 0.  0.
         24    2    1    2    0    0  0.59389234694E+02 -0.84008383376E+02  0.12417864106E+04  0.12487099964E+04  0.81600709718E+02 0.  0.
        -11    1    5    5    0    0  0.73009140880E+02 -0.70566353328E+02  0.11706309529E+04  0.11750262860E+04  0.00000000000E+00 0.  1.
         12    1    5    5    0    0 -0.13619906186E+02 -0.13442030049E+02  0.71155457711E+02  0.73683710401E+02  0.00000000000E+00 0. -1.
         13    1    3    3    0    0  0.68233563876E+01  0.57552063222E+02 -0.54245752653E+03  0.54554465103E+03  0.00000000000E+00 0. -1.
        -14    1    3    3    0    0  0.31380202712E+02  0.16982142157E+02 -0.78205694285E+02  0.85960693884E+02  0.00000000000E+00 0.  1.
          5    1    4    4  501    0 -0.76211075898E+02  0.16200462945E+02  0.35840041233E+02  0.85863636336E+02  0.41800000000E+01 0.  1.
         -5    1    4    4    0  501 -0.21381717896E+02 -0.67262849479E+01  0.18400446851E+03  0.18541180545E+03  0.41800000000E+01 0.  1.
</event>
<event>
11    1  0.7105277E-009  0.1717244E+03  0.7561462E-02  0.1076541E+00
         22   -1    0    0    0    0  0.00000000000E+00  0.00000000000E+00  0.25417618376E+04  0.25417618376E+04  0.00000000000E+00 0.  1.
         22   -1    0    0    0    0 -0.00000000000E+00 -0.00000000000E+00 -0.52045703384E+03  0.52045703384E+03  0.00000000000E+00 0. -1.
         24    2    1    2    0    0  0.25348426836E+02 -0.20181155512E+02 -0.45627417692E+03  0.46480897729E+03  0.82531442898E+02 0.  0.
         25    2    1    2    0    0  0.91683934105E+02  0.62229804245E+00  0.46268140061E+02  0.16184698372E+03  0.12508946529E+03 0.  0.
        -24    2    1    2    0    0 -0.11703236094E+03  0.19558857469E+02  0.24313108406E+04  0.24355629104E+04  0.81333661877E+02 0.  0.
        -11    1    3    3    0    0 -0.20635821980E+02 -0.21439376513E+02 -0.73724082454E+02  0.79502983263E+02  0.00000000000E+00 0.  1.
         12    1    3    3    0    0  0.45984248816E+02  0.12582210007E+01 -0.38255009446E+03  0.38530599403E+03  0.00000000000E+00 0. -1.
         13    1    5    5    0    0 -0.15346631671E+02 -0.27722569006E+02  0.51614849751E+03  0.51712022917E+03  0.00000000000E+00 0. -1.
        -14    1    5    5    0    0 -0.10168572927E+03  0.47281426476E+02  0.19151623431E+04  0.19184426812E+04  0.00000000000E+00 0.  1.
          5    1    4    4  501    0  0.12271943755E+03  0.55745915322E+01  0.31603565593E+02  0.12691490922E+03  0.41800000000E+01 0. -1.
         -5    1    4    4    0  501 -0.31035503445E+02 -0.49522934897E+01  0.14664574468E+02  0.34932074505E+02  0.41800000000E+01 0. -1.
</event>
<event>
11    1  0.7105277E-009  0.1331405E+03  0.7561462E-02  0.1115469E+00
         22   -1    0    0    0    0  0.00000000000E+00  0.00000000000E+00  0.13443313468E+04  0.13443313468E+04  0.00000000000E+00 0.  1.
         22   -1    0    0    0    0 -0.00000000000E+00 -0.00000000000E+00 -0.15522910828E+03  0.15522910828E+03  0.00000000000E+00 0.  1.
        -24    2    1    2    0    0 -0.33689574414E+02 -0.28893400129E+02 -0.12303313248E+03  0.15537269351E+03  0.83867193860E+02 0.  0.
         25    2    1    2    0    0  0.60587287404E+02  0.42013508647E+02  0.36113951260E+03  0.38923841874E+03  0.12509534269E+03 0.  0.
         24    2    1    2    0    0 -0.26897712990E+02 -0.13120108518E+02  0.95099585839E+03  0.95494934283E+03  0.81483129975E+02 0.  0.
        -13    1    5    5    0    0 -0.19497355166E+02 -0.12524729017E+02  0.94532004879E+03  0.94560404522E+03  0.00000000000E+00 0.  1.
         14    1    5    5    0    0 -0.74003578239E+01 -0.59537950082E+00  0.56758096057E+01  0.93452976064E+01  0.00000000000E+00 0. -1.
         11    1    3    3    0    0  0.10625714123E+02  0.21091502393E+02 -0.55818444854E+02  0.60609042722E+02  0.00000000000E+00 0. -1.
        -12    1    3    3    0    0 -0.44315288537E+02 -0.49984902522E+02 -0.67214687624E+02  0.94763650788E+02  0.00000000000E+00 0.  1.
          5    1    4    4  501    0  0.32801919422E+02  0.83685276024E+02  0.17974428594E+03  0.20100913430E+03  0.41800000000E+01 0. -1.
         -5    1    4    4    0  501  0.27785367982E+02 -0.41671767377E+02  0.18139522666E+03  0.18822928445E+03  0.41800000000E+01 0. -1.
</event>
<event>
11    1  0.7105277E-009  0.1606906E+03  0.7561462E-02  0.1086430E+00
         22   -1    0    0    0    0  0.00000000000E+00  0.00000000000E+00  0.10515635568E+04  0.10515635568E+04  0.00000000000E+00 0.  1.
         22   -1    0    0    0    0 -0.00000000000E+00 -0.00000000000E+00 -0.17982996230E+03  0.17982996230E+03  0.00000000000E+00 0.  1.
        -24    2    1    2    0    0  0.21269648740E+02  0.36557300630E+02 -0.10783728122E+03  0.14042193673E+03  0.79376362394E+02 0.  0.
         25    2    1    2    0    0  0.40603463479E+02 -0.11452686608E+03  0.97780122071E+02  0.19993205536E+03  0.12508729027E+03 0.  0.
         24    2    1    2    0    0 -0.61873112219E+02  0.77969565453E+02  0.88179075366E+03  0.89103952702E+03  0.80554145281E+02 0.  0.
        -11    1    5    5    0    0 -0.40011614396E+02  0.89012510564E+02  0.57052457951E+03  0.57881124052E+03  0.00000000000E+00 0.  1.
         12    1    5    5    0    0 -0.21861497822E+02 -0.11042945111E+02  0.31126617415E+03  0.31222828650E+03  0.00000000000E+00 0. -1.
         11    1    3    3    0    0  0.26761022076E+02 -0.18849267485E+02 -0.52867331461E+02  0.62180398222E+02  0.00000000000E+00 0. -1.
        -12    1    3    3    0    0 -0.54913733358E+01  0.55406568116E+02 -0.54969949764E+02  0.78241538510E+02  0.00000000000E+00 0.  1.
          5    1    4    4  501    0 -0.22560200236E+02 -0.10639028906E+03  0.47809870765E+02  0.11887435545E+03  0.41800000000E+01 0. -1.
         -5    1    4    4    0  501  0.63163663715E+02 -0.81365770271E+01  0.49970251306E+02  0.81057699913E+02  0.41800000000E+01 0. -1.
</event>
<event>
11    1  0.7105277E-009  0.1292137E+03  0.7561462E-02  0.1120239E+00
         22   -1    0    0    0    0  0.00000000000E+00  0.00000000000E+00  0.18991309405E+03  0.18991309405E+03  0.00000000000E+00 0.  1.
         22   -1    0    0    0    0 -0.00000000000E+00 -0.00000000000E+00 -0.90719809127E+03  0.90719809127E+03  0.00000000000E+00 0.  1.
        -24    2    1    2    0    0 -0.44728376259E+01  0.12057628137E+02 -0.65525489188E+03  0.65988632668E+03  0.76977906837E+02 0.  0.
         25    2    1    2    0    0 -0.17431959854E+02 -0.35562457208E+02 -0.22071771922E+03  0.25677281347E+03  0.12508958618E+03 0.  0.
         24    2    1    2    0    0  0.21904797480E+02  0.23504829070E+02  0.15868761388E+03  0.18045204516E+03  0.79679888697E+02 0.  0.
        -11    1    5    5    0    0  0.46065606627E+02  0.35391122636E+02  0.11993908616E+03  0.13326648515E+03  0.00000000000E+00 0.  1.
         12    1    5    5    0    0 -0.24160809148E+02 -0.11886293566E+02  0.38748527722E+02  0.47185560016E+02  0.00000000000E+00 0. -1.
         13    1    3    3    0    0 -0.29606969225E+02  0.13486036136E+02 -0.12933047751E+03  0.13335973234E+03  0.00000000000E+00 0. -1.
        -14    1    3    3    0    0  0.25134131599E+02 -0.14284079988E+01 -0.52592441437E+03  0.52652659434E+03  0.00000000000E+00 0.  1.
          5    1    4    4  501    0  0.38755565874E+02  0.26691790443E+02 -0.80074737097E+02  0.92972477026E+02  0.41800000000E+01 0. -1.
         -5    1    4    4    0  501 -0.56187525728E+02 -0.62254247651E+02 -0.14064298212E+03  0.16380033644E+03  0.41800000000E+01 0. -1.
</event>
<event>
11    1  0.7105277E-009  0.1877855E+03  0.7561462E-02  0.1063514E+00
         22   -1    0    0    0    0  0.00000000000E+00  0.00000000000E+00  0.11065224293E+04  0.11065224293E+04  0.00000000000E+00 0. -1.
         22   -1    0    0    0    0 -0.00000000000E+00 -0.00000000000E+00 -0.35831813968E+03  0.35831813968E+03  0.00000000000E+00 0. -1.
         24    2    1    2    0    0 -0.39109589448E+02  0.40516439390E+02 -0.20564603801E+03  0.22790279215E+03  0.80487563490E+02 0.  0.
         25    2    1    2    0    0  0.12985714493E+03 -0.14384196121E+03 -0.36781195124E+02  0.23357227658E+03  0.12509901750E+03 0.  0.
        -24    2    1    2    0    0 -0.90747555481E+02  0.10332552182E+03  0.99063152273E+03  0.10033655002E+04  0.80499881495E+02 0.  0.
        -13    1    3    3    0    0 -0.11766156312E+02  0.10741105949E+02  0.22706554516E+01  0.16092534529E+02  0.00000000000E+00 0.  1.
         14    1    3    3    0    0 -0.27343433136E+02  0.29775333440E+02 -0.20791669346E+03  0.21181025763E+03  0.00000000000E+00 0. -1.
         11    1    5    5    0    0 -0.94093190441E+02  0.69712941785E+02  0.87808369578E+03  0.88585800190E+03  0.00000000000E+00 0. -1.
        -12    1    5    5    0    0  0.33456349599E+01  0.33612580033E+02  0.11254782695E+03  0.11750749832E+03  0.00000000000E+00 0.  1.
          5    1    4    4  501    0  0.91257746259E+02 -0.11747727218E+03  0.30137372512E+02  0.15183747677E+03  0.41800000000E+01 0. -1.
         -5    1    4    4    0  501  0.38599398670E+02 -0.26364689028E+02 -0.66918567636E+02  0.81734799808E+02  0.41800000000E+01 0. -1.
</event>
<event>
11    1  0.7105277E-009  0.1291668E+03  0.7561462E-02  0.1120297E+00
         22   -1    0    0    0    0  0.00000000000E+00  0.00000000000E+00  0.15519309955E+03  0.15519309955E+03  0.00000000000E+00 0.  1.
         22   -1    0    0    0    0 -0.00000000000E+00 -0.00000000000E+00 -0.13047715380E+04  0.13047715380E+04  0.00000000000E+00 0.  1.
        -24    2    1    2    0    0 -0.28001590589E+02  0.14375968052E+02 -0.11514434681E+04  0.11546718214E+04  0.80338019099E+02 0.  0.
         25    2    1    2    0    0  0.41393947879E+02 -0.22092826760E+02 -0.10487090925E+03  0.16984175311E+03  0.12508701602E+03 0.  0.
         24    2    1    2    0    0 -0.13392357290E+02  0.77168587077E+01  0.10673593897E+03  0.13545106300E+03  0.81948304785E+02 0.  0.
        -13    1    5    5    0    0 -0.36340920240E+02  0.27640536159E+02  0.89599287215E+02  0.10056189135E+03  0.00000000000E+00 0.  1.
         14    1    5    5    0    0  0.22948562951E+02 -0.19923677451E+02  0.17136651757E+02  0.34889171645E+02  0.00000000000E+00 0. -1.
         11    1    3    3    0    0 -0.25519805824E+02 -0.29028785257E+02 -0.36831740782E+03  0.37033990302E+03  0.00000000000E+00 0. -1.
        -12    1    3    3    0    0 -0.24817847648E+01  0.43404753310E+02 -0.78312606032E+03  0.78433191840E+03  0.00000000000E+00 0.  1.
          5    1    4    4  501    0 -0.34954289368E+01 -0.13933258290E+02 -0.12050618953E+03  0.12143132967E+03  0.41800000000E+01 0. -1.
         -5    1    4    4    0  501  0.44889376815E+02 -0.81595684696E+01  0.15635280278E+02  0.48410423442E+02  0.41800000000E+01 0. -1.
</event>
<event>
11    1  0.7105277E-009  0.1607858E+03  0.7561462E-02  0.1086341E+00
         22   -1    0    0    0    0  0.00000000000E+00  0.00000000000E+00  0.17147585060E+03  0.17147585060E+03  0.00000000000E+00 0.  1.
         22   -1    0    0    0    0 -0.00000000000E+00 -0.00000000000E+00 -0.11261422411E+04  0.11261422411E+04  0.00000000000E+00 0. -1.
         24    2    1    2    0    0  0.95193042995E+02  0.23324778064E+02 -0.75875039965E+03  0.76849802700E+03  0.72672469535E+02 0.  0.
         25    2    1    2    0    0 -0.92577547186E+02 -0.93481250018E+02 -0.31304252486E+03  0.36187439500E+03  0.12509240199E+03 0.  0.
        -24    2    1    2    0    0 -0.26154958084E+01  0.70156471954E+02  0.11712653402E+03  0.16724566968E+03  0.96559399754E+02 0.  0.
        -11    1    3    3    0    0 -0.48188033429E+01  0.13057069680E+02 -0.32969341957E+02  0.35786665720E+02  0.00000000000E+00 0.  1.
         12    1    3    3    0    0  0.10001184634E+03  0.10267708384E+02 -0.72578105769E+03  0.73271136128E+03  0.00000000000E+00 0. -1.
         13    1    5    5    0    0 -0.47864471252E+02  0.27697507994E+02  0.39966913899E+02  0.68231325386E+02  0.00000000000E+00 0. -1.
        -14    1    5    5    0    0  0.45248975444E+02  0.42458963959E+02  0.77159620123E+02  0.99014344298E+02  0.00000000000E+00 0.  1.
          5    1    4    4  501    0 -0.69192478068E+02  0.13623505839E+02 -0.10286776889E+03  0.12478961980E+03  0.41800000000E+01 0.  1.
         -5    1    4    4    0  501 -0.23385069118E+02 -0.10710475586E+03 -0.21017475597E+03  0.23708477520E+03  0.41800000000E+01 0.  1.
</event>
<event>
11    1  0.7105277E-009  0.1652216E+03  0.7561462E-02  0.1082267E+00
         22   -1    0    0    0    0  0.00000000000E+00  0.00000000000E+00  0.78844540150E+03  0.78844540150E+03  0.00000000000E+00 0.  1.
         22   -1    0    0    0    0 -0.00000000000E+00 -0.00000000000E+00 -0.21544078726E+03  0.21544078726E+03  0.00000000000E+00 0. -1.
        -24    2    1    2    0    0  0.39993954451E+02  0.97284960619E+02 -0.12809647139E+03  0.18389316472E+03  0.79649922124E+02 0.  0.
         25    2    1    2    0    0 -0.40823203360E+02 -0.11412295242E+03  0.76587905285E+02  0.19027364957E+03  0.12509105597E+03 0.  0.
         24    2    1    2    0    0  0.82924890889E+00  0.16837991802E+02  0.62451318034E+03  0.62971937447E+03  0.79028934832E+02 0.  0.
        -13    1    5    5    0    0  0.31749357945E+01  0.30053792537E+02  0.60651441013E+03  0.60726686091E+03  0.00000000000E+00 0.  1.
         14    1    5    5    0    0 -0.23456868856E+01 -0.13215800735E+02  0.17998770207E+02  0.22452513556E+02  0.00000000000E+00 0. -1.
         13    1    3    3    0    0  0.62502054410E+02  0.69934944768E+02 -0.10846897739E+03  0.14339777670E+03  0.00000000000E+00 0. -1.
        -14    1    3    3    0    0 -0.22508099959E+02  0.27350015851E+02 -0.19627493997E+02  0.40495388026E+02  0.00000000000E+00 0.  1.
          5    1    4    4  501    0 -0.65918948146E+02 -0.93500656792E+02  0.98374304872E+02  0.15093924872E+03  0.41800000000E+01 0. -1.
         -5    1    4    4    0  501  0.25095744786E+02 -0.20622295629E+02 -0.21786399587E+02  0.39334400852E+02  0.41800000000E+01 0. -1.
</event>
<event>
11    1  0.7105277E-009  0.1580395E+03  0.7561462E-02  0.1088936E+00
         22   -1    0    0    0    0  0.00000000000E+00  0.00000000000E+00  0.42928821677E+03  0.42928821677E+03  0.00000000000E+00 0.  1.
         22   -1    0    0    0    0 -0.00000000000E+00 -0.00000000000E+00 -0.69054258624E+03  0.69054258624E+03  0.00000000000E+00 0. -1.
         24    2    1    2    0    0 -0.36666136351E+02 -0.91961732138E+02 -0.40503908468E+03  0.42477190365E+03  0.81074930038E+02 0.  0.
         25    2    1    2    0    0  0.75713468494E+02  0.64002653013E+02 -0.24667740945E+03  0.29381183443E+03  0.12508709292E+03 0.  0.
        -24    2    1    2    0    0 -0.39047332143E+02  0.27959079125E+02  0.39046212467E+03  0.40124706493E+03  0.78943853815E+02 0.  0.
        -13    1    3    3    0    0  0.26134523385E+02 -0.28891578475E+02 -0.12384743568E+03  0.12983036603E+03  0.00000000000E+00 0.  1.
         14    1    3    3    0    0 -0.62800659736E+02 -0.63070153663E+02 -0.28119164900E+03  0.29494153762E+03  0.00000000000E+00 0. -1.
         11    1    5    5    0    0  0.51726328599E+01  0.24310409257E+02  0.34446771481E+02  0.42477431589E+02  0.00000000000E+00 0. -1.
        -12    1    5    5    0    0 -0.44219965003E+02  0.36486698680E+01  0.35601535319E+03  0.35876963334E+03  0.00000000000E+00 0.  1.
          5    1    4    4  501    0 -0.32572769635E+02  0.52004246276E+01 -0.31423313405E+02  0.45748516515E+02  0.41800000000E+01 0.  1.
         -5    1    4    4    0  501  0.10828623813E+03  0.58802228385E+02 -0.21525409605E+03  0.24806331792E+03  0.41800000000E+01 0.  1.
</event>
<event>
11    1  0.7105277E-009  0.1451863E+03  0.7561462E-02  0.1101901E+00
         22   -1    0    0    0    0  0.00000000000E+00  0.00000000000E+00  0.74610744745E+02  0.74610744745E+02  0.00000000000E+00 0.  1.
         22   -1    0    0    0    0 -0.00000000000E+00 -0.00000000000E+00 -0.12379078190E+04  0.12379078190E+04  0.00000000000E+00 0.  1.
        -24    2    1    2    0    0  0.61057577947E+02 -0.57159139790E+02 -0.88493602701E+03  0.89224123895E+03  0.77378688898E+02 0.  0.
         25    2    1    2    0    0 -0.28342587506E+01  0.45121714422E+02 -0.29028011783E+03  0.31930228979E+03  0.12508958119E+03 0.  0.
         24    2    1    2    0    0 -0.58223319196E+02  0.12037425368E+02  0.11919070603E+02  0.10097503499E+03  0.80740565636E+02 0.  0.
        -11    1    5    5    0    0 -0.15691976628E+01  0.18551720404E+02  0.34848863330E+02  0.39510403524E+02  0.00000000000E+00 0.  1.
         12    1    5    5    0    0 -0.56654121534E+02 -0.65142950359E+01 -0.22929792727E+02  0.61464631465E+02  0.00000000000E+00 0. -1.
         13    1    3    3    0    0  0.10026507413E+02  0.18838636388E+02 -0.12458775183E+03  0.12640226651E+03  0.00000000000E+00 0. -1.
        -14    1    3    3    0    0  0.51031070535E+02 -0.75997776177E+02 -0.76034827518E+03  0.76583897244E+03  0.00000000000E+00 0.  1.
          5    1    4    4  501    0  0.13477480932E+02 -0.28444060285E+02 -0.19591255573E+03  0.19846891180E+03  0.41800000000E+01 0. -1.
         -5    1    4    4    0  501 -0.16311739683E+02  0.73565774707E+02 -0.94367562099E+02  0.12083337799E+03  0.41800000000E+01 0. -1.
</event>
<event>
11    1  0.7105277E-009  0.1446270E+03  0.7561462E-02  0.1102499E+00
         22   -1    0    0    0    0  0.00000000000E+00  0.00000000000E+00  0.38340175112E+03  0.38340175112E+03  0.00000000000E+00 0. -1.
         22   -1    0    0    0    0 -0.00000000000E+00 -0.00000000000E+00 -0.37556984245E+03  0.37556984245E+03  0.00000000000E+00 0. -1.
         24    2    1    2    0    0  0.47281103427E+01 -0.79498637132E+00 -0.29435503306E+03  0.30631460345E+03  0.84621296208E+02 0.  0.
         25    2    1    2    0    0  0.62859517088E+02  0.29437020431E+02  0.25205716599E+02  0.14526097488E+03  0.12509022988E+03 0.  0.
        -24    2    1    2    0    0 -0.67587627430E+02 -0.28642034060E+02  0.27698122513E+03  0.30739601524E+03  0.11128907230E+03 0.  0.
        -11    1    3    3    0    0 -0.18030953796E+02 -0.28211364754E+02 -0.55504334147E+02  0.64820733606E+02  0.00000000000E+00 0.  1.
         12    1    3    3    0    0  0.22759064138E+02  0.27416378383E+02 -0.23885069891E+03  0.24149386985E+03  0.00000000000E+00 0. -1.
         13    1    5    5    0    0  0.13603691204E+02 -0.13793603104E+02  0.17559684489E+03  0.17666232149E+03  0.00000000000E+00 0. -1.
        -14    1    5    5    0    0 -0.81191318635E+02 -0.14848430956E+02  0.10138438025E+03  0.13073369375E+03  0.00000000000E+00 0.  1.
          5    1    4    4  501    0  0.35190122170E+02 -0.39476978042E+02 -0.21712106733E+02  0.57320715910E+02  0.41800000000E+01 0.  1.
         -5    1    4    4    0  501  0.27669394917E+02  0.68913998474E+02  0.46917823332E+02  0.87940258966E+02  0.41800000000E+01 0.  1.
</event>
<event>
11    1  0.7105277E-009  0.1409896E+03  0.7561462E-02  0.1106458E+00
         22   -1    0    0    0    0  0.00000000000E+00  0.00000000000E+00  0.59057241975E+03  0.59057241975E+03  0.00000000000E+00 0.  1.
         22   -1    0    0    0    0 -0.00000000000E+00 -0.00000000000E+00 -0.27582028136E+03  0.27582028136E+03  0.00000000000E+00 0.  1.
         24    2    1    2    0    0 -0.57452967263E+01  0.42964537541E+01 -0.82933597715E+02  0.11578828170E+03  0.80482772065E+02 0.  0.
         25    2    1    2    0    0 -0.23718983229E+02  0.53901561323E+02 -0.14329822083E+03  0.19912350771E+03  0.12509125769E+03 0.  0.
        -24    2    1    2    0    0  0.29464279956E+02 -0.58198015077E+02  0.54098395694E+03  0.55148091171E+03  0.84925859200E+02 0.  0.
        -11    1    3    3    0    0 -0.80872323744E+01  0.24118516113E+02 -0.90828650077E+02  0.94323644023E+02  0.00000000000E+00 0.  1.
         12    1    3    3    0    0  0.23419356482E+01 -0.19822062359E+02  0.78950523616E+01  0.21464637675E+02  0.00000000000E+00 0. -1.
         13    1    5    5    0    0 -0.23952842502E+02 -0.11179285106E+02  0.64407508912E+02  0.69620702982E+02  0.00000000000E+00 0. -1.
        -14    1    5    5    0    0  0.53417122458E+02 -0.47018729971E+02  0.47657644803E+03  0.48186020873E+03  0.00000000000E+00 0.  1.
          5    1    4    4  501    0  0.65111061083E+01 -0.39014302866E+02 -0.32734320452E+02  0.51512313735E+02  0.41800000000E+01 0.  1.
         -5    1    4    4    0  501 -0.30230089338E+02  0.92915864189E+02 -0.11056390038E+03  0.14761119397E+03  0.41800000000E+01 0.  1.
</event>
<event>
11    1  0.7105277E-009  0.2523160E+03  0.7561462E-02  0.1022673E+00
         22   -1    0    0    0    0  0.00000000000E+00  0.00000000000E+00  0.54518042036E+03  0.54518042036E+03  0.00000000000E+00 0. -1.
         22   -1    0    0    0    0 -0.00000000000E+00 -0.00000000000E+00 -0.14848684476E+04  0.14848684476E+04  0.00000000000E+00 0. -1.
        -24    2    1    2    0    0 -0.12149553155E+03 -0.17049637372E+03 -0.95470765280E+03  0.98065260112E+03  0.79891452150E+02 0.  0.
         25    2    1    2    0    0  0.13964167717E+03  0.20410317154E+03 -0.47589222606E+03  0.55071024980E+03  0.12510182163E+03 0.  0.
         24    2    1    2    0    0 -0.18146145620E+02 -0.33606797819E+02  0.49091185158E+03  0.49868601709E+03  0.78959471640E+02 0.  0.
        -11    1    5    5    0    0 -0.14348608812E+02  0.73547716096E+01  0.18723898726E+02  0.24709504725E+02  0.00000000000E+00 0.  1.
         12    1    5    5    0    0 -0.37975368085E+01 -0.40961569429E+02  0.47218795285E+03  0.47397651237E+03  0.00000000000E+00 0. -1.
         11    1    3    3    0    0 -0.49671523033E+02 -0.12540067761E+03 -0.67611869915E+03  0.68944113997E+03  0.00000000000E+00 0. -1.
        -12    1    3    3    0    0 -0.71824008517E+02 -0.45095696106E+02 -0.27858895365E+03  0.29121146115E+03  0.00000000000E+00 0.  1.
          5    1    4    4  501    0  0.95343148685E+01  0.11234950363E+03 -0.14721674508E+03  0.18548195750E+03  0.41800000000E+01 0. -1.
         -5    1    4    4    0  501  0.13010736230E+03  0.91753667912E+02 -0.32867548099E+03  0.36522829231E+03  0.41800000000E+01 0. -1.
</event>
<event>
11    1  0.7105277E-009  0.1544588E+03  0.7561462E-02  0.1092408E+00
         22   -1    0    0    0    0  0.00000000000E+00  0.00000000000E+00  0.14760009456E+04  0.14760009456E+04  0.00000000000E+00 0. -1.
         22   -1    0    0    0    0 -0.00000000000E+00 -0.00000000000E+00 -0.23177347139E+04  0.23177347139E+04  0.00000000000E+00 0. -1.
         24    2    1    2    0    0  0.89016341965E+02  0.18008104138E+02 -0.23029958062E+04  0.23062186045E+04  0.81279563096E+02 0.  0.
         25    2    1    2    0    0 -0.35955822739E+02 -0.16948359871E+02  0.38230118578E+03  0.40420570147E+03  0.12509190366E+03 0.  0.
        -24    2    1    2    0    0 -0.53060519226E+02 -0.10597442672E+01  0.10789608522E+04  0.10833113535E+04  0.81181439720E+02 0.  0.
        -11    1    3    3    0    0  0.68217209834E+01 -0.27054083187E+02 -0.46962880472E+03  0.47045687742E+03  0.00000000000E+00 0.  1.
         12    1    3    3    0    0  0.82194620981E+02  0.45062187326E+02 -0.18333670015E+04  0.18357617271E+04  0.00000000000E+00 0. -1.
         11    1    5    5    0    0 -0.66363244283E+02  0.22046695126E+02  0.82302164367E+03  0.82598714452E+03  0.00000000000E+00 0. -1.
        -12    1    5    5    0    0  0.13302725057E+02 -0.23106439394E+02  0.25593920857E+03  0.25732420896E+03  0.00000000000E+00 0.  1.
          5    1    4    4  501    0  0.11508219404E+02 -0.59186287439E+02  0.25243669055E+03  0.25957120579E+03  0.41800000000E+01 0. -1.
         -5    1    4    4    0  501 -0.47464042143E+02  0.42237927568E+02  0.12986449522E+03  0.14463449568E+03  0.41800000000E+01 0. -1.
</event>
<event>
11    1  0.7105277E-009  0.1996123E+03  0.7561462E-02  0.1054798E+00
         22   -1    0    0    0    0  0.00000000000E+00  0.00000000000E+00  0.64438517357E+03  0.64438517357E+03  0.00000000000E+00 0. -1.
         22   -1    0    0    0    0 -0.00000000000E+00 -0.00000000000E+00 -0.72812665486E+03  0.72812665486E+03  0.00000000000E+00 0.  1.
         24    2    1    2    0    0 -0.13539200548E+03  0.72546249496E+02 -0.60225802347E+03  0.62625298272E+03  0.76708005228E+02 0.  0.
         25    2    1    2    0    0  0.13491748423E+03 -0.11308603453E+03 -0.45145471047E+01  0.21600774716E+03  0.12509111455E+03 0.  0.
        -24    2    1    2    0    0  0.47452124395E+00  0.40539785033E+02  0.52303108929E+03  0.53025109855E+03  0.77207563152E+02 0.  0.
        -13    1    3    3    0    0 -0.10769504207E+03  0.60816934411E+02 -0.56495203543E+03  0.57833184586E+03  0.00000000000E+00 0.  1.
         14    1    3    3    0    0 -0.27696963406E+02  0.11729315085E+02 -0.37305988041E+02  0.47921136860E+02  0.00000000000E+00 0. -1.
         13    1    5    5    0    0  0.35203118104E+01  0.12012601343E+02  0.46820555663E+03  0.46837286263E+03  0.00000000000E+00 0. -1.
        -14    1    5    5    0    0 -0.30457905664E+01  0.28527183690E+02  0.54825532663E+02  0.61878235925E+02  0.00000000000E+00 0.  1.
          5    1    4    4  501    0 -0.14003952193E+02 -0.32380417821E+02 -0.27626076402E+02  0.45003051371E+02  0.41800000000E+01 0.  1.
         -5    1    4    4    0  501  0.14892143643E+03 -0.80705616707E+02  0.23111529297E+02  0.17100469579E+03  0.41800000000E+01 0.  1.
</event>
<event>
11    1  0.7105277E-009  0.1403739E+03  0.7561462E-02  0.1107142E+00
         22   -1    0    0    0    0  0.00000000000E+00  0.00000000000E+00  0.21736946657E+04  0.21736946657E+04  0.00000000000E+00 0. -1.
         22   -1    0    0    0    0 -0.00000000000E+00 -0.00000000000E+00 -0.26820863990E+03  0.26820863990E+03  0.00000000000E+00 0. -1.
         24    2    1    2    0    0  0.49473833273E+02 -0.38211459607E+02 -0.19900732546E+03  0.22350125555E+03  0.80256587400E+02 0.  0.
         25    2    1    2    0    0 -0.33984036318E+02  0.73875259164E+02  0.43483681331E+02  0.15540712974E+03  0.12509227310E+03 0.  0.
        -24    2    1    2    0    0 -0.15489796955E+02 -0.35663799557E+02  0.20610096699E+04  0.20629949203E+04  0.81702762250E+02 0.  0.
        -11    1    3    3    0    0  0.32983332477E+01  0.18055413391E+02 -0.98666027135E+01  0.20838109416E+02  0.00000000000E+00 0.  1.
         12    1    3    3    0    0  0.46175500025E+02 -0.56266872998E+02 -0.18914072274E+03  0.20266314613E+03  0.00000000000E+00 0. -1.
         11    1    5    5    0    0 -0.35018649334E+02 -0.18724695074E+02  0.18473811762E+04  0.18478079257E+04  0.00000000000E+00 0. -1.
        -12    1    5    5    0    0  0.19528852379E+02 -0.16939104483E+02  0.21362849365E+03  0.21518699458E+03  0.00000000000E+00 0.  1.
          5    1    4    4  501    0 -0.16354033823E+02 -0.10972539111E+02  0.63289411714E+02  0.66414404100E+02  0.41800000000E+01 0. -1.
         -5    1    4    4    0  501 -0.17630002494E+02  0.84847798276E+02 -0.19805730383E+02  0.88992725636E+02  0.41800000000E+01 0. -1.
</event>
<event>
11    1  0.7105277E-009  0.2112712E+03  0.7561462E-02  0.1046827E+00
         22   -1    0    0    0    0  0.00000000000E+00  0.00000000000E+00  0.18916357008E+04  0.18916357008E+04  0.00000000000E+00 0.  1.
         22   -1    0    0    0    0 -0.00000000000E+00 -0.00000000000E+00 -0.13148758623E+03  0.13148758623E+03  0.00000000000E+00 0.  1.
        -24    2    1    2    0    0 -0.40808594484E+02 -0.43002439009E+02 -0.55793558033E+02  0.11462590331E+03  0.80694643241E+02 0.  0.
         25    2    1    2    0    0  0.20375511737E+03  0.65496799447E+02  0.33805917692E+03  0.41921060546E+03  0.12509015164E+03 0.  0.
         24    2    1    2    0    0 -0.16294652289E+03 -0.22494360437E+02  0.14778824957E+04  0.14892867783E+04  0.82346046010E+02 0.  0.
        -11    1    5    5    0    0 -0.10235678873E+03  0.23579140261E+02  0.98110182082E+03  0.98670850349E+03  0.00000000000E+00 0.  1.
         12    1    5    5    0    0 -0.60589734164E+02 -0.46073500698E+02  0.49678067489E+03  0.50257827480E+03  0.00000000000E+00 0. -1.
         13    1    3    3    0    0 -0.62626321955E+02 -0.36372410512E+02 -0.25653271522E+02  0.76831626222E+02  0.00000000000E+00 0. -1.
        -14    1    3    3    0    0  0.21817727471E+02 -0.66300284978E+01 -0.30140286510E+02  0.37794277091E+02  0.00000000000E+00 0.  1.
          5    1    4    4  501    0  0.17466597919E+03  0.10019252076E+03  0.28970707732E+03  0.35283765183E+03  0.41800000000E+01 0. -1.
         -5    1    4    4    0  501  0.29089138181E+02 -0.34695721312E+02  0.48352099605E+02  0.66372953630E+02  0.41800000000E+01 0. -1.
</event>
<event>
11    1  0.7105277E-009  0.2321863E+03  0.7561462E-02  0.1033841E+00
         22   -1    0    0    0    0  0.00000000000E+00  0.00000000000E+00  0.84697717074E+03  0.84697717074E+03  0.00000000000E+00 0.  1.
         22   -1    0    0    0    0 -0.00000000000E+00 -0.00000000000E+00 -0.31555073029E+03  0.31555073029E+03  0.00000000000E+00 0. -1.
        -24    2    1    2    0    0 -0.96013541797E+02 -0.18565861106E+03 -0.15342233960E+03  0.27133163141E+03  0.79966992216E+02 0.  0.
         25    2    1    2    0    0  0.21909314081E+03  0.36142351745E+02  0.10688947058E+03  0.27637195942E+03  0.12509207446E+03 0.  0.
         24    2    1    2    0    0 -0.12307959901E+03  0.14951625931E+03  0.57795930947E+03  0.61482431020E+03  0.80425552666E+02 0.  0.
        -11    1    5    5    0    0 -0.47882130588E+02  0.57174920154E+02  0.34753242582E+03  0.35544402783E+03  0.00000000000E+00 0.  1.
         12    1    5    5    0    0 -0.75197468421E+02  0.92341339161E+02  0.23042688365E+03  0.25938028238E+03  0.00000000000E+00 0. -1.
         11    1    3    3    0    0 -0.51826862751E+02 -0.16751820072E+03 -0.12895436976E+03  0.21766396292E+03  0.00000000000E+00 0. -1.
        -12    1    3    3    0    0 -0.44186679047E+02 -0.18140410341E+02 -0.24467969843E+02  0.53667668486E+02  0.00000000000E+00 0.  1.
          5    1    4    4  501    0  0.13355461719E+03  0.20673542165E+02 -0.41734385557E+01  0.13527424406E+03  0.41800000000E+01 0. -1.
         -5    1    4    4    0  501  0.85538523618E+02  0.15468809579E+02  0.11106290913E+03  0.14109771535E+03  0.41800000000E+01 0. -1.
</event>
<event>
11    1  0.7105277E-009  0.1900287E+03  0.7561462E-02  0.1061808E+00
         22   -1    0    0    0    0  0.00000000000E+00  0.00000000000E+00  0.42516193226E+03  0.42516193226E+03  0.00000000000E+00 0. -1.
         22   -1    0    0    0    0 -0.00000000000E+00 -0.00000000000E+00 -0.28980811816E+03  0.28980811816E+03  0.00000000000E+00 0.  1.
        -24    2    1    2    0    0 -0.75484883897E+01 -0.95483694181E+02 -0.64657091392E+02  0.14148070292E+03  0.81621898416E+02 0.  0.
         25    2    1    2    0    0  0.13151139933E+03  0.15466655453E+03 -0.80015477128E+02  0.25152765048E+03  0.12508673445E+03 0.  0.
         24    2    1    2    0    0 -0.12396291094E+03 -0.59182860347E+02  0.28002638263E+03  0.32196169702E+03  0.79844505963E+02 0.  0.
        -13    1    5    5    0    0 -0.46505827911E+02  0.17241641721E+02  0.99507798720E+02  0.11118393879E+03  0.00000000000E+00 0.  1.
         14    1    5    5    0    0 -0.77457083026E+02 -0.76424502069E+02  0.18051858391E+03  0.21077775823E+03  0.00000000000E+00 0. -1.
         11    1    3    3    0    0  0.82813518434E+01  0.71992499235E+01 -0.30020784501E+02  0.31963377323E+02  0.00000000000E+00 0. -1.
        -12    1    3    3    0    0 -0.15829840233E+02 -0.10268294410E+03 -0.34636306891E+02  0.10951732560E+03  0.00000000000E+00 0.  1.
          5    1    4    4  501    0  0.91935870385E+02  0.15612382372E+03 -0.99982139141E+02  0.20698007910E+03  0.41800000000E+01 0. -1.
         -5    1    4    4    0  501  0.39575528941E+02 -0.14572691899E+01  0.19966662013E+02  0.44547571386E+02  0.41800000000E+01 0. -1.
</event>
<event>
11    1  0.7105277E-009  0.1400650E+03  0.7561462E-02  0.1107486E+00
         22   -1    0    0    0    0  0.00000000000E+00  0.00000000000E+00  0.10889945404E+04  0.10889945404E+04  0.00000000000E+00 0.  1.
         22   -1    0    0    0    0 -0.00000000000E+00 -0.00000000000E+00 -0.20137060703E+03  0.20137060703E+03  0.00000000000E+00 0.  1.
        -24    2    1    2    0    0  0.65295184085E+02 -0.29535707208E+02 -0.16357787417E+03  0.19597441435E+03  0.80699635055E+02 0.  0.
         25    2    1    2    0    0 -0.15108874713E+02 -0.24271958802E+02  0.20939159777E+03  0.24557938802E+03  0.12508792318E+03 0.  0.
         24    2    1    2    0    0 -0.50186309371E+02  0.53807666010E+02  0.84181020979E+03  0.84881134509E+03  0.80139501323E+02 0.  0.
        -11    1    5    5    0    0 -0.60984213778E+02  0.34643893818E+02  0.78103694347E+03  0.78417981406E+03  0.00000000000E+00 0.  1.
         12    1    5    5    0    0  0.10797904406E+02  0.19163772192E+02  0.60773266324E+02  0.64631531035E+02  0.00000000000E+00 0. -1.
         13    1    3    3    0    0  0.78699905555E+01 -0.36047847544E+02 -0.21766630630E+02  0.42838887391E+02  0.00000000000E+00 0. -1.
        -14    1    3    3    0    0  0.57425193529E+02  0.65121403364E+01 -0.14181124354E+03  0.15313552696E+03  0.00000000000E+00 0.  1.
          5    1    4    4  501    0  0.52109969435E+02  0.20901109431E+01  0.11764131910E+03  0.12875080519E+03  0.41800000000E+01 0.  1.
         -5    1    4    4    0  501 -0.67218844149E+02 -0.26362069745E+02  0.91750278675E+02  0.11682858283E+03  0.41800000000E+01 0.  1.
</event>
<event>
11    1  0.7105277E-009  0.3010475E+03  0.7561462E-02  0.9997489E-01
         22   -1    0    0    0    0  0.00000000000E+00  0.00000000000E+00  0.31313931155E+03  0.31313931155E+03  0.00000000000E+00 0. -1.
         22   -1    0    0    0    0 -0.00000000000E+00 -0.00000000000E+00 -0.74765244985E+03  0.74765244985E+03  0.00000000000E+00 0. -1.
        -24    2    1    2    0    0  0.21278015030E+03  0.21198455314E+03 -0.56263663378E+03  0.64200978028E+03  0.73510088877E+02 0.  0.
         25    2    1    2    0    0 -0.15313332544E+03 -0.12384245881E+03 -0.66003951444E+00  0.23331124961E+03  0.12508770354E+03 0.  0.
         24    2    1    2    0    0 -0.59646824866E+02 -0.88142094330E+02  0.12878353501E+03  0.18547073151E+03  0.80544527130E+02 0.  0.
        -11    1    5    5    0    0 -0.75753900309E+02 -0.52717741811E+02  0.74119640295E+02  0.11837032902E+03  0.00000000000E+00 0.  1.
         12    1    5    5    0    0  0.16107075443E+02 -0.35424352519E+02  0.54663894710E+02  0.67100402500E+02  0.00000000000E+00 0. -1.
         11    1    3    3    0    0  0.16773590691E+03  0.19515137580E+03 -0.43239762981E+03  0.50317701081E+03  0.00000000000E+00 0. -1.
        -12    1    3    3    0    0  0.45044243391E+02  0.16833177339E+02 -0.13023900397E+03  0.13883276947E+03  0.00000000000E+00 0.  1.
          5    1    4    4  501    0 -0.58803766488E+01 -0.78565017423E+02 -0.58340045943E+01  0.79110990398E+02  0.41800000000E+01 0.  1.
         -5    1    4    4    0  501 -0.14725294879E+03 -0.45277441389E+02  0.51739650799E+01  0.15420025921E+03  0.41800000000E+01 0.  1.
</event>
<event>
11    1  0.7105277E-009  0.1567294E+03  0.7561462E-02  0.1090194E+00
         22   -1    0    0    0    0  0.00000000000E+00  0.00000000000E+00  0.15205645081E+04  0.15205645081E+04  0.00000000000E+00 0.  1.
         22   -1    0    0    0    0 -0.00000000000E+00 -0.00000000000E+00 -0.10544810559E+04  0.10544810559E+04  0.00000000000E+00 0. -1.
         24    2    1    2    0    0  0.14320082766E+02  0.14718423865E+02 -0.10225478633E+04  0.10259546168E+04  0.80975590883E+02 0.  0.
         25    2    1    2    0    0 -0.10138039259E+03 -0.46256842734E+02  0.23027132235E+03  0.28476426580E+03  0.12509246851E+03 0.  0.
        -24    2    1    2    0    0  0.87060309820E+02  0.31538418870E+02  0.12583599932E+04  0.12643266814E+04  0.80485498496E+02 0.  0.
        -11    1    3    3    0    0 -0.25156002179E+02  0.31779010769E+02 -0.50070649608E+03  0.50234422977E+03  0.00000000000E+00 0.  1.
         12    1    3    3    0    0  0.39476084945E+02 -0.17060586904E+02 -0.52184136722E+03  0.52361038707E+03  0.00000000000E+00 0. -1.
         13    1    5    5    0    0 -0.93713492534E+01  0.12726643243E+01  0.23415825892E+02  0.25253569322E+02  0.00000000000E+00 0. -1.
        -14    1    5    5    0    0  0.96431659074E+02  0.30265754546E+02  0.12349441673E+04  0.12390731121E+04  0.00000000000E+00 0.  1.
          5    1    4    4  501    0 -0.40326960529E+02 -0.85877958617E+01  0.20413333653E+03  0.20829763673E+03  0.41800000000E+01 0. -1.
         -5    1    4    4    0  501 -0.61053432058E+02 -0.37669046873E+02  0.26137985818E+02  0.76466629067E+02  0.41800000000E+01 0. -1.
</event>
<event>
11    1  0.7105277E-009  0.1489968E+03  0.7561462E-02  0.1097908E+00
         22   -1    0    0    0    0  0.00000000000E+00  0.00000000000E+00  0.86648024685E+03  0.86648024685E+03  0.00000000000E+00 0.  1.
         22   -1    0    0    0    0 -0.00000000000E+00 -0.00000000000E+00 -0.27330498991E+03  0.27330498991E+03  0.00000000000E+00 0.  1.
        -24    2    1    2    0    0  0.72514659706E+02  0.44330894800E+02 -0.23297345541E+03  0.26017556441E+03  0.78683475273E+02 0.  0.
         25    2    1    2    0    0 -0.39145036836E+02  0.28041573901E+02  0.18521614690E+03  0.22862678102E+03  0.12508605099E+03 0.  0.
         24    2    1    2    0    0 -0.33369622870E+02 -0.72372468701E+02  0.64093256545E+03  0.65098289134E+03  0.81442405400E+02 0.  0.
        -11    1    5    5    0    0 -0.41889238192E+02 -0.26601200323E+02  0.50222088323E+03  0.50466637265E+03  0.00000000000E+00 0.  1.
         12    1    5    5    0    0  0.85196153217E+01 -0.45771268378E+02  0.13871168222E+03  0.14631651868E+03  0.00000000000E+00 0. -1.
         13    1    3    3    0    0  0.39371122044E+02  0.45190866480E+02 -0.62832929728E+02  0.86834766784E+02  0.00000000000E+00 0. -1.
        -14    1    3    3    0    0  0.33143537662E+02 -0.85997167969E+00 -0.17014052569E+03  0.17334079762E+03  0.00000000000E+00 0.  1.
          5    1    4    4  501    0  0.21611130836E+02 -0.22749696186E+02  0.12529842270E+03  0.12923527685E+03  0.41800000000E+01 0.  1.
         -5    1    4    4    0  501 -0.60756167672E+02  0.50791270087E+02  0.59917724206E+02  0.99391504171E+02  0.41800000000E+01 0.  1.
</event>
<event>
11    1  0.7105277E-009  0.1819706E+03  0.7561462E-02  0.1068060E+00
         22   -1    0    0    0    0  0.00000000000E+00  0.00000000000E+00  0.11683907215E+03  0.11683907215E+03  0.00000000000E+00 0.  1.
         22   -1    0    0    0    0 -0.00000000000E+00 -0.00000000000E+00 -0.16455602599E+04  0.16455602599E+04  0.00000000000E+00 0.  1.
        -24    2    1    2    0    0 -0.84302488162E+02  0.32662204122E+02 -0.12831335935E+04  0.12888310806E+04  0.80498486503E+02 0.  0.
         25    2    1    2    0    0  0.19509485443E+03 -0.56568866367E+02 -0.23383699605E+03  0.33404978549E+03  0.12508988605E+03 0.  0.
         24    2    1    2    0    0 -0.11079236627E+03  0.23906662245E+02 -0.11750598133E+02  0.13951846595E+03  0.80503719554E+02 0.  0.
        -11    1    5    5    0    0 -0.10821601531E+03 -0.33013991987E+01 -0.21726629661E+02  0.11042486877E+03  0.00000000000E+00 0.  1.
         12    1    5    5    0    0 -0.25763509538E+01  0.27208061444E+02  0.99760315277E+01  0.29093597179E+02  0.00000000000E+00 0. -1.
         13    1    3    3    0    0 -0.17494815995E+02 -0.18276987847E+02 -0.11847759658E+03  0.12114890740E+03  0.00000000000E+00 0. -1.
        -14    1    3    3    0    0 -0.66807672167E+02  0.50939191969E+02 -0.11646559969E+04  0.11676821732E+04  0.00000000000E+00 0.  1.
          5    1    4    4  501    0  0.16289768635E+03 -0.37005195368E+02 -0.24313450461E+03  0.29502016954E+03  0.41800000000E+01 0.  1.
         -5    1    4    4    0  501  0.32197168083E+02 -0.19563670999E+02  0.92975085589E+01  0.39029615947E+02  0.41800000000E+01 0.  1.
</event>
<event>
11    1  0.7105277E-009  0.1608517E+03  0.7561462E-02  0.1086279E+00
         22   -1    0    0    0    0  0.00000000000E+00  0.00000000000E+00  0.40511272848E+03  0.40511272848E+03  0.00000000000E+00 0.  1.
         22   -1    0    0    0    0 -0.00000000000E+00 -0.00000000000E+00 -0.12204453653E+04  0.12204453653E+04  0.00000000000E+00 0. -1.
         24    2    1    2    0    0  0.95624467416E+01 -0.33100354754E+02 -0.11631144754E+04  0.11662098900E+04  0.77608960885E+02 0.  0.
         25    2    1    2    0    0  0.93642549259E+02  0.86741072249E+01  0.12186469461E+03  0.19832522343E+03  0.12505088279E+03 0.  0.
        -24    2    1    2    0    0 -0.10320499600E+03  0.24426247529E+02  0.22591714396E+03  0.26102298035E+03  0.76462589354E+02 0.  0.
        -13    1    3    3    0    0 -0.10750770480E+02  0.15987128587E+02 -0.10435661811E+03  0.10612007864E+03  0.00000000000E+00 0.  1.
         14    1    3    3    0    0  0.20313217222E+02 -0.49087483341E+02 -0.10587578573E+04  0.10600898114E+04  0.00000000000E+00 0. -1.
         11    1    5    5    0    0 -0.10026488331E+03  0.39496929564E+02  0.15706572116E+03  0.19048016966E+03  0.00000000000E+00 0. -1.
        -12    1    5    5    0    0 -0.29401126952E+01 -0.15070682035E+02  0.68851422796E+02  0.70542810695E+02  0.00000000000E+00 0.  1.
          5    1    4    4  501    0 -0.19054926013E+02 -0.10734753162E+02  0.68561980795E+02  0.72087049748E+02  0.41800000000E+01 0.  1.
         -5    1    4    4    0  501  0.11269747527E+03  0.19408860387E+02  0.53302713820E+02  0.12623817368E+03  0.41800000000E+01 0.  1.
</event>
<event>
11    1  0.7105277E-009  0.1875224E+03  0.7561462E-02  0.1063715E+00
         22   -1    0    0    0    0  0.00000000000E+00  0.00000000000E+00  0.13770855804E+04  0.13770855804E+04  0.00000000000E+00 0.  1.
         22   -1    0    0    0    0 -0.00000000000E+00 -0.00000000000E+00 -0.13310154607E+03  0.13310154607E+03  0.00000000000E+00 0. -1.
         24    2    1    2    0    0  0.89606064829E+02  0.12251974820E+03  0.57133280382E+02  0.19658458578E+03  0.11108983791E+03 0.  0.
         25    2    1    2    0    0  0.41772949605E+02 -0.15315237199E+03  0.11969983163E+03  0.23489689771E+03  0.12509146452E+03 0.  0.
        -24    2    1    2    0    0 -0.13137901443E+03  0.30632623792E+02  0.10671509223E+04  0.10787056430E+04  0.81215578070E+02 0.  0.
        -13    1    3    3    0    0  0.29771233182E+01  0.67865359289E+02  0.64784768053E+02  0.93870317067E+02  0.00000000000E+00 0.  1.
         14    1    3    3    0    0  0.86628941511E+02  0.54654388911E+02 -0.76514876713E+01  0.10271426872E+03  0.00000000000E+00 0. -1.
         13    1    5    5    0    0 -0.41961545206E+02 -0.13175830169E+01  0.12672322058E+03  0.13349637424E+03  0.00000000000E+00 0. -1.
        -14    1    5    5    0    0 -0.89417469229E+02  0.31950206809E+02  0.94042770174E+03  0.94520926874E+03  0.00000000000E+00 0.  1.
          5    1    4    4  501    0 -0.62267498002E+01 -0.19236935428E+01  0.67312436346E+02  0.67756250610E+02  0.41800000000E+01 0. -1.
         -5    1    4    4    0  501  0.47999699405E+02 -0.15122867845E+03  0.52387395281E+02  0.16714064710E+03  0.41800000000E+01 0. -1.
</event>
<event>
11    1  0.7105277E-009  0.1354535E+03  0.7561462E-02  0.1112744E+00
         22   -1    0    0    0    0  0.00000000000E+00  0.00000000000E+00  0.86879412986E+03  0.86879412986E+03  0.00000000000E+00 0.  1.
         22   -1    0    0    0    0 -0.00000000000E+00 -0.00000000000E+00 -0.52312542533E+03  0.52312542533E+03  0.00000000000E+00 0. -1.
        -24    2    1    2    0    0 -0.13527240949E+02 -0.11287786455E+02 -0.41913482694E+03  0.42773126143E+03  0.83484300806E+02 0.  0.
         25    2    1    2    0    0 -0.18543418374E+01 -0.38779590433E+02 -0.52596462165E+02  0.14114364085E+03  0.12509134384E+03 0.  0.
         24    2    1    2    0    0  0.15381582787E+02  0.50067376888E+02  0.81739999364E+03  0.82304465290E+03  0.80724319467E+02 0.  0.
        -13    1    5    5    0    0  0.42746335390E+02  0.16483436235E+02  0.57351618785E+03  0.57534317636E+03  0.00000000000E+00 0.  1.
         14    1    5    5    0    0 -0.27364752603E+02  0.33583940653E+02  0.24388380579E+03  0.24770147654E+03  0.00000000000E+00 0. -1.
         11    1    3    3    0    0 -0.20361310566E+02  0.15542739364E+01 -0.41009700416E+03  0.41060510415E+03  0.00000000000E+00 0. -1.
        -12    1    3    3    0    0  0.68340696170E+01 -0.12842060391E+02 -0.90378227856E+01  0.17126157284E+02  0.00000000000E+00 0.  1.
          5    1    4    4  501    0 -0.12636867021E+02  0.28616777605E+01  0.38217877521E+02  0.40570410029E+02  0.41800000000E+01 0. -1.
         -5    1    4    4    0  501  0.10782525184E+02 -0.41641268193E+02 -0.90814339686E+02  0.10057323083E+03  0.41800000000E+01 0. -1.
</event>
<event>
11    1  0.7105277E-009  0.1291638E+03  0.7561462E-02  0.1120301E+00
         22   -1    0    0    0    0  0.00000000000E+00  0.00000000000E+00  0.73575540400E+03  0.73575540400E+03  0.00000000000E+00 0.  1.
         22   -1    0    0    0    0 -0.00000000000E+00 -0.00000000000E+00 -0.74038574337E+03  0.74038574337E+03  0.00000000000E+00 0. -1.
        -24    2    1    2    0    0  0.28345721279E+02 -0.14971067840E+02 -0.68936880857E+03  0.69476740076E+03  0.80279350680E+02 0.  0.
         25    2    1    2    0    0 -0.41283320288E+02 -0.14229882228E+00  0.49224051539E+02  0.14062339566E+03  0.12509036483E+03 0.  0.
         24    2    1    2    0    0  0.12937599009E+02  0.15113366662E+02  0.63551441765E+03  0.64075035096E+03  0.79288346503E+02 0.  0.
        -13    1    5    5    0    0 -0.21748997417E+01 -0.14298982105E+01  0.59013250871E+03  0.59013824875E+03  0.00000000000E+00 0.  1.
         14    1    5    5    0    0  0.15112498751E+02  0.16543264873E+02  0.45381908941E+02  0.50612102212E+02  0.00000000000E+00 0. -1.
         13    1    3    3    0    0  0.39681728564E+02 -0.28216565336E+02 -0.64862871877E+03  0.65045371008E+03  0.00000000000E+00 0. -1.
        -14    1    3    3    0    0 -0.11336007285E+02  0.13245497497E+02 -0.40740089793E+02  0.44313690677E+02  0.00000000000E+00 0.  1.
          5    1    4    4  501    0 -0.81080630740E+02  0.24305025905E+02  0.29257844527E+02  0.89656549297E+02  0.41800000000E+01 0.  1.
         -5    1    4    4    0  501  0.39797310452E+02 -0.24447324728E+02  0.19966207013E+02  0.50966846361E+02  0.41800000000E+01 0.  1.
</event>
<event>
11    1  0.7105277E-009  0.1903662E+03  0.7561462E-02  0.1061553E+00
         22   -1    0    0    0    0  0.00000000000E+00  0.00000000000E+00  0.50219628447E+03  0.50219628447E+03  0.00000000000E+00 0. -1.
         22   -1    0    0    0    0 -0.00000000000E+00 -0.00000000000E+00 -0.10939859815E+04  0.10939859815E+04  0.00000000000E+00 0.  1.
        -24    2    1    2    0    0 -0.38402440464E+02 -0.11689238950E+03 -0.49323280861E+03  0.51492723625E+03  0.82054110097E+02 0.  0.
         25    2    1    2    0    0  0.11840363255E+03  0.15211435084E+03 -0.55952577912E+03  0.60487624208E+03  0.12509186544E+03 0.  0.
         24    2    1    2    0    0 -0.80001192086E+02 -0.35221961342E+02  0.46096889074E+03  0.47637878761E+03  0.82484263726E+02 0.  0.
        -13    1    5    5    0    0 -0.39492638612E+02 -0.40019447732E+02  0.11495013807E+03  0.12796389704E+03  0.00000000000E+00 0.  1.
         14    1    5    5    0    0 -0.40508553474E+02  0.47974863903E+01  0.34601875266E+03  0.34841489058E+03  0.00000000000E+00 0. -1.
         11    1    3    3    0    0  0.12886199716E+02 -0.31595717839E+02 -0.24690621767E+03  0.24925293148E+03  0.00000000000E+00 0. -1.
        -12    1    3    3    0    0 -0.51288640181E+02 -0.85296671663E+02 -0.24632659094E+03  0.26567430477E+03  0.00000000000E+00 0.  1.
          5    1    4    4  501    0  0.62451427786E+02  0.77926989696E+02 -0.45100324447E+03  0.46194609586E+03  0.41800000000E+01 0. -1.
         -5    1    4    4    0  501  0.55952204764E+02  0.74187361148E+02 -0.10852253465E+03  0.14293014622E+03  0.41800000000E+01 0. -1.
</event>
<event>
11    1  0.7105277E-009  0.1417989E+03  0.7561462E-02  0.1105566E+00
         22   -1    0    0    0    0  0.00000000000E+00  0.00000000000E+00  0.91477406511E+03  0.91477406511E+03  0.00000000000E+00 0. -1.
         22   -1    0    0    0    0 -0.00000000000E+00 -0.00000000000E+00 -0.25260436650E+03  0.25260436650E+03  0.00000000000E+00 0. -1.
        -24    2    1    2    0    0  0.65853460824E+02 -0.54863693994E+01 -0.20577130052E+03  0.23312970975E+03  0.87411983707E+02 0.  0.
         25    2    1    2    0    0 -0.73569465427E+02  0.27330330350E+02  0.14738755849E+03  0.20863914894E+03  0.12509112229E+03 0.  0.
         24    2    1    2    0    0  0.77160046024E+01 -0.21843960951E+02  0.72055344064E+03  0.72560957292E+03  0.82312186990E+02 0.  0.
        -11    1    5    5    0    0  0.28996906410E+02  0.20393195485E+02  0.22135453683E+03  0.22417523052E+03  0.00000000000E+00 0.  1.
         12    1    5    5    0    0 -0.21280901808E+02 -0.42237156435E+02  0.49919890381E+03  0.50143434239E+03  0.00000000000E+00 0. -1.
         13    1    3    3    0    0  0.63108771320E+02 -0.44346717580E+01 -0.21464906272E+03  0.22377802273E+03  0.00000000000E+00 0. -1.
        -14    1    3    3    0    0  0.27446895045E+01 -0.10516976414E+01  0.88777621964E+01  0.93516870147E+01  0.00000000000E+00 0.  1.
          5    1    4    4  501    0 -0.75959123446E+02  0.70740534778E+02  0.99970780517E+02  0.14417226173E+03  0.41800000000E+01 0.  1.
         -5    1    4    4    0  501  0.23896580193E+01 -0.43410204428E+02  0.47416777970E+02  0.64466887213E+02  0.41800000000E+01 0.  1.
</event>
<event>
11    1  0.7105277E-009  0.1391649E+03  0.7561462E-02  0.1108495E+00
         22   -1    0    0    0    0  0.00000000000E+00  0.00000000000E+00  0.33413296864E+03  0.33413296864E+03  0.00000000000E+00 0.  1.
         22   -1    0    0    0    0 -0.00000000000E+00 -0.00000000000E+00 -0.35542045669E+03  0.35542045669E+03  0.00000000000E+00 0.  1.
         24    2    1    2    0    0 -0.37255675647E+02  0.31979176405E+02 -0.22767423694E+03  0.25176682696E+03  0.95605041190E+02 0.  0.
         25    2    1    2    0    0  0.13786865192E+02  0.28900649319E+02 -0.64172473463E+02  0.14419082937E+03  0.12509022240E+03 0.  0.
        -24    2    1    2    0    0  0.23468810454E+02 -0.60879825725E+02  0.27055922235E+03  0.29359576900E+03  0.93482856882E+02 0.  0.
        -13    1    3    3    0    0 -0.49080192868E+01 -0.94719421448E+01 -0.18143400435E+03  0.18174736387E+03  0.00000000000E+00 0.  1.
         14    1    3    3    0    0 -0.32347656360E+02  0.41451118550E+02 -0.46240232593E+02  0.70019463089E+02  0.00000000000E+00 0. -1.
         11    1    5    5    0    0  0.51319369347E+02 -0.67063960212E+02  0.18392067960E+03  0.20238099914E+03  0.00000000000E+00 0. -1.
        -12    1    5    5    0    0 -0.27850558893E+02  0.61841344870E+01  0.86638542754E+02  0.91214769860E+02  0.00000000000E+00 0.  1.
          5    1    4    4  501    0 -0.50276666287E+02 -0.22105767515E+01 -0.36398615743E+01  0.50629544880E+02  0.41800000000E+01 0. -1.
         -5    1    4    4    0  501  0.64063531479E+02  0.31111226071E+02 -0.60532611889E+02  0.93561284489E+02  0.41800000000E+01 0. -1.
</event>
<event>
11    1  0.7105277E-009  0.1555134E+03  0.7561462E-02  0.1091375E+00
         22   -1    0    0    0    0  0.00000000000E+00  0.00000000000E+00  0.12126705201E+04  0.12126705201E+04  0.00000000000E+00 0.  1.
         22   -1    0    0    0    0 -0.00000000000E+00 -0.00000000000E+00 -0.16881652729E+03  0.16881652729E+03  0.00000000000E+00 0.  1.
        -24    2    1    2    0    0  0.39689180580E+01  0.23965978723E+02 -0.14033509148E+03  0.16423860996E+03  0.81794025769E+02 0.  0.
         25    2    1    2    0    0  0.86373516315E+02 -0.40729130572E+02  0.57442250577E+03  0.59557914305E+03  0.12503621117E+03 0.  0.
         24    2    1    2    0    0 -0.90342434373E+02  0.16763151848E+02  0.60976657854E+03  0.62166929440E+03  0.78833194650E+02 0.  0.
        -11    1    5    5    0    0 -0.10445795642E+03  0.16262510737E+02  0.50433074107E+03  0.51529159736E+03  0.00000000000E+00 0.  1.
         12    1    5    5    0    0  0.14115522051E+02  0.50064111170E+00  0.10543583747E+03  0.10637769704E+03  0.00000000000E+00 0. -1.
         13    1    3    3    0    0 -0.18833970993E+02  0.33100808938E+02 -0.23284033714E+02  0.44637744586E+02  0.00000000000E+00 0. -1.
        -14    1    3    3    0    0  0.22802889051E+02 -0.91348302143E+01 -0.11705105777E+03  0.11960086537E+03  0.00000000000E+00 0.  1.
          5    1    4    4  501    0  0.89676321281E+02 -0.38869716784E+02  0.21609397228E+03  0.23720618612E+03  0.41800000000E+01 0. -1.
         -5    1    4    4    0  501 -0.33028049659E+01 -0.18594137871E+01  0.35832853349E+03  0.35837295692E+03  0.41800000000E+01 0. -1.
</event>
<event>
11    1  0.7105277E-009  0.1442291E+03  0.7561462E-02  0.1102926E+00
         22   -1    0    0    0    0  0.00000000000E+00  0.00000000000E+00  0.52758950746E+03  0.52758950746E+03  0.00000000000E+00 0.  1.
         22   -1    0    0    0    0 -0.00000000000E+00 -0.00000000000E+00 -0.32984071584E+03  0.32984071584E+03  0.00000000000E+00 0.  1.
         24    2    1    2    0    0 -0.58742382405E+02 -0.46892035828E-02 -0.16533518657E+03  0.19330779910E+03  0.81126529327E+02 0.  0.
         25    2    1    2    0    0 -0.15541814765E+02  0.20440562699E+01 -0.11650268491E+03  0.17165497045E+03  0.12508727799E+03 0.  0.
        -24    2    1    2    0    0  0.74284197170E+02 -0.20393670663E+01  0.47958666309E+03  0.49246745376E+03  0.83657185131E+02 0.  0.
        -11    1    3    3    0    0 -0.20566713151E+02 -0.39571176771E+02 -0.63787635029E+02  0.77831421055E+02  0.00000000000E+00 0.  1.
         12    1    3    3    0    0 -0.38175669255E+02  0.39566487568E+02 -0.10154755154E+03  0.11547637804E+03  0.00000000000E+00 0. -1.
         11    1    5    5    0    0  0.15074713118E+02  0.13812830627E+02  0.19296308880E+02  0.28113854270E+02  0.00000000000E+00 0. -1.
        -12    1    5    5    0    0  0.59209484053E+02 -0.15852197693E+02  0.46029035421E+03  0.46435359949E+03  0.00000000000E+00 0.  1.
          5    1    4    4  501    0  0.24333257655E+02 -0.46640447108E+02 -0.87625559865E+02  0.10228953943E+03  0.41800000000E+01 0. -1.
         -5    1    4    4    0  501 -0.39875072420E+02  0.48684503378E+02 -0.28877125044E+02  0.69365431019E+02  0.41800000000E+01 0. -1.
</event>
<event>
11    1  0.7105277E-009  0.2160152E+03  0.7561462E-02  0.1043743E+00
         22   -1    0    0    0    0  0.00000000000E+00  0.00000000000E+00  0.31927664464E+03  0.31927664464E+03  0.00000000000E+00 0.  1.
         22   -1    0    0    0    0 -0.00000000000E+00 -0.00000000000E+00 -0.21205802017E+04  0.21205802017E+04  0.00000000000E+00 0.  1.
        -24    2    1    2    0    0 -0.24800299664E+02 -0.16048734157E+03 -0.12933896409E+04  0.13059120198E+04  0.78601518137E+02 0.  0.
         25    2    1    2    0    0 -0.28370728526E+02  0.22647245723E+03 -0.78816991421E+03  0.83002846936E+03  0.12506308069E+03 0.  0.
         24    2    1    2    0    0  0.53171028189E+02 -0.65985115659E+02  0.28025599798E+03  0.30391635723E+03  0.81489472068E+02 0.  0.
        -13    1    5    5    0    0  0.56497210648E+02 -0.87707777537E+01  0.17452919983E+03  0.18365539183E+03  0.00000000000E+00 0.  1.
         14    1    5    5    0    0 -0.33261824585E+01 -0.57214337905E+02  0.10572679815E+03  0.12026096540E+03  0.00000000000E+00 0. -1.
         11    1    3    3    0    0 -0.91646470452E+01 -0.37171142596E+02 -0.12005706295E+03  0.12601342373E+03  0.00000000000E+00 0. -1.
        -12    1    3    3    0    0 -0.15635652619E+02 -0.12331619898E+03 -0.11733325779E+04  0.11798985960E+04  0.00000000000E+00 0.  1.
          5    1    4    4  501    0 -0.21133920019E+02  0.29004325323E+02 -0.31743882267E+03  0.31948829712E+03  0.41800000000E+01 0.  1.
         -5    1    4    4    0  501 -0.72368085066E+01  0.19746813191E+03 -0.47073109155E+03  0.51054017224E+03  0.41800000000E+01 0.  1.
</event>
<event>
11    1  0.7105277E-009  0.1337144E+03  0.7561462E-02  0.1114788E+00
         22   -1    0    0    0    0  0.00000000000E+00  0.00000000000E+00  0.81251825806E+02  0.81251825806E+02  0.00000000000E+00 0.  1.
         22   -1    0    0    0    0 -0.00000000000E+00 -0.00000000000E+00 -0.96234681807E+03  0.96234681807E+03  0.00000000000E+00 0.  1.
         24    2    1    2    0    0 -0.26135068955E+02  0.10550294431E+02 -0.62595075842E+03  0.63003994527E+03  0.65891047395E+02 0.  0.
         25    2    1    2    0    0  0.30753367174E+02  0.37217414982E+02 -0.28441670297E+03  0.31443856582E+03  0.12509134732E+03 0.  0.
        -24    2    1    2    0    0 -0.46182982187E+01 -0.47767709413E+02  0.29272469120E+02  0.99120132796E+02  0.81638474607E+02 0.  0.
        -13    1    3    3    0    0  0.14327336236E+01  0.12517505807E+02 -0.53097819678E+03  0.53112765521E+03  0.00000000000E+00 0.  1.
         14    1    3    3    0    0 -0.27567802578E+02 -0.19672113758E+01 -0.94972561642E+02  0.98912290057E+02  0.00000000000E+00 0. -1.
         13    1    5    5    0    0 -0.28287165600E+01 -0.60801556861E+02 -0.63002744798E+01  0.61192519254E+02  0.00000000000E+00 0. -1.
        -14    1    5    5    0    0 -0.17895816588E+01  0.13033847448E+02  0.35572743600E+02  0.37927613543E+02  0.00000000000E+00 0.  1.
          5    1    4    4  501    0 -0.12458582967E+02  0.73058018062E+02 -0.19637817828E+03  0.20993939983E+03  0.41800000000E+01 0.  1.
         -5    1    4    4    0  501  0.43211950141E+02 -0.35840603080E+02 -0.88038524684E+02  0.10449916599E+03  0.41800000000E+01 0.  1.
</event>
<event>
11    1  0.7105277E-009  0.1755204E+03  0.7561462E-02  0.1073325E+00
         22   -1    0    0    0    0  0.00000000000E+00  0.00000000000E+00  0.24448485679E+04  0.24448485679E+04  0.00000000000E+00 0.  1.
         22   -1    0    0    0    0 -0.00000000000E+00 -0.00000000000E+00 -0.42474095194E+02  0.42474095194E+02  0.00000000000E+00 0. -1.
         24    2    1    2    0    0  0.28857825242E+02  0.20619517569E+01  0.27113147753E+02  0.87877102488E+02  0.78423444440E+02 0.  0.
         25    2    1    2    0    0  0.10298752170E+03 -0.66874442963E+01  0.77506860657E+03  0.79185209924E+03  0.12508897090E+03 0.  0.
        -24    2    1    2    0    0 -0.13184534694E+03  0.46254925394E+01  0.16001927184E+04  0.16075934614E+04  0.79595291199E+02 0.  0.
        -13    1    3    3    0    0 -0.90503439806E+01 -0.97738868999E+01  0.43066581382E+02  0.45079574346E+02  0.00000000000E+00 0.  1.
         14    1    3    3    0    0  0.37908169223E+02  0.11835838657E+02 -0.15953433628E+02  0.42797528142E+02  0.00000000000E+00 0. -1.
         13    1    5    5    0    0 -0.64395463665E+02 -0.37205855170E+02  0.72098468959E+03  0.72481030209E+03  0.00000000000E+00 0. -1.
        -14    1    5    5    0    0 -0.67449883277E+02  0.41831347709E+02  0.87920802883E+03  0.88278315931E+03  0.00000000000E+00 0.  1.
          5    1    4    4  501    0  0.17618935114E+02 -0.20224167756E+02  0.55077896636E+03  0.55144753696E+03  0.41800000000E+01 0.  1.
         -5    1    4    4    0  501  0.85368586587E+02  0.13536723460E+02  0.22428964021E+03  0.24040456227E+03  0.41800000000E+01 0.  1.
</event>
<event>
11    1  0.7105277E-009  0.1581987E+03  0.7561462E-02  0.1088784E+00
         22   -1    0    0    0    0  0.00000000000E+00  0.00000000000E+00  0.88833065741E+02  0.88833065741E+02  0.00000000000E+00 0. -1.
         22   -1    0    0    0    0 -0.00000000000E+00 -0.00000000000E+00 -0.19258812010E+04  0.19258812010E+04  0.00000000000E+00 0. -1.
        -24    2    1    2    0    0  0.50410496834E+02 -0.59851823196E+02 -0.63805769076E+03  0.64822817256E+03  0.83418751129E+02 0.  0.
         25    2    1    2    0    0 -0.88377409574E+02  0.79739212173E+02 -0.12505011596E+04  0.12623662662E+04  0.12508609652E+03 0.  0.
         24    2    1    2    0    0  0.37966912740E+02 -0.19887388977E+02  0.51510715083E+02  0.10411982793E+03  0.79690589767E+02 0.  0.
        -13    1    5    5    0    0  0.18415504627E+02  0.22163979754E+02 -0.68089497726E+01  0.29609704595E+02  0.00000000000E+00 0.  1.
         14    1    5    5    0    0  0.19551408114E+02 -0.42051368730E+02  0.58319664855E+02  0.74510123340E+02  0.00000000000E+00 0. -1.
         13    1    3    3    0    0  0.70718836684E+02 -0.61496272693E+02 -0.50554384609E+03  0.51415710219E+03  0.00000000000E+00 0. -1.
        -14    1    3    3    0    0 -0.20308339850E+02  0.16444494968E+01 -0.13251384467E+03  0.13407107037E+03  0.00000000000E+00 0.  1.
          5    1    4    4  501    0 -0.14228748371E+02 -0.90515097776E+01 -0.20252169849E+02  0.26683513507E+02  0.41800000000E+01 0.  1.
         -5    1    4    4    0  501 -0.74148661204E+02  0.88790721950E+02 -0.12302489897E+04  0.12356827527E+04  0.41800000000E+01 0.  1.
</event>
<event>
11    1  0.7105277E-009  0.1278692E+03  0.7561462E-02  0.1121915E+00
         22   -1    0    0    0    0  0.00000000000E+00  0.00000000000E+00  0.10292698674E+04  0.10292698674E+04  0.00000000000E+00 0. -1.
         22   -1    0    0    0    0 -0.00000000000E+00 -0.00000000000E+00 -0.54411584660E+03  0.54411584660E+03  0.00000000000E+00 0. -1.
        -24    2    1    2    0    0  0.23255114909E+02 -0.17172098533E+02 -0.50901301220E+03  0.51615201217E+03  0.80516903444E+02 0.  0.
         25    2    1    2    0    0 -0.26048728814E+01  0.34397267264E+02  0.11348196658E+03  0.17238392879E+03  0.12509238509E+03 0.  0.
         24    2    1    2    0    0 -0.20650242027E+02 -0.17225168731E+02  0.88068506642E+03  0.88484977305E+03  0.81423557515E+02 0.  0.
        -13    1    5    5    0    0 -0.37267199465E+02 -0.16242180876E+02  0.20673255286E+03  0.21069172031E+03  0.00000000000E+00 0.  1.
         14    1    5    5    0    0  0.16616957438E+02 -0.98298785561E+00  0.67395251356E+03  0.67415805273E+03  0.00000000000E+00 0. -1.
         13    1    3    3    0    0  0.30791380173E+02 -0.27773520900E+02 -0.49607807231E+03  0.49780812708E+03  0.00000000000E+00 0. -1.
        -14    1    3    3    0    0 -0.75362652645E+01  0.10601422367E+02 -0.12934939888E+02  0.18343885091E+02  0.00000000000E+00 0.  1.
          5    1    4    4  501    0 -0.42306138984E+02 -0.93810565649E+00  0.11116566018E+03  0.11902086305E+03  0.41800000000E+01 0. -1.
         -5    1    4    4    0  501  0.39701266102E+02  0.35335372921E+02  0.23163063988E+01  0.53363065737E+02  0.41800000000E+01 0. -1.
</event>
<event>
11    1  0.7105277E-009  0.1449308E+03  0.7561462E-02  0.1102174E+00
         22   -1    0    0    0    0  0.00000000000E+00  0.00000000000E+00  0.19750474727E+04  0.19750474727E+04  0.00000000000E+00 0. -1.
         22   -1    0    0    0    0 -0.00000000000E+00 -0.00000000000E+00 -0.12582982130E+04  0.12582982130E+04  0.00000000000E+00 0.  1.
        -24    2    1    2    0    0 -0.24717665705E+02  0.25782686251E+02 -0.95369951285E+03  0.95774037849E+03  0.80300447562E+02 0.  0.
         25    2    1    2    0    0  0.74510658172E+02  0.27938142575E+02 -0.28279652882E+03  0.31929212108E+03  0.12506479872E+03 0.  0.
         24    2    1    2    0    0 -0.49792992467E+02 -0.53720828826E+02  0.19532453014E+04  0.19563131861E+04  0.81417474021E+02 0.  0.
        -11    1    5    5    0    0 -0.57614327156E+02 -0.39577260228E+02  0.82605361066E+03  0.82900563201E+03  0.00000000000E+00 0.  1.
         12    1    5    5    0    0  0.78213346886E+01 -0.14143568598E+02  0.11271916908E+04  0.11273075541E+04  0.00000000000E+00 0. -1.
         13    1    3    3    0    0  0.17242047633E+02 -0.39643194461E+01 -0.60589942893E+03  0.60615767092E+03  0.00000000000E+00 0. -1.
        -14    1    3    3    0    0 -0.41959713338E+02  0.29747005697E+02 -0.34780008392E+03  0.35158270757E+03  0.00000000000E+00 0.  1.
          5    1    4    4  501    0  0.83259855264E+02  0.64107475934E+02 -0.24228998438E+03  0.26412853102E+03  0.41800000000E+01 0. -1.
         -5    1    4    4    0  501 -0.87491970919E+01 -0.36169333359E+02 -0.40506544440E+02  0.55163590056E+02  0.41800000000E+01 0. -1.
</event>
<event>
11    1  0.7105277E-009  0.1536350E+03  0.7561462E-02  0.1093221E+00
         22   -1    0    0    0    0  0.00000000000E+00  0.00000000000E+00  0.18925550341E+04  0.18925550341E+04  0.00000000000E+00 0.  1.
         22   -1    0    0    0    0 -0.00000000000E+00 -0.00000000000E+00 -0.18896328962E+03  0.18896328962E+03  0.00000000000E+00 0. -1.
         24    2    1    2    0    0 -0.72328553953E+01 -0.87408125856E+02 -0.11590632220E+03  0.16554793104E+03  0.79242332641E+02 0.  0.
         25    2    1    2    0    0  0.22820118132E+02  0.95495838991E+02  0.86829649848E+02  0.18118251457E+03  0.12508997737E+03 0.  0.
        -24    2    1    2    0    0 -0.15587262737E+02 -0.80877131352E+01  0.17326684168E+04  0.17347878781E+04  0.83909269141E+02 0.  0.
        -13    1    3    3    0    0 -0.31314267778E+02 -0.13758758131E+02 -0.12687350113E+02  0.36480894242E+02  0.00000000000E+00 0.  1.
         14    1    3    3    0    0  0.24081412383E+02 -0.73649367725E+02 -0.10321897209E+03  0.12906703680E+03  0.00000000000E+00 0. -1.
         13    1    5    5    0    0  0.49505671366E+01  0.23475639577E+02  0.17200163559E+03  0.17366685468E+03  0.00000000000E+00 0. -1.
        -14    1    5    5    0    0 -0.20537829874E+02 -0.31563352712E+02  0.15606667812E+04  0.15611210234E+04  0.00000000000E+00 0.  1.
          5    1    4    4  501    0  0.66139688870E+02  0.85225906589E+02  0.83236953028E+02  0.13632232520E+03  0.41800000000E+01 0. -1.
         -5    1    4    4    0  501 -0.43319570738E+02  0.10269932402E+02  0.35926968196E+01  0.44860189377E+02  0.41800000000E+01 0. -1.
</event>
<event>
11    1  0.7105277E-009  0.1610377E+03  0.7561462E-02  0.1086105E+00
         22   -1    0    0    0    0  0.00000000000E+00  0.00000000000E+00  0.10460742139E+03  0.10460742139E+03  0.00000000000E+00 0. -1.
         22   -1    0    0    0    0 -0.00000000000E+00 -0.00000000000E+00 -0.47705066357E+03  0.47705066357E+03  0.00000000000E+00 0.  1.
        -24    2    1    2    0    0 -0.43356750671E+01 -0.35724919081E+02 -0.48020997014E+02  0.10094591676E+03  0.81172618744E+02 0.  0.
         25    2    1    2    0    0 -0.35431574700E+02 -0.85529878966E+02 -0.28493405557E+03  0.32466195176E+03  0.12508880930E+03 0.  0.
         24    2    1    2    0    0  0.39767249767E+02  0.12125479805E+03 -0.39488189590E+02  0.15605021645E+03  0.80673370654E+02 0.  0.
        -11    1    5    5    0    0  0.10582337488E+02  0.11672192886E+03 -0.45829131919E+02  0.12584237711E+03  0.00000000000E+00 0.  1.
         12    1    5    5    0    0  0.29184912279E+02  0.45328691827E+01  0.63409423292E+01  0.30207839336E+02  0.00000000000E+00 0. -1.
         11    1    3    3    0    0 -0.18322534718E+02 -0.37621770219E+02  0.84899713856E+01  0.42698858146E+02  0.00000000000E+00 0. -1.
        -12    1    3    3    0    0  0.13986859651E+02  0.18968511372E+01 -0.56510968400E+02  0.58247058609E+02  0.00000000000E+00 0.  1.
          5    1    4    4  501    0 -0.28230351610E+02  0.15884332980E+02 -0.14532477000E+02  0.35748147840E+02  0.41800000000E+01 0. -1.
         -5    1    4    4    0  501 -0.72012230901E+01 -0.10141421195E+03 -0.27040157857E+03  0.28891380392E+03  0.41800000000E+01 0. -1.
</event>
<event>
11    1  0.7105277E-009  0.1457640E+03  0.7561462E-02  0.1101287E+00
         22   -1    0    0    0    0  0.00000000000E+00  0.00000000000E+00  0.67139757100E+02  0.67139757100E+02  0.00000000000E+00 0. -1.
         22   -1    0    0    0    0 -0.00000000000E+00 -0.00000000000E+00 -0.15353087720E+04  0.15353087720E+04  0.00000000000E+00 0. -1.
         24    2    1    2    0    0  0.19244866481E+02 -0.21789717433E+02 -0.12210078586E+04  0.12240544405E+04  0.81264543896E+02 0.  0.
         25    2    1    2    0    0  0.58103432115E+02  0.33292351665E+02 -0.22157169163E+03  0.26310680076E+03  0.12508710792E+03 0.  0.
        -24    2    1    2    0    0 -0.77348298596E+02 -0.11502634232E+02 -0.25589464764E+02  0.11528728785E+03  0.80754369189E+02 0.  0.
        -13    1    3    3    0    0  0.40498547186E+02 -0.32889224188E+02 -0.51417636420E+03  0.51681637638E+03  0.00000000000E+00 0.  1.
         14    1    3    3    0    0 -0.21253680705E+02  0.11099506755E+02 -0.70683149435E+03  0.70723806416E+03  0.00000000000E+00 0. -1.
         13    1    5    5    0    0 -0.38588041890E+02  0.24036872837E+01  0.27975730396E+02  0.47722700894E+02  0.00000000000E+00 0. -1.
        -14    1    5    5    0    0 -0.38760256707E+02 -0.13906321516E+02 -0.53565195160E+02  0.67564586957E+02  0.00000000000E+00 0.  1.
          5    1    4    4  501    0  0.75628509691E+02  0.52269391297E+02 -0.89164766376E+02  0.12813894298E+03  0.41800000000E+01 0.  1.
         -5    1    4    4    0  501 -0.17525077575E+02 -0.18977039632E+02 -0.13240692526E+03  0.13496785778E+03  0.41800000000E+01 0.  1.
</event>
<event>
11    1  0.7105277E-009  0.1816410E+03  0.7561462E-02  0.1068323E+00
         22   -1    0    0    0    0  0.00000000000E+00  0.00000000000E+00  0.11307562175E+04  0.11307562175E+04  0.00000000000E+00 0.  1.
         22   -1    0    0    0    0 -0.00000000000E+00 -0.00000000000E+00 -0.78951011875E+03  0.78951011875E+03  0.00000000000E+00 0.  1.
         24    2    1    2    0    0 -0.41555808934E+01 -0.76844602988E+01 -0.73384512453E+03  0.73831963664E+03  0.80690143526E+02 0.  0.
         25    2    1    2    0    0 -0.10518355844E+03 -0.67362897686E+02  0.11854932118E+03  0.21284484686E+03  0.12509055252E+03 0.  0.
        -24    2    1    2    0    0  0.10933913933E+03  0.75047357985E+02  0.95654190211E+03  0.96910185276E+03  0.81233227269E+02 0.  0.
        -11    1    3    3    0    0 -0.11991575045E+02 -0.39485062472E+02 -0.55263396137E+03  0.55417250319E+03  0.00000000000E+00 0.  1.
         12    1    3    3    0    0  0.78359941517E+01  0.31800602173E+02 -0.18121116316E+03  0.18414713345E+03  0.00000000000E+00 0. -1.
         11    1    5    5    0    0  0.68162637432E+02  0.52844919254E+00  0.34580807526E+03  0.35246226651E+03  0.00000000000E+00 0. -1.
        -12    1    5    5    0    0  0.41176501901E+02  0.74518908792E+02  0.61073382684E+03  0.61663958625E+03  0.00000000000E+00 0.  1.
          5    1    4    4  501    0 -0.17953650166E+02 -0.85345135641E+02  0.52474545604E+02  0.10186842528E+03  0.41800000000E+01 0. -1.
         -5    1    4    4    0  501 -0.87229908274E+02  0.17982237956E+02  0.66074775580E+02  0.11097642158E+03  0.41800000000E+01 0. -1.
</event>
<event>
11    1  0.7105277E-009  0.1339034E+03  0.7561462E-02  0.1114564E+00
         22   -1    0    0    0    0  0.00000000000E+00  0.00000000000E+00  0.33758326961E+02  0.33758326961E+02  0.00000000000E+00 0. -1.
         22   -1    0    0    0    0 -0.00000000000E+00 -0.00000000000E+00 -0.16701526258E+04  0.16701526258E+04  0.00000000000E+00 0. -1.
        -24    2    1    2    0    0 -0.18236812160E+02  0.23759679348E+02 -0.11373697841E+04  0.11407495474E+04  0.82476665295E+02 0.  0.
         25    2    1    2    0    0 -0.41339108792E+02 -0.24893101698E+01 -0.15409331415E+03  0.20274817088E+03  0.12508778017E+03 0.  0.
         24    2    1    2    0    0  0.59575920952E+02 -0.21270369178E+02 -0.34493120059E+03  0.36041323453E+03  0.83177205538E+02 0.  0.
        -11    1    5    5    0    0  0.21016689302E+02 -0.87670970612E+01 -0.29599105475E+03  0.29686574021E+03  0.00000000000E+00 0.  1.
         12    1    5    5    0    0  0.38559231651E+02 -0.12503272117E+02 -0.48940145842E+02  0.63547494319E+02  0.00000000000E+00 0. -1.
         11    1    3    3    0    0  0.19095118641E+01  0.37649964100E+02 -0.10273407566E+04  0.10280321961E+04  0.00000000000E+00 0. -1.
        -12    1    3    3    0    0 -0.20146324024E+02 -0.13890284752E+02 -0.11002902752E+03  0.11271735127E+03  0.00000000000E+00 0.  1.
          5    1    4    4  501    0 -0.60722535590E+02 -0.50744112427E+02 -0.10007037251E+03  0.12764694719E+03  0.41800000000E+01 0.  1.
         -5    1    4    4    0  501  0.19383426798E+02  0.48254802258E+02 -0.54022941640E+02  0.75101223683E+02  0.41800000000E+01 0.  1.
</event>
<event>
11    1  0.7105277E-009  0.1708327E+03  0.7561462E-02  0.1077309E+00
         22   -1    0    0    0    0  0.00000000000E+00  0.00000000000E+00  0.81816090584E+02  0.81816090584E+02  0.00000000000E+00 0.  1.
         22   -1    0    0    0    0 -0.00000000000E+00 -0.00000000000E+00 -0.18258864660E+04  0.18258864660E+04  0.00000000000E+00 0. -1.
        -24    2    1    2    0    0 -0.73287460930E+02  0.94067624918E+02 -0.16299656313E+04  0.16363881032E+04  0.82208850866E+02 0.  0.
         25    2    1    2    0    0  0.55184878354E+02 -0.59376346257E+02 -0.10148504225E+03  0.18032470634E+03  0.12508742791E+03 0.  0.
         24    2    1    2    0    0  0.18102582576E+02 -0.34691278661E+02 -0.12619701889E+02  0.90989747046E+02  0.81170739067E+02 0.  0.
        -13    1    5    5    0    0 -0.14794806604E+02 -0.27180574400E+02  0.25486662389E+02  0.40090396442E+02  0.00000000000E+00 0.  1.
         14    1    5    5    0    0  0.32897389181E+02 -0.75107042610E+01 -0.38106364278E+02  0.50899350604E+02  0.00000000000E+00 0. -1.
         11    1    3    3    0    0  0.16867204221E+02  0.15941266187E+02 -0.39247319930E+03  0.39315879580E+03  0.00000000000E+00 0. -1.
        -12    1    3    3    0    0 -0.90154665151E+02  0.78126358731E+02 -0.12374924320E+04  0.12432293074E+04  0.00000000000E+00 0.  1.
          5    1    4    4  501    0 -0.39719285739E+02 -0.28248347229E+02 -0.37444219234E+02  0.61604648646E+02  0.41800000000E+01 0.  1.
         -5    1    4    4    0  501  0.94904164093E+02 -0.31127999029E+02 -0.64040823016E+02  0.11872005769E+03  0.41800000000E+01 0.  1.
</event>
<event>
11    1  0.7105277E-009  0.4244174E+03  0.7561462E-02  0.9580339E-01
         22   -1    0    0    0    0  0.00000000000E+00  0.00000000000E+00  0.55558966473E+03  0.55558966473E+03  0.00000000000E+00 0.  1.
         22   -1    0    0    0    0 -0.00000000000E+00 -0.00000000000E+00 -0.49948499114E+03  0.49948499114E+03  0.00000000000E+00 0.  1.
        -24    2    1    2    0    0 -0.10716178358E+03 -0.36344299193E+02 -0.12702883846E+03  0.18744471515E+03  0.78706032120E+02 0.  0.
         25    2    1    2    0    0 -0.35409516619E+03  0.51968830176E+02  0.65683078619E+02  0.38476701614E+03  0.12508894380E+03 0.  0.
         24    2    1    2    0    0  0.46125694978E+03 -0.15624530983E+02  0.11745043344E+03  0.48286292457E+03  0.79748980716E+02 0.  0.
        -11    1    5    5    0    0  0.31767800831E+03  0.24654537893E+02  0.68507656584E+02  0.32591480821E+03  0.00000000000E+00 0.  1.
         12    1    5    5    0    0  0.14357894147E+03 -0.40279068876E+02  0.48942776851E+02  0.15694811636E+03  0.00000000000E+00 0. -1.
         13    1    3    3    0    0 -0.63873354047E+02 -0.53097701757E+02 -0.11036054447E+03  0.13812538168E+03  0.00000000000E+00 0. -1.
        -14    1    3    3    0    0 -0.43288429537E+02  0.16753402564E+02 -0.16668293993E+02  0.49319333469E+02  0.00000000000E+00 0.  1.
          5    1    4    4  501    0 -0.10383230470E+03 -0.38437471961E+02  0.38331432820E+02  0.11724059831E+03  0.41800000000E+01 0.  1.
         -5    1    4    4    0  501 -0.25026286149E+03  0.90406302137E+02  0.27351645800E+02  0.26752641783E+03  0.41800000000E+01 0.  1.
</event>
<event>
11    1  0.7105277E-009  0.1372794E+03  0.7561462E-02  0.1110635E+00
         22   -1    0    0    0    0  0.00000000000E+00  0.00000000000E+00  0.18071122210E+04  0.18071122210E+04  0.00000000000E+00 0.  1.
         22   -1    0    0    0    0 -0.00000000000E+00 -0.00000000000E+00 -0.20313788584E+03  0.20313788584E+03  0.00000000000E+00 0.  1.
         24    2    1    2    0    0  0.41469717369E+02  0.36399478335E+02 -0.16479098344E+03  0.19175172531E+03  0.81043176489E+02 0.  0.
         25    2    1    2    0    0 -0.57233789367E+02 -0.56522956861E+02  0.20907763886E+03  0.25657610027E+03  0.12508910768E+03 0.  0.
        -24    2    1    2    0    0  0.15764071997E+02  0.20123478526E+02  0.15596876797E+04  0.15619222812E+04  0.79511596789E+02 0.  0.
        -11    1    3    3    0    0  0.66179860936E+01  0.51513995828E+02 -0.55335168899E+02  0.75891174870E+02  0.00000000000E+00 0.  1.
         12    1    3    3    0    0  0.34851731276E+02 -0.15114517493E+02 -0.10945581454E+03  0.11586055044E+03  0.00000000000E+00 0. -1.
         11    1    5    5    0    0 -0.30040367841E+02  0.10495184953E+02  0.38901199794E+03  0.39031129519E+03  0.00000000000E+00 0. -1.
        -12    1    5    5    0    0  0.45804439838E+02  0.96282935726E+01  0.11706756818E+04  0.11716109860E+04  0.00000000000E+00 0.  1.
          5    1    4    4  501    0 -0.26450105666E+02  0.18298751215E+02  0.88392734579E-01  0.32433510434E+02  0.41800000000E+01 0.  1.
         -5    1    4    4    0  501 -0.30783683700E+02 -0.74821708076E+02  0.20898924613E+03  0.22414258984E+03  0.41800000000E+01 0.  1.
</event>
<event>
11    1  0.7105277E-009  0.1938627E+03  0.7561462E-02  0.1058951E+00
         22   -1    0    0    0    0  0.00000000000E+00  0.00000000000E+00  0.84954659643E+03  0.84954659643E+03  0.00000000000E+00 0.  1.
         22   -1    0    0    0    0 -0.00000000000E+00 -0.00000000000E+00 -0.23188872161E+03  0.23188872161E+03  0.00000000000E+00 0.  1.
         24    2    1    2    0    0  0.86840362311E+02 -0.62029831417E+02 -0.13555947388E+03  0.19134647317E+03  0.82753569858E+02 0.  0.
         25    2    1    2    0    0 -0.62931071047E+02  0.19928011593E+03  0.20447469556E+03  0.31800944960E+03  0.12508886683E+03 0.  0.
        -24    2    1    2    0    0 -0.23909291264E+02 -0.13725028451E+03  0.54874265315E+03  0.57207939527E+03  0.82140369505E+02 0.  0.
        -13    1    3    3    0    0  0.49549330827E+02 -0.97734890774E+01 -0.11217943256E+03  0.12302390973E+03  0.00000000000E+00 0.  1.
         14    1    3    3    0    0  0.37291031484E+02 -0.52256342339E+02 -0.23380041321E+02  0.68322563447E+02  0.00000000000E+00 0. -1.
         13    1    5    5    0    0 -0.12595466639E+02  0.82299421380E+01  0.37080815783E+02  0.40017054197E+02  0.00000000000E+00 0. -1.
        -14    1    5    5    0    0 -0.11313824624E+02 -0.14548022665E+03  0.51166183736E+03  0.53206234107E+03  0.00000000000E+00 0.  1.
          5    1    4    4  501    0 -0.40107657931E+02  0.11567232817E+03  0.19559427266E+03  0.23078843911E+03  0.41800000000E+01 0.  1.
         -5    1    4    4    0  501 -0.22823413116E+02  0.83607787756E+02  0.88804228956E+01  0.87221010488E+02  0.41800000000E+01 0.  1.
</event>
<event>
11    1  0.7105277E-009  0.1724719E+03  0.7561462E-02  0.1075900E+00
         22   -1    0    0    0    0  0.00000000000E+00  0.00000000000E+00  0.15854171880E+04  0.15854171880E+04  0.00000000000E+00 0.  1.
         22   -1    0    0    0    0 -0.00000000000E+00 -0.00000000000E+00 -0.32330397733E+03  0.32330397733E+03  0.00000000000E+00 0.  1.
         24    2    1    2    0    0  0.40159413288E+02 -0.11125597884E+03 -0.28407323642E+03  0.31799875274E+03  0.80218026602E+02 0.  0.
         25    2    1    2    0    0 -0.60355388830E+02  0.11633089719E+03  0.37485660172E+03  0.41633536482E+03  0.12506803566E+03 0.  0.
        -24    2    1    2    0    0  0.20195975542E+02 -0.50749183479E+01  0.11713298453E+04  0.11743870477E+04  0.82083488513E+02 0.  0.
        -13    1    3    3    0    0  0.71430624873E+00 -0.57109042170E+01 -0.11304064708E+03  0.11318706884E+03  0.00000000000E+00 0.  1.
         14    1    3    3    0    0  0.39445107040E+02 -0.10554507462E+03 -0.17103258934E+03  0.20481168390E+03  0.00000000000E+00 0. -1.
         11    1    5    5    0    0 -0.16214713326E+02  0.29998598321E+02  0.48659401610E+03  0.48778742228E+03  0.00000000000E+00 0. -1.
        -12    1    5    5    0    0  0.36410688868E+02 -0.35073516669E+02  0.68473582923E+03  0.68659962545E+03  0.00000000000E+00 0.  1.
          5    1    4    4  501    0 -0.96540020192E+02  0.82281240999E+02  0.30639592903E+03  0.33164154723E+03  0.41800000000E+01 0. -1.
         -5    1    4    4    0  501  0.36184631362E+02  0.34049656188E+02  0.68460672683E+02  0.84693817588E+02  0.41800000000E+01 0. -1.
</event>
<event>
11    1  0.7105277E-009  0.2173234E+03  0.7561462E-02  0.1042907E+00
         22   -1    0    0    0    0  0.00000000000E+00  0.00000000000E+00  0.17496029107E+03  0.17496029107E+03  0.00000000000E+00 0. -1.
         22   -1    0    0    0    0 -0.00000000000E+00 -0.00000000000E+00 -0.19065282547E+04  0.19065282547E+04  0.00000000000E+00 0.  1.
        -24    2    1    2    0    0  0.41238810816E+02  0.16386709749E+03 -0.14667336588E+04  0.14786601462E+04  0.81087219109E+02 0.  0.
         25    2    1    2    0    0 -0.16430327248E+03 -0.25339003194E+03 -0.28037981472E+03  0.43065350572E+03  0.12509007895E+03 0.  0.
         24    2    1    2    0    0  0.12306446166E+03  0.89522934448E+02  0.15545509866E+02  0.17217489383E+03  0.79014642140E+02 0.  0.
        -11    1    5    5    0    0  0.59746518033E+02 -0.21950124580E+01  0.11492750340E+01  0.59797870613E+02  0.00000000000E+00 0.  1.
         12    1    5    5    0    0  0.63317943629E+02  0.91717946906E+02  0.14396234832E+02  0.11237702322E+03  0.00000000000E+00 0. -1.
         13    1    3    3    0    0 -0.82780370804E+01  0.75701180478E+02 -0.40306824245E+03  0.41019897939E+03  0.00000000000E+00 0. -1.
        -14    1    3    3    0    0  0.49516847896E+02  0.88165917012E+02 -0.10636654163E+04  0.10684611668E+04  0.00000000000E+00 0.  1.
          5    1    4    4  501    0 -0.18292256305E+03 -0.20994004006E+03 -0.22744604786E+03  0.35956176323E+03  0.41800000000E+01 0.  1.
         -5    1    4    4    0  501  0.18619290569E+02 -0.43449991874E+02 -0.52933766863E+02  0.71091742484E+02  0.41800000000E+01 0.  1.
</event>
<event>
11    1  0.7854259E-009  0.1663126E+03  0.7561462E-02  0.1081286E+00
         22   -1    0    0    0    0  0.00000000000E+00  0.00000000000E+00  0.15010032864E+04  0.15010032864E+04  0.00000000000E+00 0. -1.
         22   -1    0    0    0    0 -0.00000000000E+00 -0.00000000000E+00 -0.92886818339E+03  0.92886818339E+03  0.00000000000E+00 0.  1.
         24    2    1    2    0    0  0.74839668116E+02  0.72962980751E+02 -0.69855287665E+03  0.71086232104E+03  0.80153262647E+02 0.  0.
         25    2    1    2    0    0 -0.51447293942E+02 -0.15752701928E+03 -0.17309617105E+03  0.27031194936E+03  0.12507869393E+03 0.  0.
        -24    2    1    2    0    0 -0.23392374174E+02  0.84564038526E+02  0.14437841507E+04  0.14486971994E+04  0.80700817056E+02 0.  0.
        -13    1    3    3    0    0  0.33481012095E+02  0.78176062145E+02 -0.55136873199E+03  0.55788883613E+03  0.00000000000E+00 0.  1.
         14    1    3    3    0    0  0.41358656021E+02 -0.52130813946E+01 -0.14718414466E+03  0.15297348491E+03  0.00000000000E+00 0. -1.
         11    1    5    5    0    0 -0.51343854303E+02  0.44847075830E+02  0.98286352890E+03  0.98522493271E+03  0.00000000000E+00 0. -1.
        -12    1    5    5    0    0  0.27951480128E+02  0.39716962695E+02  0.46092062181E+03  0.46347226667E+03  0.00000000000E+00 0.  1.
          5    1    4    4  501    0 -0.16547118580E+02 -0.26971238682E+02  0.17677037950E+02  0.36485681027E+02  0.41800000000E+01 0.  1.
         -5    1    4    4    0  501 -0.34900175362E+02 -0.13055578059E+03 -0.19077320900E+03  0.23382626833E+03  0.41800000000E+01 0.  1.
</event>
<event>
11    1  0.7105277E-009  0.1275937E+03  0.7561462E-02  0.1122261E+00
         22   -1    0    0    0    0  0.00000000000E+00  0.00000000000E+00  0.80760789456E+03  0.80760789456E+03  0.00000000000E+00 0. -1.
         22   -1    0    0    0    0 -0.00000000000E+00 -0.00000000000E+00 -0.27266691818E+03  0.27266691818E+03  0.00000000000E+00 0. -1.
        -24    2    1    2    0    0  0.34853510371E+02 -0.52997799354E+01 -0.15670667485E+03  0.17679211114E+03  0.73862126758E+02 0.  0.
         25    2    1    2    0    0 -0.56808044944E+02 -0.48711152385E+01 -0.56552689592E+02  0.14865413407E+03  0.12509581585E+03 0.  0.
         24    2    1    2    0    0  0.21954534573E+02  0.10170895174E+02  0.74820034082E+03  0.75482856752E+03  0.96834743957E+02 0.  0.
        -11    1    5    5    0    0 -0.30121516012E+02  0.20881742968E+02  0.15605889451E+03  0.16030511992E+03  0.00000000000E+00 0.  1.
         12    1    5    5    0    0  0.52076050585E+02 -0.10710847794E+02  0.59214144631E+03  0.59452344760E+03  0.00000000000E+00 0. -1.
         11    1    3    3    0    0 -0.35526708225E+01  0.16809990506E+02 -0.11386431930E+03  0.11515329114E+03  0.00000000000E+00 0. -1.
        -12    1    3    3    0    0  0.38406181194E+02 -0.22109770442E+02 -0.42842355547E+02  0.61638820005E+02  0.00000000000E+00 0.  1.
          5    1    4    4  501    0 -0.18830608800E+02 -0.60376550533E+02 -0.45663137107E+01  0.63547173839E+02  0.41800000000E+01 0. -1.
         -5    1    4    4    0  501 -0.37977436144E+02  0.55505435294E+02 -0.51986375882E+02  0.85106960236E+02  0.41800000000E+01 0. -1.
</event>
<event>
11    1  0.7105277E-009  0.1386550E+03  0.7561462E-02  0.1109070E+00
         22   -1    0    0    0    0  0.00000000000E+00  0.00000000000E+00  0.85582798267E+02  0.85582798267E+02  0.00000000000E+00 0.  1.
         22   -1    0    0    0    0 -0.00000000000E+00 -0.00000000000E+00 -0.76129156722E+03  0.76129156722E+03  0.00000000000E+00 0. -1.
         24    2    1    2    0    0 -0.25031414238E+02 -0.98519699092E+01 -0.42195218677E+03  0.43024160388E+03  0.79627613181E+02 0.  0.
         25    2    1    2    0    0 -0.15997303083E+02  0.54961924220E+02 -0.27487223403E+03  0.30737455267E+03  0.12509054229E+03 0.  0.
        -24    2    1    2    0    0  0.41028717321E+02 -0.45109954310E+02  0.21115651850E+02  0.10925820893E+03  0.88165876861E+02 0.  0.
        -13    1    3    3    0    0  0.72450402005E+01  0.14809495087E+02 -0.18623310090E+02  0.24872463307E+02  0.00000000000E+00 0.  1.
         14    1    3    3    0    0 -0.32276454438E+02 -0.24661464996E+02 -0.40332887668E+03  0.40536914057E+03  0.00000000000E+00 0. -1.
         11    1    5    5    0    0  0.14819976807E+01 -0.14076281772E+02 -0.32690467850E+02  0.35623092425E+02  0.00000000000E+00 0. -1.
        -12    1    5    5    0    0  0.39546719640E+02 -0.31033672539E+02  0.53806119700E+02  0.73635116505E+02  0.00000000000E+00 0.  1.
          5    1    4    4  501    0 -0.49719802670E+02 -0.19784606222E+02 -0.13353101256E+03  0.14391488156E+03  0.41800000000E+01 0. -1.
         -5    1    4    4    0  501  0.33722499587E+02  0.74746530441E+02 -0.14134122148E+03  0.16345967111E+03  0.41800000000E+01 0. -1.
</event>
<event>
11    1  0.7105277E-009  0.1955907E+03  0.7561462E-02  0.1057686E+00
         22   -1    0    0    0    0  0.00000000000E+00  0.00000000000E+00  0.43602446697E+03  0.43602446697E+03  0.00000000000E+00 0.  1.
         22   -1    0    0    0    0 -0.00000000000E+00 -0.00000000000E+00 -0.14819820989E+04  0.14819820989E+04  0.00000000000E+00 0. -1.
         24    2    1    2    0    0 -0.10183487900E+03 -0.10632548919E+03 -0.13429944522E+04  0.13536203652E+04  0.83537668659E+02 0.  0.
         25    2    1    2    0    0  0.19385474676E+03  0.18940070058E+03  0.95208413738E+02  0.31331188459E+03  0.12508959493E+03 0.  0.
        -24    2    1    2    0    0 -0.92019867753E+02 -0.83075211391E+02  0.20182840650E+03  0.25107431616E+03  0.83273403638E+02 0.  0.
        -11    1    3    3    0    0  0.11128423733E+02 -0.27994084148E+02 -0.17626480938E+03  0.17882056254E+03  0.00000000000E+00 0.  1.
         12    1    3    3    0    0 -0.11296330274E+03 -0.78331405042E+02 -0.11667296428E+04  0.11747998026E+04  0.00000000000E+00 0. -1.
         11    1    5    5    0    0 -0.71777471024E+02 -0.90229875136E+01  0.90928599401E+02  0.11619565327E+03  0.00000000000E+00 0. -1.
        -12    1    5    5    0    0 -0.20242396729E+02 -0.74052223877E+02  0.11089980710E+03  0.13487866289E+03  0.00000000000E+00 0.  1.
          5    1    4    4  501    0  0.44076209983E+01  0.23076155802E+02 -0.24502579063E+02  0.34202117920E+02  0.41800000000E+01 0.  1.
         -5    1    4    4    0  501  0.18944712576E+03  0.16632454478E+03  0.11971099280E+03  0.27910976667E+03  0.41800000000E+01 0.  1.
</event>
<event>
11    1  0.7105277E-009  0.1709102E+03  0.7561462E-02  0.1077242E+00
         22   -1    0    0    0    0  0.00000000000E+00  0.00000000000E+00  0.15899104862E+03  0.15899104862E+03  0.00000000000E+00 0. -1.
         22   -1    0    0    0    0 -0.00000000000E+00 -0.00000000000E+00 -0.12303240569E+04  0.12303240569E+04  0.00000000000E+00 0.  1.
        -24    2    1    2    0    0  0.96983435791E+02 -0.60280272482E+02 -0.10586144718E+04  0.10679823687E+04  0.82959278826E+02 0.  0.
         25    2    1    2    0    0 -0.11298115405E+03  0.13050246273E+03 -0.12074689614E+02  0.21351319911E+03  0.12508578703E+03 0.  0.
         24    2    1    2    0    0  0.15997718257E+02 -0.70222190247E+02 -0.64384693939E+00  0.10781953775E+03  0.80234376608E+02 0.  0.
        -13    1    5    5    0    0 -0.12570979282E+02  0.62209503199E+01 -0.19540362657E+02  0.24053180990E+02  0.00000000000E+00 0.  1.
         14    1    5    5    0    0  0.28568697539E+02 -0.76443140567E+02  0.18896515717E+02  0.83766356762E+02  0.00000000000E+00 0. -1.
         13    1    3    3    0    0  0.49423616779E+02 -0.23744545131E+02 -0.20319367252E+03  0.21046179195E+03  0.00000000000E+00 0. -1.
        -14    1    3    3    0    0  0.47559819011E+02 -0.36535727351E+02 -0.85542079923E+03  0.85752057673E+03  0.00000000000E+00 0.  1.
          5    1    4    4  501    0  0.41062173536E+01 -0.20801139623E+02  0.15489352805E+01  0.21666103274E+02  0.41800000000E+01 0.  1.
         -5    1    4    4    0  501 -0.11708737140E+03  0.15130360235E+03 -0.13623624895E+02  0.19184709584E+03  0.41800000000E+01 0.  1.
</event>
<event>
11    1  0.7105277E-009  0.1354385E+03  0.7561462E-02  0.1112762E+00
         22   -1    0    0    0    0  0.00000000000E+00  0.00000000000E+00  0.91941457701E+03  0.91941457701E+03  0.00000000000E+00 0.  1.
         22   -1    0    0    0    0 -0.00000000000E+00 -0.00000000000E+00 -0.23166586485E+03  0.23166586485E+03  0.00000000000E+00 0. -1.
         24    2    1    2    0    0  0.41511241445E+02 -0.20290106673E+02 -0.12722048272E+03  0.15705603331E+03  0.79666020237E+02 0.  0.
         25    2    1    2    0    0 -0.73326110629E+02  0.21131417440E+02 -0.25673876342E+02  0.14876347162E+03  0.12509263472E+03 0.  0.
        -24    2    1    2    0    0  0.31814869184E+02 -0.84131076693E+00  0.84064307122E+03  0.84526093693E+03  0.82294499207E+02 0.  0.
        -13    1    3    3    0    0  0.22590691872E+02  0.58963356600E+01  0.23996446637E+01  0.23470501230E+02  0.00000000000E+00 0.  1.
         14    1    3    3    0    0  0.18920549573E+02 -0.26186442333E+02 -0.12962012738E+03  0.13358553208E+03  0.00000000000E+00 0. -1.
         13    1    5    5    0    0  0.20179351104E+02 -0.39987702840E+02  0.33676955821E+03  0.33973512908E+03  0.00000000000E+00 0. -1.
        -14    1    5    5    0    0  0.11635518080E+02  0.39146392073E+02  0.50387351301E+03  0.50552580785E+03  0.00000000000E+00 0.  1.
          5    1    4    4  501    0  0.22242958058E+02  0.40654272348E+02 -0.20918542343E+02  0.51015457041E+02  0.41800000000E+01 0.  1.
         -5    1    4    4    0  501 -0.95569068687E+02 -0.19522854909E+02 -0.47553339990E+01  0.97748014583E+02  0.41800000000E+01 0.  1.
</event>
<event>
11    1  0.7105277E-009  0.1308488E+03  0.7561462E-02  0.1118230E+00
         22   -1    0    0    0    0  0.00000000000E+00  0.00000000000E+00  0.33467067625E+04  0.33467067625E+04  0.00000000000E+00 0. -1.
         22   -1    0    0    0    0 -0.00000000000E+00 -0.00000000000E+00 -0.45601839985E+03  0.45601839985E+03  0.00000000000E+00 0.  1.
         24    2    1    2    0    0 -0.38015625111E+02  0.50514688558E+01 -0.44750206281E+03  0.45647958615E+03  0.81515711753E+02 0.  0.
         25    2    1    2    0    0  0.58628113024E+02  0.20442727446E+02  0.17640619140E+04  0.17695810178E+04  0.12508949283E+03 0.  0.
        -24    2    1    2    0    0 -0.20612487913E+02 -0.25494196301E+02  0.15741285114E+04  0.15766645584E+04  0.83160871722E+02 0.  0.
        -13    1    3    3    0    0 -0.27881516572E+02  0.15716364050E+02 -0.43754701880E+03  0.43871605478E+03  0.00000000000E+00 0.  1.
         14    1    3    3    0    0 -0.10134108539E+02 -0.10664895194E+02 -0.99550440125E+01  0.17763531368E+02  0.00000000000E+00 0. -1.
         13    1    5    5    0    0 -0.23395387614E+02 -0.31603404655E+02  0.15641137829E+04  0.15646079526E+04  0.00000000000E+00 0. -1.
        -14    1    5    5    0    0  0.27828997011E+01  0.61092083539E+01  0.10014728529E+02  0.12056605865E+02  0.00000000000E+00 0.  1.
          5    1    4    4  501    0  0.12563633720E+02  0.10640636536E+02  0.15608028640E+04  0.15608952946E+04  0.41800000000E+01 0.  1.
         -5    1    4    4    0  501  0.46064479304E+02  0.98020909095E+01  0.20325905002E+03  0.20868572317E+03  0.41800000000E+01 0.  1.
</event>
<event>
11    1  0.7105277E-009  0.2079963E+03  0.7561462E-02  0.1049009E+00
         22   -1    0    0    0    0  0.00000000000E+00  0.00000000000E+00  0.60525731516E+03  0.60525731516E+03  0.00000000000E+00 0.  1.
         22   -1    0    0    0    0 -0.00000000000E+00 -0.00000000000E+00 -0.13258307538E+04  0.13258307538E+04  0.00000000000E+00 0.  1.
        -24    2    1    2    0    0 -0.92550204226E+02 -0.16959445395E+02 -0.99495730964E+03  0.10026028677E+04  0.80120529955E+02 0.  0.
         25    2    1    2    0    0 -0.34191182885E+02 -0.96319572259E+02 -0.29053184264E+03  0.33241889548E+03  0.12508826284E+03 0.  0.
         24    2    1    2    0    0  0.12674138711E+03  0.11327901765E+03  0.56491571362E+03  0.59606630575E+03  0.85262901132E+02 0.  0.
        -13    1    5    5    0    0  0.11360216047E+03  0.83339521442E+02  0.52924568392E+03  0.54767866550E+03  0.00000000000E+00 0.  1.
         14    1    5    5    0    0  0.13139226638E+02  0.29939496211E+02  0.35670029699E+02  0.48387640247E+02  0.00000000000E+00 0. -1.
         13    1    3    3    0    0  0.15755394521E+01 -0.27244752060E+02 -0.16218990942E+03  0.16446983175E+03  0.00000000000E+00 0. -1.
        -14    1    3    3    0    0 -0.94125743678E+02  0.10285306666E+02 -0.83276740022E+03  0.83813303599E+03  0.00000000000E+00 0.  1.
          5    1    4    4  501    0  0.14863145842E+01 -0.43911098374E+02 -0.10630756363E+02  0.45396905977E+02  0.41800000000E+01 0. -1.
         -5    1    4    4    0  501 -0.35677497469E+02 -0.52408473885E+02 -0.27990108628E+03  0.28702198951E+03  0.41800000000E+01 0. -1.
</event>
<event>
11    1  0.7105277E-009  0.1398993E+03  0.7561462E-02  0.1107671E+00
         22   -1    0    0    0    0  0.00000000000E+00  0.00000000000E+00  0.96551087651E+03  0.96551087651E+03  0.00000000000E+00 0. -1.
         22   -1    0    0    0    0 -0.00000000000E+00 -0.00000000000E+00 -0.42635460254E+03  0.42635460254E+03  0.00000000000E+00 0. -1.
        -24    2    1    2    0    0 -0.24957470551E+02 -0.87264971019E+02 -0.22984620407E+03  0.25801613502E+03  0.74195673065E+02 0.  0.
         25    2    1    2    0    0 -0.35311878572E+01  0.19407988919E+02 -0.15667770810E+03  0.20145844746E+03  0.12509381486E+03 0.  0.
         24    2    1    2    0    0  0.28488658408E+02  0.67856982100E+02  0.92568018613E+03  0.93239089658E+03  0.83980970126E+02 0.  0.
        -11    1    5    5    0    0 -0.62031088792E+01  0.58806745776E+02  0.30520239423E+03  0.31087813264E+03  0.00000000000E+00 0.  1.
         12    1    5    5    0    0  0.34691767288E+02  0.90502363238E+01  0.62047779190E+03  0.62151276393E+03  0.00000000000E+00 0. -1.
         11    1    3    3    0    0  0.21041819786E-01 -0.89944185207E+02 -0.15673426983E+03  0.18070857267E+03  0.00000000000E+00 0. -1.
        -12    1    3    3    0    0 -0.24978512371E+02  0.26792141879E+01 -0.73111934240E+02  0.77307562355E+02  0.00000000000E+00 0.  1.
          5    1    4    4  501    0 -0.33037159972E+02 -0.95145252460E+01 -0.15613168093E+03  0.15992671547E+03  0.41800000000E+01 0.  1.
         -5    1    4    4    0  501  0.29505972115E+02  0.28922514165E+02 -0.54602716261E+00  0.41531731986E+02  0.41800000000E+01 0.  1.
</event>
<event>
11    1  0.7105277E-009  0.1982210E+03  0.7561462E-02  0.1055789E+00
         22   -1    0    0    0    0  0.00000000000E+00  0.00000000000E+00  0.29901787443E+03  0.29901787443E+03  0.00000000000E+00 0. -1.
         22   -1    0    0    0    0 -0.00000000000E+00 -0.00000000000E+00 -0.21892522063E+04  0.21892522063E+04  0.00000000000E+00 0.  1.
        -24    2    1    2    0    0 -0.77938523944E+01  0.14837822833E+03 -0.17284025316E+04  0.17366245312E+04  0.80078761776E+02 0.  0.
         25    2    1    2    0    0  0.47577313940E+01 -0.19016597677E+03 -0.41990045782E+03  0.47765048318E+03  0.12509138608E+03 0.  0.
         24    2    1    2    0    0  0.30361210005E+01  0.41787748443E+02  0.25806865755E+03  0.27399506642E+03  0.81966032342E+02 0.  0.
        -13    1    5    5    0    0  0.17780530754E+02 -0.12942435722E+02  0.21590907974E+02  0.30819169740E+02  0.00000000000E+00 0.  1.
         14    1    5    5    0    0 -0.14744409754E+02  0.54730184165E+02  0.23647774958E+03  0.24317589668E+03  0.00000000000E+00 0. -1.
         11    1    3    3    0    0  0.14171667123E+02 -0.25879669809E+01 -0.91333668485E+02  0.92462818046E+02  0.00000000000E+00 0. -1.
        -12    1    3    3    0    0 -0.21965519517E+02  0.15096619531E+03 -0.16370688631E+04  0.16441617131E+04  0.00000000000E+00 0.  1.
          5    1    4    4  501    0  0.48603953668E+02 -0.17115034812E+03 -0.30480178419E+03  0.35295380154E+03  0.41800000000E+01 0. -1.
         -5    1    4    4    0  501 -0.43846222274E+02 -0.19015628656E+02 -0.11509867363E+03  0.12469668164E+03  0.41800000000E+01 0. -1.
</event>
<event>
11    1  0.7105277E-009  0.1442914E+03  0.7561462E-02  0.1102859E+00
         22   -1    0    0    0    0  0.00000000000E+00  0.00000000000E+00  0.71713192464E+03  0.71713192464E+03  0.00000000000E+00 0. -1.
         22   -1    0    0    0    0 -0.00000000000E+00 -0.00000000000E+00 -0.57420751164E+03  0.57420751164E+03  0.00000000000E+00 0.  1.
        -24    2    1    2    0    0 -0.28343130554E+02  0.31236039750E+02 -0.40181835131E+03  0.41176232033E+03  0.79443047297E+02 0.  0.
         25    2    1    2    0    0  0.36013153915E+02 -0.10186602444E+03 -0.12127144478E+03  0.20500724271E+03  0.12509025563E+03 0.  0.
         24    2    1    2    0    0 -0.76700233611E+01  0.70629984695E+02  0.66601420908E+03  0.67456987325E+03  0.80138400253E+02 0.  0.
        -11    1    5    5    0    0  0.14218402145E+02 -0.60270175466E+01  0.31656425609E+02  0.35222396034E+02  0.00000000000E+00 0.  1.
         12    1    5    5    0    0 -0.21888425506E+02  0.76657002241E+02  0.63435778347E+03  0.63934747721E+03  0.00000000000E+00 0. -1.
         13    1    3    3    0    0 -0.35099005126E+01  0.52164764705E+02 -0.17538774242E+03  0.18301459578E+03  0.00000000000E+00 0. -1.
        -14    1    3    3    0    0 -0.24833230041E+02 -0.20928724955E+02 -0.22643060888E+03  0.22874772454E+03  0.00000000000E+00 0.  1.
          5    1    4    4  501    0  0.26060443158E+02 -0.88203051716E+02 -0.10258667314E+02  0.92637129083E+02  0.41800000000E+01 0.  1.
         -5    1    4    4    0  501  0.99527107574E+01 -0.13662972729E+02 -0.11101277747E+03  0.11237011363E+03  0.41800000000E+01 0.  1.
</event>
<event>
11    1  0.7105277E-009  0.1598061E+03  0.7561462E-02  0.1087260E+00
         22   -1    0    0    0    0  0.00000000000E+00  0.00000000000E+00  0.20674182672E+03  0.20674182672E+03  0.00000000000E+00 0. -1.
         22   -1    0    0    0    0 -0.00000000000E+00 -0.00000000000E+00 -0.11521107316E+04  0.11521107316E+04  0.00000000000E+00 0.  1.
         24    2    1    2    0    0  0.84116341797E+02  0.55607731753E+02 -0.10173440887E+04  0.10268251099E+04  0.95984544215E+02 0.  0.
         25    2    1    2    0    0 -0.10061521781E+00 -0.12761131193E+03  0.60915221064E+00  0.17869531266E+03  0.12508791566E+03 0.  0.
        -24    2    1    2    0    0 -0.84015726579E+02  0.72003580179E+02  0.71366031601E+02  0.15333213577E+03  0.78577830989E+02 0.  0.
        -11    1    3    3    0    0  0.45909541896E+02  0.70141430465E+02 -0.43219680249E+03  0.44025172616E+03  0.00000000000E+00 0.  1.
         12    1    3    3    0    0  0.38206799901E+02 -0.14533698713E+02 -0.58514728623E+03  0.58657338376E+03  0.00000000000E+00 0. -1.
         13    1    5    5    0    0 -0.58632563846E+02  0.36489075914E+02  0.83177122365E+02  0.10810949953E+03  0.00000000000E+00 0. -1.
        -14    1    5    5    0    0 -0.25383162733E+02  0.35514504265E+02 -0.11811090763E+02  0.45222636241E+02  0.00000000000E+00 0.  1.
          5    1    4    4  501    0  0.89534872213E+01  0.12466543740E+02 -0.30915457596E+02  0.34768053794E+02  0.41800000000E+01 0.  1.
         -5    1    4    4    0  501 -0.90541024391E+01 -0.14007785567E+03  0.31524609807E+02  0.14392725886E+03  0.41800000000E+01 0.  1.
</event>
<event>
11    1  0.7105277E-009  0.1687131E+03  0.7561462E-02  0.1079157E+00
         22   -1    0    0    0    0  0.00000000000E+00  0.00000000000E+00  0.15669843214E+04  0.15669843214E+04  0.00000000000E+00 0. -1.
         22   -1    0    0    0    0 -0.00000000000E+00 -0.00000000000E+00 -0.25309872972E+03  0.25309872972E+03  0.00000000000E+00 0.  1.
         24    2    1    2    0    0 -0.68118556747E+01 -0.96589915904E+02 -0.16283548854E+03  0.20492713205E+03  0.78126307283E+02 0.  0.
         25    2    1    2    0    0 -0.34883614972E+02  0.19716939791E+03  0.14609368762E+03  0.27763902852E+03  0.12508967395E+03 0.  0.
        -24    2    1    2    0    0  0.41695470647E+02 -0.10057948201E+03  0.13306273926E+04  0.13375168906E+04  0.80792512584E+02 0.  0.
        -11    1    3    3    0    0 -0.22733419700E+02 -0.85574766227E+02 -0.78283674557E+02  0.11818706650E+03  0.00000000000E+00 0.  1.
         12    1    3    3    0    0  0.15921564025E+02 -0.11015149678E+02 -0.84551813985E+02  0.86740065549E+02  0.00000000000E+00 0. -1.
         13    1    5    5    0    0  0.46119816749E+02 -0.22228924683E+02  0.34601522718E+03  0.34978236095E+03  0.00000000000E+00 0. -1.
        -14    1    5    5    0    0 -0.44243461024E+01 -0.78350557323E+02  0.98461216546E+03  0.98773452964E+03  0.00000000000E+00 0.  1.
          5    1    4    4  501    0 -0.54524265205E+02  0.11558392810E+03  0.25058365046E+02  0.13029940134E+03  0.41800000000E+01 0. -1.
         -5    1    4    4    0  501  0.19640650233E+02  0.81585469809E+02  0.12103532257E+03  0.14733962718E+03  0.41800000000E+01 0. -1.
</event>
<event>
11    1  0.7105277E-009  0.2419065E+03  0.7561462E-02  0.1028301E+00
         22   -1    0    0    0    0  0.00000000000E+00  0.00000000000E+00  0.42474521133E+03  0.42474521133E+03  0.00000000000E+00 0. -1.
         22   -1    0    0    0    0 -0.00000000000E+00 -0.00000000000E+00 -0.48477477993E+03  0.48477477993E+03  0.00000000000E+00 0.  1.
        -24    2    1    2    0    0  0.15772454172E+02 -0.22716706575E+02 -0.11838774588E+03  0.14615274176E+03  0.81118102053E+02 0.  0.
         25    2    1    2    0    0  0.14483032661E+03  0.15305437771E+03 -0.27146330904E+03  0.36570754490E+03  0.12509282232E+03 0.  0.
         24    2    1    2    0    0 -0.16060278078E+03 -0.13033767114E+03  0.32982148632E+03  0.39765970460E+03  0.81054710614E+02 0.  0.
        -11    1    5    5    0    0 -0.76146785907E+02 -0.10328553826E+03  0.15178336552E+03  0.19875720230E+03  0.00000000000E+00 0.  1.
         12    1    5    5    0    0 -0.84455994871E+02 -0.27052132878E+02  0.17803812080E+03  0.19890250230E+03  0.00000000000E+00 0. -1.
         13    1    3    3    0    0 -0.14164810434E+02  0.10190951835E+02  0.22304743944E+01  0.17591826794E+02  0.00000000000E+00 0. -1.
        -14    1    3    3    0    0  0.29937264606E+02 -0.32907658411E+02 -0.12061822027E+03  0.12856091496E+03  0.00000000000E+00 0.  1.
          5    1    4    4  501    0  0.16757043813E+03  0.13845718609E+03 -0.24654861749E+03  0.32871558725E+03  0.41800000000E+01 0.  1.
         -5    1    4    4    0  501 -0.22740111524E+02  0.14597191619E+02 -0.24914691552E+02  0.36991957645E+02  0.41800000000E+01 0.  1.
</event>
<event>
11    1  0.7105277E-009  0.1332644E+03  0.7561462E-02  0.1115322E+00
         22   -1    0    0    0    0  0.00000000000E+00  0.00000000000E+00  0.24811007558E+02  0.24811007558E+02  0.00000000000E+00 0. -1.
         22   -1    0    0    0    0 -0.00000000000E+00 -0.00000000000E+00 -0.16716206258E+04  0.16716206258E+04  0.00000000000E+00 0.  1.
         24    2    1    2    0    0  0.39099586746E+02 -0.38877917084E+02 -0.92280610085E+03  0.92933319277E+03  0.95125250606E+02 0.  0.
         25    2    1    2    0    0 -0.41177850137E+02 -0.13244840736E+02 -0.57532395617E+03  0.59035271397E+03  0.12509049207E+03 0.  0.
        -24    2    1    2    0    0  0.20782633917E+01  0.52122757820E+02 -0.14867956121E+03  0.17674572660E+03  0.80077080917E+02 0.  0.
        -11    1    3    3    0    0  0.44489188832E+02  0.21378014351E+02 -0.43390915898E+03  0.43670752875E+03  0.00000000000E+00 0.  1.
         12    1    3    3    0    0 -0.53896020860E+01 -0.60255931435E+02 -0.48889694186E+03  0.49262566401E+03  0.00000000000E+00 0. -1.
         13    1    5    5    0    0 -0.84767215768E+01  0.38681867077E+02 -0.15581487184E+02  0.42554957315E+02  0.00000000000E+00 0. -1.
        -14    1    5    5    0    0  0.10554984968E+02  0.13440890743E+02 -0.13309807403E+03  0.13419076928E+03  0.00000000000E+00 0.  1.
          5    1    4    4  501    0 -0.78879322926E+02  0.19225296687E+02 -0.39264410550E+03  0.40097185138E+03  0.41800000000E+01 0. -1.
         -5    1    4    4    0  501  0.37701472789E+02 -0.32470137423E+02 -0.18267985067E+03  0.18938086259E+03  0.41800000000E+01 0. -1.
</event>
<event>
11    1  0.7105277E-009  0.1477724E+03  0.7561462E-02  0.1099177E+00
         22   -1    0    0    0    0  0.00000000000E+00  0.00000000000E+00  0.40088311240E+03  0.40088311240E+03  0.00000000000E+00 0. -1.
         22   -1    0    0    0    0 -0.00000000000E+00 -0.00000000000E+00 -0.69979035573E+03  0.69979035573E+03  0.00000000000E+00 0. -1.
         24    2    1    2    0    0 -0.77410928302E+02 -0.20477891288E+02 -0.63703212170E+03  0.64721380260E+03  0.81633242886E+02 0.  0.
         25    2    1    2    0    0  0.59862444938E+02 -0.30101705631E+02  0.51584005179E+02  0.15099014830E+03  0.12508992884E+03 0.  0.
        -24    2    1    2    0    0  0.17548483364E+02  0.50579596919E+02  0.28654087320E+03  0.30246951723E+03  0.80721074972E+02 0.  0.
        -11    1    3    3    0    0  0.61777999655E+01  0.35191719060E+00 -0.22057166803E+01  0.65691890060E+01  0.00000000000E+00 0.  1.
         12    1    3    3    0    0 -0.83588728267E+02 -0.20829808478E+02 -0.63482640502E+03  0.64064461360E+03  0.00000000000E+00 0. -1.
         11    1    5    5    0    0 -0.15403947470E+02  0.34611730998E+02  0.24135108231E+03  0.24430636187E+03  0.00000000000E+00 0. -1.
        -12    1    5    5    0    0  0.32952430834E+02  0.15967865921E+02  0.45189790892E+02  0.58163155355E+02  0.00000000000E+00 0.  1.
          5    1    4    4  501    0  0.29149678921E+02 -0.29644659202E+02 -0.37823358083E+02  0.56361231508E+02  0.41800000000E+01 0.  1.
         -5    1    4    4    0  501  0.30712766017E+02 -0.45704642961E+00  0.89407363262E+02  0.94628916792E+02  0.41800000000E+01 0.  1.
</event>
<event>
11    1  0.7105277E-009  0.1615047E+03  0.7561462E-02  0.1085671E+00
         22   -1    0    0    0    0  0.00000000000E+00  0.00000000000E+00  0.26002162937E+03  0.26002162937E+03  0.00000000000E+00 0. -1.
         22   -1    0    0    0    0 -0.00000000000E+00 -0.00000000000E+00 -0.54639027761E+03  0.54639027761E+03  0.00000000000E+00 0. -1.
        -24    2    1    2    0    0 -0.60374009632E+02 -0.11709118866E+03 -0.36716020643E+03  0.39855853892E+03  0.81773615911E+02 0.  0.
         25    2    1    2    0    0  0.63370747878E+01  0.46674512015E+02 -0.11616469168E+03  0.17708153146E+03  0.12507983292E+03 0.  0.
         24    2    1    2    0    0  0.54036934844E+02  0.70416676645E+02  0.19695624987E+03  0.23077183660E+03  0.81150339040E+02 0.  0.
        -11    1    5    5    0    0  0.56376677575E+02  0.51864182320E+02  0.74366889477E+02  0.10676449519E+03  0.00000000000E+00 0.  1.
         12    1    5    5    0    0 -0.23397427312E+01  0.18552494325E+02  0.12258936040E+03  0.12400734141E+03  0.00000000000E+00 0. -1.
         13    1    3    3    0    0  0.12832636166E+01 -0.42791466764E+02 -0.20834156601E+03  0.21269453336E+03  0.00000000000E+00 0. -1.
        -14    1    3    3    0    0 -0.61657273248E+02 -0.74299721896E+02 -0.15881864042E+03  0.18586400556E+03  0.00000000000E+00 0.  1.
          5    1    4    4  501    0  0.65172187303E+02  0.17550426386E+02 -0.64291070593E+02  0.93307264574E+02  0.41800000000E+01 0.  1.
         -5    1    4    4    0  501 -0.58835112515E+02  0.29124085628E+02 -0.51873621088E+02  0.83774266891E+02  0.41800000000E+01 0.  1.
</event>
<event>
11    1  0.7105277E-009  0.1451983E+03  0.7561462E-02  0.1101889E+00
         22   -1    0    0    0    0  0.00000000000E+00  0.00000000000E+00  0.44710581186E+03  0.44710581186E+03  0.00000000000E+00 0.  1.
         22   -1    0    0    0    0 -0.00000000000E+00 -0.00000000000E+00 -0.21755328574E+04  0.21755328574E+04  0.00000000000E+00 0. -1.
        -24    2    1    2    0    0 -0.78235893815E+02  0.24494227924E+01 -0.20831254974E+04  0.20861215956E+04  0.79778560097E+02 0.  0.
         25    2    1    2    0    0  0.20995043275E+01  0.23405562793E+02 -0.33816373712E+02  0.13169528200E+03  0.12509145407E+03 0.  0.
         24    2    1    2    0    0  0.76136389487E+02 -0.25854985586E+02  0.38851482564E+03  0.40482179166E+03  0.80446772328E+02 0.  0.
        -11    1    5    5    0    0  0.20137634789E+02 -0.29726979978E+02  0.28333289781E+03  0.28559892972E+03  0.00000000000E+00 0.  1.
         12    1    5    5    0    0  0.55998754698E+02  0.38719943921E+01  0.10518192783E+03  0.11922286194E+03  0.00000000000E+00 0. -1.
         13    1    3    3    0    0 -0.25916712807E+02  0.11361919915E+02 -0.15707220400E+04  0.15709769242E+04  0.00000000000E+00 0. -1.
        -14    1    3    3    0    0 -0.52319181008E+02 -0.89124971223E+01 -0.51240345740E+03  0.51514467139E+03  0.00000000000E+00 0.  1.
          5    1    4    4  501    0  0.86170694037E+01 -0.50602889262E+02 -0.44331988763E+01  0.51691700872E+02  0.41800000000E+01 0.  1.
         -5    1    4    4    0  501 -0.65175650762E+01  0.74008452055E+02 -0.29383174836E+02  0.80003581130E+02  0.41800000000E+01 0.  1.
</event>
<event>
11    1  0.7105277E-009  0.1856254E+03  0.7561462E-02  0.1065181E+00
         22   -1    0    0    0    0  0.00000000000E+00  0.00000000000E+00  0.88001851384E+03  0.88001851384E+03  0.00000000000E+00 0. -1.
         22   -1    0    0    0    0 -0.00000000000E+00 -0.00000000000E+00 -0.16040549741E+03  0.16040549741E+03  0.00000000000E+00 0. -1.
         24    2    1    2    0    0  0.12660703460E+03 -0.68196212779E+02 -0.86787070302E+02  0.18680270303E+03  0.81750777603E+02 0.  0.
         25    2    1    2    0    0 -0.89740172319E+02  0.33738035573E+02  0.29617689874E+03  0.33549949223E+03  0.12509036879E+03 0.  0.
        -24    2    1    2    0    0 -0.36866862283E+02  0.34458177206E+02  0.51022318799E+03  0.51812181600E+03  0.74672505917E+02 0.  0.
        -13    1    3    3    0    0  0.16817730781E+02 -0.13192731904E+02  0.15971444591E+02  0.26682790072E+02  0.00000000000E+00 0.  1.
         14    1    3    3    0    0  0.10978930382E+03 -0.55003480874E+02 -0.10275851489E+03  0.16011991296E+03  0.00000000000E+00 0. -1.
         11    1    5    5    0    0 -0.63612780955E+00  0.48163856046E+02  0.34911252184E+03  0.35241979881E+03  0.00000000000E+00 0. -1.
        -12    1    5    5    0    0 -0.36230734473E+02 -0.13705678841E+02  0.16111066615E+03  0.16570201718E+03  0.00000000000E+00 0.  1.
          5    1    4    4  501    0 -0.47901129676E+02  0.60718715490E+02  0.71747771991E+02  0.10557696634E+03  0.41800000000E+01 0. -1.
         -5    1    4    4    0  501 -0.41839042643E+02 -0.26980679917E+02  0.22442912675E+03  0.22992252589E+03  0.41800000000E+01 0. -1.
</event>
<event>
11    1  0.7105277E-009  0.1380289E+03  0.7561462E-02  0.1109780E+00
         22   -1    0    0    0    0  0.00000000000E+00  0.00000000000E+00  0.13056712498E+03  0.13056712498E+03  0.00000000000E+00 0. -1.
         22   -1    0    0    0    0 -0.00000000000E+00 -0.00000000000E+00 -0.57803846099E+03  0.57803846099E+03  0.00000000000E+00 0. -1.
        -24    2    1    2    0    0  0.48195194987E+02  0.38993245352E+02 -0.36613508243E+03  0.37963517015E+03  0.78896855645E+02 0.  0.
         25    2    1    2    0    0 -0.35919842447E+01 -0.60196382877E+02 -0.15722902944E+03  0.20977391964E+03  0.12509045847E+03 0.  0.
         24    2    1    2    0    0 -0.44603210742E+02  0.21203137525E+02  0.75892775861E+02  0.11919649617E+03  0.77518203168E+02 0.  0.
        -11    1    5    5    0    0  0.10484194637E+02  0.26009379580E+01 -0.10497288581E+02  0.15062412921E+02  0.00000000000E+00 0.  1.
         12    1    5    5    0    0 -0.55087405379E+02  0.18602199567E+02  0.86390064442E+02  0.10413408325E+03  0.00000000000E+00 0. -1.
         11    1    3    3    0    0  0.89151378379E+01  0.54994226283E+02 -0.24609085139E+03  0.25231835396E+03  0.00000000000E+00 0. -1.
        -12    1    3    3    0    0  0.39280057149E+02 -0.16000980931E+02 -0.12004423103E+03  0.12731681619E+03  0.00000000000E+00 0.  1.
          5    1    4    4  501    0 -0.41948580499E+02 -0.59818609596E+02 -0.15466378140E+03  0.17110320609E+03  0.41800000000E+01 0.  1.
         -5    1    4    4    0  501  0.38356596255E+02 -0.37777328135E+00 -0.25652480460E+01  0.38670713549E+02  0.41800000000E+01 0.  1.
</event>
<event>
11    1  0.7105277E-009  0.2426942E+03  0.7561462E-02  0.1027865E+00
         22   -1    0    0    0    0  0.00000000000E+00  0.00000000000E+00  0.11258112147E+03  0.11258112147E+03  0.00000000000E+00 0.  1.
         22   -1    0    0    0    0 -0.00000000000E+00 -0.00000000000E+00 -0.16069973617E+04  0.16069973617E+04  0.00000000000E+00 0. -1.
         24    2    1    2    0    0 -0.38823439272E+02  0.37536084288E+02 -0.11048647661E+04  0.11089664026E+04  0.78511870966E+02 0.  0.
         25    2    1    2    0    0 -0.83025743834E+02 -0.20058527268E+03 -0.22029863502E+03  0.33362694363E+03  0.12509085966E+03 0.  0.
        -24    2    1    2    0    0  0.12184918311E+03  0.16304918839E+03 -0.16925283911E+03  0.27698513685E+03  0.81498351075E+02 0.  0.
        -13    1    3    3    0    0 -0.32792866663E+02 -0.19047001935E+02 -0.49649743335E+03  0.49794363306E+03  0.00000000000E+00 0.  1.
         14    1    3    3    0    0 -0.60305726086E+01  0.56583086223E+02 -0.60836733270E+03  0.61102276959E+03  0.00000000000E+00 0. -1.
         13    1    5    5    0    0 -0.76789936761E+01  0.62315620152E+01  0.31239603109E+01  0.10371038379E+02  0.00000000000E+00 0. -1.
        -14    1    5    5    0    0  0.12952817678E+03  0.15681762637E+03 -0.17237679943E+03  0.26661409847E+03  0.00000000000E+00 0.  1.
          5    1    4    4  501    0 -0.70160799074E+02 -0.12339108738E+03 -0.21151955191E+03  0.25476634670E+03  0.41800000000E+01 0.  1.
         -5    1    4    4    0  501 -0.12864944761E+02 -0.77194185300E+02 -0.87790831071E+01  0.78860596929E+02  0.41800000000E+01 0.  1.
</event>
<event>
11    1  0.7105277E-009  0.1976979E+03  0.7561462E-02  0.1056164E+00
         22   -1    0    0    0    0  0.00000000000E+00  0.00000000000E+00  0.27758379177E+03  0.27758379177E+03  0.00000000000E+00 0.  1.
         22   -1    0    0    0    0 -0.00000000000E+00 -0.00000000000E+00 -0.11455503824E+04  0.11455503824E+04  0.00000000000E+00 0. -1.
        -24    2    1    2    0    0  0.11546055441E+03 -0.28922790997E+02 -0.76340836181E+03  0.77671325703E+03  0.79520370412E+02 0.  0.
         25    2    1    2    0    0 -0.23194633985E+03  0.11183134714E+03 -0.28139204406E+03  0.40141576870E+03  0.12509109530E+03 0.  0.
         24    2    1    2    0    0  0.11648578544E+03 -0.82908556147E+02  0.17683381527E+03  0.24500514840E+03  0.91184196154E+02 0.  0.
        -13    1    5    5    0    0  0.10788594576E+03 -0.31874120425E+02  0.14754142448E+03  0.18553654298E+03  0.00000000000E+00 0.  1.
         14    1    5    5    0    0  0.85998396770E+01 -0.51034435722E+02  0.29292390795E+02  0.59468605419E+02  0.00000000000E+00 0. -1.
         13    1    3    3    0    0  0.53203263137E+02 -0.54189600398E+02 -0.41096922301E+03  0.41792679055E+03  0.00000000000E+00 0. -1.
        -14    1    3    3    0    0  0.62257291274E+02  0.25266809401E+02 -0.35243913880E+03  0.35878646649E+03  0.00000000000E+00 0.  1.
          5    1    4    4  501    0 -0.15830070665E+03  0.43141446930E+02 -0.24367774600E+03  0.29379689321E+03  0.41800000000E+01 0.  1.
         -5    1    4    4    0  501 -0.73645633203E+02  0.68689900214E+02 -0.37714298064E+02  0.10761887548E+03  0.41800000000E+01 0.  1.
</event>
<event>
11    1  0.7105277E-009  0.2542538E+03  0.7561462E-02  0.1021657E+00
         22   -1    0    0    0    0  0.00000000000E+00  0.00000000000E+00  0.71030801404E+03  0.71030801404E+03  0.00000000000E+00 0.  1.
         22   -1    0    0    0    0 -0.00000000000E+00 -0.00000000000E+00 -0.91182405210E+03  0.91182405210E+03  0.00000000000E+00 0. -1.
        -24    2    1    2    0    0 -0.21435655053E+03 -0.12305422929E+03 -0.61554389678E+03  0.66911888162E+03  0.87947227172E+02 0.  0.
         25    2    1    2    0    0  0.16743855162E+03  0.64197711427E+02 -0.21935575427E+03  0.30971231731E+03  0.12509099823E+03 0.  0.
         24    2    1    2    0    0  0.46917998908E+02  0.58856517863E+02  0.63338361299E+03  0.64330086723E+03  0.83640996276E+02 0.  0.
        -11    1    5    5    0    0  0.13302450830E+02  0.40250455771E+02  0.54839551111E+03  0.55003153636E+03  0.00000000000E+00 0.  1.
         12    1    5    5    0    0  0.33615548079E+02  0.18606062092E+02  0.84988101876E+02  0.93269330863E+02  0.00000000000E+00 0. -1.
         13    1    3    3    0    0 -0.21870950515E+03 -0.10661117997E+03 -0.55020575160E+03  0.60160299237E+03  0.00000000000E+00 0. -1.
        -14    1    3    3    0    0  0.43529546127E+01 -0.16443049318E+02 -0.65338145185E+02  0.67515889248E+02  0.00000000000E+00 0.  1.
          5    1    4    4  501    0  0.10851401973E+03  0.21598112428E+02 -0.20850259361E+03  0.23607747643E+03  0.41800000000E+01 0.  1.
         -5    1    4    4    0  501  0.58924531893E+02  0.42599598999E+02 -0.10853160661E+02  0.73634840871E+02  0.41800000000E+01 0.  1.
</event>
<event>
11    1  0.7105277E-009  0.2002591E+03  0.7561462E-02  0.1054341E+00
         22   -1    0    0    0    0  0.00000000000E+00  0.00000000000E+00  0.11164487971E+04  0.11164487971E+04  0.00000000000E+00 0.  1.
         22   -1    0    0    0    0 -0.00000000000E+00 -0.00000000000E+00 -0.29427895526E+04  0.29427895526E+04  0.00000000000E+00 0. -1.
         24    2    1    2    0    0  0.81612183419E+02  0.11927163096E+03 -0.28155566104E+04  0.28204066305E+04  0.80301087538E+02 0.  0.
         25    2    1    2    0    0  0.45496466009E+02 -0.20963920685E+03  0.14880058175E+02  0.24877074401E+03  0.12508773512E+03 0.  0.
        -24    2    1    2    0    0 -0.12710864943E+03  0.90367575888E+02  0.97433579676E+03  0.99006097517E+03  0.81040620613E+02 0.  0.
        -13    1    3    3    0    0  0.44693285428E+02  0.10671454879E+03 -0.15779150646E+04  0.15821508891E+04  0.00000000000E+00 0.  1.
         14    1    3    3    0    0  0.36918897991E+02  0.12557082175E+02 -0.12376415458E+04  0.12382557414E+04  0.00000000000E+00 0. -1.
         11    1    5    5    0    0 -0.15893348145E+02  0.43619241475E+02  0.43099010262E+03  0.43348322378E+03  0.00000000000E+00 0. -1.
        -12    1    5    5    0    0 -0.11121530128E+03  0.46748334413E+02  0.54334569413E+03  0.55657775139E+03  0.00000000000E+00 0.  1.
          5    1    4    4  501    0  0.36828912980E+02 -0.95405356978E+02  0.67527312681E+02  0.12262121076E+03  0.41800000000E+01 0. -1.
         -5    1    4    4    0  501  0.86675530294E+01 -0.11423384987E+03 -0.52647254506E+02  0.12614953325E+03  0.41800000000E+01 0. -1.
</event>
<event>
11    1  0.7105277E-009  0.1384701E+03  0.7561462E-02  0.1109279E+00
         22   -1    0    0    0    0  0.00000000000E+00  0.00000000000E+00  0.28938840242E+03  0.28938840242E+03  0.00000000000E+00 0.  1.
         22   -1    0    0    0    0 -0.00000000000E+00 -0.00000000000E+00 -0.14468354702E+04  0.14468354702E+04  0.00000000000E+00 0.  1.
        -24    2    1    2    0    0 -0.31248954940E+02  0.10611510576E+02 -0.12939780875E+04  0.12969430528E+04  0.81196613962E+02 0.  0.
         25    2    1    2    0    0  0.47608646343E+01  0.44197519755E+02 -0.11028921400E+03  0.17259317533E+03  0.12509439181E+03 0.  0.
         24    2    1    2    0    0  0.26488090306E+02 -0.54809030331E+02  0.24682023364E+03  0.26668764449E+03  0.80600392409E+02 0.  0.
        -11    1    5    5    0    0 -0.23535452467E+01  0.20076125011E+02  0.61574037698E+02  0.64807037342E+02  0.00000000000E+00 0.  1.
         12    1    5    5    0    0  0.28841635553E+02 -0.74885155342E+02  0.18524619594E+03  0.20188060715E+03  0.00000000000E+00 0. -1.
         11    1    3    3    0    0 -0.91964675807E+01  0.45384302563E+02 -0.64517000940E+03  0.64682969239E+03  0.00000000000E+00 0. -1.
        -12    1    3    3    0    0 -0.22052487360E+02 -0.34772791987E+02 -0.64880807807E+03  0.65011336045E+03  0.00000000000E+00 0.  1.
          5    1    4    4  501    0 -0.15870703995E+02  0.44126917741E+02 -0.13332156705E+03  0.14139015791E+03  0.41800000000E+01 0.  1.
         -5    1    4    4    0  501  0.20631568629E+02  0.70602013500E-01  0.23032353054E+02  0.31203017417E+02  0.41800000000E+01 0.  1.
</event>
<event>
11    1  0.7105277E-009  0.1387292E+03  0.7561462E-02  0.1108986E+00
         22   -1    0    0    0    0  0.00000000000E+00  0.00000000000E+00  0.61988655690E+03  0.61988655690E+03  0.00000000000E+00 0. -1.
         22   -1    0    0    0    0 -0.00000000000E+00 -0.00000000000E+00 -0.62375169448E+03  0.62375169448E+03  0.00000000000E+00 0.  1.
        -24    2    1    2    0    0 -0.37206373935E+02  0.32303139848E+02 -0.55632389066E+03  0.56462506016E+03  0.82929971285E+02 0.  0.
         25    2    1    2    0    0  0.70593053097E+02  0.17975407196E+02  0.31122912284E+02  0.14806196064E+03  0.12508882488E+03 0.  0.
         24    2    1    2    0    0 -0.33386679163E+02 -0.50278547043E+02  0.52133584079E+03  0.53095123058E+03  0.80470788047E+02 0.  0.
        -13    1    5    5    0    0 -0.19606858512E+02 -0.17964613512E+02  0.38226271272E+02  0.46566125614E+02  0.00000000000E+00 0.  1.
         14    1    5    5    0    0 -0.13779820650E+02 -0.32313933531E+02  0.48310956952E+03  0.48438510497E+03  0.00000000000E+00 0. -1.
         11    1    3    3    0    0 -0.12157629024E+02 -0.27485114801E+02 -0.13199279447E+03  0.13537110944E+03  0.00000000000E+00 0. -1.
        -12    1    3    3    0    0 -0.25048744911E+02  0.59788254648E+02 -0.42433109620E+03  0.42925395073E+03  0.00000000000E+00 0.  1.
          5    1    4    4  501    0  0.10112004979E+03  0.27822807884E+02  0.43241132520E+02  0.11351934219E+03  0.41800000000E+01 0. -1.
         -5    1    4    4    0  501 -0.30526996697E+02 -0.98474006881E+01 -0.12118220235E+02  0.34542618449E+02  0.41800000000E+01 0. -1.
</event>
<event>
11    1  0.7105277E-009  0.1374629E+03  0.7561462E-02  0.1110425E+00
         22   -1    0    0    0    0  0.00000000000E+00  0.00000000000E+00  0.13446142187E+03  0.13446142187E+03  0.00000000000E+00 0.  1.
         22   -1    0    0    0    0 -0.00000000000E+00 -0.00000000000E+00 -0.15633866926E+04  0.15633866926E+04  0.00000000000E+00 0.  1.
        -24    2    1    2    0    0  0.46440652998E+02  0.48103571107E+02 -0.10894848550E+04  0.10946073697E+04  0.81959482143E+02 0.  0.
         25    2    1    2    0    0 -0.37525689408E+02  0.11177624755E+02 -0.44116938771E+03  0.46022945426E+03  0.12509038832E+03 0.  0.
         24    2    1    2    0    0 -0.89149635896E+01 -0.59281195862E+02  0.10172897198E+03  0.14301129051E+03  0.80682765909E+02 0.  0.
        -13    1    5    5    0    0 -0.24273653346E+02 -0.66131390161E+01  0.80239099715E+02  0.84090766304E+02  0.00000000000E+00 0.  1.
         14    1    5    5    0    0  0.15358689757E+02 -0.52668056846E+02  0.21489872268E+02  0.58920524209E+02  0.00000000000E+00 0. -1.
         11    1    3    3    0    0  0.24445891445E+01 -0.17668163561E+02 -0.77167881654E+02  0.79202411444E+02  0.00000000000E+00 0. -1.
        -12    1    3    3    0    0  0.43996063853E+02  0.65771734668E+02 -0.10123169733E+04  0.10154049582E+04  0.00000000000E+00 0.  1.
          5    1    4    4  501    0 -0.70879304369E+02 -0.19089694836E+02 -0.16862466413E+03  0.18395663073E+03  0.41800000000E+01 0. -1.
         -5    1    4    4    0  501  0.33353614961E+02  0.30267319591E+02 -0.27254472358E+03  0.27627282352E+03  0.41800000000E+01 0. -1.
</event>
<event>
11    1  0.7105277E-009  0.1374355E+03  0.7561462E-02  0.1110456E+00
         22   -1    0    0    0    0  0.00000000000E+00  0.00000000000E+00  0.61927071817E+03  0.61927071817E+03  0.00000000000E+00 0.  1.
         22   -1    0    0    0    0 -0.00000000000E+00 -0.00000000000E+00 -0.58181287838E+03  0.58181287838E+03  0.00000000000E+00 0. -1.
         24    2    1    2    0    0 -0.15429776003E+02  0.29213461967E+02 -0.47604378098E+03  0.48401900701E+03  0.81026004417E+02 0.  0.
         25    2    1    2    0    0 -0.41593196823E+02 -0.19894726969E+02 -0.51775689171E+02  0.14301682590E+03  0.12508915348E+03 0.  0.
        -24    2    1    2    0    0  0.57022972826E+02 -0.93187349973E+01  0.56527730994E+03  0.57404776365E+03  0.81571683586E+02 0.  0.
        -11    1    3    3    0    0 -0.36972235358E+02 -0.13717926610E+02 -0.22139892461E+03  0.22488355101E+03  0.00000000000E+00 0.  1.
         12    1    3    3    0    0  0.21542459354E+02  0.42931388577E+02 -0.25464485637E+03  0.25913545600E+03  0.00000000000E+00 0. -1.
         11    1    5    5    0    0  0.70985968842E+02 -0.23371125369E+02  0.50739680394E+03  0.51287106949E+03  0.00000000000E+00 0. -1.
        -12    1    5    5    0    0 -0.13962996016E+02  0.14052390372E+02  0.57880506000E+02  0.61176694154E+02  0.00000000000E+00 0.  1.
          5    1    4    4  501    0 -0.46356689401E+02 -0.25407612207E+02 -0.89684467905E+02  0.10418860587E+03  0.41800000000E+01 0.  1.
         -5    1    4    4    0  501  0.47634925786E+01  0.55128852374E+01  0.37908778734E+02  0.38828220024E+02  0.41800000000E+01 0.  1.
</event>
<event>
11    1  0.8247939E-009  0.1773857E+03  0.7561462E-02  0.1071777E+00
         22   -1    0    0    0    0  0.00000000000E+00  0.00000000000E+00  0.75217491465E+03  0.75217491465E+03  0.00000000000E+00 0.  1.
         22   -1    0    0    0    0 -0.00000000000E+00 -0.00000000000E+00 -0.56064210277E+03  0.56064210277E+03  0.00000000000E+00 0. -1.
        -24    2    1    2    0    0 -0.79864387388E+02 -0.76884908585E+02 -0.35272138074E+03  0.37845056056E+03  0.80764130742E+02 0.  0.
         25    2    1    2    0    0  0.31141562032E+02 -0.43640021893E+02 -0.16209662438E+03  0.21165343797E+03  0.12509042238E+03 0.  0.
         24    2    1    2    0    0  0.48722825356E+02  0.12052493048E+03  0.70635081700E+03  0.72271301889E+03  0.80513715732E+02 0.  0.
        -13    1    5    5    0    0  0.30502432133E+01  0.79952863193E+02  0.25530560341E+03  0.26754946356E+03  0.00000000000E+00 0.  1.
         14    1    5    5    0    0  0.45672582143E+02  0.40572067286E+02  0.45104521359E+03  0.45516355534E+03  0.00000000000E+00 0. -1.
         11    1    3    3    0    0 -0.88268469928E+02 -0.36657312865E+02 -0.26075421545E+03  0.27771899871E+03  0.00000000000E+00 0. -1.
        -12    1    3    3    0    0  0.84040825394E+01 -0.40227595720E+02 -0.91967165287E+02  0.10073156184E+03  0.00000000000E+00 0.  1.
          5    1    4    4  501    0  0.77190139812E+01 -0.13988981380E+02  0.19824627384E+02  0.25802384149E+02  0.41800000000E+01 0. -1.
         -5    1    4    4    0  501  0.23422548051E+02 -0.29651040514E+02 -0.18192125177E+03  0.18585105382E+03  0.41800000000E+01 0. -1.
</event>
<event>
11    1  0.7105277E-009  0.2785177E+03  0.7561462E-02  0.1009716E+00
         22   -1    0    0    0    0  0.00000000000E+00  0.00000000000E+00  0.39360186988E+04  0.39360186988E+04  0.00000000000E+00 0.  1.
         22   -1    0    0    0    0 -0.00000000000E+00 -0.00000000000E+00 -0.22100913879E+04  0.22100913879E+04  0.00000000000E+00 0. -1.
        -24    2    1    2    0    0 -0.77622174474E+01 -0.27210086888E+01 -0.17651159483E+04  0.17673781034E+04  0.89013445869E+02 0.  0.
         25    2    1    2    0    0  0.85069864593E+02 -0.23381860519E+03 -0.39531586120E+03  0.48355781112E+03  0.12508199146E+03 0.  0.
         24    2    1    2    0    0 -0.77307647145E+02  0.23653961387E+03  0.38863591204E+04  0.38951741721E+04  0.81652663506E+02 0.  0.
        -13    1    5    5    0    0 -0.91853384461E+02  0.22117579219E+03  0.36606007046E+04  0.36684265420E+04  0.00000000000E+00 0.  1.
         14    1    5    5    0    0  0.14545737316E+02  0.15363821689E+02  0.22575841575E+03  0.22674763014E+03  0.00000000000E+00 0. -1.
         13    1    3    3    0    0 -0.10266654332E+01  0.14289070759E+02 -0.16901960017E+04  0.16902567130E+04  0.00000000000E+00 0. -1.
        -14    1    3    3    0    0 -0.67355520143E+01 -0.17010079448E+02 -0.74919946596E+02  0.77121390429E+02  0.00000000000E+00 0.  1.
          5    1    4    4  501    0  0.52173635918E+02 -0.21472360584E+03 -0.38499929510E+03  0.44392594519E+03  0.41800000000E+01 0.  1.
         -5    1    4    4    0  501  0.32896228675E+02 -0.19094999345E+02 -0.10316566106E+02  0.39631865932E+02  0.41800000000E+01 0.  1.
</event>
<event>
11    1  0.7105277E-009  0.1880256E+03  0.7561462E-02  0.1063330E+00
         22   -1    0    0    0    0  0.00000000000E+00  0.00000000000E+00  0.11534059585E+04  0.11534059585E+04  0.00000000000E+00 0. -1.
         22   -1    0    0    0    0 -0.00000000000E+00 -0.00000000000E+00 -0.14914611961E+03  0.14914611961E+03  0.00000000000E+00 0. -1.
        -24    2    1    2    0    0  0.63206729513E+02  0.20459518970E+02 -0.66272107298E+02  0.12325510333E+03  0.79913363839E+02 0.  0.
         25    2    1    2    0    0  0.32840663184E+02 -0.12733632862E+03  0.12696431111E+03  0.22149478370E+03  0.12508778184E+03 0.  0.
         24    2    1    2    0    0 -0.96047392697E+02  0.10687680965E+03  0.94356763505E+03  0.95780219104E+03  0.80108683390E+02 0.  0.
        -11    1    5    5    0    0 -0.34264050127E+02  0.15368720426E+02  0.96173762978E+02  0.10324541338E+03  0.00000000000E+00 0.  1.
         12    1    5    5    0    0 -0.61783342569E+02  0.91508089228E+02  0.84739387208E+03  0.85455677766E+03  0.00000000000E+00 0. -1.
         13    1    3    3    0    0  0.31379126798E+02  0.50054826233E+02 -0.28139910096E+02  0.65436914414E+02  0.00000000000E+00 0. -1.
        -14    1    3    3    0    0  0.31827602715E+02 -0.29595307263E+02 -0.38132197202E+02  0.57818188920E+02  0.00000000000E+00 0.  1.
          5    1    4    4  501    0  0.67075558648E+02 -0.94725783905E+02  0.12951046571E+03  0.17396131131E+03  0.41800000000E+01 0. -1.
         -5    1    4    4    0  501 -0.34234895464E+02 -0.32610544717E+02 -0.25461546035E+01  0.47533472390E+02  0.41800000000E+01 0. -1.
</event>
<event>
11    1  0.7105277E-009  0.2359522E+03  0.7561462E-02  0.1031661E+00
         22   -1    0    0    0    0  0.00000000000E+00  0.00000000000E+00  0.12461703570E+04  0.12461703570E+04  0.00000000000E+00 0. -1.
         22   -1    0    0    0    0 -0.00000000000E+00 -0.00000000000E+00 -0.84819664664E+03  0.84819664664E+03  0.00000000000E+00 0.  1.
        -24    2    1    2    0    0  0.74705185938E+02  0.93855317902E+02 -0.77075104104E+03  0.78417589113E+03  0.80529345400E+02 0.  0.
         25    2    1    2    0    0 -0.25995040477E+03 -0.49959292715E+02  0.30762783414E+03  0.42467939065E+03  0.12509019401E+03 0.  0.
         24    2    1    2    0    0  0.18524521883E+03 -0.43896025187E+02  0.86109691727E+03  0.88551172187E+03  0.80002853120E+02 0.  0.
        -13    1    5    5    0    0  0.17159607268E+03 -0.22637891418E+02  0.64054164332E+03  0.66351434281E+03  0.00000000000E+00 0.  1.
         14    1    5    5    0    0  0.13649146154E+02 -0.21258133769E+02  0.22055527395E+03  0.22199737906E+03  0.00000000000E+00 0. -1.
         11    1    3    3    0    0 -0.98473762565E+01  0.45204386497E+02 -0.21405902047E+03  0.21900153338E+03  0.00000000000E+00 0. -1.
        -12    1    3    3    0    0  0.84552562194E+02  0.48650931405E+02 -0.55669202056E+03  0.56517435775E+03  0.00000000000E+00 0.  1.
          5    1    4    4  501    0 -0.15547905343E+03  0.33032040831E+02  0.15791139923E+03  0.22409447602E+03  0.41800000000E+01 0. -1.
         -5    1    4    4    0  501 -0.10447135134E+03 -0.82991333546E+02  0.14971643491E+03  0.20058491463E+03  0.41800000000E+01 0. -1.
</event>
<event>
11    1  0.7105277E-009  0.1435095E+03  0.7561462E-02  0.1103702E+00
         22   -1    0    0    0    0  0.00000000000E+00  0.00000000000E+00  0.72043888091E+03  0.72043888091E+03  0.00000000000E+00 0.  1.
         22   -1    0    0    0    0 -0.00000000000E+00 -0.00000000000E+00 -0.83238419613E+03  0.83238419613E+03  0.00000000000E+00 0.  1.
         24    2    1    2    0    0  0.26771732566E+02  0.74414886938E+01 -0.78993212236E+03  0.79434431811E+03  0.78854526573E+02 0.  0.
         25    2    1    2    0    0  0.29932877184E+02 -0.52427917876E+02  0.10245598873E+03  0.17259574800E+03  0.12508956349E+03 0.  0.
        -24    2    1    2    0    0 -0.56704609750E+02  0.44986429182E+02  0.57553081841E+03  0.58588301093E+03  0.82364968141E+02 0.  0.
        -11    1    3    3    0    0  0.38828030158E+02 -0.24571336495E+02 -0.55993705814E+03  0.56181925526E+03  0.00000000000E+00 0.  1.
         12    1    3    3    0    0 -0.12056297592E+02  0.32012825188E+02 -0.22999506421E+03  0.23252506285E+03  0.00000000000E+00 0. -1.
         11    1    5    5    0    0 -0.65395461350E+02  0.62266029589E+02  0.47083159441E+03  0.47941215577E+03  0.00000000000E+00 0. -1.
        -12    1    5    5    0    0  0.86908515996E+01 -0.17279600407E+02  0.10469922400E+03  0.10647085516E+03  0.00000000000E+00 0.  1.
          5    1    4    4  501    0  0.73675033588E+02 -0.14491976664E+02  0.33138652470E+02  0.82180719450E+02  0.41800000000E+01 0.  1.
         -5    1    4    4    0  501 -0.43742156404E+02 -0.37935941212E+02  0.69317336258E+02  0.90415028554E+02  0.41800000000E+01 0.  1.
</event>
<event>
11    1  0.7105277E-009  0.1323019E+03  0.7561462E-02  0.1116473E+00
         22   -1    0    0    0    0  0.00000000000E+00  0.00000000000E+00  0.10924271285E+03  0.10924271285E+03  0.00000000000E+00 0.  1.
         22   -1    0    0    0    0 -0.00000000000E+00 -0.00000000000E+00 -0.99975145426E+03  0.99975145426E+03  0.00000000000E+00 0.  1.
        -24    2    1    2    0    0 -0.22895780848E+02  0.71745522402E+00 -0.65983959656E+03  0.66520731973E+03  0.81164977097E+02 0.  0.
         25    2    1    2    0    0  0.67953839731E+01  0.39890404452E+02 -0.30083583250E+03  0.32830819769E+03  0.12508658180E+03 0.  0.
         24    2    1    2    0    0  0.16100396875E+02 -0.40607859676E+02  0.70166687641E+02  0.11547864969E+03  0.80645727923E+02 0.  0.
        -13    1    5    5    0    0 -0.18651109958E+02 -0.50318710853E+02  0.29982539323E+02  0.61471857210E+02  0.00000000000E+00 0.  1.
         14    1    5    5    0    0  0.34751506834E+02  0.97108511764E+01  0.40184148318E+02  0.54006792479E+02  0.00000000000E+00 0. -1.
         13    1    3    3    0    0 -0.24064299371E+02 -0.19275672100E+02 -0.92282356635E+02  0.97296841600E+02  0.00000000000E+00 0. -1.
        -14    1    3    3    0    0  0.11685185227E+01  0.19993127324E+02 -0.56755723992E+03  0.56791047813E+03  0.00000000000E+00 0.  1.
          5    1    4    4  501    0 -0.53330817770E+02  0.20708102987E+02 -0.20949070073E+03  0.21720227381E+03  0.41800000000E+01 0. -1.
         -5    1    4    4    0  501  0.60126201743E+02  0.19182301465E+02 -0.91345131762E+02  0.11110592388E+03  0.41800000000E+01 0. -1.
</event>
<event>
11    1  0.7105277E-009  0.1432754E+03  0.7561462E-02  0.1103955E+00
         22   -1    0    0    0    0  0.00000000000E+00  0.00000000000E+00  0.11001103799E+03  0.11001103799E+03  0.00000000000E+00 0.  1.
         22   -1    0    0    0    0 -0.00000000000E+00 -0.00000000000E+00 -0.10686428109E+04  0.10686428109E+04  0.00000000000E+00 0. -1.
         24    2    1    2    0    0  0.13117439278E+02  0.68602623648E+02 -0.90188340422E+03  0.90820398269E+03  0.81008716691E+02 0.  0.
         25    2    1    2    0    0  0.18241480189E+01 -0.71469932120E+02 -0.10247024134E+03  0.17680310340E+03  0.12509159964E+03 0.  0.
        -24    2    1    2    0    0 -0.14941587297E+02  0.28673084723E+01  0.45721872646E+02  0.93646762803E+02  0.80297908170E+02 0.  0.
        -13    1    3    3    0    0  0.14966653715E+02  0.48851028646E+02 -0.21326021256E+03  0.21929510251E+03  0.00000000000E+00 0.  1.
         14    1    3    3    0    0 -0.18492144373E+01  0.19751595002E+02 -0.68862319166E+03  0.68890888018E+03  0.00000000000E+00 0. -1.
         11    1    5    5    0    0  0.48810626205E+01 -0.24000585819E+02 -0.11761831847E+02  0.27169718077E+02  0.00000000000E+00 0. -1.
        -12    1    5    5    0    0 -0.19822649917E+02  0.26867894291E+02  0.57483704493E+02  0.66477044727E+02  0.00000000000E+00 0.  1.
          5    1    4    4  501    0 -0.52798734428E+02 -0.60275256424E+02 -0.30906175595E+02  0.85985330051E+02  0.41800000000E+01 0. -1.
         -5    1    4    4    0  501  0.54622882447E+02 -0.11194675697E+02 -0.71564065741E+02  0.90817773349E+02  0.41800000000E+01 0. -1.
</event>
<event>
11    1  0.7105277E-009  0.1668099E+03  0.7561462E-02  0.1080842E+00
         22   -1    0    0    0    0  0.00000000000E+00  0.00000000000E+00  0.17519376266E+04  0.17519376266E+04  0.00000000000E+00 0. -1.
         22   -1    0    0    0    0 -0.00000000000E+00 -0.00000000000E+00 -0.48041661720E+03  0.48041661720E+03  0.00000000000E+00 0. -1.
        -24    2    1    2    0    0  0.90590423581E+00  0.12953838627E+02 -0.42052722913E+03  0.42864937329E+03  0.82027508716E+02 0.  0.
         25    2    1    2    0    0  0.91092771906E+02 -0.73300818375E+02  0.85528468798E+02  0.19139798109E+03  0.12508862907E+03 0.  0.
         24    2    1    2    0    0 -0.91998676142E+02  0.60346979749E+02  0.16065197697E+04  0.16123068894E+04  0.80760267366E+02 0.  0.
        -11    1    5    5    0    0 -0.10705887443E+02 -0.18541108589E+02  0.36608730540E+03  0.36671283576E+03  0.00000000000E+00 0.  1.
         12    1    5    5    0    0 -0.81292788700E+02  0.78888088338E+02  0.12404324643E+04  0.12455940536E+04  0.00000000000E+00 0. -1.
         11    1    3    3    0    0  0.19089657161E+02 -0.19716427077E+02 -0.32358342257E+03  0.32474510600E+03  0.00000000000E+00 0. -1.
        -12    1    3    3    0    0 -0.18183752925E+02  0.32670265704E+02 -0.96943806556E+02  0.10390426729E+03  0.00000000000E+00 0.  1.
          5    1    4    4  501    0  0.11231142752E+03 -0.89877206246E+02  0.73886142608E+02  0.16176650897E+03  0.41800000000E+01 0.  1.
         -5    1    4    4    0  501 -0.21218655615E+02  0.16576387870E+02  0.11642326190E+02  0.29631472121E+02  0.41800000000E+01 0.  1.
</event>
<event>
11    1  0.7105277E-009  0.1524455E+03  0.7561462E-02  0.1094406E+00
         22   -1    0    0    0    0  0.00000000000E+00  0.00000000000E+00  0.10175159457E+04  0.10175159457E+04  0.00000000000E+00 0.  1.
         22   -1    0    0    0    0 -0.00000000000E+00 -0.00000000000E+00 -0.26332633884E+03  0.26332633884E+03  0.00000000000E+00 0. -1.
         24    2    1    2    0    0 -0.76162595678E+02  0.43357335572E+02 -0.21791144803E+03  0.24856743658E+03  0.81361980176E+02 0.  0.
         25    2    1    2    0    0  0.10198003812E+03  0.23208335323E+02  0.22699185688E+03  0.27948393928E+03  0.12508962476E+03 0.  0.
        -24    2    1    2    0    0 -0.25817442439E+02 -0.66565670895E+02  0.74510919798E+03  0.75279090864E+03  0.80055645271E+02 0.  0.
        -13    1    3    3    0    0 -0.36445503441E+02 -0.30860780218E+01 -0.20532768210E+02  0.41945120920E+02  0.00000000000E+00 0.  1.
         14    1    3    3    0    0 -0.39717092237E+02  0.46443413594E+02 -0.19737867982E+03  0.20662231566E+03  0.00000000000E+00 0. -1.
         13    1    5    5    0    0  0.10497600263E+02 -0.61983058584E+01  0.41817298796E+03  0.41835065013E+03  0.00000000000E+00 0. -1.
        -14    1    5    5    0    0 -0.36315042702E+02 -0.60367365037E+02  0.32693621002E+03  0.33444025850E+03  0.00000000000E+00 0.  1.
          5    1    4    4  501    0  0.92337329742E+02 -0.13941869373E+02  0.22158984160E+03  0.24049966421E+03  0.41800000000E+01 0.  1.
         -5    1    4    4    0  501  0.96427083749E+01  0.37150204695E+02  0.54020152841E+01  0.38984275071E+02  0.41800000000E+01 0.  1.
</event>
<event>
11    1  0.7105277E-009  0.1381408E+03  0.7561462E-02  0.1109652E+00
         22   -1    0    0    0    0  0.00000000000E+00  0.00000000000E+00  0.44290105341E+03  0.44290105341E+03  0.00000000000E+00 0. -1.
         22   -1    0    0    0    0 -0.00000000000E+00 -0.00000000000E+00 -0.22859920791E+04  0.22859920791E+04  0.00000000000E+00 0.  1.
        -24    2    1    2    0    0  0.17145333982E+02 -0.53606626954E+02 -0.19324934388E+04  0.19350351082E+04  0.81623196882E+02 0.  0.
         25    2    1    2    0    0 -0.41189052861E+02  0.81651692496E+02 -0.33006098154E+03  0.36462336108E+03  0.12508559846E+03 0.  0.
         24    2    1    2    0    0  0.24043718879E+02 -0.28045065542E+02  0.41946339461E+03  0.42923466322E+03  0.83235993261E+02 0.  0.
        -13    1    5    5    0    0 -0.43658849860E+01 -0.40757304761E+02  0.97441696483E+02  0.10571236000E+03  0.00000000000E+00 0.  1.
         14    1    5    5    0    0  0.28409603864E+02  0.12712239218E+02  0.32202169813E+03  0.32352230322E+03  0.00000000000E+00 0. -1.
         13    1    3    3    0    0  0.26421571472E+01  0.16849276305E+02 -0.84150986433E+03  0.84168267825E+03  0.00000000000E+00 0. -1.
        -14    1    3    3    0    0  0.14503176835E+02 -0.70455903260E+02 -0.10909835744E+04  0.10933524300E+04  0.00000000000E+00 0.  1.
          5    1    4    4  501    0  0.16007701396E+02  0.74300678208E+02 -0.90851691089E+02  0.11852569114E+03  0.41800000000E+01 0.  1.
         -5    1    4    4    0  501 -0.57196754257E+02  0.73510142885E+01 -0.23920929046E+03  0.24609766994E+03  0.41800000000E+01 0.  1.
</event>
<event>
11    1  0.7105277E-009  0.1893640E+03  0.7561462E-02  0.1062310E+00
         22   -1    0    0    0    0  0.00000000000E+00  0.00000000000E+00  0.13678672499E+04  0.13678672499E+04  0.00000000000E+00 0.  1.
         22   -1    0    0    0    0 -0.00000000000E+00 -0.00000000000E+00 -0.20895674438E+03  0.20895674438E+03  0.00000000000E+00 0. -1.
        -24    2    1    2    0    0  0.19368532464E+02  0.13861608470E+03 -0.13768785156E+03  0.21110135165E+03  0.77564664728E+02 0.  0.
         25    2    1    2    0    0 -0.10584628624E+03 -0.15113942811E+03  0.37285449385E+03  0.43441281440E+03  0.12508979453E+03 0.  0.
         24    2    1    2    0    0  0.86477753775E+02  0.12523343404E+02  0.92374386320E+03  0.93130982819E+03  0.80000220341E+02 0.  0.
        -11    1    5    5    0    0  0.99983920676E+02  0.89708735166E+00  0.81582488944E+03  0.82192933966E+03  0.00000000000E+00 0.  1.
         12    1    5    5    0    0 -0.13506166901E+02  0.11626256053E+02  0.10791897376E+03  0.10938048854E+03  0.00000000000E+00 0. -1.
         13    1    3    3    0    0 -0.24054001466E+02  0.18852846366E+02 -0.41176733471E+02  0.51279120331E+02  0.00000000000E+00 0. -1.
        -14    1    3    3    0    0  0.43422533930E+02  0.11976323834E+03 -0.96511118086E+02  0.15982223132E+03  0.00000000000E+00 0.  1.
          5    1    4    4  501    0 -0.10937211761E+03 -0.60571327511E+02  0.16053890936E+03  0.20352238119E+03  0.41800000000E+01 0. -1.
         -5    1    4    4    0  501  0.35258313706E+01 -0.90568100595E+02  0.21231558449E+03  0.23089043321E+03  0.41800000000E+01 0. -1.
</event>
<event>
11    1  0.7105277E-009  0.1524452E+03  0.7561462E-02  0.1094406E+00
         22   -1    0    0    0    0  0.00000000000E+00  0.00000000000E+00  0.18936128701E+03  0.18936128701E+03  0.00000000000E+00 0. -1.
         22   -1    0    0    0    0 -0.00000000000E+00 -0.00000000000E+00 -0.13473055750E+04  0.13473055750E+04  0.00000000000E+00 0. -1.
        -24    2    1    2    0    0  0.10276494154E+02  0.37264928227E+02 -0.12268835665E+04  0.12301338527E+04  0.80571263680E+02 0.  0.
         25    2    1    2    0    0 -0.33776321077E+02 -0.11093404907E+03 -0.65776280088E+01  0.17069805788E+03  0.12508940269E+03 0.  0.
         24    2    1    2    0    0  0.23499826923E+02  0.73669120839E+02  0.75516906557E+02  0.13583495141E+03  0.82273626510E+02 0.  0.
        -11    1    5    5    0    0 -0.22926232597E+02  0.24251498617E+02 -0.12689005307E+01  0.33396967449E+02  0.00000000000E+00 0.  1.
         12    1    5    5    0    0  0.46426059520E+02  0.49417622222E+02  0.76785807088E+02  0.10243798397E+03  0.00000000000E+00 0. -1.
         13    1    3    3    0    0  0.27034660154E+00  0.47230863502E+02 -0.11848550531E+04  0.11857960720E+04  0.00000000000E+00 0. -1.
        -14    1    3    3    0    0  0.10006147552E+02 -0.99659352759E+01 -0.42028513418E+02  0.44337780672E+02  0.00000000000E+00 0.  1.
          5    1    4    4  501    0 -0.71783122705E+02 -0.54391932913E+02 -0.35060428864E+02  0.96736782784E+02  0.41800000000E+01 0. -1.
         -5    1    4    4    0  501  0.38006801628E+02 -0.56542116153E+02  0.28482800856E+02  0.73961275095E+02  0.41800000000E+01 0. -1.
</event>
<event>
11    1  0.7105277E-009  0.1468093E+03  0.7561462E-02  0.1100184E+00
         22   -1    0    0    0    0  0.00000000000E+00  0.00000000000E+00  0.27062406850E+03  0.27062406850E+03  0.00000000000E+00 0.  1.
         22   -1    0    0    0    0 -0.00000000000E+00 -0.00000000000E+00 -0.11345783910E+04  0.11345783910E+04  0.00000000000E+00 0. -1.
        -24    2    1    2    0    0 -0.96531308802E+01  0.43920524259E+01 -0.83587630640E+03  0.83978299392E+03  0.80210998045E+02 0.  0.
         25    2    1    2    0    0 -0.67516406149E+02 -0.77900504737E+01 -0.26651392573E+03  0.30215228794E+03  0.12508869859E+03 0.  0.
         24    2    1    2    0    0  0.77169537029E+02  0.33979980478E+01  0.23843590967E+03  0.26326717760E+03  0.80568231610E+02 0.  0.
        -13    1    5    5    0    0  0.67043049899E+02  0.36953872981E+02  0.16178753707E+03  0.17898482176E+03  0.00000000000E+00 0.  1.
         14    1    5    5    0    0  0.10126487130E+02 -0.33555874933E+02  0.76648372603E+02  0.84282355845E+02  0.00000000000E+00 0. -1.
         13    1    3    3    0    0 -0.35649308595E+02  0.19744614600E+02 -0.66593202784E+03  0.66717777894E+03  0.00000000000E+00 0. -1.
        -14    1    3    3    0    0  0.25996177714E+02 -0.15352562174E+02 -0.16994427857E+03  0.17260521498E+03  0.00000000000E+00 0.  1.
          5    1    4    4  501    0 -0.88865019090E+02  0.32852348194E+02 -0.15837714890E+03  0.18459973481E+03  0.41800000000E+01 0.  1.
         -5    1    4    4    0  501  0.21348612941E+02 -0.40642398667E+02 -0.10813677683E+03  0.11755255313E+03  0.41800000000E+01 0.  1.
</event>
<event>
11    1  0.7105277E-009  0.1586206E+03  0.7561462E-02  0.1088382E+00
         22   -1    0    0    0    0  0.00000000000E+00  0.00000000000E+00  0.76755197440E+03  0.76755197440E+03  0.00000000000E+00 0. -1.
         22   -1    0    0    0    0 -0.00000000000E+00 -0.00000000000E+00 -0.80972767345E+03  0.80972767345E+03  0.00000000000E+00 0.  1.
        -24    2    1    2    0    0 -0.92883126186E+02 -0.28929909588E+02 -0.76592386981E+03  0.77616324533E+03  0.79534861892E+02 0.  0.
         25    2    1    2    0    0  0.12781733202E+03 -0.42481589033E+02  0.22867094981E+03  0.29339557405E+03  0.12509437962E+03 0.  0.
         24    2    1    2    0    0 -0.34934205835E+02  0.71411498621E+02  0.49507722095E+03  0.50772082847E+03  0.79743238537E+02 0.  0.
        -13    1    5    5    0    0  0.11601362610E+01 -0.16998377012E+02  0.68792334498E+02  0.70870840427E+02  0.00000000000E+00 0.  1.
         14    1    5    5    0    0 -0.36094342096E+02  0.88409875634E+02  0.42628488645E+03  0.43684998805E+03  0.00000000000E+00 0. -1.
         11    1    3    3    0    0  0.11870812103E+02 -0.15708237589E+02 -0.99852866933E+02  0.10177553705E+03  0.00000000000E+00 0. -1.
        -12    1    3    3    0    0 -0.10475393829E+03 -0.13221671999E+02 -0.66607100287E+03  0.67438770827E+03  0.00000000000E+00 0.  1.
          5    1    4    4  501    0  0.13354551593E+03 -0.13106611939E+02  0.11821679825E+03  0.17888228501E+03  0.41800000000E+01 0.  1.
         -5    1    4    4    0  501 -0.57281839106E+01 -0.29374977095E+02  0.11045415155E+03  0.11451328903E+03  0.41800000000E+01 0.  1.
</event>
<event>
11    1  0.7105277E-009  0.1406688E+03  0.7561462E-02  0.1106814E+00
         22   -1    0    0    0    0  0.00000000000E+00  0.00000000000E+00  0.62669304495E+02  0.62669304495E+02  0.00000000000E+00 0.  1.
         22   -1    0    0    0    0 -0.00000000000E+00 -0.00000000000E+00 -0.15367739121E+04  0.15367739121E+04  0.00000000000E+00 0. -1.
         24    2    1    2    0    0  0.16288929201E+02  0.62418609379E+02 -0.13306243939E+04  0.13346395519E+04  0.80870538626E+02 0.  0.
         25    2    1    2    0    0  0.26428067195E+02 -0.69649636604E+02 -0.11412267154E+03  0.18498816230E+03  0.12508845438E+03 0.  0.
        -24    2    1    2    0    0 -0.42716996396E+02  0.72310272255E+01 -0.29357542160E+02  0.79815502317E+02  0.60262920545E+02 0.  0.
        -13    1    3    3    0    0  0.20957832647E+02  0.50824901197E+02 -0.38228925375E+03  0.38622205383E+03  0.00000000000E+00 0.  1.
         14    1    3    3    0    0 -0.46689034462E+01  0.11593708181E+02 -0.94833514012E+03  0.94841749811E+03  0.00000000000E+00 0. -1.
         11    1    5    5    0    0 -0.57106510385E+02  0.78823011988E+01 -0.15199187584E+02  0.59617946155E+02  0.00000000000E+00 0. -1.
        -12    1    5    5    0    0  0.14389513989E+02 -0.65127397334E+00 -0.14158354576E+02  0.20197556162E+02  0.00000000000E+00 0.  1.
          5    1    4    4  501    0  0.10114625578E+02  0.15704774021E+02 -0.93684168653E+02  0.95619775328E+02  0.41800000000E+01 0. -1.
         -5    1    4    4    0  501  0.16313441617E+02 -0.85354410625E+02 -0.20438502884E+02  0.89368386976E+02  0.41800000000E+01 0. -1.
</event>
<event>
11    1  0.7105277E-009  0.1996184E+03  0.7561462E-02  0.1054794E+00
         22   -1    0    0    0    0  0.00000000000E+00  0.00000000000E+00  0.88154034238E+03  0.88154034238E+03  0.00000000000E+00 0.  1.
         22   -1    0    0    0    0 -0.00000000000E+00 -0.00000000000E+00 -0.22623488628E+03  0.22623488628E+03  0.00000000000E+00 0. -1.
         24    2    1    2    0    0  0.49545644144E+01 -0.12032667444E+02 -0.79500782374E+02  0.11430839917E+03  0.81096873722E+02 0.  0.
         25    2    1    2    0    0  0.84852537371E+02 -0.11617631291E+03 -0.43373160409E+02  0.19551386033E+03  0.12509016651E+03 0.  0.
        -24    2    1    2    0    0 -0.89807101786E+02  0.12820898035E+03  0.77817939888E+03  0.79795296916E+03  0.81626625406E+02 0.  0.
        -13    1    3    3    0    0  0.25920843958E+02 -0.19199621088E+02 -0.50181038173E+00  0.32260927065E+02  0.00000000000E+00 0.  1.
         14    1    3    3    0    0 -0.20966279544E+02  0.71669536441E+01 -0.78998971992E+02  0.82047472102E+02  0.00000000000E+00 0. -1.
         11    1    5    5    0    0  0.13411228505E+02  0.24717843647E+02  0.85016791338E+02  0.89547125325E+02  0.00000000000E+00 0. -1.
        -12    1    5    5    0    0 -0.10321833029E+03  0.10349113671E+03  0.69316260754E+03  0.70840584384E+03  0.00000000000E+00 0.  1.
          5    1    4    4  501    0  0.10074336280E+03 -0.11757084594E+03 -0.65291362009E+02  0.16808498838E+03  0.41800000000E+01 0.  1.
         -5    1    4    4    0  501 -0.15890825433E+02  0.13945330299E+01  0.21918201600E+02  0.27428871954E+02  0.41800000000E+01 0.  1.
</event>
<event>
11    1  0.7105277E-009  0.1838360E+03  0.7561462E-02  0.1066582E+00
         22   -1    0    0    0    0  0.00000000000E+00  0.00000000000E+00  0.37654353198E+03  0.37654353198E+03  0.00000000000E+00 0.  1.
         22   -1    0    0    0    0 -0.00000000000E+00 -0.00000000000E+00 -0.13124793040E+04  0.13124793040E+04  0.00000000000E+00 0. -1.
         24    2    1    2    0    0 -0.59899093669E+02 -0.16026422807E+02 -0.97553746343E+03  0.98084169272E+03  0.80822867859E+02 0.  0.
         25    2    1    2    0    0  0.49405759317E+02  0.14968116601E+03 -0.28452911812E+03  0.34850013796E+03  0.12510054593E+03 0.  0.
        -24    2    1    2    0    0  0.10493334352E+02 -0.13365474320E+03  0.32413080957E+03  0.35968100526E+03  0.79598639343E+02 0.  0.
        -11    1    3    3    0    0 -0.29333614819E+02  0.22657683192E+02 -0.17992500941E+03  0.18370313165E+03  0.00000000000E+00 0.  1.
         12    1    3    3    0    0 -0.30565478850E+02 -0.38684105999E+02 -0.79561245402E+03  0.79713856107E+03  0.00000000000E+00 0. -1.
         13    1    5    5    0    0  0.31182397795E+02 -0.11704236723E+03  0.20927324941E+03  0.24179857439E+03  0.00000000000E+00 0. -1.
        -14    1    5    5    0    0 -0.20689063443E+02 -0.16612375977E+02  0.11485756016E+03  0.11788243087E+03  0.00000000000E+00 0.  1.
          5    1    4    4  501    0  0.56709693491E+02  0.12359985857E+03 -0.29020410846E+03  0.32051335595E+03  0.41800000000E+01 0. -1.
         -5    1    4    4    0  501 -0.73039341743E+01  0.26081307444E+02  0.56749903393E+01  0.27986782019E+02  0.41800000000E+01 0. -1.
</event>
<event>
11    1  0.7105277E-009  0.1504976E+03  0.7561462E-02  0.1096371E+00
         22   -1    0    0    0    0  0.00000000000E+00  0.00000000000E+00  0.24312250340E+04  0.24312250340E+04  0.00000000000E+00 0. -1.
         22   -1    0    0    0    0 -0.00000000000E+00 -0.00000000000E+00 -0.22224015261E+03  0.22224015261E+03  0.00000000000E+00 0.  1.
        -24    2    1    2    0    0  0.80725319669E+02 -0.21301602887E+02 -0.19726749447E+03  0.22998971546E+03  0.83728545454E+02 0.  0.
         25    2    1    2    0    0 -0.78741381581E+02  0.70332125552E+02  0.93269679350E+03  0.94695213095E+03  0.12509283218E+03 0.  0.
         24    2    1    2    0    0 -0.19839380878E+01 -0.49030522665E+02  0.14735555823E+04  0.14765233402E+04  0.79669264180E+02 0.  0.
        -13    1    5    5    0    0 -0.30743736099E+01 -0.17851445234E+02  0.61231023602E+02  0.63854241217E+02  0.00000000000E+00 0.  1.
         14    1    5    5    0    0  0.10904355221E+01 -0.31179077431E+02  0.14123245587E+04  0.14126690989E+04  0.00000000000E+00 0. -1.
         11    1    3    3    0    0 -0.10278203645E+02  0.16144866754E+02 -0.23662046756E+02  0.30433380512E+02  0.00000000000E+00 0. -1.
        -12    1    3    3    0    0  0.91003523313E+02 -0.37446469641E+02 -0.17360544771E+03  0.19955633495E+03  0.00000000000E+00 0.  1.
          5    1    4    4  501    0 -0.88784670982E+01  0.53713476480E+02  0.12950137031E+03  0.14054195831E+03  0.41800000000E+01 0. -1.
         -5    1    4    4    0  501 -0.69862914483E+02  0.16618649073E+02  0.80319542319E+03  0.80641017264E+03  0.41800000000E+01 0. -1.
</event>
<event>
11    1  0.7105277E-009  0.1651714E+03  0.7561462E-02  0.1082312E+00
         22   -1    0    0    0    0  0.00000000000E+00  0.00000000000E+00  0.13565913820E+04  0.13565913820E+04  0.00000000000E+00 0. -1.
         22   -1    0    0    0    0 -0.00000000000E+00 -0.00000000000E+00 -0.34434893901E+04  0.34434893901E+04  0.00000000000E+00 0. -1.
        -24    2    1    2    0    0 -0.59918044073E+02 -0.26617676776E+02 -0.34028340643E+04  0.34045781019E+04  0.87027064271E+02 0.  0.
         25    2    1    2    0    0 -0.34377491436E+02  0.86011398845E+02  0.13379141383E+03  0.20524868280E+03  0.12508839565E+03 0.  0.
         24    2    1    2    0    0  0.94295535509E+02 -0.59393722069E+02  0.11821446424E+04  0.11902539874E+04  0.82579275950E+02 0.  0.
        -13    1    5    5    0    0 -0.11565376540E+02  0.43381190481E+01  0.55744271837E+02  0.57096418925E+02  0.00000000000E+00 0.  1.
         14    1    5    5    0    0  0.10586091205E+03 -0.63731841117E+02  0.11264003706E+04  0.11331575685E+04  0.00000000000E+00 0. -1.
         13    1    3    3    0    0 -0.15703178460E+01 -0.75739394691E+01 -0.23156399843E+04  0.23156529030E+04  0.00000000000E+00 0. -1.
        -14    1    3    3    0    0 -0.58347726227E+02 -0.19043737307E+02 -0.10871940801E+04  0.10889251989E+04  0.00000000000E+00 0.  1.
          5    1    4    4  501    0 -0.14538566385E+02 -0.24086635298E+02 -0.28706433302E+01  0.28587565577E+02  0.41800000000E+01 0. -1.
         -5    1    4    4    0  501 -0.19838925051E+02  0.11009803414E+03  0.13666205716E+03  0.17666111722E+03  0.41800000000E+01 0. -1.
</event>
<event>
11    1  0.7105277E-009  0.1743165E+03  0.7561462E-02  0.1074335E+00
         22   -1    0    0    0    0  0.00000000000E+00  0.00000000000E+00  0.77831044011E+03  0.77831044011E+03  0.00000000000E+00 0.  1.
         22   -1    0    0    0    0 -0.00000000000E+00 -0.00000000000E+00 -0.35149896636E+03  0.35149896636E+03  0.00000000000E+00 0.  1.
         24    2    1    2    0    0 -0.18354171104E+02 -0.12048888937E+03 -0.16494140141E+03  0.22046186472E+03  0.80890789568E+02 0.  0.
         25    2    1    2    0    0  0.25452036468E+02  0.11801196471E+03 -0.10812947932E+03  0.20472819424E+03  0.12508804597E+03 0.  0.
        -24    2    1    2    0    0 -0.70978653639E+01  0.24769246681E+01  0.69988235448E+03  0.70461934752E+03  0.81219455399E+02 0.  0.
        -11    1    3    3    0    0 -0.38074647209E+02 -0.11277971791E+03 -0.15871418370E+03  0.19839136987E+03  0.00000000000E+00 0.  1.
         12    1    3    3    0    0  0.19720476105E+02 -0.77091714653E+01 -0.62272177110E+01  0.22070494850E+02  0.00000000000E+00 0. -1.
         11    1    5    5    0    0 -0.46722388475E+01 -0.21424660219E+02  0.53892013005E+02  0.58182428164E+02  0.00000000000E+00 0. -1.
        -12    1    5    5    0    0 -0.24256265163E+01  0.23901584888E+02  0.64599034148E+03  0.64643691935E+03  0.00000000000E+00 0.  1.
          5    1    4    4  501    0  0.25322466111E+02  0.34215103308E+02 -0.11286099664E+03  0.12069373449E+03  0.41800000000E+01 0. -1.
         -5    1    4    4    0  501  0.12957035655E+00  0.83796861398E+02  0.47315173122E+01  0.84034459745E+02  0.41800000000E+01 0. -1.
</event>
<event>
11    1  0.7105277E-009  0.1271170E+03  0.7561462E-02  0.1122863E+00
         22   -1    0    0    0    0  0.00000000000E+00  0.00000000000E+00  0.25452975111E+03  0.25452975111E+03  0.00000000000E+00 0.  1.
         22   -1    0    0    0    0 -0.00000000000E+00 -0.00000000000E+00 -0.56814472725E+03  0.56814472725E+03  0.00000000000E+00 0.  1.
        -24    2    1    2    0    0  0.24341251857E+02 -0.36430783626E+01 -0.44877376172E+03  0.45627833699E+03  0.78652800555E+02 0.  0.
         25    2    1    2    0    0  0.14210497342E+01  0.21116312406E+02 -0.71061466506E+02  0.14541589420E+03  0.12509249470E+03 0.  0.
         24    2    1    2    0    0 -0.25762301592E+02 -0.17473234043E+02  0.20622025208E+03  0.22098024718E+03  0.73051127175E+02 0.  0.
        -13    1    5    5    0    0 -0.31427215318E+02 -0.63205611693E+01  0.20598976912E+03  0.20846919278E+03  0.00000000000E+00 0.  1.
         14    1    5    5    0    0  0.56649137263E+01 -0.11152672874E+02  0.23048296499E+00  0.12511054398E+02  0.00000000000E+00 0. -1.
         13    1    3    3    0    0 -0.10953577678E+02  0.30512397186E+02 -0.21196349028E+03  0.21442832942E+03  0.00000000000E+00 0. -1.
        -14    1    3    3    0    0  0.35294829535E+02 -0.34155475549E+02 -0.23681027144E+03  0.24185000757E+03  0.00000000000E+00 0.  1.
          5    1    4    4  501    0 -0.37137582606E+02  0.60474705580E+02 -0.33404498115E+02  0.78547583993E+02  0.41800000000E+01 0.  1.
         -5    1    4    4    0  501  0.38558632341E+02 -0.39358393174E+02 -0.37656968391E+02  0.66868310205E+02  0.41800000000E+01 0.  1.
</event>
<event>
11    1  0.7105277E-009  0.1746962E+03  0.7561462E-02  0.1074016E+00
         22   -1    0    0    0    0  0.00000000000E+00  0.00000000000E+00  0.24662153295E+04  0.24662153295E+04  0.00000000000E+00 0.  1.
         22   -1    0    0    0    0 -0.00000000000E+00 -0.00000000000E+00 -0.15950442000E+03  0.15950442000E+03  0.00000000000E+00 0.  1.
        -24    2    1    2    0    0  0.32425510556E+02  0.14089877767E+02 -0.13511953473E+03  0.16061953342E+03  0.79318392944E+02 0.  0.
         25    2    1    2    0    0 -0.46503639642E+02 -0.12928894472E+03  0.10624975777E+04  0.10786264397E+04  0.12512263677E+03 0.  0.
         24    2    1    2    0    0  0.14078129085E+02  0.11519906695E+03  0.13793328665E+04  0.13864737763E+04  0.79255012056E+02 0.  0.
        -11    1    5    5    0    0  0.24395707543E+01  0.12505782189E+03  0.12510204420E+04  0.12572579515E+04  0.00000000000E+00 0.  1.
         12    1    5    5    0    0  0.11638558331E+02 -0.98587549379E+01  0.12831242453E+03  0.12921582479E+03  0.00000000000E+00 0. -1.
         13    1    3    3    0    0  0.30779047070E+02  0.31971216187E+02 -0.29051979672E+02  0.53042680229E+02  0.00000000000E+00 0. -1.
        -14    1    3    3    0    0  0.16464634862E+01 -0.17881338420E+02 -0.10606755506E+03  0.10757685319E+03  0.00000000000E+00 0.  1.
          5    1    4    4  501    0  0.23273716189E+02  0.13197681915E+02  0.14681540567E+03  0.14929193018E+03  0.41800000000E+01 0.  1.
         -5    1    4    4    0  501 -0.69777355831E+02 -0.14248662663E+03  0.91568217199E+03  0.92933450956E+03  0.41800000000E+01 0.  1.
</event>
<event>
11    1  0.7105277E-009  0.1333492E+03  0.7561462E-02  0.1115221E+00
         22   -1    0    0    0    0  0.00000000000E+00  0.00000000000E+00  0.90431272226E+02  0.90431272226E+02  0.00000000000E+00 0. -1.
         22   -1    0    0    0    0 -0.00000000000E+00 -0.00000000000E+00 -0.96730376732E+03  0.96730376732E+03  0.00000000000E+00 0.  1.
        -24    2    1    2    0    0  0.20748664881E+01  0.40477007639E+02 -0.38051922004E+03  0.39093338216E+03  0.79945851996E+02 0.  0.
         25    2    1    2    0    0  0.33574930476E+02 -0.68117341046E+02 -0.54449184818E+03  0.56381161534E+03  0.12507964162E+03 0.  0.
         24    2    1    2    0    0 -0.35649796964E+02  0.27640333408E+02  0.48138573136E+02  0.10299004204E+03  0.79086854030E+02 0.  0.
        -13    1    5    5    0    0 -0.20370465157E+02  0.54715464289E+02  0.22064927275E+02  0.62414733026E+02  0.00000000000E+00 0.  1.
         14    1    5    5    0    0 -0.15279331807E+02 -0.27075130881E+02  0.26073645861E+02  0.40575309009E+02  0.00000000000E+00 0. -1.
         13    1    3    3    0    0  0.24171485937E+02 -0.13586432840E+02 -0.76865218536E+02  0.81713607865E+02  0.00000000000E+00 0. -1.
        -14    1    3    3    0    0 -0.22096619449E+02  0.54063440479E+02 -0.30365400151E+03  0.30921977430E+03  0.00000000000E+00 0.  1.
          5    1    4    4  501    0  0.79293408735E+02 -0.40450883190E+02 -0.39709256774E+03  0.40696891573E+03  0.41800000000E+01 0.  1.
         -5    1    4    4    0  501 -0.45718478259E+02 -0.27666457856E+02 -0.14739928044E+03  0.15684269961E+03  0.41800000000E+01 0.  1.
</event>
<event>
11    1  0.7105277E-009  0.1414983E+03  0.7561462E-02  0.1105897E+00
         22   -1    0    0    0    0  0.00000000000E+00  0.00000000000E+00  0.15008637408E+04  0.15008637408E+04  0.00000000000E+00 0. -1.
         22   -1    0    0    0    0 -0.00000000000E+00 -0.00000000000E+00 -0.17176247380E+04  0.17176247380E+04  0.00000000000E+00 0. -1.
         24    2    1    2    0    0 -0.11465090918E+02  0.65282038563E+02 -0.16087604313E+04  0.16120173278E+04  0.78080388147E+02 0.  0.
         25    2    1    2    0    0  0.41773004446E+02 -0.55289343368E+02 -0.57709180287E+02  0.15420651089E+03  0.12508958039E+03 0.  0.
        -24    2    1    2    0    0 -0.30307913528E+02 -0.99926951951E+01  0.14497086144E+04  0.14522646400E+04  0.79994339367E+02 0.  0.
        -11    1    3    3    0    0 -0.16218450337E+02  0.21862604199E+02 -0.14080449606E+03  0.14341170700E+03  0.00000000000E+00 0.  1.
         12    1    3    3    0    0  0.47533594183E+01  0.43419434364E+02 -0.14679559353E+04  0.14686056208E+04  0.00000000000E+00 0. -1.
         13    1    5    5    0    0 -0.12516661556E+02 -0.93261996237E+01  0.13867308364E+04  0.13868186823E+04  0.00000000000E+00 0. -1.
        -14    1    5    5    0    0 -0.17791251972E+02 -0.66649557142E+00  0.62977777990E+02  0.65445957733E+02  0.00000000000E+00 0.  1.
          5    1    4    4  501    0  0.60489709079E+02 -0.86936879525E+02 -0.42312729412E+02  0.11412653239E+03  0.41800000000E+01 0.  1.
         -5    1    4    4    0  501 -0.18716704632E+02  0.31647536157E+02 -0.15396450875E+02  0.40079978501E+02  0.41800000000E+01 0.  1.
</event>
<event>
11    1  0.7105277E-009  0.1474019E+03  0.7561462E-02  0.1099563E+00
         22   -1    0    0    0    0  0.00000000000E+00  0.00000000000E+00  0.50495745813E+03  0.50495745813E+03  0.00000000000E+00 0. -1.
         22   -1    0    0    0    0 -0.00000000000E+00 -0.00000000000E+00 -0.22363770864E+03  0.22363770864E+03  0.00000000000E+00 0.  1.
        -24    2    1    2    0    0 -0.57471293675E+02 -0.53446863710E+02 -0.18209341721E+03  0.21372999374E+03  0.79768294415E+02 0.  0.
         25    2    1    2    0    0  0.47010848158E+02  0.48787254554E+02  0.30516337283E+03  0.33669317381E+03  0.12508954042E+03 0.  0.
         24    2    1    2    0    0  0.10460445517E+02  0.46596091566E+01  0.15824979387E+03  0.17817199922E+03  0.81062513947E+02 0.  0.
        -13    1    5    5    0    0 -0.20818100684E+02  0.32250623678E+02  0.57560733027E+02  0.69186227173E+02  0.00000000000E+00 0.  1.
         14    1    5    5    0    0  0.31278546202E+02 -0.27591014522E+02  0.10068906084E+03  0.10898577205E+03  0.00000000000E+00 0. -1.
         11    1    3    3    0    0  0.48933763759E+01  0.17073051261E+02 -0.28321232399E+02  0.33429424408E+02  0.00000000000E+00 0. -1.
        -12    1    3    3    0    0 -0.62364670051E+02 -0.70519914971E+02 -0.15377218481E+03  0.18030056933E+03  0.00000000000E+00 0.  1.
          5    1    4    4  501    0  0.54557305117E+02 -0.73861522979E+01  0.47491652943E+02  0.72828457946E+02  0.41800000000E+01 0. -1.
         -5    1    4    4    0  501 -0.75464569598E+01  0.56173406851E+02  0.25767171989E+03  0.26386471587E+03  0.41800000000E+01 0. -1.
</event>
<event>
11    1  0.7105277E-009  0.1791706E+03  0.7561462E-02  0.1070316E+00
         22   -1    0    0    0    0  0.00000000000E+00  0.00000000000E+00  0.29610377641E+03  0.29610377641E+03  0.00000000000E+00 0. -1.
         22   -1    0    0    0    0 -0.00000000000E+00 -0.00000000000E+00 -0.33353395672E+03  0.33353395672E+03  0.00000000000E+00 0.  1.
        -24    2    1    2    0    0 -0.13183425449E+02 -0.12015180951E+03 -0.11888473790E+03  0.18742935175E+03  0.79911957523E+02 0.  0.
         25    2    1    2    0    0  0.82733858510E+01  0.13919212188E+03 -0.12038433451E+03  0.22266774223E+03  0.12508253166E+03 0.  0.
         24    2    1    2    0    0  0.49100395976E+01 -0.19040312374E+02  0.20183889209E+03  0.21954063915E+03  0.84098227655E+02 0.  0.
        -11    1    5    5    0    0 -0.33046695612E+01  0.97164737450E+01 -0.43841566092E+01  0.11160265773E+02  0.00000000000E+00 0.  1.
         12    1    5    5    0    0  0.82147091588E+01 -0.28756786119E+02  0.20622304870E+03  0.20838037338E+03  0.00000000000E+00 0. -1.
         11    1    3    3    0    0  0.98177716985E+00 -0.78865308083E+02 -0.23126363734E+02  0.82192027625E+02  0.00000000000E+00 0. -1.
        -12    1    3    3    0    0 -0.14165202618E+02 -0.41286501427E+02 -0.95758374165E+02  0.10523732412E+03  0.00000000000E+00 0.  1.
          5    1    4    4  501    0  0.38014088988E+01  0.16266876285E+03 -0.10880546138E+03  0.19578477454E+03  0.41800000000E+01 0.  1.
         -5    1    4    4    0  501  0.44719769522E+01 -0.23476640962E+02 -0.11578873131E+02  0.26882967688E+02  0.41800000000E+01 0.  1.
</event>
<event>
11    1  0.7105277E-009  0.1469729E+03  0.7561462E-02  0.1100013E+00
         22   -1    0    0    0    0  0.00000000000E+00  0.00000000000E+00  0.12099939116E+04  0.12099939116E+04  0.00000000000E+00 0.  1.
         22   -1    0    0    0    0 -0.00000000000E+00 -0.00000000000E+00 -0.60310862013E+03  0.60310862013E+03  0.00000000000E+00 0.  1.
         24    2    1    2    0    0  0.61397308521E+02 -0.43132475676E+02 -0.53441213561E+03  0.54574986085E+03  0.81342116843E+02 0.  0.
         25    2    1    2    0    0 -0.93917193039E+02  0.85577457078E+02  0.69691779054E+02  0.19143772785E+03  0.12509004464E+03 0.  0.
        -24    2    1    2    0    0  0.32519884518E+02 -0.42444981401E+02  0.10716056480E+04  0.10759149430E+04  0.79969872075E+02 0.  0.
        -11    1    3    3    0    0  0.69131389443E+02 -0.55534635279E+02 -0.50688522295E+03  0.51458320412E+03  0.00000000000E+00 0.  1.
         12    1    3    3    0    0 -0.77340809221E+01  0.12402159602E+02 -0.27526912664E+02  0.31166656724E+02  0.00000000000E+00 0. -1.
         11    1    5    5    0    0  0.30502182256E+02 -0.32777721710E+02  0.23366766034E+03  0.23791876272E+03  0.00000000000E+00 0. -1.
        -12    1    5    5    0    0  0.20177022624E+01 -0.96672596916E+01  0.83793798769E+03  0.83799618033E+03  0.00000000000E+00 0.  1.
          5    1    4    4  501    0 -0.21752962769E+02  0.10071237475E+03  0.52031384885E+02  0.11550286243E+03  0.41800000000E+01 0. -1.
         -5    1    4    4    0  501 -0.72164230270E+02 -0.15134917673E+02  0.17660394169E+02  0.75934865415E+02  0.41800000000E+01 0. -1.
</event>
<event>
11    1  0.7105277E-009  0.1452563E+03  0.7561462E-02  0.1101827E+00
         22   -1    0    0    0    0  0.00000000000E+00  0.00000000000E+00  0.23420898845E+04  0.23420898845E+04  0.00000000000E+00 0. -1.
         22   -1    0    0    0    0 -0.00000000000E+00 -0.00000000000E+00 -0.10908347996E+02  0.10908347996E+02  0.00000000000E+00 0.  1.
        -24    2    1    2    0    0  0.41461035321E+01  0.44360593086E+01  0.53186958986E+03  0.53787829842E+03  0.79943320541E+02 0.  0.
         25    2    1    2    0    0  0.59053277027E+02  0.38680897362E+02  0.11852737664E+04  0.11939452807E+04  0.12509168892E+03 0.  0.
         24    2    1    2    0    0 -0.63199380559E+02 -0.43116956671E+02  0.61403818028E+03  0.62117465341E+03  0.54422693279E+02 0.  0.
        -13    1    5    5    0    0 -0.72820972089E+02 -0.33104590424E+02  0.52638004161E+03  0.53242347440E+03  0.00000000000E+00 0.  1.
         14    1    5    5    0    0  0.96215915306E+01 -0.10012366247E+02  0.87658138666E+02  0.88751179011E+02  0.00000000000E+00 0. -1.
         11    1    3    3    0    0  0.22484592854E+02  0.20973925562E+02  0.47353458437E+03  0.47453183777E+03  0.00000000000E+00 0. -1.
        -12    1    3    3    0    0 -0.18338489321E+02 -0.16537866254E+02  0.58335005491E+02  0.63346460647E+02  0.00000000000E+00 0.  1.
          5    1    4    4  501    0 -0.31290067362E+01  0.38179864910E+02  0.94288344837E+03  0.94367057938E+03  0.41800000000E+01 0.  1.
         -5    1    4    4    0  501  0.62182283763E+02  0.50103245182E+00  0.24239031799E+03  0.25027470129E+03  0.41800000000E+01 0.  1.
</event>
<event>
11    1  0.7105277E-009  0.1353928E+03  0.7561462E-02  0.1112815E+00
         22   -1    0    0    0    0  0.00000000000E+00  0.00000000000E+00  0.37083652853E+03  0.37083652853E+03  0.00000000000E+00 0.  1.
         22   -1    0    0    0    0 -0.00000000000E+00 -0.00000000000E+00 -0.17144729986E+03  0.17144729986E+03  0.00000000000E+00 0.  1.
         24    2    1    2    0    0 -0.41791766731E+02  0.33701903739E+02 -0.10121904205E+03  0.13945548753E+03  0.79499487076E+02 0.  0.
         25    2    1    2    0    0  0.43422301571E+02 -0.12150911902E+02  0.56386086153E+02  0.14442978960E+03  0.12508969773E+03 0.  0.
        -24    2    1    2    0    0 -0.16305348400E+01 -0.21550991836E+02  0.24422218457E+03  0.25839855126E+03  0.81597989973E+02 0.  0.
        -13    1    3    3    0    0 -0.11116667036E+02  0.41285414205E+02 -0.98930238080E+02  0.10777410505E+03  0.00000000000E+00 0.  1.
         14    1    3    3    0    0 -0.30675099695E+02 -0.75835104661E+01 -0.22888039731E+01  0.31681382481E+02  0.00000000000E+00 0. -1.
         13    1    5    5    0    0  0.18412703595E+02  0.19608863308E+02  0.34548263645E+02  0.43784902589E+02  0.00000000000E+00 0. -1.
        -14    1    5    5    0    0 -0.20043238435E+02 -0.41159855144E+02  0.20967392092E+03  0.21461364867E+03  0.00000000000E+00 0.  1.
          5    1    4    4  501    0  0.87072966876E+02 -0.12817200723E+02  0.45851722868E+02  0.99326910175E+02  0.41800000000E+01 0.  1.
         -5    1    4    4    0  501 -0.43650665305E+02  0.66628882027E+00  0.10534363285E+02  0.45102879422E+02  0.41800000000E+01 0.  1.
</event>
<event>
11    1  0.7105277E-009  0.1375958E+03  0.7561462E-02  0.1110273E+00
         22   -1    0    0    0    0  0.00000000000E+00  0.00000000000E+00  0.94041367183E+03  0.94041367183E+03  0.00000000000E+00 0.  1.
         22   -1    0    0    0    0 -0.00000000000E+00 -0.00000000000E+00 -0.33873749001E+03  0.33873749001E+03  0.00000000000E+00 0. -1.
        -24    2    1    2    0    0  0.50605939350E+02 -0.20321980288E+02 -0.28465125276E+03  0.30085698567E+03  0.80713357921E+02 0.  0.
         25    2    1    2    0    0 -0.86417449290E+02 -0.22924291537E+02  0.94752535610E+02  0.18059312508E+03  0.12506932132E+03 0.  0.
         24    2    1    2    0    0  0.35811509940E+02  0.43246271825E+02  0.79157489897E+03  0.79770105109E+03  0.81138412358E+02 0.  0.
        -13    1    5    5    0    0  0.45872347057E+02  0.22101156856E+02  0.73078818025E+03  0.73255996188E+03  0.00000000000E+00 0.  1.
         14    1    5    5    0    0 -0.10060837117E+02  0.21145114969E+02  0.60786718721E+02  0.65141089210E+02  0.00000000000E+00 0. -1.
         13    1    3    3    0    0  0.39273448069E+02 -0.19458315677E+01 -0.27395582907E+03  0.27676341208E+03  0.00000000000E+00 0. -1.
        -14    1    3    3    0    0  0.11332491281E+02 -0.18376148720E+02 -0.10695423691E+02  0.24093573590E+02  0.00000000000E+00 0.  1.
          5    1    4    4  501    0  0.52795841218E+01 -0.49110111340E+02  0.54332803999E+01  0.49866521638E+02  0.41800000000E+01 0.  1.
         -5    1    4    4    0  501 -0.91697033412E+02  0.26185819803E+02  0.89319255210E+02  0.13072660344E+03  0.41800000000E+01 0.  1.
</event>
<event>
11    1  0.7105277E-009  0.1502532E+03  0.7561462E-02  0.1096620E+00
         22   -1    0    0    0    0  0.00000000000E+00  0.00000000000E+00  0.11026139174E+04  0.11026139174E+04  0.00000000000E+00 0. -1.
         22   -1    0    0    0    0 -0.00000000000E+00 -0.00000000000E+00 -0.13782964308E+04  0.13782964308E+04  0.00000000000E+00 0.  1.
         24    2    1    2    0    0  0.36466375927E+02 -0.13266394544E+02 -0.10814049355E+04  0.10850846108E+04  0.80412588138E+02 0.  0.
         25    2    1    2    0    0 -0.49493972413E+02  0.95278384764E+02 -0.26870226437E+03  0.31523967855E+03  0.12509006413E+03 0.  0.
        -24    2    1    2    0    0  0.13027596486E+02 -0.82011990220E+02  0.10744246865E+04  0.10805860589E+04  0.79888290738E+02 0.  0.
        -13    1    3    3    0    0 -0.12422521213E+02  0.24384508174E+02 -0.36779383935E+03  0.36881056321E+03  0.00000000000E+00 0.  1.
         14    1    3    3    0    0  0.48888897140E+02 -0.37650902718E+02 -0.71361109613E+03  0.71627404760E+03  0.00000000000E+00 0. -1.
         11    1    5    5    0    0  0.14681694551E+02 -0.14189268905E+02  0.68442621462E+03  0.68473069944E+03  0.00000000000E+00 0. -1.
        -12    1    5    5    0    0 -0.16540980645E+01 -0.67822721315E+02  0.38999847184E+03  0.39585535945E+03  0.00000000000E+00 0.  1.
          5    1    4    4  501    0 -0.34321511618E+02  0.10155566758E+03 -0.27650399792E+03  0.29658633321E+03  0.41800000000E+01 0. -1.
         -5    1    4    4    0  501 -0.15172460795E+02 -0.62772828208E+01  0.78017335481E+01  0.18653345344E+02  0.41800000000E+01 0. -1.
</event>
<event>
11    1  0.7105277E-009  0.1415708E+03  0.7561462E-02  0.1105817E+00
         22   -1    0    0    0    0  0.00000000000E+00  0.00000000000E+00  0.24990282352E+03  0.24990282352E+03  0.00000000000E+00 0.  1.
         22   -1    0    0    0    0 -0.00000000000E+00 -0.00000000000E+00 -0.38561780372E+03  0.38561780372E+03  0.00000000000E+00 0.  1.
         24    2    1    2    0    0 -0.27246226780E+02 -0.14178136694E+02 -0.31166984263E+03  0.32299609014E+03  0.79025356723E+02 0.  0.
         25    2    1    2    0    0 -0.46912774689E+02  0.10390297018E+02  0.43849104533E+02  0.14099258670E+03  0.12508956325E+03 0.  0.
        -24    2    1    2    0    0  0.74159001469E+02  0.37878396754E+01  0.13210575790E+03  0.17153195041E+03  0.80357784398E+02 0.  0.
        -13    1    3    3    0    0 -0.43718261908E+02  0.17758719957E+02 -0.14457095374E+03  0.15207701741E+03  0.00000000000E+00 0.  1.
         14    1    3    3    0    0  0.16472035128E+02 -0.31936856651E+02 -0.16709888889E+03  0.17091907272E+03  0.00000000000E+00 0. -1.
         13    1    5    5    0    0  0.43499592101E+02 -0.21411633221E+02  0.19712753976E+02  0.52337990212E+02  0.00000000000E+00 0. -1.
        -14    1    5    5    0    0  0.30659409369E+02  0.25199472897E+02  0.11239300392E+03  0.11919396020E+03  0.00000000000E+00 0.  1.
          5    1    4    4  501    0  0.18944266998E+02  0.15970924733E+02  0.66429861384E+02  0.71023619821E+02  0.41800000000E+01 0. -1.
         -5    1    4    4    0  501 -0.65857041687E+02 -0.55806277142E+01 -0.22580756851E+02  0.69968966874E+02  0.41800000000E+01 0. -1.
</event>
<event>
11    1  0.7105277E-009  0.1878281E+03  0.7561462E-02  0.1063481E+00
         22   -1    0    0    0    0  0.00000000000E+00  0.00000000000E+00  0.40042171488E+03  0.40042171488E+03  0.00000000000E+00 0.  1.
         22   -1    0    0    0    0 -0.00000000000E+00 -0.00000000000E+00 -0.24101305946E+04  0.24101305946E+04  0.00000000000E+00 0. -1.
        -24    2    1    2    0    0 -0.35850815941E+02  0.55322094125E+02 -0.19383260372E+04  0.19410094767E+04  0.77872632698E+02 0.  0.
         25    2    1    2    0    0  0.15460585740E+02 -0.19206735482E+03 -0.42372120248E+03  0.48199101392E+03  0.12508709592E+03 0.  0.
         24    2    1    2    0    0  0.20390230201E+02  0.13674526069E+03  0.35233835997E+03  0.38755181889E+03  0.83301048102E+02 0.  0.
        -13    1    5    5    0    0  0.35397642855E+02  0.12667836760E+03  0.34269249087E+03  0.36706749412E+03  0.00000000000E+00 0.  1.
         14    1    5    5    0    0 -0.15007412653E+02  0.10066893088E+02  0.96458690984E+01  0.20484324779E+02  0.00000000000E+00 0. -1.
         11    1    3    3    0    0 -0.38523839463E+02  0.38276214449E+02 -0.18605573195E+04  0.18613496968E+04  0.00000000000E+00 0. -1.
        -12    1    3    3    0    0  0.26730235212E+01  0.17045879677E+02 -0.77768717702E+02  0.79659779825E+02  0.00000000000E+00 0.  1.
          5    1    4    4  501    0  0.53106739347E+02 -0.18265968373E+03 -0.33995454318E+03  0.38957855390E+03  0.41800000000E+01 0.  1.
         -5    1    4    4    0  501 -0.37646153607E+02 -0.94076710829E+01 -0.83766659301E+02  0.92412460020E+02  0.41800000000E+01 0.  1.
</event>
<event>
11    1  0.7105277E-009  0.1399818E+03  0.7561462E-02  0.1107579E+00
         22   -1    0    0    0    0  0.00000000000E+00  0.00000000000E+00  0.30044011397E+03  0.30044011397E+03  0.00000000000E+00 0.  1.
         22   -1    0    0    0    0 -0.00000000000E+00 -0.00000000000E+00 -0.20427516667E+03  0.20427516667E+03  0.00000000000E+00 0.  1.
         24    2    1    2    0    0  0.42538268655E+02  0.48390039707E+02 -0.11565125182E+03  0.15515191898E+03  0.80906153485E+02 0.  0.
         25    2    1    2    0    0  0.14796728308E+02 -0.78743359135E+02  0.46114003526E+02  0.15554630239E+03  0.12509472847E+03 0.  0.
        -24    2    1    2    0    0 -0.57334996963E+02  0.30353319428E+02  0.16570219560E+03  0.19401705927E+03  0.77309609920E+02 0.  0.
        -11    1    3    3    0    0  0.14737175191E+02  0.56040456914E+01 -0.10077742302E+03  0.10200332666E+03  0.00000000000E+00 0.  1.
         12    1    3    3    0    0  0.27801093464E+02  0.42785994015E+02 -0.14873828805E+02  0.53148592315E+02  0.00000000000E+00 0. -1.
         11    1    5    5    0    0 -0.19377334676E+02  0.19975320283E+02  0.46356281795E+01  0.28213180753E+02  0.00000000000E+00 0. -1.
        -12    1    5    5    0    0 -0.37957662287E+02  0.10377999145E+02  0.16106656742E+03  0.16580387852E+03  0.00000000000E+00 0.  1.
          5    1    4    4  501    0 -0.33506540814E+02 -0.52303060826E+02  0.71466764851E+02  0.94780110399E+02  0.41800000000E+01 0.  1.
         -5    1    4    4    0  501  0.48303269122E+02 -0.26440298309E+02 -0.25352761325E+02  0.60766191993E+02  0.41800000000E+01 0.  1.
</event>
<event>
11    1  0.7105277E-009  0.1735562E+03  0.7561462E-02  0.1074978E+00
         22   -1    0    0    0    0  0.00000000000E+00  0.00000000000E+00  0.18154205218E+04  0.18154205218E+04  0.00000000000E+00 0. -1.
         22   -1    0    0    0    0 -0.00000000000E+00 -0.00000000000E+00 -0.95336698054E+02  0.95336698054E+02  0.00000000000E+00 0. -1.
        -24    2    1    2    0    0 -0.11576794929E+03  0.50578231651E+01  0.10401921753E+02  0.14165765176E+03  0.80813926196E+02 0.  0.
         25    2    1    2    0    0  0.13806779782E+03 -0.39728981890E+01  0.27703696280E+03  0.33387915148E+03  0.12508920147E+03 0.  0.
         24    2    1    2    0    0 -0.22299848529E+02 -0.10849249762E+01  0.14326449392E+04  0.14352204166E+04  0.82991940370E+02 0.  0.
        -13    1    5    5    0    0 -0.14356938310E+02 -0.39723149686E+02  0.51547087910E+03  0.51719848946E+03  0.00000000000E+00 0.  1.
         14    1    5    5    0    0 -0.79429102184E+01  0.38638224710E+02  0.91717406007E+03  0.91802192713E+03  0.00000000000E+00 0. -1.
         13    1    3    3    0    0 -0.96450431927E+02 -0.26476793448E+02  0.22927868077E+02  0.10261283324E+03  0.00000000000E+00 0. -1.
        -14    1    3    3    0    0 -0.19317517362E+02  0.31534616613E+02 -0.12525946325E+02  0.39044818520E+02  0.00000000000E+00 0.  1.
          5    1    4    4  501    0  0.11082305367E+03  0.42192750647E+02  0.24250246471E+03  0.26997573080E+03  0.41800000000E+01 0. -1.
         -5    1    4    4    0  501  0.27244744151E+02 -0.46165648836E+02  0.34534498086E+02  0.63903420678E+02  0.41800000000E+01 0. -1.
</event>
<event>
11    1  0.7105277E-009  0.1969010E+03  0.7561462E-02  0.1056737E+00
         22   -1    0    0    0    0  0.00000000000E+00  0.00000000000E+00  0.10346883138E+04  0.10346883138E+04  0.00000000000E+00 0.  1.
         22   -1    0    0    0    0 -0.00000000000E+00 -0.00000000000E+00 -0.24958500718E+04  0.24958500718E+04  0.00000000000E+00 0.  1.
        -24    2    1    2    0    0  0.99709813476E+02  0.11439994426E+03 -0.23746346411E+04  0.23808353376E+04  0.80360637071E+02 0.  0.
         25    2    1    2    0    0 -0.12563302598E+03 -0.10407123164E+03 -0.25350758893E+02  0.20713357855E+03  0.12508868819E+03 0.  0.
         24    2    1    2    0    0  0.25923212500E+02 -0.10328712618E+02  0.93882364198E+03  0.94256946954E+03  0.79174989130E+02 0.  0.
        -11    1    5    5    0    0  0.11087062423E+02 -0.39808526004E+02  0.72861579016E+03  0.72978668895E+03  0.00000000000E+00 0.  1.
         12    1    5    5    0    0  0.14836150077E+02  0.29479813386E+02  0.21020785182E+03  0.21278278058E+03  0.00000000000E+00 0. -1.
         11    1    3    3    0    0  0.98563419078E+02  0.80633517936E+02 -0.14492177339E+04  0.14548018944E+04  0.00000000000E+00 0. -1.
        -12    1    3    3    0    0  0.11463943977E+01  0.33766426327E+02 -0.92541690716E+03  0.92603344315E+03  0.00000000000E+00 0.  1.
          5    1    4    4  501    0 -0.63756032730E+01 -0.31913355406E+02 -0.55488084893E+02  0.64463249495E+02  0.41800000000E+01 0.  1.
         -5    1    4    4    0  501 -0.11925742270E+03 -0.72157876239E+02  0.30137326001E+02  0.14267032905E+03  0.41800000000E+01 0.  1.
</event>
<event>
11    1  0.7105277E-009  0.1458597E+03  0.7561462E-02  0.1101186E+00
         22   -1    0    0    0    0  0.00000000000E+00  0.00000000000E+00  0.48282279710E+03  0.48282279710E+03  0.00000000000E+00 0.  1.
         22   -1    0    0    0    0 -0.00000000000E+00 -0.00000000000E+00 -0.15882027750E+04  0.15882027750E+04  0.00000000000E+00 0. -1.
         24    2    1    2    0    0 -0.10229545463E+02  0.34384534148E+01 -0.14082676025E+04  0.14105968856E+04  0.80308573374E+02 0.  0.
         25    2    1    2    0    0 -0.36501859248E+02 -0.62298934229E+02 -0.14183571817E+03  0.20242995720E+03  0.12508786387E+03 0.  0.
        -24    2    1    2    0    0  0.46731404711E+02  0.58860480814E+02  0.44472334273E+03  0.45799872931E+03  0.79596508027E+02 0.  0.
        -13    1    3    3    0    0  0.29127062659E+02  0.22219985337E+02 -0.74183538287E+03  0.74273942188E+03  0.00000000000E+00 0.  1.
         14    1    3    3    0    0 -0.39356608121E+02 -0.18781531922E+02 -0.66643221959E+03  0.66785746373E+03  0.00000000000E+00 0. -1.
         11    1    5    5    0    0 -0.22581600430E+02  0.10766720116E+02  0.94100609496E+02  0.97369274659E+02  0.00000000000E+00 0. -1.
        -12    1    5    5    0    0  0.69313005140E+02  0.48093760698E+02  0.35062273324E+03  0.36062945465E+03  0.00000000000E+00 0.  1.
          5    1    4    4  501    0 -0.55038939107E+02 -0.93099788252E+02 -0.10536858852E+03  0.15105253138E+03  0.41800000000E+01 0. -1.
         -5    1    4    4    0  501  0.18537079859E+02  0.30800854023E+02 -0.36467129650E+02  0.51377425812E+02  0.41800000000E+01 0. -1.
</event>
<event>
11    1  0.7105277E-009  0.1342280E+03  0.7561462E-02  0.1114181E+00
         22   -1    0    0    0    0  0.00000000000E+00  0.00000000000E+00  0.98764176293E+03  0.98764176293E+03  0.00000000000E+00 0.  1.
         22   -1    0    0    0    0 -0.00000000000E+00 -0.00000000000E+00 -0.45217324766E+03  0.45217324766E+03  0.00000000000E+00 0. -1.
        -24    2    1    2    0    0  0.48659576554E+02 -0.46543198911E+01 -0.43411689604E+03  0.44409322466E+03  0.79824154705E+02 0.  0.
         25    2    1    2    0    0 -0.27595910493E+02  0.29635137207E+02  0.44852666720E+03  0.46740042349E+03  0.12508880469E+03 0.  0.
         24    2    1    2    0    0 -0.21063666060E+02 -0.24980817316E+02  0.52105874412E+03  0.52832136243E+03  0.80953862901E+02 0.  0.
        -11    1    5    5    0    0  0.23374459632E+01 -0.37862633767E+02  0.46138236084E+03  0.46293922450E+03  0.00000000000E+00 0.  1.
         12    1    5    5    0    0 -0.23401112024E+02  0.12881816451E+02  0.59676383280E+02  0.65382137930E+02  0.00000000000E+00 0. -1.
         11    1    3    3    0    0  0.44163571705E+01  0.16993656839E+00 -0.33953184724E+03  0.33956061076E+03  0.00000000000E+00 0. -1.
        -12    1    3    3    0    0  0.44243219383E+02 -0.48242564595E+01 -0.94585048807E+02  0.10453261390E+03  0.00000000000E+00 0.  1.
          5    1    4    4  501    0  0.32375935331E+02 -0.14507305252E+02  0.29015144344E+03  0.29234225767E+03  0.41800000000E+01 0. -1.
         -5    1    4    4    0  501 -0.59971845824E+02  0.44142442459E+02  0.15837522376E+03  0.17505816582E+03  0.41800000000E+01 0. -1.
</event>
<event>
11    1  0.7105277E-009  0.1836227E+03  0.7561462E-02  0.1066750E+00
         22   -1    0    0    0    0  0.00000000000E+00  0.00000000000E+00  0.50389271050E+03  0.50389271050E+03  0.00000000000E+00 0. -1.
         22   -1    0    0    0    0 -0.00000000000E+00 -0.00000000000E+00 -0.27890977941E+03  0.27890977941E+03  0.00000000000E+00 0. -1.
         24    2    1    2    0    0 -0.24760473344E+02 -0.51702099025E+02 -0.11813963193E+03  0.15358623030E+03  0.79659082475E+02 0.  0.
         25    2    1    2    0    0  0.14706474513E+03  0.96164182373E+02 -0.37607977676E+02  0.21894498540E+03  0.12508779884E+03 0.  0.
        -24    2    1    2    0    0 -0.12230427178E+03 -0.44462083348E+02  0.38073054070E+03  0.41027127421E+03  0.80197020309E+02 0.  0.
        -11    1    3    3    0    0  0.16328458348E+02  0.99590454293E+01 -0.77551904880E+01  0.20638413635E+02  0.00000000000E+00 0.  1.
         12    1    3    3    0    0 -0.41088931692E+02 -0.61661144454E+02 -0.11038444144E+03  0.13294781666E+03  0.00000000000E+00 0. -1.
         11    1    5    5    0    0 -0.13368039414E+03 -0.39948750973E+02  0.33412223649E+03  0.36208289023E+03  0.00000000000E+00 0. -1.
        -12    1    5    5    0    0  0.11376122354E+02 -0.45133323755E+01  0.46608304217E+02  0.48188383984E+02  0.00000000000E+00 0.  1.
          5    1    4    4  501    0  0.64552096720E+02  0.11241164601E+03 -0.89609339369E+01  0.13000431565E+03  0.41800000000E+01 0.  1.
         -5    1    4    4    0  501  0.82512648407E+02 -0.16247463638E+02 -0.28647043739E+02  0.88940669757E+02  0.41800000000E+01 0.  1.
</event>
<event>
11    1  0.7105277E-009  0.1974448E+03  0.7561462E-02  0.1056345E+00
         22   -1    0    0    0    0  0.00000000000E+00  0.00000000000E+00  0.15288021520E+04  0.15288021520E+04  0.00000000000E+00 0.  1.
         22   -1    0    0    0    0 -0.00000000000E+00 -0.00000000000E+00 -0.19580086784E+04  0.19580086784E+04  0.00000000000E+00 0.  1.
        -24    2    1    2    0    0  0.38885549733E+02  0.38989890127E+02 -0.19302818957E+04  0.19327463407E+04  0.80547645191E+02 0.  0.
         25    2    1    2    0    0 -0.17283780365E+03  0.20606797043E+02  0.58133314395E+03  0.61959437704E+03  0.12510564077E+03 0.  0.
         24    2    1    2    0    0  0.13395225392E+03 -0.59596687170E+02  0.91974222531E+03  0.93447011266E+03  0.76247354003E+02 0.  0.
        -11    1    5    5    0    0  0.13434962534E+03 -0.35244764024E+02  0.82702565132E+03  0.83860803905E+03  0.00000000000E+00 0.  1.
         12    1    5    5    0    0 -0.39737141881E+00 -0.24351923146E+02  0.92716573988E+02  0.95862073611E+02  0.00000000000E+00 0. -1.
         11    1    3    3    0    0  0.16182353346E+02 -0.22946205039E+02 -0.84119961948E+03  0.84166810365E+03  0.00000000000E+00 0. -1.
        -12    1    3    3    0    0  0.22703196387E+02  0.61936095166E+02 -0.10890822762E+04  0.10910782370E+04  0.00000000000E+00 0.  1.
          5    1    4    4  501    0  0.10794231749E+02  0.27909070064E+02  0.70913941181E+02  0.77082365588E+02  0.41800000000E+01 0.  1.
         -5    1    4    4    0  501 -0.18363203540E+03 -0.73022730206E+01  0.51041920277E+03  0.54251201145E+03  0.41800000000E+01 0.  1.
</event>
<event>
11    1  0.7105277E-009  0.1461141E+03  0.7561462E-02  0.1100917E+00
         22   -1    0    0    0    0  0.00000000000E+00  0.00000000000E+00  0.49741092473E+03  0.49741092473E+03  0.00000000000E+00 0. -1.
         22   -1    0    0    0    0 -0.00000000000E+00 -0.00000000000E+00 -0.38015889307E+03  0.38015889307E+03  0.00000000000E+00 0. -1.
        -24    2    1    2    0    0 -0.51627050677E+02 -0.57187151219E+02 -0.29576306371E+03  0.31551557121E+03  0.78348983377E+02 0.  0.
         25    2    1    2    0    0  0.49822284039E+02  0.42053486161E+02 -0.41444220895E+00  0.14105711951E+03  0.12508470537E+03 0.  0.
         24    2    1    2    0    0  0.18047666379E+01  0.15133665059E+02  0.41342953758E+03  0.42099712707E+03  0.77989188094E+02 0.  0.
        -13    1    5    5    0    0 -0.30349092461E+02 -0.61176399531E+01  0.87878867529E+02  0.93172894610E+02  0.00000000000E+00 0.  1.
         14    1    5    5    0    0  0.32153859099E+02  0.21251305012E+02  0.32555067005E+03  0.32782423246E+03  0.00000000000E+00 0. -1.
         11    1    3    3    0    0 -0.66227177759E+02 -0.57392078819E+02 -0.28253186626E+03  0.29581099580E+03  0.00000000000E+00 0. -1.
        -12    1    3    3    0    0  0.14600127083E+02  0.20492759993E+00 -0.13231197452E+02  0.19704575412E+02  0.00000000000E+00 0.  1.
          5    1    4    4  501    0 -0.51786902379E+01  0.34365695876E+02  0.53244622865E+02  0.63720343296E+02  0.41800000000E+01 0. -1.
         -5    1    4    4    0  501  0.55000974277E+02  0.76877902842E+01 -0.53659065074E+02  0.77336776216E+02  0.41800000000E+01 0. -1.
</event>
<event>
11    1  0.7105277E-009  0.1867008E+03  0.7561462E-02  0.1064348E+00
         22   -1    0    0    0    0  0.00000000000E+00  0.00000000000E+00  0.92351358049E+03  0.92351358049E+03  0.00000000000E+00 0.  1.
         22   -1    0    0    0    0 -0.00000000000E+00 -0.00000000000E+00 -0.87540080807E+03  0.87540080807E+03  0.00000000000E+00 0. -1.
        -24    2    1    2    0    0  0.13672368803E+03  0.24285113337E+02 -0.75245652649E+03  0.76908793706E+03  0.77603460415E+02 0.  0.
         25    2    1    2    0    0 -0.13504574903E+03 -0.18216965464E+02 -0.35793910949E+02  0.18840946960E+03  0.12509081505E+03 0.  0.
         24    2    1    2    0    0 -0.16779390008E+01 -0.60681478727E+01  0.83636320986E+03  0.84141698190E+03  0.91866646453E+02 0.  0.
        -13    1    5    5    0    0  0.63279573883E+01  0.26421682823E+02  0.71526361418E+03  0.71577942562E+03  0.00000000000E+00 0.  1.
         14    1    5    5    0    0 -0.80058963891E+01 -0.32489830695E+02  0.12109959568E+03  0.12563755629E+03  0.00000000000E+00 0. -1.
         11    1    3    3    0    0  0.13523673135E+03  0.33482798677E+02 -0.74247714235E+03  0.75543522437E+03  0.00000000000E+00 0. -1.
        -12    1    3    3    0    0  0.14869566789E+01 -0.91976853407E+01 -0.99793841494E+01  0.13652712690E+02  0.00000000000E+00 0.  1.
          5    1    4    4  501    0 -0.99426570231E+02  0.22561901382E+02 -0.70441262225E+02  0.12399244366E+03  0.41800000000E+01 0. -1.
         -5    1    4    4    0  501 -0.35619178801E+02 -0.40778866846E+02  0.34647351276E+02  0.64417025934E+02  0.41800000000E+01 0. -1.
</event>
<event>
11    1  0.7105277E-009  0.1439785E+03  0.7561462E-02  0.1103195E+00
         22   -1    0    0    0    0  0.00000000000E+00  0.00000000000E+00  0.73984880821E+03  0.73984880821E+03  0.00000000000E+00 0.  1.
         22   -1    0    0    0    0 -0.00000000000E+00 -0.00000000000E+00 -0.53737259178E+03  0.53737259178E+03  0.00000000000E+00 0. -1.
         24    2    1    2    0    0 -0.79060415845E+01  0.72285008734E+02 -0.50232062635E+03  0.51406751500E+03  0.81558386102E+02 0.  0.
         25    2    1    2    0    0 -0.53286188761E+02 -0.27136203854E+02  0.18045970623E+03  0.22757167902E+03  0.12508945618E+03 0.  0.
        -24    2    1    2    0    0  0.61192230345E+02 -0.45148804879E+02  0.52433713655E+03  0.53558220598E+03  0.78332387711E+02 0.  0.
        -13    1    3    3    0    0  0.74348008967E+01  0.31787778865E+02 -0.50223681592E+02  0.59901229889E+02  0.00000000000E+00 0.  1.
         14    1    3    3    0    0 -0.15340842481E+02  0.40497229869E+02 -0.45209694475E+03  0.45416628511E+03  0.00000000000E+00 0. -1.
         11    1    5    5    0    0 -0.27581336212E+01 -0.43607296005E+02  0.17053962818E+03  0.17604819892E+03  0.00000000000E+00 0. -1.
        -12    1    5    5    0    0  0.63950363967E+02 -0.15415088744E+01  0.35379750837E+03  0.35953400706E+03  0.00000000000E+00 0.  1.
          5    1    4    4  501    0 -0.90984269912E+02 -0.25021918134E+02  0.94592213794E+02  0.13367644919E+03  0.41800000000E+01 0. -1.
         -5    1    4    4    0  501  0.37698081152E+02 -0.21142857204E+01  0.85867492434E+02  0.93895229823E+02  0.41800000000E+01 0. -1.
</event>
<event>
11    1  0.7105277E-009  0.1334014E+03  0.7561462E-02  0.1115159E+00
         22   -1    0    0    0    0  0.00000000000E+00  0.00000000000E+00  0.15721185632E+03  0.15721185632E+03  0.00000000000E+00 0. -1.
         22   -1    0    0    0    0 -0.00000000000E+00 -0.00000000000E+00 -0.76726883888E+03  0.76726883888E+03  0.00000000000E+00 0.  1.
         24    2    1    2    0    0 -0.17461677036E+02  0.47200474061E+02 -0.56607582950E+03  0.57668424489E+03  0.97928946866E+02 0.  0.
         25    2    1    2    0    0 -0.12983932484E+02 -0.34253553760E+02 -0.15774353296E+03  0.20462770628E+03  0.12509031752E+03 0.  0.
        -24    2    1    2    0    0  0.30445609519E+02 -0.12946920301E+02  0.11376237991E+03  0.14316874403E+03  0.80379427109E+02 0.  0.
        -11    1    3    3    0    0 -0.56404697667E+02  0.40633641587E+02 -0.39846706897E+03  0.40448558417E+03  0.00000000000E+00 0.  1.
         12    1    3    3    0    0  0.38943020632E+02  0.65668324732E+01 -0.16760876054E+03  0.17219866072E+03  0.00000000000E+00 0. -1.
         13    1    5    5    0    0  0.58071909736E+02 -0.65778364192E+01  0.80182493498E+02  0.99221201847E+02  0.00000000000E+00 0. -1.
        -14    1    5    5    0    0 -0.27626300217E+02 -0.63690838816E+01  0.33579886407E+02  0.43947542187E+02  0.00000000000E+00 0.  1.
          5    1    4    4  501    0 -0.57916033067E+02  0.18170985062E+02 -0.81092186718E+02  0.10137981422E+03  0.41800000000E+01 0. -1.
         -5    1    4    4    0  501  0.44932100584E+02 -0.52424538822E+02 -0.76651346240E+02  0.10324789206E+03  0.41800000000E+01 0. -1.
</event>
<event>
11    1  0.7105277E-009  0.1408113E+03  0.7561462E-02  0.1106656E+00
         22   -1    0    0    0    0  0.00000000000E+00  0.00000000000E+00  0.19338252742E+04  0.19338252742E+04  0.00000000000E+00 0.  1.
         22   -1    0    0    0    0 -0.00000000000E+00 -0.00000000000E+00 -0.12819325580E+04  0.12819325580E+04  0.00000000000E+00 0.  1.
        -24    2    1    2    0    0  0.52516818177E+01 -0.34862042930E+02 -0.12602328852E+04  0.12634053568E+04  0.82238849711E+02 0.  0.
         25    2    1    2    0    0 -0.41630102588E+02  0.85148364388E+02  0.31514429865E+03  0.35206041495E+03  0.12508915783E+03 0.  0.
         24    2    1    2    0    0  0.36378420771E+02 -0.50286321458E+02  0.15969813028E+04  0.16002920605E+04  0.82056650005E+02 0.  0.
        -13    1    5    5    0    0  0.36475895890E+02 -0.57958571189E+02  0.15818021094E+04  0.15832838028E+04  0.00000000000E+00 0.  1.
         14    1    5    5    0    0 -0.97475119475E-01  0.76722497309E+01  0.15179193360E+02  0.17008257653E+02  0.00000000000E+00 0. -1.
         11    1    3    3    0    0  0.41536611101E+02 -0.32479016260E+02 -0.80253794426E+03  0.80426819441E+03  0.00000000000E+00 0. -1.
        -12    1    3    3    0    0 -0.36284929283E+02 -0.23830266700E+01 -0.45769494097E+03  0.45913716240E+03  0.00000000000E+00 0.  1.
          5    1    4    4  501    0 -0.36708627303E+02 -0.12399165700E+02  0.18626403820E+03  0.19029720691E+03  0.41800000000E+01 0.  1.
         -5    1    4    4    0  501 -0.49214752858E+01  0.97547530088E+02  0.12888026045E+03  0.16176320805E+03  0.41800000000E+01 0.  1.
</event>
<event>
11    1  0.7105277E-009  0.1334864E+03  0.7561462E-02  0.1115058E+00
         22   -1    0    0    0    0  0.00000000000E+00  0.00000000000E+00  0.25181652303E+03  0.25181652303E+03  0.00000000000E+00 0.  1.
         22   -1    0    0    0    0 -0.00000000000E+00 -0.00000000000E+00 -0.12170361693E+04  0.12170361693E+04  0.00000000000E+00 0. -1.
        -24    2    1    2    0    0  0.14149163417E+02 -0.28391396204E+02 -0.11297603281E+04  0.11331231269E+04  0.81261008907E+02 0.  0.
         25    2    1    2    0    0 -0.54055706534E+02  0.40060565729E+01 -0.11184806500E+02  0.13678715839E+03  0.12509020308E+03 0.  0.
         24    2    1    2    0    0  0.39906543116E+02  0.24385339631E+02  0.17572548833E+03  0.19894240703E+03  0.80693600085E+02 0.  0.
        -13    1    5    5    0    0  0.21748590973E+00 -0.23000447527E+02  0.92243754601E+02  0.95068281511E+02  0.00000000000E+00 0.  1.
         14    1    5    5    0    0  0.39689057207E+02  0.47385787157E+02  0.83481733729E+02  0.10387412552E+03  0.00000000000E+00 0. -1.
         13    1    3    3    0    0  0.34448015070E+02 -0.44070628831E+02 -0.93637460435E+03  0.93804386131E+03  0.00000000000E+00 0. -1.
        -14    1    3    3    0    0 -0.20298851653E+02  0.15679232627E+02 -0.19338572377E+03  0.19507926561E+03  0.00000000000E+00 0.  1.
          5    1    4    4  501    0  0.87351378736E+01 -0.26267986746E+02 -0.49695716059E+02  0.57038989788E+02  0.41800000000E+01 0.  1.
         -5    1    4    4    0  501 -0.62790844407E+02  0.30274043319E+02  0.38510909559E+02  0.79748168602E+02  0.41800000000E+01 0.  1.
</event>
<event>
11    1  0.7105277E-009  0.1457855E+03  0.7561462E-02  0.1101265E+00
         22   -1    0    0    0    0  0.00000000000E+00  0.00000000000E+00  0.84526384602E+03  0.84526384602E+03  0.00000000000E+00 0.  1.
         22   -1    0    0    0    0 -0.00000000000E+00 -0.00000000000E+00 -0.38883413461E+03  0.38883413461E+03  0.00000000000E+00 0. -1.
         24    2    1    2    0    0 -0.44463197004E+02  0.59828494705E+02 -0.36097478897E+03  0.37697530712E+03  0.79064272855E+02 0.  0.
         25    2    1    2    0    0  0.33391973275E+02 -0.10093749342E+03  0.49833034733E+03  0.52466419010E+03  0.12504389570E+03 0.  0.
        -24    2    1    2    0    0  0.11071223729E+02  0.41108998719E+02  0.31907415305E+03  0.33245848341E+03  0.83113213605E+02 0.  0.
        -11    1    3    3    0    0 -0.18653623510E+02 -0.13267841085E+02 -0.15892728056E+03  0.16056734968E+03  0.00000000000E+00 0.  1.
         12    1    3    3    0    0 -0.25809573494E+02  0.73096335790E+02 -0.20204750841E+03  0.21640795744E+03  0.00000000000E+00 0. -1.
         11    1    5    5    0    0  0.40613628389E+02  0.20971361821E+01  0.19261322273E+03  0.19685964127E+03  0.00000000000E+00 0. -1.
        -12    1    5    5    0    0 -0.29542404661E+02  0.39011862537E+02  0.12646093032E+03  0.13559884214E+03  0.00000000000E+00 0.  1.
          5    1    4    4  501    0 -0.95549539255E+01  0.20196458690E+02  0.23355551477E+02  0.32590616332E+02  0.41800000000E+01 0. -1.
         -5    1    4    4    0  501  0.42946927201E+02 -0.12113395211E+03  0.47497479585E+03  0.49207357377E+03  0.41800000000E+01 0. -1.
</event>
<event>
11    1  0.7105277E-009  0.1343196E+03  0.7561462E-02  0.1114073E+00
         22   -1    0    0    0    0  0.00000000000E+00  0.00000000000E+00  0.13542003443E+03  0.13542003443E+03  0.00000000000E+00 0.  1.
         22   -1    0    0    0    0 -0.00000000000E+00 -0.00000000000E+00 -0.13075941390E+04  0.13075941390E+04  0.00000000000E+00 0.  1.
         24    2    1    2    0    0 -0.16683971150E+02 -0.14034796149E+02 -0.95938720189E+03  0.96376951512E+03  0.89177041543E+02 0.  0.
         25    2    1    2    0    0 -0.30066893526E+02  0.31255894771E+02 -0.30280090473E+03  0.33047972302E+03  0.12509000909E+03 0.  0.
        -24    2    1    2    0    0  0.46750864676E+02 -0.17221098622E+02  0.90014002040E+02  0.14876493531E+03  0.10745359849E+03 0.  0.
        -11    1    3    3    0    0  0.30010212249E+02 -0.23164993928E+02 -0.60730218043E+03  0.60848432037E+03  0.00000000000E+00 0.  1.
         12    1    3    3    0    0 -0.46694183399E+02  0.91301977797E+01 -0.35208502146E+03  0.35528519475E+03  0.00000000000E+00 0. -1.
         13    1    5    5    0    0 -0.29974286544E+02  0.97379832773E+01  0.64668839227E+01  0.32173075075E+02  0.00000000000E+00 0. -1.
        -14    1    5    5    0    0  0.76725151220E+02 -0.26959081899E+02  0.83547118118E+02  0.11659186023E+03  0.00000000000E+00 0.  1.
          5    1    4    4  501    0  0.37168958521E+02  0.22304179240E+02 -0.40333215766E+02  0.59356959012E+02  0.41800000000E+01 0.  1.
         -5    1    4    4    0  501 -0.67235852047E+02  0.89517155310E+01 -0.26246768897E+03  0.27112276401E+03  0.41800000000E+01 0.  1.
</event>
<event>
11    1  0.7105277E-009  0.2584371E+03  0.7561462E-02  0.1019498E+00
         22   -1    0    0    0    0  0.00000000000E+00  0.00000000000E+00  0.39237515620E+04  0.39237515620E+04  0.00000000000E+00 0. -1.
         22   -1    0    0    0    0 -0.00000000000E+00 -0.00000000000E+00 -0.66706755980E+02  0.66706755980E+02  0.00000000000E+00 0.  1.
         24    2    1    2    0    0 -0.11410294542E+03  0.19072641054E+03  0.24256294943E+03  0.33875935304E+03  0.80777899232E+02 0.  0.
         25    2    1    2    0    0  0.15641034559E+03 -0.18540329641E+03  0.10284510849E+04  0.10640490332E+04  0.12510048998E+03 0.  0.
        -24    2    1    2    0    0 -0.42307400167E+02 -0.53231141303E+01  0.25860307717E+04  0.25876499317E+04  0.80986203888E+02 0.  0.
        -11    1    3    3    0    0 -0.91402203488E+02  0.97601858134E+02  0.18024853562E+03  0.22443266275E+03  0.00000000000E+00 0.  1.
         12    1    3    3    0    0 -0.22700741932E+02  0.93124552406E+02  0.62314413809E+02  0.11432669029E+03  0.00000000000E+00 0. -1.
         13    1    5    5    0    0 -0.20845124136E+02  0.37193046999E+02  0.14374323248E+04  0.14380645084E+04  0.00000000000E+00 0. -1.
        -14    1    5    5    0    0 -0.21462276031E+02 -0.42516161129E+02  0.11485984469E+04  0.11495854233E+04  0.00000000000E+00 0.  1.
          5    1    4    4  501    0  0.25350717261E+02  0.17667747419E+02  0.11369457515E+03  0.11789290471E+03  0.41800000000E+01 0. -1.
         -5    1    4    4    0  501  0.13105962833E+03 -0.20307104383E+03  0.91475650971E+03  0.94615612849E+03  0.41800000000E+01 0. -1.
</event>
<event>
11    1  0.7105277E-009  0.1549839E+03  0.7561462E-02  0.1091892E+00
         22   -1    0    0    0    0  0.00000000000E+00  0.00000000000E+00  0.27100712450E+03  0.27100712450E+03  0.00000000000E+00 0.  1.
         22   -1    0    0    0    0 -0.00000000000E+00 -0.00000000000E+00 -0.40977051565E+03  0.40977051565E+03  0.00000000000E+00 0.  1.
        -24    2    1    2    0    0 -0.41582241492E+02  0.44535093175E+02 -0.27576670210E+03  0.29289960552E+03  0.77655956570E+02 0.  0.
         25    2    1    2    0    0  0.58708673529E+02  0.50507898197E+02 -0.56493090326E+02  0.15759265594E+03  0.12508485050E+03 0.  0.
         24    2    1    2    0    0 -0.17126432037E+02 -0.95042991372E+02  0.19349640128E+03  0.23028537870E+03  0.79145520709E+02 0.  0.
        -11    1    5    5    0    0 -0.24124931060E+02 -0.47973440878E+02  0.16784423572E+03  0.17622471675E+03  0.00000000000E+00 0.  1.
         12    1    5    5    0    0  0.69984990229E+01 -0.47069550495E+02  0.25652165565E+02  0.54060661950E+02  0.00000000000E+00 0. -1.
         11    1    3    3    0    0  0.14180351811E+02  0.86251925876E+01 -0.10903909971E+02  0.19858790933E+02  0.00000000000E+00 0. -1.
        -12    1    3    3    0    0 -0.55762593303E+02  0.35909900587E+02 -0.26486279213E+03  0.27304081458E+03  0.00000000000E+00 0.  1.
          5    1    4    4  501    0  0.13309015977E+02 -0.39832439768E+02 -0.10739584881E+01  0.42218230078E+02  0.41800000000E+01 0.  1.
         -5    1    4    4    0  501  0.45399657552E+02  0.90340337965E+02 -0.55419131838E+02  0.11537442586E+03  0.41800000000E+01 0.  1.
</event>
<event>
11    1  0.7105277E-009  0.1426875E+03  0.7561462E-02  0.1104594E+00
         22   -1    0    0    0    0  0.00000000000E+00  0.00000000000E+00  0.88940458770E+03  0.88940458770E+03  0.00000000000E+00 0. -1.
         22   -1    0    0    0    0 -0.00000000000E+00 -0.00000000000E+00 -0.54571243322E+03  0.54571243322E+03  0.00000000000E+00 0.  1.
         24    2    1    2    0    0  0.44282997997E+02 -0.49760267092E+02 -0.47978520473E+03  0.49141380490E+03  0.82804691101E+02 0.  0.
         25    2    1    2    0    0 -0.83022407656E+02  0.75764205060E+02  0.66035134516E+02  0.18066788802E+03  0.12508921548E+03 0.  0.
        -24    2    1    2    0    0  0.38739409659E+02 -0.26003937968E+02  0.75744222470E+03  0.76303532801E+03  0.79543958763E+02 0.  0.
        -11    1    3    3    0    0  0.32261203432E+02 -0.43411826755E+02 -0.47324792640E+03  0.47632863843E+03  0.00000000000E+00 0.  1.
         12    1    3    3    0    0  0.12021794565E+02 -0.63484403366E+01 -0.65372783374E+01  0.15085166467E+02  0.00000000000E+00 0. -1.
         11    1    5    5    0    0  0.24970592106E+02 -0.46991549246E+02  0.66862632843E+03  0.67074056329E+03  0.00000000000E+00 0. -1.
        -12    1    5    5    0    0  0.13768817553E+02  0.20987611278E+02  0.88815896266E+02  0.92294764713E+02  0.00000000000E+00 0.  1.
          5    1    4    4  501    0 -0.43251106320E+02 -0.22216033554E+02  0.56128760798E+02  0.74378226206E+02  0.41800000000E+01 0.  1.
         -5    1    4    4    0  501 -0.39771301336E+02  0.97980238614E+02  0.99063737183E+01  0.10628966182E+03  0.41800000000E+01 0.  1.
</event>
<event>
11    1  0.7105277E-009  0.1678429E+03  0.7561462E-02  0.1079924E+00
         22   -1    0    0    0    0  0.00000000000E+00  0.00000000000E+00  0.97000377366E+03  0.97000377366E+03  0.00000000000E+00 0. -1.
         22   -1    0    0    0    0 -0.00000000000E+00 -0.00000000000E+00 -0.20039279292E+04  0.20039279292E+04  0.00000000000E+00 0.  1.
        -24    2    1    2    0    0 -0.50048615948E+02  0.35713836162E+02 -0.18535400095E+04  0.18562774025E+04  0.79842884634E+02 0.  0.
         25    2    1    2    0    0 -0.62599991143E+02 -0.49550389259E+02 -0.10548407021E+03  0.18206669178E+03  0.12508953282E+03 0.  0.
         24    2    1    2    0    0  0.11264860709E+03  0.13836553097E+02  0.92509992416E+03  0.93558760858E+03  0.81444120551E+02 0.  0.
        -13    1    5    5    0    0 -0.93811409582E+01  0.20248091064E+01  0.19733674467E+03  0.19756997863E+03  0.00000000000E+00 0.  1.
         14    1    5    5    0    0  0.12202974805E+03  0.11811743990E+02  0.72776317948E+03  0.73801762995E+03  0.00000000000E+00 0. -1.
         11    1    3    3    0    0  0.52604743484E+01 -0.13244255502E+02 -0.84290711403E+02  0.85486881585E+02  0.00000000000E+00 0. -1.
        -12    1    3    3    0    0 -0.55309090297E+02  0.48958091665E+02 -0.17692492981E+04  0.17707905209E+04  0.00000000000E+00 0.  1.
          5    1    4    4  501    0 -0.24916805003E+02 -0.81594071569E+02 -0.27706597343E+02  0.89797369800E+02  0.41800000000E+01 0. -1.
         -5    1    4    4    0  501 -0.37683186140E+02  0.32043682309E+02 -0.77777472867E+02  0.92269321983E+02  0.41800000000E+01 0. -1.
</event>
<event>
11    1  0.7105277E-009  0.4505901E+03  0.7561462E-02  0.9511256E-01
         22   -1    0    0    0    0  0.00000000000E+00  0.00000000000E+00  0.50965873297E+03  0.50965873297E+03  0.00000000000E+00 0.  1.
         22   -1    0    0    0    0 -0.00000000000E+00 -0.00000000000E+00 -0.13441154892E+04  0.13441154892E+04  0.00000000000E+00 0. -1.
         24    2    1    2    0    0  0.90514191293E+02  0.17525782319E+03 -0.87779516326E+03  0.90489938525E+03  0.97007346996E+02 0.  0.
         25    2    1    2    0    0  0.80937631240E+02  0.29702142405E+03 -0.19687607560E+03  0.38623972907E+03  0.12509321593E+03 0.  0.
        -24    2    1    2    0    0 -0.17145182253E+03 -0.47227924724E+03  0.24021448260E+03  0.56263510788E+03  0.80074041618E+02 0.  0.
        -13    1    3    3    0    0 -0.18870413588E+02  0.10008100640E+02 -0.99922799153E+02  0.10218033264E+03  0.00000000000E+00 0.  1.
         14    1    3    3    0    0  0.10938460488E+03  0.16524972255E+03 -0.77787236411E+03  0.80271905261E+03  0.00000000000E+00 0. -1.
         13    1    5    5    0    0 -0.13066985425E+03 -0.25984563905E+03  0.11549683789E+03  0.31294390313E+03  0.00000000000E+00 0. -1.
        -14    1    5    5    0    0 -0.40781968281E+02 -0.21243360819E+03  0.12471764472E+03  0.24969120475E+03  0.00000000000E+00 0.  1.
          5    1    4    4  501    0 -0.11669657875E+02  0.18832691094E+03 -0.12445424195E+03  0.22607418482E+03  0.41800000000E+01 0.  1.
         -5    1    4    4    0  501  0.92607289115E+02  0.10869451310E+03 -0.72421833649E+02  0.16016554425E+03  0.41800000000E+01 0.  1.
</event>
<event>
11    1  0.7105277E-009  0.1404871E+03  0.7561462E-02  0.1107016E+00
         22   -1    0    0    0    0  0.00000000000E+00  0.00000000000E+00  0.48465718606E+03  0.48465718606E+03  0.00000000000E+00 0.  1.
         22   -1    0    0    0    0 -0.00000000000E+00 -0.00000000000E+00 -0.16397101772E+03  0.16397101772E+03  0.00000000000E+00 0.  1.
        -24    2    1    2    0    0  0.62829503622E+02 -0.32669899132E+01 -0.11436786745E+03  0.15212414453E+03  0.78125069576E+02 0.  0.
         25    2    1    2    0    0 -0.76743795273E+02 -0.38688549367E+01  0.20533204219E+03  0.25241460667E+03  0.12508920002E+03 0.  0.
         24    2    1    2    0    0  0.13914291650E+02  0.71358448499E+01  0.22972199361E+03  0.24408945258E+03  0.81011966515E+02 0.  0.
        -11    1    5    5    0    0 -0.16567066542E+02  0.34454141024E+02  0.14563478519E+03  0.15056907447E+03  0.00000000000E+00 0.  1.
         12    1    5    5    0    0  0.30481358192E+02 -0.27318296174E+02  0.84087208416E+02  0.93520378113E+02  0.00000000000E+00 0. -1.
         11    1    3    3    0    0 -0.76778689924E+00 -0.30838567822E+02 -0.39040052982E+02  0.49756733202E+02  0.00000000000E+00 0. -1.
        -12    1    3    3    0    0  0.63597290522E+02  0.27571577909E+02 -0.75327814468E+02  0.10236741133E+03  0.00000000000E+00 0.  1.
          5    1    4    4  501    0 -0.56960405162E+02 -0.46590536287E+02  0.18823698097E+03  0.20215291053E+03  0.41800000000E+01 0.  1.
         -5    1    4    4    0  501 -0.19783390111E+02  0.42721681350E+02  0.17095061212E+02  0.50261696146E+02  0.41800000000E+01 0.  1.
</event>
<event>
11    1  0.7105277E-009  0.1530699E+03  0.7561462E-02  0.1093783E+00
         22   -1    0    0    0    0  0.00000000000E+00  0.00000000000E+00  0.72559286412E+03  0.72559286412E+03  0.00000000000E+00 0. -1.
         22   -1    0    0    0    0 -0.00000000000E+00 -0.00000000000E+00 -0.10799674868E+03  0.10799674868E+03  0.00000000000E+00 0.  1.
        -24    2    1    2    0    0  0.98369716078E+01 -0.32612916186E+02 -0.35466228372E+02  0.96310133625E+02  0.82809541548E+02 0.  0.
         25    2    1    2    0    0 -0.91379853135E+02  0.56806324365E+02  0.15773476658E+03  0.22826637993E+03  0.12509215631E+03 0.  0.
         24    2    1    2    0    0  0.81542881527E+02 -0.24193408179E+02  0.49532757723E+03  0.50901309925E+03  0.80686826156E+02 0.  0.
        -11    1    5    5    0    0  0.47415845869E+02  0.25486481911E+02  0.17604720556E+03  0.18409356801E+03  0.00000000000E+00 0.  1.
         12    1    5    5    0    0  0.34127035658E+02 -0.49679890090E+02  0.31928037167E+03  0.32491953123E+03  0.00000000000E+00 0. -1.
         11    1    3    3    0    0 -0.82817687625E+01  0.12267973183E+02  0.18582922159E+02  0.23757437905E+02  0.00000000000E+00 0. -1.
        -12    1    3    3    0    0  0.18118740370E+02 -0.44880889369E+02 -0.54049150531E+02  0.72552695720E+02  0.00000000000E+00 0.  1.
          5    1    4    4  501    0 -0.11385010333E+03  0.20006684899E+02  0.13962429938E+03  0.18131334988E+03  0.41800000000E+01 0.  1.
         -5    1    4    4    0  501  0.22470250195E+02  0.36799639465E+02  0.18110467209E+02  0.46953030053E+02  0.41800000000E+01 0.  1.
</event>
<event>
11    1  0.7105277E-009  0.1408823E+03  0.7561462E-02  0.1106577E+00
         22   -1    0    0    0    0  0.00000000000E+00  0.00000000000E+00  0.65538403120E+03  0.65538403120E+03  0.00000000000E+00 0.  1.
         22   -1    0    0    0    0 -0.00000000000E+00 -0.00000000000E+00 -0.22302695074E+03  0.22302695074E+03  0.00000000000E+00 0.  1.
        -24    2    1    2    0    0  0.20857811307E+02 -0.89577157903E+01 -0.15739533526E+03  0.17837741708E+03  0.80807935244E+02 0.  0.
         25    2    1    2    0    0  0.41004673118E+02 -0.16234758816E+02  0.37081846129E+02  0.13772195394E+03  0.12508925882E+03 0.  0.
         24    2    1    2    0    0 -0.61862484425E+02  0.25192474606E+02  0.55267056959E+03  0.56231161093E+03  0.79296667851E+02 0.  0.
        -11    1    5    5    0    0 -0.67727997794E+02  0.19557302010E+02  0.54879047828E+03  0.55329970070E+03  0.00000000000E+00 0.  1.
         12    1    5    5    0    0  0.58655133693E+01  0.56351725959E+01  0.38800913124E+01  0.90119102228E+01  0.00000000000E+00 0. -1.
         13    1    3    3    0    0 -0.31101527200E+02  0.58626008013E+00 -0.58471990042E+02  0.66231580945E+02  0.00000000000E+00 0. -1.
        -14    1    3    3    0    0  0.51959338507E+02 -0.95439758704E+01 -0.98923345221E+02  0.11214583614E+03  0.00000000000E+00 0.  1.
          5    1    4    4  501    0  0.57224240392E+02 -0.10626529028E+02 -0.31908129927E+02  0.66506676079E+02  0.41800000000E+01 0.  1.
         -5    1    4    4    0  501 -0.16219567274E+02 -0.56082297877E+01  0.68989976056E+02  0.71215277856E+02  0.41800000000E+01 0.  1.
</event>
<event>
11    1  0.7105277E-009  0.1273721E+03  0.7561462E-02  0.1122541E+00
         22   -1    0    0    0    0  0.00000000000E+00  0.00000000000E+00  0.95710434675E+03  0.95710434675E+03  0.00000000000E+00 0. -1.
         22   -1    0    0    0    0 -0.00000000000E+00 -0.00000000000E+00 -0.29004211874E+03  0.29004211874E+03  0.00000000000E+00 0. -1.
        -24    2    1    2    0    0 -0.11506802523E+02 -0.39454382592E+01 -0.26197412120E+03  0.27430520886E+03  0.80404816027E+02 0.  0.
         25    2    1    2    0    0  0.33057380748E+02  0.11147184731E+02  0.19679467125E+03  0.23577502691E+03  0.12507865738E+03 0.  0.
         24    2    1    2    0    0 -0.21550578225E+02 -0.72017464717E+01  0.73224167796E+03  0.73706622972E+03  0.81070706660E+02 0.  0.
        -13    1    5    5    0    0  0.16180736188E+02  0.13981717655E+02  0.65092374588E+02  0.68515121555E+02  0.00000000000E+00 0.  1.
         14    1    5    5    0    0 -0.37731314413E+02 -0.21183464127E+02  0.66714930337E+03  0.66855110817E+03  0.00000000000E+00 0. -1.
         13    1    3    3    0    0  0.16881073743E+02 -0.33286300291E+02 -0.16345846055E+03  0.16766519246E+03  0.00000000000E+00 0. -1.
        -14    1    3    3    0    0 -0.28387876266E+02  0.29340862032E+02 -0.98515660654E+02  0.10664001640E+03  0.00000000000E+00 0.  1.
          5    1    4    4  501    0 -0.96062331046E+01 -0.50865801010E+01  0.18890332581E+03  0.18926196637E+03  0.41800000000E+01 0. -1.
         -5    1    4    4    0  501  0.42663613852E+02  0.16233764832E+02  0.78913454362E+01  0.46513060535E+02  0.41800000000E+01 0. -1.
</event>
<event>
11    1  0.7105277E-009  0.1696113E+03  0.7561462E-02  0.1078370E+00
         22   -1    0    0    0    0  0.00000000000E+00  0.00000000000E+00  0.37195188977E+03  0.37195188977E+03  0.00000000000E+00 0. -1.
         22   -1    0    0    0    0 -0.00000000000E+00 -0.00000000000E+00 -0.62440733250E+03  0.62440733250E+03  0.00000000000E+00 0. -1.
         24    2    1    2    0    0 -0.21749449528E+02 -0.15326505159E+02 -0.54074202627E+03  0.54744391805E+03  0.81147791794E+02 0.  0.
         25    2    1    2    0    0 -0.97612716310E+02  0.22812769661E+02  0.45677881916E+02  0.16667648541E+03  0.12508364021E+03 0.  0.
        -24    2    1    2    0    0  0.11936216584E+03 -0.74862645025E+01  0.24260870163E+03  0.28223881881E+03  0.80600235417E+02 0.  0.
        -13    1    3    3    0    0  0.23220485589E+02 -0.16040042516E+02 -0.86651940510E+02  0.91131952185E+02  0.00000000000E+00 0.  1.
         14    1    3    3    0    0 -0.44969935117E+02  0.71353735697E+00 -0.45409008576E+03  0.45631196586E+03  0.00000000000E+00 0. -1.
         11    1    5    5    0    0  0.53744129570E+02  0.35635948320E+02  0.12780635699E+03  0.14315312488E+03  0.00000000000E+00 0. -1.
        -12    1    5    5    0    0  0.65618036267E+02 -0.43122212822E+02  0.11480234464E+03  0.13908569394E+03  0.00000000000E+00 0.  1.
          5    1    4    4  501    0 -0.11063543377E+03 -0.10097706067E+02  0.31890575501E+01  0.11121962669E+03  0.41800000000E+01 0. -1.
         -5    1    4    4    0  501  0.13022717463E+02  0.32910475728E+02  0.42488824366E+02  0.55456858717E+02  0.41800000000E+01 0. -1.
</event>
<event>
11    1  0.7105277E-009  0.2174641E+03  0.7561462E-02  0.1042818E+00
         22   -1    0    0    0    0  0.00000000000E+00  0.00000000000E+00  0.47428510203E+03  0.47428510203E+03  0.00000000000E+00 0.  1.
         22   -1    0    0    0    0 -0.00000000000E+00 -0.00000000000E+00 -0.31572489077E+03  0.31572489077E+03  0.00000000000E+00 0.  1.
         24    2    1    2    0    0  0.17777060962E+01  0.53977770125E+02 -0.17503679564E+03  0.19977698235E+03  0.79725798473E+02 0.  0.
         25    2    1    2    0    0  0.43637397603E+02 -0.21427656856E+03  0.57921681816E+02  0.25849965299E+03  0.12509388102E+03 0.  0.
        -24    2    1    2    0    0 -0.45415103699E+02  0.16029879844E+03  0.27567532508E+03  0.33173335745E+03  0.79321492460E+02 0.  0.
        -11    1    3    3    0    0  0.25288330456E+02  0.65422665995E+02 -0.12636167986E+03  0.14452300516E+03  0.00000000000E+00 0.  1.
         12    1    3    3    0    0 -0.23510624359E+02 -0.11444895869E+02 -0.48675115784E+02  0.55253977194E+02  0.00000000000E+00 0. -1.
         11    1    5    5    0    0 -0.22927444120E+02  0.16572672327E+01  0.22852282803E+02  0.32413593720E+02  0.00000000000E+00 0. -1.
        -12    1    5    5    0    0 -0.22487659580E+02  0.15864153121E+03  0.25282304228E+03  0.29931976373E+03  0.00000000000E+00 0.  1.
          5    1    4    4  501    0  0.47773209044E+02 -0.22961897233E+03  0.48416927730E+02  0.23951789755E+03  0.41800000000E+01 0.  1.
         -5    1    4    4    0  501 -0.41358114416E+01  0.15342403764E+02  0.95047540862E+01  0.18981755445E+02  0.41800000000E+01 0.  1.
</event>
<event>
11    1  0.7105277E-009  0.1599248E+03  0.7561462E-02  0.1087148E+00
         22   -1    0    0    0    0  0.00000000000E+00  0.00000000000E+00  0.34402714461E+03  0.34402714461E+03  0.00000000000E+00 0. -1.
         22   -1    0    0    0    0 -0.00000000000E+00 -0.00000000000E+00 -0.10702144038E+04  0.10702144038E+04  0.00000000000E+00 0. -1.
         24    2    1    2    0    0  0.32668035785E+02  0.10606342671E+03 -0.81831424584E+03  0.82971610080E+03  0.80460872069E+02 0.  0.
         25    2    1    2    0    0 -0.45937033789E+02 -0.45676683508E+02 -0.21708063637E+03  0.25878157114E+03  0.12508928165E+03 0.  0.
        -24    2    1    2    0    0  0.13268998004E+02 -0.60386743199E+02  0.30920762303E+03  0.32574387647E+03  0.81713486387E+02 0.  0.
        -13    1    3    3    0    0  0.36823597758E+02  0.87634819733E+02 -0.40640069493E+03  0.41736957701E+03  0.00000000000E+00 0.  1.
         14    1    3    3    0    0 -0.41555619732E+01  0.18428606974E+02 -0.41191355091E+03  0.41234652378E+03  0.00000000000E+00 0. -1.
         13    1    5    5    0    0  0.13707466159E+02 -0.77324535798E+02  0.28845161880E+03  0.29895035516E+03  0.00000000000E+00 0. -1.
        -14    1    5    5    0    0 -0.43846815466E+00  0.16937792599E+02  0.20756004228E+02  0.26793521306E+02  0.00000000000E+00 0.  1.
          5    1    4    4  501    0  0.24070052328E+02  0.11443416345E+02 -0.13157823126E+03  0.13431538459E+03  0.41800000000E+01 0.  1.
         -5    1    4    4    0  501 -0.70007086117E+02 -0.57120099853E+02 -0.85502405109E+02  0.12446618655E+03  0.41800000000E+01 0.  1.
</event>
<event>
11    1  0.7105277E-009  0.1720922E+03  0.7561462E-02  0.1076225E+00
         22   -1    0    0    0    0  0.00000000000E+00  0.00000000000E+00  0.11706038272E+04  0.11706038272E+04  0.00000000000E+00 0.  1.
         22   -1    0    0    0    0 -0.00000000000E+00 -0.00000000000E+00 -0.32261158590E+03  0.32261158590E+03  0.00000000000E+00 0. -1.
        -24    2    1    2    0    0  0.64245421988E+02  0.73600957528E+02 -0.10279055588E+03  0.16263186638E+03  0.79615641620E+02 0.  0.
         25    2    1    2    0    0 -0.47408716029E+02  0.45358798490E+02 -0.15843699169E+03  0.21225985939E+03  0.12508781163E+03 0.  0.
         24    2    1    2    0    0 -0.16836705959E+02 -0.11895975602E+03  0.11092197888E+04  0.11183236873E+04  0.76448881022E+02 0.  0.
        -11    1    5    5    0    0  0.48637115202E+00 -0.73743163337E+02  0.35646651798E+03  0.36401465511E+03  0.00000000000E+00 0.  1.
         12    1    5    5    0    0 -0.17323077111E+02 -0.45216592681E+02  0.75275327084E+03  0.75430903217E+03  0.00000000000E+00 0. -1.
         13    1    3    3    0    0  0.96982309599E+01  0.66122099020E+02 -0.76622728507E+02  0.10167217017E+03  0.00000000000E+00 0. -1.
        -14    1    3    3    0    0  0.54547191028E+02  0.74788585081E+01 -0.26167827370E+02  0.60959696217E+02  0.00000000000E+00 0.  1.
          5    1    4    4  501    0  0.42935756350E+02  0.18002398445E+02 -0.54089169145E+02  0.71488993152E+02  0.41800000000E+01 0.  1.
         -5    1    4    4    0  501 -0.90344472380E+02  0.27356400046E+02 -0.10434782254E+03  0.14077086624E+03  0.41800000000E+01 0.  1.
</event>
<event>
11    1  0.7105277E-009  0.1619312E+03  0.7561462E-02  0.1085275E+00
         22   -1    0    0    0    0  0.00000000000E+00  0.00000000000E+00  0.18190136288E+04  0.18190136288E+04  0.00000000000E+00 0. -1.
         22   -1    0    0    0    0 -0.00000000000E+00 -0.00000000000E+00 -0.10971987206E+04  0.10971987206E+04  0.00000000000E+00 0.  1.
         24    2    1    2    0    0 -0.70392529787E+02  0.76915647650E+02 -0.10750419428E+04  0.10831459026E+04  0.81355652993E+02 0.  0.
         25    2    1    2    0    0 -0.21899992561E+00  0.23035406829E+02  0.26088950927E+03  0.29024501881E+03  0.12509259357E+03 0.  0.
        -24    2    1    2    0    0  0.70611529713E+02 -0.99951054479E+02  0.15359673417E+04  0.15428214280E+04  0.78269294716E+02 0.  0.
        -13    1    3    3    0    0 -0.53259844683E+02  0.94008549802E+02 -0.87684756482E+03  0.88347941143E+03  0.00000000000E+00 0.  1.
         14    1    3    3    0    0 -0.17132685104E+02 -0.17092902153E+02 -0.19819437803E+03  0.19966649114E+03  0.00000000000E+00 0. -1.
         11    1    5    5    0    0  0.55321955637E+02 -0.62742753349E+02  0.13482386610E+04  0.13508310993E+04  0.00000000000E+00 0. -1.
        -12    1    5    5    0    0  0.15289574075E+02 -0.37208301130E+02  0.18772868074E+03  0.19199032872E+03  0.00000000000E+00 0.  1.
          5    1    4    4  501    0 -0.56433460128E+02 -0.91815986612E+01  0.82969805151E+02  0.10084888766E+03  0.41800000000E+01 0. -1.
         -5    1    4    4    0  501  0.56214460203E+02  0.32217005491E+02  0.17791970412E+03  0.18939613115E+03  0.41800000000E+01 0. -1.
</event>
<event>
11    1  0.7105277E-009  0.1456433E+03  0.7561462E-02  0.1101415E+00
         22   -1    0    0    0    0  0.00000000000E+00  0.00000000000E+00  0.41811282344E+03  0.41811282344E+03  0.00000000000E+00 0.  1.
         22   -1    0    0    0    0 -0.00000000000E+00 -0.00000000000E+00 -0.80292852372E+03  0.80292852372E+03  0.00000000000E+00 0.  1.
         24    2    1    2    0    0 -0.51155633309E+02  0.15995606194E+02 -0.75703776866E+03  0.76329436467E+03  0.81482180392E+02 0.  0.
         25    2    1    2    0    0  0.81515823205E+02  0.47222765926E+02  0.18232480928E+03  0.24034374359E+03  0.12509180609E+03 0.  0.
        -24    2    1    2    0    0 -0.30360189896E+02 -0.63218372120E+02  0.18989725910E+03  0.21740323891E+03  0.79277333271E+02 0.  0.
        -11    1    3    3    0    0 -0.64946286125E+02  0.65676816634E+01 -0.71624581068E+03  0.71921430453E+03  0.00000000000E+00 0.  1.
         12    1    3    3    0    0  0.13790652815E+02  0.94279245311E+01 -0.40791957978E+02  0.44080060138E+02  0.00000000000E+00 0. -1.
         11    1    5    5    0    0 -0.19216550026E+02  0.10550549845E+02  0.13171101411E+02  0.25574749448E+02  0.00000000000E+00 0. -1.
        -12    1    5    5    0    0 -0.11143639869E+02 -0.73768921966E+02  0.17672615769E+03  0.19182848946E+03  0.00000000000E+00 0.  1.
          5    1    4    4  501    0 -0.15942862672E+02 -0.28472465907E+02  0.43780397828E+02  0.54763599397E+02  0.41800000000E+01 0.  1.
         -5    1    4    4    0  501  0.97458685877E+02  0.75695231832E+02  0.13854441145E+03  0.18558014420E+03  0.41800000000E+01 0.  1.
</event>
<event>
11    1  0.7105277E-009  0.1463537E+03  0.7561462E-02  0.1100664E+00
         22   -1    0    0    0    0  0.00000000000E+00  0.00000000000E+00  0.55977615830E+03  0.55977615830E+03  0.00000000000E+00 0. -1.
         22   -1    0    0    0    0 -0.00000000000E+00 -0.00000000000E+00 -0.32653405044E+03  0.32653405044E+03  0.00000000000E+00 0.  1.
        -24    2    1    2    0    0 -0.45526976977E+02 -0.60037945722E+02 -0.26617588864E+03  0.28780839464E+03  0.79415412700E+02 0.  0.
         25    2    1    2    0    0  0.52898481731E+02  0.64231264768E+02  0.78161765827E+02  0.16935297899E+03  0.12508902874E+03 0.  0.
         24    2    1    2    0    0 -0.73715047535E+01 -0.41933190462E+01  0.42125623067E+03  0.42914883511E+03  0.81486120216E+02 0.  0.
        -11    1    5    5    0    0  0.29407609873E+02  0.13444171386E+02  0.94988325437E+02  0.10034109443E+03  0.00000000000E+00 0.  1.
         12    1    5    5    0    0 -0.36779114627E+02 -0.17637490432E+02  0.32626790523E+03  0.32880774067E+03  0.00000000000E+00 0. -1.
         11    1    3    3    0    0 -0.15853395451E+02 -0.26373603485E+02 -0.22439164413E+03  0.22649173730E+03  0.00000000000E+00 0. -1.
        -12    1    3    3    0    0 -0.29673581527E+02 -0.33664342236E+02 -0.41784244508E+02  0.61316657345E+02  0.00000000000E+00 0.  1.
          5    1    4    4  501    0  0.37712807590E+02  0.86828957351E+02  0.97295945623E+02  0.13581420075E+03  0.41800000000E+01 0.  1.
         -5    1    4    4    0  501  0.15185674141E+02 -0.22597692584E+02 -0.19134179796E+02  0.33538778238E+02  0.41800000000E+01 0.  1.
</event>
<event>
11    1  0.7105277E-009  0.1835762E+03  0.7561462E-02  0.1066786E+00
         22   -1    0    0    0    0  0.00000000000E+00  0.00000000000E+00  0.92016110319E+03  0.92016110319E+03  0.00000000000E+00 0.  1.
         22   -1    0    0    0    0 -0.00000000000E+00 -0.00000000000E+00 -0.55984465086E+03  0.55984465086E+03  0.00000000000E+00 0. -1.
         24    2    1    2    0    0  0.46563159257E+02  0.20075031798E+02 -0.38668621528E+03  0.39821266707E+03  0.80473377137E+02 0.  0.
         25    2    1    2    0    0 -0.17143292706E+03 -0.63493388464E+02 -0.83713431235E+02  0.23680471386E+03  0.12509146684E+03 0.  0.
        -24    2    1    2    0    0  0.12486976781E+03  0.43418356666E+02  0.83071609885E+03  0.84498837311E+03  0.80240271670E+02 0.  0.
        -13    1    3    3    0    0 -0.18383071642E+02  0.10294202856E+02 -0.38518204296E+02  0.43903986124E+02  0.00000000000E+00 0.  1.
         14    1    3    3    0    0  0.64946230899E+02  0.97808289424E+01 -0.34816801099E+03  0.35430868095E+03  0.00000000000E+00 0. -1.
         13    1    5    5    0    0  0.58186515764E+02  0.34810993458E+02  0.21079529605E+03  0.22143200473E+03  0.00000000000E+00 0. -1.
        -14    1    5    5    0    0  0.66683252042E+02  0.86073632079E+01  0.61992080279E+03  0.62355636838E+03  0.00000000000E+00 0.  1.
          5    1    4    4  501    0 -0.17067574523E+03 -0.79684164183E+02 -0.43667753395E+02  0.19340145066E+03  0.41800000000E+01 0. -1.
         -5    1    4    4    0  501 -0.75718183396E+00  0.16190775720E+02 -0.40045677839E+02  0.43403263199E+02  0.41800000000E+01 0. -1.
</event>
<event>
11    1  0.7105277E-009  0.1283539E+03  0.7561462E-02  0.1121308E+00
         22   -1    0    0    0    0  0.00000000000E+00  0.00000000000E+00  0.12859904414E+04  0.12859904414E+04  0.00000000000E+00 0.  1.
         22   -1    0    0    0    0 -0.00000000000E+00 -0.00000000000E+00 -0.17902198702E+03  0.17902198702E+03  0.00000000000E+00 0.  1.
         24    2    1    2    0    0  0.29809132841E+02  0.86260697646E+01 -0.14827592078E+03  0.17145646491E+03  0.80303033557E+02 0.  0.
         25    2    1    2    0    0  0.15322236084E+02  0.22956296111E+01  0.20714739687E+03  0.24248255376E+03  0.12509078309E+03 0.  0.
        -24    2    1    2    0    0 -0.45131368925E+02 -0.10921699376E+02  0.10480969783E+04  0.10510734097E+04  0.63968060784E+02 0.  0.
        -13    1    3    3    0    0 -0.20053448249E+02  0.15596000983E+02 -0.94223764041E+02  0.97588389388E+02  0.00000000000E+00 0.  1.
         14    1    3    3    0    0  0.49862581090E+02 -0.69699312189E+01 -0.54052156736E+02  0.73868075526E+02  0.00000000000E+00 0. -1.
         13    1    5    5    0    0  0.76544438775E+01  0.14233364931E+02  0.40538137460E+03  0.40570338680E+03  0.00000000000E+00 0. -1.
        -14    1    5    5    0    0 -0.52785812803E+02 -0.25155064306E+02  0.64271560368E+03  0.64537002294E+03  0.00000000000E+00 0.  1.
          5    1    4    4  501    0  0.29245296640E+02  0.48866346630E+02  0.17493952591E+03  0.18402314348E+03  0.41800000000E+01 0.  1.
         -5    1    4    4    0  501 -0.13923060556E+02 -0.46570717019E+02  0.32207870952E+02  0.58459410279E+02  0.41800000000E+01 0.  1.
</event>
<event>
11    1  0.7105277E-009  0.1307796E+03  0.7561462E-02  0.1118315E+00
         22   -1    0    0    0    0  0.00000000000E+00  0.00000000000E+00  0.10552836396E+04  0.10552836396E+04  0.00000000000E+00 0.  1.
         22   -1    0    0    0    0 -0.00000000000E+00 -0.00000000000E+00 -0.20302636060E+03  0.20302636060E+03  0.00000000000E+00 0. -1.
        -24    2    1    2    0    0  0.71543888761E+01 -0.37372198888E+02 -0.17422255687E+03  0.19523741722E+03  0.79475047842E+02 0.  0.
         25    2    1    2    0    0  0.58108425048E+01  0.42032780782E+02  0.25317570293E+03  0.28556524074E+03  0.12509616148E+03 0.  0.
         24    2    1    2    0    0 -0.12965231381E+02 -0.46605818943E+01  0.77330413292E+03  0.77750734221E+03  0.79552290603E+02 0.  0.
        -13    1    5    5    0    0  0.17413291507E+02  0.19055622057E+02  0.10624855434E+03  0.10933935592E+03  0.00000000000E+00 0.  1.
         14    1    5    5    0    0 -0.30378522888E+02 -0.23716203951E+02  0.66705557858E+03  0.66816798629E+03  0.00000000000E+00 0. -1.
         13    1    3    3    0    0 -0.63562349316E+00 -0.39217615866E+02 -0.18071969231E+03  0.18492710077E+03  0.00000000000E+00 0. -1.
        -14    1    3    3    0    0  0.77900123693E+01  0.18454169778E+01  0.64971354318E+01  0.10310316453E+02  0.00000000000E+00 0.  1.
          5    1    4    4  501    0  0.20228346389E+02  0.37251270747E+02  0.26337529295E+03  0.26679741473E+03  0.41800000000E+01 0.  1.
         -5    1    4    4    0  501 -0.14417503885E+02  0.47815100347E+01 -0.10199590025E+02  0.18767826010E+02  0.41800000000E+01 0.  1.
</event>
<event>
11    1  0.7105277E-009  0.1592330E+03  0.7561462E-02  0.1087801E+00
         22   -1    0    0    0    0  0.00000000000E+00  0.00000000000E+00  0.58895552854E+03  0.58895552854E+03  0.00000000000E+00 0.  1.
         22   -1    0    0    0    0 -0.00000000000E+00 -0.00000000000E+00 -0.28652158033E+04  0.28652158033E+04  0.00000000000E+00 0. -1.
        -24    2    1    2    0    0 -0.20830076830E+02  0.96408784536E+02 -0.27878179124E+04  0.27906902442E+04  0.79339655437E+02 0.  0.
         25    2    1    2    0    0  0.43219327962E+02 -0.85255578536E+02  0.13153835277E+02  0.15797463292E+03  0.12508611947E+03 0.  0.
         24    2    1    2    0    0 -0.22389251132E+02 -0.11153206000E+02  0.49840380231E+03  0.50550645470E+03  0.80652049048E+02 0.  0.
        -11    1    5    5    0    0 -0.35797675881E+01 -0.45026358696E+02  0.29618529257E+03  0.29960960474E+03  0.00000000000E+00 0.  1.
         12    1    5    5    0    0 -0.18809483543E+02  0.33873152697E+02  0.20221850973E+03  0.20589684996E+03  0.00000000000E+00 0. -1.
         11    1    3    3    0    0 -0.34753760400E+01  0.84069466445E+02 -0.26406042182E+04  0.26419444337E+04  0.00000000000E+00 0. -1.
        -12    1    3    3    0    0 -0.17354700790E+02  0.12339318091E+02 -0.14721369413E+03  0.14874581053E+03  0.00000000000E+00 0.  1.
          5    1    4    4  501    0 -0.42246503233E+02 -0.28303697366E+02  0.20357942755E+02  0.54934365868E+02  0.41800000000E+01 0. -1.
         -5    1    4    4    0  501  0.85465831195E+02 -0.56951881170E+02 -0.72041074779E+01  0.10304026706E+03  0.41800000000E+01 0. -1.
</event>
<event>
11    1  0.7105277E-009  0.1420774E+03  0.7561462E-02  0.1105261E+00
         22   -1    0    0    0    0  0.00000000000E+00  0.00000000000E+00  0.28948186104E+03  0.28948186104E+03  0.00000000000E+00 0. -1.
         22   -1    0    0    0    0 -0.00000000000E+00 -0.00000000000E+00 -0.28610574179E+04  0.28610574179E+04  0.00000000000E+00 0. -1.
         24    2    1    2    0    0 -0.32484803078E+01  0.67357874821E+02 -0.26611087579E+04  0.26631625202E+04  0.79919655695E+02 0.  0.
         25    2    1    2    0    0  0.22614713402E+02 -0.64356139306E+02 -0.16581618553E+03  0.21862382593E+03  0.12509289329E+03 0.  0.
        -24    2    1    2    0    0 -0.19366233094E+02 -0.30017355145E+01  0.25534938663E+03  0.26875293281E+03  0.81490908949E+02 0.  0.
        -11    1    3    3    0    0 -0.20422704320E+02  0.12300954641E+02 -0.20577606071E+03  0.20715257058E+03  0.00000000000E+00 0.  1.
         12    1    3    3    0    0  0.17174224012E+02  0.55056920179E+02 -0.24553326972E+04  0.24560099496E+04  0.00000000000E+00 0. -1.
         13    1    5    5    0    0 -0.23531370930E+02  0.36400787639E+02  0.15233266176E+03  0.15837923664E+03  0.00000000000E+00 0. -1.
        -14    1    5    5    0    0  0.41651378362E+01 -0.39402523154E+02  0.10301672487E+03  0.11037369617E+03  0.00000000000E+00 0.  1.
          5    1    4    4  501    0 -0.46289879413E+02 -0.46547438040E+02 -0.50002553873E+02  0.82626537613E+02  0.41800000000E+01 0. -1.
         -5    1    4    4    0  501  0.68904592815E+02 -0.17808701266E+02 -0.11581363166E+03  0.13599728832E+03  0.41800000000E+01 0. -1.
</event>
<event>
11    1  0.7105277E-009  0.1817811E+03  0.7561462E-02  0.1068211E+00
         22   -1    0    0    0    0  0.00000000000E+00  0.00000000000E+00  0.14778855092E+04  0.14778855092E+04  0.00000000000E+00 0.  1.
         22   -1    0    0    0    0 -0.00000000000E+00 -0.00000000000E+00 -0.21529510409E+03  0.21529510409E+03  0.00000000000E+00 0. -1.
        -24    2    1    2    0    0  0.52979967656E+02 -0.88442452562E+02 -0.15983840535E+03  0.20716284114E+03  0.82092524250E+02 0.  0.
         25    2    1    2    0    0  0.32789980547E+02  0.18024483265E+03  0.44476756736E+03  0.49702042903E+03  0.12509090843E+03 0.  0.
         24    2    1    2    0    0 -0.85769948203E+02 -0.91802380087E+02  0.97766124310E+03  0.98899734313E+03  0.80685050974E+02 0.  0.
        -13    1    5    5    0    0 -0.97769389676E+02 -0.90120805579E+02  0.94189641400E+03  0.95123575830E+03  0.00000000000E+00 0.  1.
         14    1    5    5    0    0  0.11999441473E+02 -0.16815745083E+01  0.35764829104E+02  0.37761584836E+02  0.00000000000E+00 0. -1.
         11    1    3    3    0    0  0.11866821277E+02 -0.87914936302E+02 -0.91758911144E+02  0.12763054198E+03  0.00000000000E+00 0. -1.
        -12    1    3    3    0    0  0.41113146379E+02 -0.52751625927E+00 -0.68079494201E+02  0.79532299158E+02  0.00000000000E+00 0.  1.
          5    1    4    4  501    0 -0.39835290565E+02  0.35366245587E+02  0.65310853784E+02  0.84383657916E+02  0.41800000000E+01 0.  1.
         -5    1    4    4    0  501  0.72625271112E+02  0.14487858706E+03  0.37945671358E+03  0.41263677111E+03  0.41800000000E+01 0.  1.
</event>
<event>
11    1  0.7105277E-009  0.1987020E+03  0.7561462E-02  0.1055445E+00
         22   -1    0    0    0    0  0.00000000000E+00  0.00000000000E+00  0.11408899048E+04  0.11408899048E+04  0.00000000000E+00 0.  1.
         22   -1    0    0    0    0 -0.00000000000E+00 -0.00000000000E+00 -0.23029536807E+04  0.23029536807E+04  0.00000000000E+00 0. -1.
        -24    2    1    2    0    0  0.19295231352E+02  0.17555272386E+02 -0.20408744650E+04  0.20426260621E+04  0.80449698289E+02 0.  0.
         25    2    1    2    0    0 -0.16679711172E+03  0.26796382381E+02 -0.21085777043E+03  0.29774011276E+03  0.12509537486E+03 0.  0.
         24    2    1    2    0    0  0.14750188036E+03 -0.44351654767E+02  0.10896684596E+04  0.11034774106E+04  0.81001048925E+02 0.  0.
        -11    1    5    5    0    0  0.15681747633E+03 -0.34979094403E+02  0.99435814130E+03  0.10072553654E+04  0.00000000000E+00 0.  1.
         12    1    5    5    0    0 -0.93155959706E+01 -0.93725603643E+01  0.95310318267E+02  0.96222045209E+02  0.00000000000E+00 0. -1.
         13    1    3    3    0    0 -0.42325925516E+01  0.24147607115E+02 -0.18538694231E+04  0.18540315153E+04  0.00000000000E+00 0. -1.
        -14    1    3    3    0    0  0.23527823903E+02 -0.65923347287E+01 -0.18700504189E+03  0.18859454676E+03  0.00000000000E+00 0.  1.
          5    1    4    4  501    0 -0.13418216536E+03 -0.35397120779E+02 -0.15348208958E+03  0.20695901498E+03  0.41800000000E+01 0.  1.
         -5    1    4    4    0  501 -0.32614946358E+02  0.62193503160E+02 -0.57375680844E+02  0.90781097777E+02  0.41800000000E+01 0.  1.
</event>
<event>
11    1  0.7105277E-009  0.2386393E+03  0.7561462E-02  0.1030131E+00
         22   -1    0    0    0    0  0.00000000000E+00  0.00000000000E+00  0.37798091382E+03  0.37798091382E+03  0.00000000000E+00 0.  1.
         22   -1    0    0    0    0 -0.00000000000E+00 -0.00000000000E+00 -0.85883223678E+03  0.85883223678E+03  0.00000000000E+00 0. -1.
        -24    2    1    2    0    0  0.38033314221E+02  0.75322214747E+02 -0.30662815593E+03  0.32833174840E+03  0.81614594085E+02 0.  0.
         25    2    1    2    0    0 -0.15655459164E+03 -0.23359954820E+03 -0.45873010157E+03  0.55241116772E+03  0.12508678208E+03 0.  0.
         24    2    1    2    0    0  0.11852127742E+03  0.15827733345E+03  0.28450693455E+03  0.35607023449E+03  0.82114606474E+02 0.  0.
        -11    1    5    5    0    0  0.12543000384E+03  0.15464948750E+03  0.24457226468E+03  0.31538031406E+03  0.00000000000E+00 0.  1.
         12    1    5    5    0    0 -0.69087264145E+01  0.36278459533E+01  0.39934669871E+02  0.40689920431E+02  0.00000000000E+00 0. -1.
         11    1    3    3    0    0  0.49464967847E+02  0.87245719459E+02 -0.25075099329E+03  0.27006417616E+03  0.00000000000E+00 0. -1.
        -12    1    3    3    0    0 -0.11431653626E+02 -0.11923504712E+02 -0.55877162648E+02  0.58267572241E+02  0.00000000000E+00 0.  1.
          5    1    4    4  501    0 -0.66156985139E+02 -0.14299749818E+03 -0.35212255585E+03  0.38578854040E+03  0.41800000000E+01 0.  1.
         -5    1    4    4    0  501 -0.90397606505E+02 -0.90602050014E+02 -0.10660754572E+03  0.16662262732E+03  0.41800000000E+01 0.  1.
</event>
<event>
11    1  0.7105277E-009  0.1615115E+03  0.7561462E-02  0.1085664E+00
         22   -1    0    0    0    0  0.00000000000E+00  0.00000000000E+00  0.78531560156E+02  0.78531560156E+02  0.00000000000E+00 0. -1.
         22   -1    0    0    0    0 -0.00000000000E+00 -0.00000000000E+00 -0.98301662820E+03  0.98301662820E+03  0.00000000000E+00 0. -1.
        -24    2    1    2    0    0  0.41175212895E+02 -0.49133286135E+02 -0.36849859878E+03  0.38253257440E+03  0.80190243877E+02 0.  0.
         25    2    1    2    0    0 -0.36230787074E+02 -0.58947494422E+02 -0.52482109280E+03  0.54394166076E+03  0.12509146188E+03 0.  0.
         24    2    1    2    0    0 -0.49444258212E+01  0.10808078056E+03 -0.11165376472E+02  0.13507395320E+03  0.80089978948E+02 0.  0.
        -11    1    5    5    0    0  0.54045171531E+01  0.70676403441E+02 -0.44685638257E+02  0.83792416575E+02  0.00000000000E+00 0.  1.
         12    1    5    5    0    0 -0.10348942974E+02  0.37404377116E+02  0.33520261785E+02  0.51281536621E+02  0.00000000000E+00 0. -1.
         13    1    3    3    0    0 -0.19970476832E+02  0.53137342077E+01 -0.82122634476E+02  0.84682836569E+02  0.00000000000E+00 0. -1.
        -14    1    3    3    0    0  0.61145689727E+02 -0.54447020343E+02 -0.28637596430E+03  0.29784973783E+03  0.00000000000E+00 0.  1.
          5    1    4    4  501    0 -0.19536478442E+02  0.31252470361E+02 -0.63242853311E+02  0.73317949975E+02  0.41800000000E+01 0.  1.
         -5    1    4    4    0  501 -0.16694308631E+02 -0.90199964782E+02 -0.46157823949E+03  0.47062371079E+03  0.41800000000E+01 0.  1.
</event>
<event>
11    1  0.7105277E-009  0.1807518E+03  0.7561462E-02  0.1069036E+00
         22   -1    0    0    0    0  0.00000000000E+00  0.00000000000E+00  0.80321883260E+03  0.80321883260E+03  0.00000000000E+00 0. -1.
         22   -1    0    0    0    0 -0.00000000000E+00 -0.00000000000E+00 -0.74575471348E+03  0.74575471348E+03  0.00000000000E+00 0. -1.
        -24    2    1    2    0    0  0.61539862485E+01 -0.40461222818E+01 -0.69708508599E+03  0.70206245468E+03  0.83125390235E+02 0.  0.
         25    2    1    2    0    0 -0.46539312816E+02 -0.12046409135E+03  0.18880387596E+03  0.26071487561E+03  0.12509131802E+03 0.  0.
         24    2    1    2    0    0  0.40385326568E+02  0.12451021364E+03  0.56574532915E+03  0.58619621580E+03  0.80152717108E+02 0.  0.
        -11    1    5    5    0    0 -0.14415594583E+02 -0.25225782180E+01  0.41582032805E+02  0.44082175765E+02  0.00000000000E+00 0.  1.
         12    1    5    5    0    0  0.54800921151E+02  0.12703279185E+03  0.52416329635E+03  0.54211404003E+03  0.00000000000E+00 0. -1.
         11    1    3    3    0    0 -0.99065787708E+01 -0.40918212870E+02 -0.41392010829E+03  0.41605564111E+03  0.00000000000E+00 0. -1.
        -12    1    3    3    0    0  0.16060565019E+02  0.36872090588E+02 -0.28316497770E+03  0.28600681357E+03  0.00000000000E+00 0.  1.
          5    1    4    4  501    0 -0.55580291851E+01 -0.11885700405E+03  0.18406916392E+03  0.21921863198E+03  0.41800000000E+01 0. -1.
         -5    1    4    4    0  501 -0.40981283631E+02 -0.16070873072E+01  0.47347120385E+01  0.41496243634E+02  0.41800000000E+01 0. -1.
</event>
<event>
11    1  0.7105277E-009  0.1285159E+03  0.7561462E-02  0.1121106E+00
         22   -1    0    0    0    0  0.00000000000E+00  0.00000000000E+00  0.75665636245E+03  0.75665636245E+03  0.00000000000E+00 0.  1.
         22   -1    0    0    0    0 -0.00000000000E+00 -0.00000000000E+00 -0.13472878450E+03  0.13472878450E+03  0.00000000000E+00 0. -1.
         24    2    1    2    0    0 -0.24023689027E+02  0.89357994781E+01 -0.81293822088E+02  0.13577954413E+03  0.10569017431E+03 0.  0.
         25    2    1    2    0    0  0.45107434603E+02 -0.48057136716E+02  0.19794606439E+03  0.24325725494E+03  0.12508908277E+03 0.  0.
        -24    2    1    2    0    0 -0.21083745576E+02  0.39121337238E+02  0.50527533565E+03  0.51234834790E+03  0.72267983372E+02 0.  0.
        -13    1    3    3    0    0 -0.34534914343E+02 -0.49128990815E+01  0.14969376692E+02  0.37958913638E+02  0.00000000000E+00 0.  1.
         14    1    3    3    0    0  0.10511225316E+02  0.13848698560E+02 -0.96263198781E+02  0.97820630487E+02  0.00000000000E+00 0. -1.
         11    1    5    5    0    0  0.20483506985E+02 -0.69936406300E+01  0.17010888401E+03  0.17148037056E+03  0.00000000000E+00 0. -1.
        -12    1    5    5    0    0 -0.41567252561E+02  0.46114977868E+02  0.33516645164E+03  0.34086797734E+03  0.00000000000E+00 0.  1.
          5    1    4    4  501    0 -0.13076672857E+02 -0.73330422936E+02  0.80815528362E+02  0.10998623698E+03  0.41800000000E+01 0. -1.
         -5    1    4    4    0  501  0.58184107459E+02  0.25273286220E+02  0.11713053602E+03  0.13327101795E+03  0.41800000000E+01 0. -1.
</event>
<event>
11    1  0.7105277E-009  0.2326801E+03  0.7561462E-02  0.1033553E+00
         22   -1    0    0    0    0  0.00000000000E+00  0.00000000000E+00  0.16060599637E+04  0.16060599637E+04  0.00000000000E+00 0.  1.
         22   -1    0    0    0    0 -0.00000000000E+00 -0.00000000000E+00 -0.12468153190E+04  0.12468153190E+04  0.00000000000E+00 0. -1.
        -24    2    1    2    0    0 -0.18121096760E+03 -0.37000065610E+02 -0.92720537316E+03  0.94880637293E+03  0.79481505121E+02 0.  0.
         25    2    1    2    0    0  0.26700789830E+03  0.54642802838E+02 -0.23322451455E+03  0.37989566380E+03  0.12509191631E+03 0.  0.
         24    2    1    2    0    0 -0.85796930702E+02 -0.17642737227E+02  0.15196745325E+04  0.15241732460E+04  0.77595228592E+02 0.  0.
        -13    1    5    5    0    0 -0.81323282548E+02 -0.40198751245E+02  0.10404241371E+04  0.10443714861E+04  0.00000000000E+00 0.  1.
         14    1    5    5    0    0 -0.44736481539E+01  0.22556014017E+02  0.47925039538E+03  0.47980175986E+03  0.00000000000E+00 0. -1.
         13    1    3    3    0    0 -0.18775569525E+03 -0.39432525451E+02 -0.91345582095E+03  0.93338559127E+03  0.00000000000E+00 0. -1.
        -14    1    3    3    0    0  0.65447276536E+01  0.24324598407E+01 -0.13749552214E+02  0.15420781661E+02  0.00000000000E+00 0.  1.
          5    1    4    4  501    0  0.24711077493E+03  0.79825707701E+02 -0.23078040403E+03  0.34743768647E+03  0.41800000000E+01 0. -1.
         -5    1    4    4    0  501  0.19897123366E+02 -0.25182904863E+02 -0.24441105223E+01  0.32457977322E+02  0.41800000000E+01 0. -1.
</event>
<event>
11    1  0.7105277E-009  0.3390924E+03  0.7561462E-02  0.9848818E-01
         22   -1    0    0    0    0  0.00000000000E+00  0.00000000000E+00  0.85652217003E+03  0.85652217003E+03  0.00000000000E+00 0.  1.
         22   -1    0    0    0    0 -0.00000000000E+00 -0.00000000000E+00 -0.72086617433E+03  0.72086617433E+03  0.00000000000E+00 0.  1.
        -24    2    1    2    0    0 -0.43434440669E+02  0.12543255684E+03 -0.44007729746E+03  0.46671209301E+03  0.80822478725E+02 0.  0.
         25    2    1    2    0    0  0.32905249827E+03  0.11498033760E+02 -0.94886680056E+02  0.36477494215E+03  0.12509806142E+03 0.  0.
         24    2    1    2    0    0 -0.28561805761E+03 -0.13693059060E+03  0.67061997322E+03  0.74590130919E+03  0.79435213242E+02 0.  0.
        -13    1    5    5    0    0 -0.64840379197E+02 -0.31913811479E+01  0.18301638763E+03  0.19418923202E+03  0.00000000000E+00 0.  1.
         14    1    5    5    0    0 -0.22077767841E+03 -0.13373920945E+03  0.48760358559E+03  0.55171207718E+03  0.00000000000E+00 0. -1.
         11    1    3    3    0    0  0.38087520718E+01  0.90958381944E+02 -0.20217419054E+03  0.22172581527E+03  0.00000000000E+00 0. -1.
        -12    1    3    3    0    0 -0.47243192741E+02  0.34474174894E+02 -0.23790310692E+03  0.24498627774E+03  0.00000000000E+00 0.  1.
          5    1    4    4  501    0  0.31212742493E+03 -0.56922589799E+01 -0.53600400521E+02  0.31677500934E+03  0.41800000000E+01 0. -1.
         -5    1    4    4    0  501  0.16925073340E+02  0.17190292740E+02 -0.41286279534E+02  0.47999932811E+02  0.41800000000E+01 0. -1.
</event>
<event>
11    1  0.7105277E-009  0.2651575E+03  0.7561462E-02  0.1016121E+00
         22   -1    0    0    0    0  0.00000000000E+00  0.00000000000E+00  0.50331557889E+03  0.50331557889E+03  0.00000000000E+00 0. -1.
         22   -1    0    0    0    0 -0.00000000000E+00 -0.00000000000E+00 -0.34583094909E+03  0.34583094909E+03  0.00000000000E+00 0. -1.
        -24    2    1    2    0    0  0.69712502327E+01  0.52099669461E+01 -0.18493072651E+03  0.20261822945E+03  0.82334872381E+02 0.  0.
         25    2    1    2    0    0 -0.89570100168E+02  0.21428883741E+03  0.59866692032E+02  0.27050801947E+03  0.12509220239E+03 0.  0.
         24    2    1    2    0    0  0.82598849935E+02 -0.21949880436E+03  0.28254866428E+03  0.37602027906E+03  0.80964235641E+02 0.  0.
        -13    1    5    5    0    0 -0.18545145524E+01 -0.67706941798E+01 -0.49139897624E+01  0.85690617506E+01  0.00000000000E+00 0.  1.
         14    1    5    5    0    0  0.84453364487E+02 -0.21272811018E+03  0.28746265404E+03  0.36745121731E+03  0.00000000000E+00 0. -1.
         11    1    3    3    0    0 -0.36826741759E+02  0.10611005167E+02 -0.95142787886E+02  0.10257169408E+03  0.00000000000E+00 0. -1.
        -12    1    3    3    0    0  0.43797991992E+02 -0.54010382208E+01 -0.89787938627E+02  0.10004653537E+03  0.00000000000E+00 0.  1.
          5    1    4    4  501    0 -0.67309664313E+02  0.13846003978E+03 -0.23233669040E+02  0.15575316787E+03  0.41800000000E+01 0.  1.
         -5    1    4    4    0  501 -0.22260435854E+02  0.75828797632E+02  0.83100361071E+02  0.11475485160E+03  0.41800000000E+01 0.  1.
</event>
<event>
11    1  0.7105277E-009  0.1327769E+03  0.7561462E-02  0.1115903E+00
         22   -1    0    0    0    0  0.00000000000E+00  0.00000000000E+00  0.77563035230E+03  0.77563035230E+03  0.00000000000E+00 0. -1.
         22   -1    0    0    0    0 -0.00000000000E+00 -0.00000000000E+00 -0.16310256197E+04  0.16310256197E+04  0.00000000000E+00 0.  1.
        -24    2    1    2    0    0 -0.44305148536E+02 -0.15036377276E+01 -0.15943100376E+04  0.15968927426E+04  0.79225804152E+02 0.  0.
         25    2    1    2    0    0  0.67328919677E+02 -0.56233873072E+01  0.12308988808E+03  0.18805253823E+03  0.12509128937E+03 0.  0.
         24    2    1    2    0    0 -0.23023771141E+02  0.71270250348E+01  0.61582488216E+03  0.62171069120E+03  0.81871909289E+02 0.  0.
        -11    1    5    5    0    0  0.28407038108E+02  0.15478319069E+02  0.19380091678E+03  0.19648240002E+03  0.00000000000E+00 0.  1.
         12    1    5    5    0    0 -0.51430809249E+02 -0.83512940338E+01  0.42202396539E+03  0.42522829117E+03  0.00000000000E+00 0. -1.
         11    1    3    3    0    0  0.16562383646E+02 -0.49619776770E+01 -0.82141987653E+03  0.82160181799E+03  0.00000000000E+00 0. -1.
        -12    1    3    3    0    0 -0.60867532182E+02  0.34583399493E+01 -0.77289016112E+03  0.77529092458E+03  0.00000000000E+00 0.  1.
          5    1    4    4  501    0  0.73854101777E+02 -0.32288668183E+02  0.22628816097E+02  0.83824353026E+02  0.41800000000E+01 0. -1.
         -5    1    4    4    0  501 -0.65251820996E+01  0.26665280876E+02  0.10046107198E+03  0.10422818520E+03  0.41800000000E+01 0. -1.
</event>
<event>
11    1  0.7105277E-009  0.1570215E+03  0.7561462E-02  0.1089913E+00
         22   -1    0    0    0    0  0.00000000000E+00  0.00000000000E+00  0.60318237451E+03  0.60318237451E+03  0.00000000000E+00 0.  1.
         22   -1    0    0    0    0 -0.00000000000E+00 -0.00000000000E+00 -0.63834559141E+03  0.63834559141E+03  0.00000000000E+00 0.  1.
         24    2    1    2    0    0  0.10601008461E+02  0.22594581497E+02 -0.59500989713E+03  0.60059406820E+03  0.77804630816E+02 0.  0.
         25    2    1    2    0    0  0.10689951393E+02  0.75556139093E+02  0.14003253935E+03  0.20268190121E+03  0.12509130979E+03 0.  0.
        -24    2    1    2    0    0 -0.21290959854E+02 -0.98150720590E+02  0.41981414088E+03  0.43825199651E+03  0.75723382375E+02 0.  0.
        -13    1    3    3    0    0  0.10055461357E+02  0.51656011298E+02 -0.38920266214E+03  0.39274440547E+03  0.00000000000E+00 0.  1.
         14    1    3    3    0    0  0.54554710410E+00 -0.29061429801E+02 -0.20580723499E+03  0.20784966273E+03  0.00000000000E+00 0. -1.
         13    1    5    5    0    0 -0.14940161739E+02 -0.89810155246E+02  0.21908727710E+03  0.23725156987E+03  0.00000000000E+00 0. -1.
        -14    1    5    5    0    0 -0.63507981157E+01 -0.83405653443E+01  0.20072686378E+03  0.20100042665E+03  0.00000000000E+00 0.  1.
          5    1    4    4  501    0 -0.27821664360E+02 -0.24240537701E+02  0.53000341378E+02  0.64715973778E+02  0.41800000000E+01 0. -1.
         -5    1    4    4    0  501  0.38511615754E+02  0.99796676794E+02  0.87032197974E+02  0.13796592743E+03  0.41800000000E+01 0. -1.
</event>
<event>
11    1  0.7105277E-009  0.1360209E+03  0.7561462E-02  0.1112085E+00
         22   -1    0    0    0    0  0.00000000000E+00  0.00000000000E+00  0.14577396698E+03  0.14577396698E+03  0.00000000000E+00 0. -1.
         22   -1    0    0    0    0 -0.00000000000E+00 -0.00000000000E+00 -0.68766527842E+03  0.68766527842E+03  0.00000000000E+00 0.  1.
        -24    2    1    2    0    0 -0.59773927229E+02 -0.69819831942E+01 -0.40063840406E+03  0.41322712227E+03  0.81387058572E+02 0.  0.
         25    2    1    2    0    0  0.25627240310E+02  0.44033956734E+02 -0.24489386785E+03  0.27967272370E+03  0.12509229024E+03 0.  0.
         24    2    1    2    0    0  0.34146686920E+02 -0.37051973540E+02  0.10364096048E+03  0.14053939944E+03  0.80442707165E+02 0.  0.
        -13    1    5    5    0    0 -0.18974652260E+02 -0.15423495178E+02  0.29113900460E+01  0.24625146169E+02  0.00000000000E+00 0.  1.
         14    1    5    5    0    0  0.53121339179E+02 -0.21628478363E+02  0.10072957043E+03  0.11591425327E+03  0.00000000000E+00 0. -1.
         11    1    3    3    0    0 -0.25220048092E+02 -0.23472906825E+02 -0.51293506902E+02  0.61790387852E+02  0.00000000000E+00 0. -1.
        -12    1    3    3    0    0 -0.34553879137E+02  0.16490923631E+02 -0.34934489716E+03  0.35143673442E+03  0.00000000000E+00 0.  1.
          5    1    4    4  501    0 -0.22016680907E+02  0.74643545452E+02 -0.13161839147E+03  0.15296165038E+03  0.41800000000E+01 0. -1.
         -5    1    4    4    0  501  0.47643921217E+02 -0.30609588717E+02 -0.11327547638E+03  0.12671107331E+03  0.41800000000E+01 0. -1.
</event>
<event>
11    1  0.7105277E-009  0.1421116E+03  0.7561462E-02  0.1105223E+00
         22   -1    0    0    0    0  0.00000000000E+00  0.00000000000E+00  0.14466179894E+03  0.14466179894E+03  0.00000000000E+00 0. -1.
         22   -1    0    0    0    0 -0.00000000000E+00 -0.00000000000E+00 -0.86189387601E+03  0.86189387601E+03  0.00000000000E+00 0.  1.
        -24    2    1    2    0    0  0.73858643488E+01 -0.74248430293E+02 -0.68774358824E+03  0.69648949865E+03  0.80864072224E+02 0.  0.
         25    2    1    2    0    0  0.75660564730E+01  0.23485430998E+02 -0.12184081524E+03  0.17635615570E+03  0.12508996248E+03 0.  0.
         24    2    1    2    0    0 -0.14951920822E+02  0.50762999295E+02  0.92352326409E+02  0.13371002060E+03  0.80925739926E+02 0.  0.
        -13    1    5    5    0    0  0.17340098126E+02 -0.29460345204E+01 -0.46789246551E+01  0.18200287315E+02  0.00000000000E+00 0.  1.
         14    1    5    5    0    0 -0.32292018948E+02  0.53709033815E+02  0.97031251064E+02  0.11550973329E+03  0.00000000000E+00 0. -1.
         11    1    3    3    0    0  0.41860209772E+02 -0.40430187716E+02 -0.46109588515E+03  0.46475401293E+03  0.00000000000E+00 0. -1.
        -12    1    3    3    0    0 -0.34474345424E+02 -0.33818242577E+02 -0.22664770309E+03  0.23173548572E+03  0.00000000000E+00 0.  1.
          5    1    4    4  501    0  0.59510709451E+02 -0.11928269273E+02 -0.38954203224E+02  0.72240642966E+02  0.41800000000E+01 0.  1.
         -5    1    4    4    0  501 -0.51944652978E+02  0.35413700271E+02 -0.82886612020E+02  0.10411551274E+03  0.41800000000E+01 0.  1.
</event>
<event>
11    1  0.7105277E-009  0.1362342E+03  0.7561462E-02  0.1111838E+00
         22   -1    0    0    0    0  0.00000000000E+00  0.00000000000E+00  0.75171703047E+03  0.75171703047E+03  0.00000000000E+00 0.  1.
         22   -1    0    0    0    0 -0.00000000000E+00 -0.00000000000E+00 -0.20219674900E+03  0.20219674900E+03  0.00000000000E+00 0.  1.
        -24    2    1    2    0    0  0.15894437045E+02 -0.58976824259E+02 -0.78683027161E+02  0.12738231919E+03  0.79399858623E+02 0.  0.
         25    2    1    2    0    0  0.12085086303E+02  0.10320399276E+03 -0.25923075409E+02  0.16466781115E+03  0.12508544583E+03 0.  0.
         24    2    1    2    0    0 -0.27979523349E+02 -0.44227168498E+02  0.65412638404E+03  0.66186364913E+03  0.86274373870E+02 0.  0.
        -13    1    5    5    0    0 -0.58740599068E+02 -0.33279229899E+02  0.40161382640E+03  0.40724885596E+03  0.00000000000E+00 0.  1.
         14    1    5    5    0    0  0.30761075719E+02 -0.10947938598E+02  0.25251255764E+03  0.25461479317E+03  0.00000000000E+00 0. -1.
         11    1    3    3    0    0 -0.22598281543E+02 -0.45239804562E+01 -0.49479575953E+02  0.54583671225E+02  0.00000000000E+00 0. -1.
        -12    1    3    3    0    0  0.38492718589E+02 -0.54452843802E+02 -0.29203451208E+02  0.72798647961E+02  0.00000000000E+00 0.  1.
          5    1    4    4  501    0 -0.22172204098E+02  0.10689703521E+03 -0.52250529334E+02  0.12110397594E+03  0.41800000000E+01 0. -1.
         -5    1    4    4    0  501  0.34257290402E+02 -0.36930424560E+01  0.26327453925E+02  0.43563835212E+02  0.41800000000E+01 0. -1.
</event>
<event>
11    1  0.7105277E-009  0.1673433E+03  0.7561462E-02  0.1080367E+00
         22   -1    0    0    0    0  0.00000000000E+00  0.00000000000E+00  0.17735318285E+04  0.17735318285E+04  0.00000000000E+00 0.  1.
         22   -1    0    0    0    0 -0.00000000000E+00 -0.00000000000E+00 -0.60276301377E+02  0.60276301377E+02  0.00000000000E+00 0.  1.
        -24    2    1    2    0    0 -0.58602116847E+00 -0.70218100598E+02  0.31211295917E+02  0.11712919858E+03  0.88397845530E+02 0.  0.
         25    2    1    2    0    0  0.31659339687E+02 -0.54307292435E+02  0.36654589569E+03  0.39237431880E+03  0.12510042609E+03 0.  0.
         24    2    1    2    0    0 -0.31073318519E+02  0.12452539303E+03  0.13154983355E+04  0.13243046125E+04  0.82308634409E+02 0.  0.
        -11    1    5    5    0    0 -0.24001773923E+02  0.80996855080E+02  0.11478085614E+04  0.11509131459E+04  0.00000000000E+00 0.  1.
         12    1    5    5    0    0 -0.70715445964E+01  0.43528537953E+02  0.16768977406E+03  0.17339146658E+03  0.00000000000E+00 0. -1.
         11    1    3    3    0    0  0.36818543768E+02 -0.52791968691E+02  0.38827423587E+02  0.75167585739E+02  0.00000000000E+00 0. -1.
        -12    1    3    3    0    0 -0.37404564937E+02 -0.17426131907E+02 -0.76161276706E+01  0.41961612839E+02  0.00000000000E+00 0.  1.
          5    1    4    4  501    0 -0.33306168465E+02  0.20002869557E+02  0.75402401450E+02  0.84925910021E+02  0.41800000000E+01 0.  1.
         -5    1    4    4    0  501  0.64965508152E+02 -0.74310161992E+02  0.29114349424E+03  0.30744840878E+03  0.41800000000E+01 0.  1.
</event>
<event>
11    1  0.7105277E-009  0.1582831E+03  0.7561462E-02  0.1088703E+00
         22   -1    0    0    0    0  0.00000000000E+00  0.00000000000E+00  0.15112219600E+03  0.15112219600E+03  0.00000000000E+00 0.  1.
         22   -1    0    0    0    0 -0.00000000000E+00 -0.00000000000E+00 -0.81751046887E+03  0.81751046887E+03  0.00000000000E+00 0. -1.
         24    2    1    2    0    0  0.52002036930E+02 -0.37468068252E+02 -0.51614624761E+03  0.52545377804E+03  0.74743935861E+02 0.  0.
         25    2    1    2    0    0  0.16675863284E+02 -0.40498856473E+02 -0.24718221206E+03  0.28047106156E+03  0.12508688428E+03 0.  0.
        -24    2    1    2    0    0 -0.68677900214E+02  0.77966924725E+02  0.96940186797E+02  0.16270782528E+03  0.79252389625E+02 0.  0.
        -11    1    3    3    0    0 -0.89473502606E+01 -0.25538054212E+02 -0.70749648285E+02  0.75748003420E+02  0.00000000000E+00 0.  1.
         12    1    3    3    0    0  0.60949387190E+02 -0.11930014040E+02 -0.44539659932E+03  0.44970577462E+03  0.00000000000E+00 0. -1.
         11    1    5    5    0    0 -0.11693658413E+02  0.57110959365E+01 -0.13636124346E+02  0.18849460232E+02  0.00000000000E+00 0. -1.
        -12    1    5    5    0    0 -0.56984241801E+02  0.72255828788E+02  0.11057631114E+03  0.14385836505E+03  0.00000000000E+00 0.  1.
          5    1    4    4  501    0 -0.14744126044E+01  0.83709548627E+01 -0.22239321003E+03  0.22259483158E+03  0.41800000000E+01 0.  1.
         -5    1    4    4    0  501  0.18150275889E+02 -0.48869811336E+02 -0.24789002029E+02  0.57876229977E+02  0.41800000000E+01 0.  1.
</event>
<event>
11    1  0.7105277E-009  0.1804678E+03  0.7561462E-02  0.1069265E+00
         22   -1    0    0    0    0  0.00000000000E+00  0.00000000000E+00  0.12997489314E+03  0.12997489314E+03  0.00000000000E+00 0. -1.
         22   -1    0    0    0    0 -0.00000000000E+00 -0.00000000000E+00 -0.16902913656E+04  0.16902913656E+04  0.00000000000E+00 0. -1.
         24    2    1    2    0    0  0.46638577037E+02  0.28863688033E+02 -0.14475281257E+04  0.14510766678E+04  0.85308567859E+02 0.  0.
         25    2    1    2    0    0 -0.13576775800E+03  0.58280997616E+02 -0.10535049599E+03  0.22040534969E+03  0.12510088878E+03 0.  0.
        -24    2    1    2    0    0  0.89129180959E+02 -0.87144685649E+02 -0.74378508386E+01  0.14878424132E+03  0.80890183000E+02 0.  0.
        -11    1    3    3    0    0 -0.15148011577E+02  0.36156376238E+02 -0.56419362728E+03  0.56555388325E+03  0.00000000000E+00 0.  1.
         12    1    3    3    0    0  0.61786588615E+02 -0.72926882050E+01 -0.88333449839E+03  0.88552278451E+03  0.00000000000E+00 0. -1.
         11    1    5    5    0    0  0.29665913977E+02 -0.82721019274E+02 -0.13254622693E+02  0.88873609720E+02  0.00000000000E+00 0. -1.
        -12    1    5    5    0    0  0.59463266982E+02 -0.44236663748E+01  0.58167718539E+01  0.59910631604E+02  0.00000000000E+00 0.  1.
          5    1    4    4  501    0 -0.11599802780E+03 -0.43075401091E+01 -0.10194831109E+03  0.15454781748E+03  0.41800000000E+01 0. -1.
         -5    1    4    4    0  501 -0.19769730196E+02  0.62588537725E+02 -0.34021849052E+01  0.65857532210E+02  0.41800000000E+01 0. -1.
</event>
<event>
11    1  0.7105277E-009  0.2291239E+03  0.7561462E-02  0.1035648E+00
         22   -1    0    0    0    0  0.00000000000E+00  0.00000000000E+00  0.49547594176E+03  0.49547594176E+03  0.00000000000E+00 0.  1.
         22   -1    0    0    0    0 -0.00000000000E+00 -0.00000000000E+00 -0.74898435937E+03  0.74898435937E+03  0.00000000000E+00 0. -1.
        -24    2    1    2    0    0 -0.25796996498E+02 -0.15514485245E+02 -0.62341349606E+03  0.62898785487E+03  0.77943249994E+02 0.  0.
         25    2    1    2    0    0  0.17311320530E+03  0.12642936431E+03  0.76048676709E+02  0.25958090431E+03  0.12508508561E+03 0.  0.
         24    2    1    2    0    0 -0.14731620880E+03 -0.11091487907E+03  0.29385640174E+03  0.35589154195E+03  0.79391618039E+02 0.  0.
        -11    1    5    5    0    0 -0.15181828691E+03 -0.11663813675E+03  0.27028363451E+03  0.33121970090E+03  0.00000000000E+00 0.  1.
         12    1    5    5    0    0  0.45020781009E+01  0.57232576853E+01  0.23572767231E+02  0.24671841048E+02  0.00000000000E+00 0. -1.
         11    1    3    3    0    0 -0.13561536008E+02 -0.40325445653E+02 -0.52613441879E+03  0.52785176277E+03  0.00000000000E+00 0. -1.
        -12    1    3    3    0    0 -0.12235460491E+02  0.24810960408E+02 -0.97279077275E+02  0.10113609210E+03  0.00000000000E+00 0.  1.
          5    1    4    4  501    0  0.13897110717E+03  0.13636921892E+03  0.23737441394E+02  0.19618988512E+03  0.41800000000E+01 0. -1.
         -5    1    4    4    0  501  0.34142098132E+02 -0.99398546089E+01  0.52311235315E+02  0.63391019196E+02  0.41800000000E+01 0. -1.
</event>
<event>
11    1  0.7105277E-009  0.1299468E+03  0.7561462E-02  0.1119334E+00
         22   -1    0    0    0    0  0.00000000000E+00  0.00000000000E+00  0.13456617742E+04  0.13456617742E+04  0.00000000000E+00 0.  1.
         22   -1    0    0    0    0 -0.00000000000E+00 -0.00000000000E+00 -0.74168961510E+03  0.74168961510E+03  0.00000000000E+00 0.  1.
        -24    2    1    2    0    0 -0.18075623957E+02  0.52240159866E+02 -0.71567442220E+03  0.72214616481E+03  0.79053414089E+02 0.  0.
         25    2    1    2    0    0 -0.15395579978E+02 -0.62175879130E+02  0.22436324988E+03  0.26474312879E+03  0.12508873857E+03 0.  0.
         24    2    1    2    0    0  0.33471203935E+02  0.99357192642E+01  0.10952833314E+04  0.11004620957E+04  0.10075816579E+03 0.  0.
        -13    1    5    5    0    0 -0.13566607746E+02  0.43838313817E+02  0.61081496043E+03  0.61253633892E+03  0.00000000000E+00 0.  1.
         14    1    5    5    0    0  0.47037811681E+02 -0.33902594553E+02  0.48446837096E+03  0.48792575675E+03  0.00000000000E+00 0. -1.
         11    1    3    3    0    0  0.29600824017E+02  0.30305468439E+02 -0.25540168892E+03  0.25889119896E+03  0.00000000000E+00 0. -1.
        -12    1    3    3    0    0 -0.47676447975E+02  0.21934691427E+02 -0.46027273328E+03  0.46325496585E+03  0.00000000000E+00 0.  1.
          5    1    4    4  501    0  0.19327434371E+01 -0.73520161273E+02  0.23110769359E+03  0.24256378140E+03  0.41800000000E+01 0.  1.
         -5    1    4    4    0  501 -0.17328323415E+02  0.11344282143E+02 -0.67444437094E+01  0.22179347390E+02  0.41800000000E+01 0.  1.
</event>
<event>
11    1  0.7105277E-009  0.1337775E+03  0.7561462E-02  0.1114713E+00
         22   -1    0    0    0    0  0.00000000000E+00  0.00000000000E+00  0.23241893550E+04  0.23241893550E+04  0.00000000000E+00 0. -1.
         22   -1    0    0    0    0 -0.00000000000E+00 -0.00000000000E+00 -0.60547674577E+02  0.60547674577E+02  0.00000000000E+00 0. -1.
         24    2    1    2    0    0 -0.48979447243E+02  0.64847251241E+01 -0.19570013806E+01  0.95139823027E+02  0.81281720940E+02 0.  0.
         25    2    1    2    0    0  0.24241624071E+02 -0.37586956689E+02  0.39309630560E+03  0.41493672820E+03  0.12508935717E+03 0.  0.
        -24    2    1    2    0    0  0.24737823171E+02  0.31102231565E+02  0.18725023762E+04  0.18746604784E+04  0.80668776567E+02 0.  0.
        -13    1    3    3    0    0 -0.56080845648E+01  0.15408163955E+02  0.34229673705E+02  0.37954350091E+02  0.00000000000E+00 0.  1.
         14    1    3    3    0    0 -0.43371362678E+02 -0.89234388305E+01 -0.36186675085E+02  0.57185472935E+02  0.00000000000E+00 0. -1.
         11    1    5    5    0    0 -0.33170883495E+01 -0.25612745005E+02  0.66513332358E+03  0.66563454982E+03  0.00000000000E+00 0. -1.
        -12    1    5    5    0    0  0.28054911521E+02  0.56714976570E+02  0.12073690526E+04  0.12090259286E+04  0.00000000000E+00 0.  1.
          5    1    4    4  501    0 -0.15485311853E+02 -0.63027869723E+02  0.32828733555E+03  0.33466752804E+03  0.41800000000E+01 0.  1.
         -5    1    4    4    0  501  0.39726935924E+02  0.25440913034E+02  0.64808970053E+02  0.80269200153E+02  0.41800000000E+01 0.  1.
</event>
<event>
11    1  0.7105277E-009  0.1978585E+03  0.7561462E-02  0.1056048E+00
         22   -1    0    0    0    0  0.00000000000E+00  0.00000000000E+00  0.16709464011E+04  0.16709464011E+04  0.00000000000E+00 0.  1.
         22   -1    0    0    0    0 -0.00000000000E+00 -0.00000000000E+00 -0.16768667293E+03  0.16768667293E+03  0.00000000000E+00 0.  1.
        -24    2    1    2    0    0  0.82713691126E+01 -0.42081377272E+02 -0.11489092115E+03  0.14992147879E+03  0.86239597506E+02 0.  0.
         25    2    1    2    0    0 -0.75434246682E+02 -0.10181950270E+03  0.23798527034E+03  0.29722370983E+03  0.12508960023E+03 0.  0.
         24    2    1    2    0    0  0.67162877569E+02  0.14390087997E+03  0.13801653790E+04  0.13914878854E+04  0.78509531405E+02 0.  0.
        -13    1    5    5    0    0  0.70118728045E+01  0.50095392431E+02  0.73752743863E+03  0.73926006076E+03  0.00000000000E+00 0.  1.
         14    1    5    5    0    0  0.60151004765E+02  0.93805487544E+02  0.64263794035E+03  0.65222782465E+03  0.00000000000E+00 0. -1.
         13    1    3    3    0    0  0.11020170654E+01  0.65691985023E+01  0.12060890930E+02  0.13778022377E+02  0.00000000000E+00 0. -1.
        -14    1    3    3    0    0  0.71693520472E+01 -0.48650575774E+02 -0.12695181208E+03  0.13614345641E+03  0.00000000000E+00 0.  1.
          5    1    4    4  501    0 -0.76601267208E+02 -0.58609786384E+02  0.23457291414E+03  0.25366273996E+03  0.41800000000E+01 0. -1.
         -5    1    4    4    0  501  0.11670205262E+01 -0.43209716319E+02  0.34123561983E+01  0.43560969871E+02  0.41800000000E+01 0. -1.
</event>
<event>
11    1  0.7105277E-009  0.1411678E+03  0.7561462E-02  0.1106261E+00
         22   -1    0    0    0    0  0.00000000000E+00  0.00000000000E+00  0.21756802737E+03  0.21756802737E+03  0.00000000000E+00 0.  1.
         22   -1    0    0    0    0 -0.00000000000E+00 -0.00000000000E+00 -0.83632455121E+03  0.83632455121E+03  0.00000000000E+00 0.  1.
        -24    2    1    2    0    0  0.23259834739E+02 -0.61017618291E+02 -0.74927794294E+03  0.75640409362E+03  0.80408627761E+02 0.  0.
         25    2    1    2    0    0 -0.83596117083E+01  0.68097958727E+02  0.13256573044E+02  0.14331493028E+03  0.12512480738E+03 0.  0.
         24    2    1    2    0    0 -0.14900223031E+02 -0.70803404355E+01  0.11726484606E+03  0.15417355468E+03  0.98723315260E+02 0.  0.
        -13    1    5    5    0    0 -0.16417770628E+02 -0.18172152756E+02  0.13279196199E+03  0.13503138708E+03  0.00000000000E+00 0.  1.
         14    1    5    5    0    0  0.15175475971E+01  0.11091812320E+02 -0.15527115933E+02  0.19142167601E+02  0.00000000000E+00 0. -1.
         11    1    3    3    0    0 -0.20757351131E+02  0.70385877910E+01 -0.19585184117E+03  0.19707448601E+03  0.00000000000E+00 0. -1.
        -12    1    3    3    0    0  0.44017185870E+02 -0.68056206082E+02 -0.55342610176E+03  0.55932960761E+03  0.00000000000E+00 0.  1.
          5    1    4    4  501    0  0.23842171982E+02  0.61796469604E+02 -0.42267613341E+02  0.78684664058E+02  0.41800000000E+01 0.  1.
         -5    1    4    4    0  501 -0.32201783691E+02  0.63014891221E+01  0.55524186385E+02  0.64630266221E+02  0.41800000000E+01 0.  1.
</event>
<event>
11    1  0.7105277E-009  0.1361065E+03  0.7561462E-02  0.1111986E+00
         22   -1    0    0    0    0  0.00000000000E+00  0.00000000000E+00  0.63219851116E+03  0.63219851116E+03  0.00000000000E+00 0.  1.
         22   -1    0    0    0    0 -0.00000000000E+00 -0.00000000000E+00 -0.54160340434E+03  0.54160340434E+03  0.00000000000E+00 0. -1.
        -24    2    1    2    0    0  0.87393353425E+01 -0.41061407593E+02 -0.45773373655E+03  0.46673911332E+03  0.81011179165E+02 0.  0.
         25    2    1    2    0    0 -0.61034042637E+02  0.29230367471E+02 -0.75768368944E+01  0.14242566353E+03  0.12509233562E+03 0.  0.
         24    2    1    2    0    0  0.52294707295E+02  0.11831040122E+02  0.55590568027E+03  0.56463713865E+03  0.83121977041E+02 0.  0.
        -11    1    5    5    0    0  0.63887777710E+02  0.34685448564E+02  0.43653763540E+03  0.44254924653E+03  0.00000000000E+00 0.  1.
         12    1    5    5    0    0 -0.11593070415E+02 -0.22854408443E+02  0.11936804486E+03  0.12208789212E+03  0.00000000000E+00 0. -1.
         13    1    3    3    0    0 -0.25715473569E+02 -0.14616502025E+02 -0.33939465348E+03  0.34068116843E+03  0.00000000000E+00 0. -1.
        -14    1    3    3    0    0  0.34454808911E+02 -0.26444905568E+02 -0.11833908307E+03  0.12605794489E+03  0.00000000000E+00 0.  1.
          5    1    4    4  501    0 -0.22934891539E+02  0.71906442812E+02  0.20840700974E+02  0.78411434019E+02  0.41800000000E+01 0. -1.
         -5    1    4    4    0  501 -0.38099151098E+02 -0.42676075341E+02 -0.28417537868E+02  0.64014229507E+02  0.41800000000E+01 0. -1.
</event>
<event>
11    1  0.7105277E-009  0.1623983E+03  0.7561462E-02  0.1084843E+00
         22   -1    0    0    0    0  0.00000000000E+00  0.00000000000E+00  0.33527162894E+02  0.33527162894E+02  0.00000000000E+00 0. -1.
         22   -1    0    0    0    0 -0.00000000000E+00 -0.00000000000E+00 -0.15799266467E+04  0.15799266467E+04  0.00000000000E+00 0.  1.
        -24    2    1    2    0    0  0.74362825923E+02  0.65527482375E+02 -0.71633478024E+03  0.72736007420E+03  0.78060741260E+02 0.  0.
         25    2    1    2    0    0 -0.12158832241E+03  0.30094751315E+02 -0.50621357853E+03  0.53627362742E+03  0.12509117548E+03 0.  0.
         24    2    1    2    0    0  0.47225496489E+02 -0.95622233690E+02 -0.32385112508E+03  0.34982010802E+03  0.78234887747E+02 0.  0.
        -13    1    5    5    0    0  0.57551034438E+02 -0.36291487436E+02 -0.21385214414E+03  0.22441464564E+03  0.00000000000E+00 0.  1.
         14    1    5    5    0    0 -0.10325537948E+02 -0.59330746254E+02 -0.10999898094E+03  0.12540546237E+03  0.00000000000E+00 0. -1.
         13    1    3    3    0    0  0.89611387292E+02  0.62406388474E+02 -0.58486242743E+03  0.59496959340E+03  0.00000000000E+00 0. -1.
        -14    1    3    3    0    0 -0.15248561369E+02  0.31210939009E+01 -0.13147235282E+03  0.13239048080E+03  0.00000000000E+00 0.  1.
          5    1    4    4  501    0 -0.36686868881E+02 -0.37771619356E+02 -0.28395053947E+03  0.28882174925E+03  0.41800000000E+01 0.  1.
         -5    1    4    4    0  501 -0.84901453532E+02  0.67866370670E+02 -0.22226303906E+03  0.24745187817E+03  0.41800000000E+01 0.  1.
</event>
<event>
11    1  0.7105277E-009  0.1698719E+03  0.7561462E-02  0.1078143E+00
         22   -1    0    0    0    0  0.00000000000E+00  0.00000000000E+00  0.88217509267E+03  0.88217509267E+03  0.00000000000E+00 0. -1.
         22   -1    0    0    0    0 -0.00000000000E+00 -0.00000000000E+00 -0.73861007487E+03  0.73861007487E+03  0.00000000000E+00 0.  1.
         24    2    1    2    0    0 -0.56844231129E+01  0.24074021734E+02 -0.52898048860E+03  0.53568194651E+03  0.80764591925E+02 0.  0.
         25    2    1    2    0    0  0.11813602580E+03 -0.42918678234E+00 -0.16354691077E+03  0.23738466753E+03  0.12509030164E+03 0.  0.
        -24    2    1    2    0    0 -0.11245160269E+03 -0.23644834951E+02  0.83609241717E+03  0.84771855350E+03  0.79823397128E+02 0.  0.
        -13    1    3    3    0    0  0.23864153365E+01  0.40755247090E+02 -0.49735071080E+03  0.49902346105E+03  0.00000000000E+00 0.  1.
         14    1    3    3    0    0 -0.80708384494E+01 -0.16681225356E+02 -0.31629777799E+02  0.36658485460E+02  0.00000000000E+00 0. -1.
         11    1    5    5    0    0 -0.94914462265E+02 -0.21525126396E+02  0.81217194556E+03  0.81798249087E+03  0.00000000000E+00 0. -1.
        -12    1    5    5    0    0 -0.17537140424E+02 -0.21197085552E+01  0.23920471607E+02  0.29736062626E+02  0.00000000000E+00 0.  1.
          5    1    4    4  501    0  0.10136565969E+03 -0.50757957662E+02 -0.13714277541E+03  0.17798028114E+03  0.41800000000E+01 0.  1.
         -5    1    4    4    0  501  0.16770366112E+02  0.50328770879E+02 -0.26404135365E+02  0.59404386388E+02  0.41800000000E+01 0.  1.
</event>
<event>
11    1  0.7105277E-009  0.1398618E+03  0.7561462E-02  0.1107713E+00
         22   -1    0    0    0    0  0.00000000000E+00  0.00000000000E+00  0.60679143446E+03  0.60679143446E+03  0.00000000000E+00 0. -1.
         22   -1    0    0    0    0 -0.00000000000E+00 -0.00000000000E+00 -0.11105606904E+03  0.11105606904E+03  0.00000000000E+00 0. -1.
         24    2    1    2    0    0 -0.36046679679E+02 -0.14599744627E+01 -0.45223458547E+02  0.98852694647E+02  0.80157341489E+02 0.  0.
         25    2    1    2    0    0 -0.12486151536E+02 -0.44269135535E+02  0.10176390600E+03  0.16768652262E+03  0.12508883628E+03 0.  0.
        -24    2    1    2    0    0  0.48532831215E+02  0.45729109998E+02  0.43919491796E+03  0.45130828623E+03  0.79626666695E+02 0.  0.
        -11    1    3    3    0    0 -0.16343714006E+02  0.50481961087E+01  0.22361662347E+02  0.28153955572E+02  0.00000000000E+00 0.  1.
         12    1    3    3    0    0 -0.19702965673E+02 -0.65081705714E+01 -0.67585120893E+02  0.70698739074E+02  0.00000000000E+00 0. -1.
         13    1    5    5    0    0  0.58968711341E+02  0.61052136854E+02  0.37525110835E+03  0.38473116153E+03  0.00000000000E+00 0. -1.
        -14    1    5    5    0    0 -0.10435880125E+02 -0.15323026857E+02  0.63943809609E+02  0.66577124701E+02  0.00000000000E+00 0.  1.
          5    1    4    4  501    0 -0.48548255817E+02 -0.66731299247E+02  0.92445795886E+02  0.12399071344E+03  0.41800000000E+01 0. -1.
         -5    1    4    4    0  501  0.36062104281E+02  0.22462163712E+02  0.93181101123E+01  0.43695809180E+02  0.41800000000E+01 0. -1.
</event>
<event>
11    1  0.7105277E-009  0.1750768E+03  0.7561462E-02  0.1073696E+00
         22   -1    0    0    0    0  0.00000000000E+00  0.00000000000E+00  0.25509141300E+03  0.25509141300E+03  0.00000000000E+00 0. -1.
         22   -1    0    0    0    0 -0.00000000000E+00 -0.00000000000E+00 -0.16756176344E+04  0.16756176344E+04  0.00000000000E+00 0.  1.
        -24    2    1    2    0    0 -0.15532707074E+02  0.23953331557E+02 -0.11854784863E+04  0.11885259231E+04  0.80122415211E+02 0.  0.
         25    2    1    2    0    0 -0.95707327741E+02 -0.75639830792E+02 -0.45142606356E+03  0.48405907677E+03  0.12508566008E+03 0.  0.
         24    2    1    2    0    0  0.11124003482E+03  0.51686499235E+02  0.21637832845E+03  0.25812404749E+03  0.69011617293E+02 0.  0.
        -11    1    5    5    0    0  0.72582299770E+01  0.37558317565E+00 -0.45790181316E+01  0.85901322556E+01  0.00000000000E+00 0.  1.
         12    1    5    5    0    0  0.10398180484E+03  0.51310916059E+02  0.22095734658E+03  0.24953391524E+03  0.00000000000E+00 0. -1.
         13    1    3    3    0    0  0.29646453244E+02  0.26470008015E+01 -0.25955253238E+03  0.26125358537E+03  0.00000000000E+00 0. -1.
        -14    1    3    3    0    0 -0.45179160318E+02  0.21306330755E+02 -0.92592595387E+03  0.92727233772E+03  0.00000000000E+00 0.  1.
          5    1    4    4  501    0 -0.10854309115E+03 -0.69874845169E+02 -0.45125988580E+03  0.46937943452E+03  0.41800000000E+01 0.  1.
         -5    1    4    4    0  501  0.12835763408E+02 -0.57649856232E+01 -0.16617776498E+00  0.14679642249E+02  0.41800000000E+01 0.  1.
</event>
<event>
11    1  0.7105277E-009  0.1495267E+03  0.7561462E-02  0.1097363E+00
         22   -1    0    0    0    0  0.00000000000E+00  0.00000000000E+00  0.48333352697E+03  0.48333352697E+03  0.00000000000E+00 0. -1.
         22   -1    0    0    0    0 -0.00000000000E+00 -0.00000000000E+00 -0.21204936032E+04  0.21204936032E+04  0.00000000000E+00 0.  1.
        -24    2    1    2    0    0 -0.31438468955E+02  0.77233871154E+02 -0.20615560124E+04  0.20647875523E+04  0.79881132909E+02 0.  0.
         25    2    1    2    0    0  0.52146273338E+01 -0.10493270065E+02  0.25937303521E+02  0.12828908888E+03  0.12509214826E+03 0.  0.
         24    2    1    2    0    0  0.26223841621E+02 -0.66740601090E+02  0.39845863271E+03  0.41075048901E+03  0.69315831811E+02 0.  0.
        -11    1    5    5    0    0 -0.50787252716E+01 -0.41518234224E+02  0.85100428808E+02  0.94824259590E+02  0.00000000000E+00 0.  1.
         12    1    5    5    0    0  0.31302566893E+02 -0.25222366865E+02  0.31335820390E+03  0.31592622942E+03  0.00000000000E+00 0. -1.
         11    1    3    3    0    0  0.25223260147E+02  0.91922427086E+01 -0.51367266588E+03  0.51437371419E+03  0.00000000000E+00 0. -1.
        -12    1    3    3    0    0 -0.56661729102E+02  0.68041628445E+02 -0.15478833465E+04  0.15504138381E+04  0.00000000000E+00 0.  1.
          5    1    4    4  501    0  0.13327826226E+02 -0.23284746574E+02  0.73416667774E+02  0.78277007364E+02  0.41800000000E+01 0. -1.
         -5    1    4    4    0  501 -0.81131988918E+01  0.12791476509E+02 -0.47479364253E+02  0.50012081515E+02  0.41800000000E+01 0. -1.
</event>
<event>
11    1  0.7105277E-009  0.1582616E+03  0.7561462E-02  0.1088724E+00
         22   -1    0    0    0    0  0.00000000000E+00  0.00000000000E+00  0.50719390618E+03  0.50719390618E+03  0.00000000000E+00 0. -1.
         22   -1    0    0    0    0 -0.00000000000E+00 -0.00000000000E+00 -0.22877114434E+03  0.22877114434E+03  0.00000000000E+00 0. -1.
         24    2    1    2    0    0 -0.87263912794E+02  0.14437526670E+02 -0.12044502094E+03  0.16929229301E+03  0.79557807598E+02 0.  0.
         25    2    1    2    0    0  0.13050359378E+03 -0.36633512752E+02  0.31169112900E+02  0.18706024803E+03  0.12508725173E+03 0.  0.
        -24    2    1    2    0    0 -0.43239680988E+02  0.22195986082E+02  0.36769866988E+03  0.37961250949E+03  0.80876533818E+02 0.  0.
        -11    1    3    3    0    0  0.34196800266E-01 -0.11662254326E+02  0.62529763658E+01  0.13232877949E+02  0.00000000000E+00 0.  1.
         12    1    3    3    0    0 -0.87298109595E+02  0.26099780996E+02 -0.12669799731E+03  0.15605941506E+03  0.00000000000E+00 0. -1.
         13    1    5    5    0    0 -0.37130142138E+02  0.46987644046E+02  0.16934993559E+03  0.17962707711E+03  0.00000000000E+00 0. -1.
        -14    1    5    5    0    0 -0.61095388501E+01 -0.24791657964E+02  0.19834873430E+03  0.19998543238E+03  0.00000000000E+00 0.  1.
          5    1    4    4  501    0  0.11814854118E+03 -0.36441167591E+02 -0.27690493048E+02  0.12677252180E+03  0.41800000000E+01 0.  1.
         -5    1    4    4    0  501  0.12355052607E+02 -0.19234516053E+00  0.58859605948E+02  0.60287726230E+02  0.41800000000E+01 0.  1.
</event>
<event>
11    1  0.7105277E-009  0.1530770E+03  0.7561462E-02  0.1093776E+00
         22   -1    0    0    0    0  0.00000000000E+00  0.00000000000E+00  0.29472679760E+03  0.29472679760E+03  0.00000000000E+00 0.  1.
         22   -1    0    0    0    0 -0.00000000000E+00 -0.00000000000E+00 -0.45685889834E+03  0.45685889834E+03  0.00000000000E+00 0. -1.
         24    2    1    2    0    0  0.66274218924E+02 -0.60765065526E+02 -0.33781961769E+03  0.35873232919E+03  0.80511642773E+02 0.  0.
         25    2    1    2    0    0 -0.78881033438E+02  0.29771681395E+02 -0.43879031045E+02  0.15710302316E+03  0.12508964814E+03 0.  0.
        -24    2    1    2    0    0  0.12606814514E+02  0.30993384131E+02  0.21956654799E+03  0.23575034360E+03  0.79052095969E+02 0.  0.
        -11    1    3    3    0    0 -0.85287036174E+01 -0.42847508707E+02 -0.12894435119E+03  0.13614438473E+03  0.00000000000E+00 0.  1.
         12    1    3    3    0    0  0.74802922542E+02 -0.17917556818E+02 -0.20887526650E+03  0.22258794446E+03  0.00000000000E+00 0. -1.
         11    1    5    5    0    0  0.34462530648E+02  0.18484023643E+02  0.46044191444E+02  0.60410203728E+02  0.00000000000E+00 0. -1.
        -12    1    5    5    0    0 -0.21855716134E+02  0.12509360488E+02  0.17352235655E+03  0.17534013987E+03  0.00000000000E+00 0.  1.
          5    1    4    4  501    0 -0.91580322039E+02 -0.23573931512E+02 -0.37192016347E+02  0.10170252756E+03  0.41800000000E+01 0. -1.
         -5    1    4    4    0  501  0.12699288600E+02  0.53345612906E+02 -0.66870146980E+01  0.55400495601E+02  0.41800000000E+01 0. -1.
</event>
<event>
11    1  0.7105277E-009  0.2841211E+03  0.7561462E-02  0.1007145E+00
         22   -1    0    0    0    0  0.00000000000E+00  0.00000000000E+00  0.23723371110E+03  0.23723371110E+03  0.00000000000E+00 0. -1.
         22   -1    0    0    0    0 -0.00000000000E+00 -0.00000000000E+00 -0.72747845061E+03  0.72747845061E+03  0.00000000000E+00 0.  1.
        -24    2    1    2    0    0 -0.21073472624E+02 -0.36174098253E+02 -0.36414960858E+03  0.37576202604E+03  0.82701306816E+02 0.  0.
         25    2    1    2    0    0  0.23314839964E+03  0.15325656033E+03 -0.12945449206E+03  0.33204135874E+03  0.12508896378E+03 0.  0.
         24    2    1    2    0    0 -0.21207492702E+03 -0.11708246207E+03  0.33593611352E+01  0.25690877693E+03  0.85479569275E+02 0.  0.
        -13    1    5    5    0    0 -0.59621883206E+02 -0.27865975959E+02 -0.37303419935E+02  0.75649366898E+02  0.00000000000E+00 0.  1.
         14    1    5    5    0    0 -0.15245304381E+03 -0.89216486115E+02  0.40662781071E+02  0.18125941003E+03  0.00000000000E+00 0. -1.
         11    1    3    3    0    0  0.22622589862E+02  0.23490334056E+01 -0.36737274363E+02  0.43207949010E+02  0.00000000000E+00 0. -1.
        -12    1    3    3    0    0 -0.43696062486E+02 -0.38523131658E+02 -0.32741233422E+03  0.33255407703E+03  0.00000000000E+00 0.  1.
          5    1    4    4  501    0 -0.84127326648E+01  0.12326458416E+02  0.11052468026E+02  0.19035364389E+02  0.41800000000E+01 0.  1.
         -5    1    4    4    0  501  0.24156113231E+03  0.14093010191E+03 -0.14050696009E+03  0.31300599435E+03  0.41800000000E+01 0.  1.
</event>
<event>
11    1  0.7105277E-009  0.2000725E+03  0.7561462E-02  0.1054472E+00
         22   -1    0    0    0    0  0.00000000000E+00  0.00000000000E+00  0.17533703310E+04  0.17533703310E+04  0.00000000000E+00 0. -1.
         22   -1    0    0    0    0 -0.00000000000E+00 -0.00000000000E+00 -0.28105464434E+03  0.28105464434E+03  0.00000000000E+00 0.  1.
         24    2    1    2    0    0 -0.36207085339E+02 -0.12266697130E+02 -0.17397740781E+03  0.19593328007E+03  0.81610580940E+02 0.  0.
         25    2    1    2    0    0  0.94958020031E+01 -0.14241366081E+03  0.64207807462E+01  0.18989372989E+03  0.12508629496E+03 0.  0.
        -24    2    1    2    0    0  0.26711283336E+02  0.15468035794E+03  0.16398723137E+04  0.16485979654E+04  0.63675272682E+02 0.  0.
        -11    1    3    3    0    0 -0.25895191483E+02  0.32676253539E+02 -0.10487841845E+03  0.11286177893E+03  0.00000000000E+00 0.  1.
         12    1    3    3    0    0 -0.10311893856E+02 -0.44942950670E+02 -0.69098989366E+02  0.83071501137E+02  0.00000000000E+00 0. -1.
         13    1    5    5    0    0  0.46381022956E+02  0.83187884068E+02  0.92317596555E+03  0.92807612118E+03  0.00000000000E+00 0. -1.
        -14    1    5    5    0    0 -0.19669739619E+02  0.71492473870E+02  0.71669634819E+03  0.72052184421E+03  0.00000000000E+00 0.  1.
          5    1    4    4  501    0  0.26336438125E+02 -0.70227119714E+02 -0.55354297837E+02  0.93311451631E+02  0.41800000000E+01 0.  1.
         -5    1    4    4    0  501 -0.16840636122E+02 -0.72186541093E+02  0.61775078584E+02  0.96582278261E+02  0.41800000000E+01 0.  1.
</event>
<event>
11    1  0.7105277E-009  0.1282533E+03  0.7561462E-02  0.1121434E+00
         22   -1    0    0    0    0  0.00000000000E+00  0.00000000000E+00  0.53129320597E+03  0.53129320597E+03  0.00000000000E+00 0. -1.
         22   -1    0    0    0    0 -0.00000000000E+00 -0.00000000000E+00 -0.19900205359E+03  0.19900205359E+03  0.00000000000E+00 0. -1.
        -24    2    1    2    0    0 -0.23528174936E+02  0.36833521116E+01 -0.79321426884E+02  0.11849022493E+03  0.84740206174E+02 0.  0.
         25    2    1    2    0    0  0.37381184695E+02 -0.97105995097E+01 -0.51995864688E+02  0.14086381326E+03  0.12508954884E+03 0.  0.
         24    2    1    2    0    0 -0.13853009759E+02  0.60272473981E+01  0.46360844395E+03  0.47094122137E+03  0.81391713947E+02 0.  0.
        -13    1    5    5    0    0 -0.42412754075E+02  0.26936238701E+01  0.14672068307E+03  0.15275161589E+03  0.00000000000E+00 0.  1.
         14    1    5    5    0    0  0.28559744316E+02  0.33336235280E+01  0.31688776088E+03  0.31818960549E+03  0.00000000000E+00 0. -1.
         11    1    3    3    0    0 -0.45495899250E+02  0.28740205014E+02 -0.56957083826E+02  0.78358060407E+02  0.00000000000E+00 0. -1.
        -12    1    3    3    0    0  0.21967724314E+02 -0.25056852902E+02 -0.22364343059E+02  0.40132164523E+02  0.00000000000E+00 0.  1.
          5    1    4    4  501    0  0.39929961479E+02  0.47891344848E+02 -0.54614126700E+02  0.82994927376E+02  0.41800000000E+01 0.  1.
         -5    1    4    4    0  501 -0.25487767842E+01 -0.57601944358E+02  0.26182620119E+01  0.57868885879E+02  0.41800000000E+01 0.  1.
</event>
<event>
11    1  0.7105277E-009  0.1454940E+03  0.7561462E-02  0.1101574E+00
         22   -1    0    0    0    0  0.00000000000E+00  0.00000000000E+00  0.52477787054E+03  0.52477787054E+03  0.00000000000E+00 0.  1.
         22   -1    0    0    0    0 -0.00000000000E+00 -0.00000000000E+00 -0.37483559844E+03  0.37483559844E+03  0.00000000000E+00 0.  1.
        -24    2    1    2    0    0  0.67352427951E+02  0.19971752905E+02 -0.31050059528E+03  0.32852053591E+03  0.81116597445E+02 0.  0.
         25    2    1    2    0    0  0.14080930739E+02 -0.36104437757E+02  0.42917495688E+02  0.13780790165E+03  0.12508918133E+03 0.  0.
         24    2    1    2    0    0 -0.81433358690E+02  0.16132684852E+02  0.41752537169E+03  0.43328503142E+03  0.80726866745E+02 0.  0.
        -11    1    5    5    0    0 -0.81888092550E+02  0.21072679350E+02  0.21988689592E+03  0.23558430447E+03  0.00000000000E+00 0.  1.
         12    1    5    5    0    0  0.45473385983E+00 -0.49399944985E+01  0.19763847577E+03  0.19770072694E+03  0.00000000000E+00 0. -1.
         11    1    3    3    0    0  0.27483919935E+02  0.16045934487E+02 -0.25672918207E+02  0.40889321317E+02  0.00000000000E+00 0. -1.
        -12    1    3    3    0    0  0.39868508016E+02  0.39258184185E+01 -0.28482767707E+03  0.28763121459E+03  0.00000000000E+00 0.  1.
          5    1    4    4  501    0 -0.27921310916E+02 -0.40840506212E+02 -0.26611961623E+02  0.56331300823E+02  0.41800000000E+01 0.  1.
         -5    1    4    4    0  501  0.42002241655E+02  0.47360684548E+01  0.69529457312E+02  0.81476600828E+02  0.41800000000E+01 0.  1.
</event>
<event>
11    1  0.7105277E-009  0.2034115E+03  0.7561462E-02  0.1052137E+00
         22   -1    0    0    0    0  0.00000000000E+00  0.00000000000E+00  0.20836968680E+04  0.20836968680E+04  0.00000000000E+00 0.  1.
         22   -1    0    0    0    0 -0.00000000000E+00 -0.00000000000E+00 -0.49520217017E+03  0.49520217017E+03  0.00000000000E+00 0.  1.
         24    2    1    2    0    0  0.12236902249E+03 -0.10259675642E+03 -0.43187925745E+03  0.46739592058E+03  0.80243264287E+02 0.  0.
         25    2    1    2    0    0 -0.13214510820E+03  0.10760372896E+03  0.20485536232E+03  0.29437206710E+03  0.12509317450E+03 0.  0.
        -24    2    1    2    0    0  0.97760857089E+01 -0.50069725402E+01  0.18155185930E+04  0.18171310505E+04  0.75742007324E+02 0.  0.
        -13    1    3    3    0    0  0.68625417038E+02 -0.22139241761E+02 -0.26358553602E+03  0.27327079736E+03  0.00000000000E+00 0.  1.
         14    1    3    3    0    0  0.53743605452E+02 -0.80457514662E+02 -0.16829372143E+03  0.19412512322E+03  0.00000000000E+00 0. -1.
         13    1    5    5    0    0 -0.16798100994E+02 -0.29678969823E+02  0.52697394826E+03  0.52807628198E+03  0.00000000000E+00 0. -1.
        -14    1    5    5    0    0  0.26574186703E+02  0.24671997283E+02  0.12885446447E+04  0.12890547685E+04  0.00000000000E+00 0.  1.
          5    1    4    4  501    0 -0.51658516169E+01 -0.21446503481E+02  0.21505023872E+01  0.22555167811E+02  0.41800000000E+01 0.  1.
         -5    1    4    4    0  501 -0.12697925658E+03  0.12905023244E+03  0.20270485993E+03  0.27181689929E+03  0.41800000000E+01 0.  1.
</event>
<event>
11    1  0.7105277E-009  0.1667153E+03  0.7561462E-02  0.1080926E+00
         22   -1    0    0    0    0  0.00000000000E+00  0.00000000000E+00  0.90159679827E+03  0.90159679827E+03  0.00000000000E+00 0.  1.
         22   -1    0    0    0    0 -0.00000000000E+00 -0.00000000000E+00 -0.73493055295E+03  0.73493055295E+03  0.00000000000E+00 0.  1.
         24    2    1    2    0    0  0.38405346266E+02  0.82681424016E+01 -0.60889674119E+03  0.61543516713E+03  0.80385761896E+02 0.  0.
         25    2    1    2    0    0 -0.50429021787E+02 -0.11707688726E+03 -0.46755310985E+02  0.18461888748E+03  0.12509192915E+03 0.  0.
        -24    2    1    2    0    0  0.12023675520E+02  0.10880874486E+03  0.82231829750E+03  0.83647329661E+03  0.10722071542E+03 0.  0.
        -13    1    3    3    0    0  0.22333632296E+02 -0.33669335610E+02 -0.38240930996E+03  0.38453776880E+03  0.00000000000E+00 0.  1.
         14    1    3    3    0    0  0.16071713970E+02  0.41937478011E+02 -0.22648743123E+03  0.23089739833E+03  0.00000000000E+00 0. -1.
         11    1    5    5    0    0  0.41885954628E+02  0.11482251474E+03  0.68477456570E+03  0.69559675740E+03  0.00000000000E+00 0. -1.
        -12    1    5    5    0    0 -0.29862279108E+02 -0.60137698759E+01  0.13754373180E+03  0.14087653921E+03  0.00000000000E+00 0.  1.
          5    1    4    4  501    0  0.10873346387E+02 -0.11273862119E+03 -0.47815038108E+02  0.12301209956E+03  0.41800000000E+01 0. -1.
         -5    1    4    4    0  501 -0.61302368173E+02 -0.43382660772E+01  0.10597271230E+01  0.61606787920E+02  0.41800000000E+01 0. -1.
</event>
<event>
11    1  0.7105277E-009  0.1902506E+03  0.7561462E-02  0.1061640E+00
         22   -1    0    0    0    0  0.00000000000E+00  0.00000000000E+00  0.71647222362E+03  0.71647222362E+03  0.00000000000E+00 0. -1.
         22   -1    0    0    0    0 -0.00000000000E+00 -0.00000000000E+00 -0.27438639975E+03  0.27438639975E+03  0.00000000000E+00 0. -1.
         24    2    1    2    0    0  0.83511036173E+02 -0.35430059724E+02 -0.20808391914E+03  0.24072703014E+03  0.80132411296E+02 0.  0.
         25    2    1    2    0    0 -0.97723187601E+02 -0.11364521691E+03  0.26497052039E+03  0.32912316996E+03  0.12509047770E+03 0.  0.
        -24    2    1    2    0    0  0.14212151428E+02  0.14907527663E+03  0.38519922262E+03  0.42100842327E+03  0.80275949093E+02 0.  0.
        -13    1    3    3    0    0 -0.10076642978E+01 -0.34082657545E+01  0.67648422668E+01  0.76416460062E+01  0.00000000000E+00 0.  1.
         14    1    3    3    0    0  0.84518700471E+02 -0.32021793970E+02 -0.21484876141E+03  0.23308538413E+03  0.00000000000E+00 0. -1.
         13    1    5    5    0    0 -0.22755894517E+02  0.10071606496E+03  0.29174794983E+03  0.30948089231E+03  0.00000000000E+00 0. -1.
        -14    1    5    5    0    0  0.36968045946E+02  0.48359211674E+02  0.93451272791E+02  0.11152753096E+03  0.00000000000E+00 0.  1.
          5    1    4    4  501    0 -0.51003833784E+02 -0.12790351393E+03  0.23273016018E+03  0.27044685207E+03  0.41800000000E+01 0. -1.
         -5    1    4    4    0  501 -0.46719353818E+02  0.14258297021E+02  0.32240360201E+02  0.58676317889E+02  0.41800000000E+01 0. -1.
</event>
<event>
11    1  0.7105277E-009  0.2041215E+03  0.7561462E-02  0.1051647E+00
         22   -1    0    0    0    0  0.00000000000E+00  0.00000000000E+00  0.24471554025E+04  0.24471554025E+04  0.00000000000E+00 0. -1.
         22   -1    0    0    0    0 -0.00000000000E+00 -0.00000000000E+00 -0.17260241937E+03  0.17260241937E+03  0.00000000000E+00 0.  1.
         24    2    1    2    0    0  0.16184152286E+02 -0.26912234579E+02 -0.12839183212E+03  0.15527305075E+03  0.81480442928E+02 0.  0.
         25    2    1    2    0    0  0.11543565320E+03 -0.72684139673E+02  0.29274642395E+03  0.34634672961E+03  0.12508882517E+03 0.  0.
        -24    2    1    2    0    0 -0.13161980549E+03  0.99596374252E+02  0.21101983913E+04  0.21181380415E+04  0.79550621226E+02 0.  0.
        -11    1    3    3    0    0  0.18131880913E+02  0.22025034688E+02 -0.85625643535E+02  0.90253078004E+02  0.00000000000E+00 0.  1.
         12    1    3    3    0    0 -0.19477286276E+01 -0.48937269267E+02 -0.42766188583E+02  0.65019972747E+02  0.00000000000E+00 0. -1.
         13    1    5    5    0    0 -0.12677684242E+03  0.56310115193E+02  0.16922555141E+04  0.16979316599E+04  0.00000000000E+00 0. -1.
        -14    1    5    5    0    0 -0.48429630683E+01  0.43286259059E+02  0.41794287716E+03  0.42020638154E+03  0.00000000000E+00 0.  1.
          5    1    4    4  501    0  0.53749189047E+02 -0.22368549930E+02  0.24832217027E+03  0.25508959210E+03  0.41800000000E+01 0. -1.
         -5    1    4    4    0  501  0.61686464157E+02 -0.50315589743E+02  0.44424253682E+02  0.91257137510E+02  0.41800000000E+01 0. -1.
</event>
<event>
11    1  0.7105277E-009  0.1382943E+03  0.7561462E-02  0.1109478E+00
         22   -1    0    0    0    0  0.00000000000E+00  0.00000000000E+00  0.26641290571E+03  0.26641290571E+03  0.00000000000E+00 0.  1.
         22   -1    0    0    0    0 -0.00000000000E+00 -0.00000000000E+00 -0.61042903214E+03  0.61042903214E+03  0.00000000000E+00 0.  1.
        -24    2    1    2    0    0 -0.15659336292E+02 -0.29529668366E+02 -0.36449965089E+03  0.37455619320E+03  0.79467793708E+02 0.  0.
         25    2    1    2    0    0 -0.36182359093E+02  0.57587424353E+02 -0.20968489729E+03  0.25345762946E+03  0.12509012441E+03 0.  0.
         24    2    1    2    0    0  0.51841695385E+02 -0.28057755987E+02  0.23016842174E+03  0.24882811520E+03  0.73912985973E+02 0.  0.
        -11    1    5    5    0    0  0.22603678271E+02 -0.40468215091E+02  0.19899918773E+03  0.20432640412E+03  0.00000000000E+00 0.  1.
         12    1    5    5    0    0  0.29238017114E+02  0.12410459105E+02  0.31169234007E+02  0.44501711074E+02  0.00000000000E+00 0. -1.
         11    1    3    3    0    0 -0.44304677054E+02  0.38098909842E+00 -0.16840507666E+03  0.17413592222E+03  0.00000000000E+00 0. -1.
        -12    1    3    3    0    0  0.28645340763E+02 -0.29910657465E+02 -0.19609457423E+03  0.20042027098E+03  0.00000000000E+00 0.  1.
          5    1    4    4  501    0  0.46588941316E+02  0.20208606238E+02 -0.65212698950E+02  0.82759203255E+02  0.41800000000E+01 0. -1.
         -5    1    4    4    0  501 -0.82771300409E+02  0.37378818115E+02 -0.14447219834E+03  0.17069842620E+03  0.41800000000E+01 0. -1.
</event>
<event>
11    1  0.7105277E-009  0.1811076E+03  0.7561462E-02  0.1068750E+00
         22   -1    0    0    0    0  0.00000000000E+00  0.00000000000E+00  0.66566161214E+03  0.66566161214E+03  0.00000000000E+00 0. -1.
         22   -1    0    0    0    0 -0.00000000000E+00 -0.00000000000E+00 -0.12776030615E+04  0.12776030615E+04  0.00000000000E+00 0. -1.
        -24    2    1    2    0    0  0.89316708389E+02 -0.44826678447E+02 -0.11297190082E+04  0.11364569437E+04  0.72680409761E+02 0.  0.
         25    2    1    2    0    0 -0.93353208200E+02  0.17237907266E+03 -0.34463160249E+02  0.23508827787E+03  0.12509765308E+03 0.  0.
         24    2    1    2    0    0  0.40364998107E+01 -0.12755239421E+03  0.55224071908E+03  0.57171945206E+03  0.74882664553E+02 0.  0.
        -11    1    5    5    0    0  0.24361216240E+02 -0.65596815819E+01  0.99730911057E+02  0.10287250799E+03  0.00000000000E+00 0.  1.
         12    1    5    5    0    0 -0.20324716429E+02 -0.12099271263E+03  0.45250980802E+03  0.46884694407E+03  0.00000000000E+00 0. -1.
         13    1    3    3    0    0  0.10143174457E+03 -0.43301347217E+02 -0.10547091217E+04  0.10604596818E+04  0.00000000000E+00 0. -1.
        -14    1    3    3    0    0 -0.12115036183E+02 -0.15253312294E+01 -0.75009886505E+02  0.75997261862E+02  0.00000000000E+00 0.  1.
          5    1    4    4  501    0 -0.26461052510E+02  0.10719385894E+03  0.37954887557E+02  0.11682789301E+03  0.41800000000E+01 0.  1.
         -5    1    4    4    0  501 -0.66892155690E+02  0.65185213718E+02 -0.72418047806E+02  0.11826038486E+03  0.41800000000E+01 0.  1.
</event>
<event>
11    1  0.7105277E-009  0.2128818E+03  0.7561462E-02  0.1045770E+00
         22   -1    0    0    0    0  0.00000000000E+00  0.00000000000E+00  0.18926119330E+04  0.18926119330E+04  0.00000000000E+00 0.  1.
         22   -1    0    0    0    0 -0.00000000000E+00 -0.00000000000E+00 -0.23447494120E+03  0.23447494120E+03  0.00000000000E+00 0.  1.
         24    2    1    2    0    0  0.36881184534E+02  0.88339377514E+02 -0.18760230451E+03  0.22522190126E+03  0.79788550294E+02 0.  0.
         25    2    1    2    0    0  0.49215680617E+02  0.88896545949E+02  0.29133940013E+03  0.33292517039E+03  0.12504296826E+03 0.  0.
        -24    2    1    2    0    0 -0.86096865151E+02 -0.17723592346E+03  0.15543998962E+04  0.15689398026E+04  0.81165411364E+02 0.  0.
        -13    1    3    3    0    0  0.19106968277E+02  0.37926366737E+02 -0.15904541591E+03  0.16461752596E+03  0.00000000000E+00 0.  1.
         14    1    3    3    0    0  0.17774216257E+02  0.50413010777E+02 -0.28556888597E+02  0.60604375300E+02  0.00000000000E+00 0. -1.
         11    1    5    5    0    0 -0.39224173275E+02 -0.19120023902E+02  0.21174409356E+03  0.21619359899E+03  0.00000000000E+00 0. -1.
        -12    1    5    5    0    0 -0.46872691876E+02 -0.15811589956E+03  0.13426558026E+04  0.13527462036E+04  0.00000000000E+00 0.  1.
          5    1    4    4  501    0  0.81359646405E+02  0.69026249385E+02  0.26756369261E+03  0.28808300396E+03  0.41800000000E+01 0. -1.
         -5    1    4    4    0  501 -0.32143965787E+02  0.19870296564E+02  0.23775707517E+02  0.44842166428E+02  0.41800000000E+01 0. -1.
</event>
<event>
11    1  0.7105277E-009  0.3099133E+03  0.7561462E-02  0.9960808E-01
         22   -1    0    0    0    0  0.00000000000E+00  0.00000000000E+00  0.13112619327E+04  0.13112619327E+04  0.00000000000E+00 0. -1.
         22   -1    0    0    0    0 -0.00000000000E+00 -0.00000000000E+00 -0.18391383630E+03  0.18391383630E+03  0.00000000000E+00 0.  1.
         24    2    1    2    0    0  0.27768927532E+03 -0.10463295144E+03  0.66854649745E+02  0.31484447937E+03  0.81228774712E+02 0.  0.
         25    2    1    2    0    0 -0.26379408144E+03  0.18769271836E+02  0.33142679359E+03  0.44207593050E+03  0.12509119015E+03 0.  0.
        -24    2    1    2    0    0 -0.13895193881E+02  0.85863679605E+02  0.72906665307E+03  0.73825535912E+03  0.76922966469E+02 0.  0.
        -13    1    3    3    0    0  0.23194686274E+03 -0.56059426431E+02  0.67959393033E+02  0.24811385598E+03  0.00000000000E+00 0.  1.
         14    1    3    3    0    0  0.45742412585E+02 -0.48573525010E+02 -0.11047432876E+01  0.66730623395E+02  0.00000000000E+00 0. -1.
         13    1    5    5    0    0  0.75350871832E+01  0.91675854808E+02  0.63348221561E+03  0.64012573560E+03  0.00000000000E+00 0. -1.
        -14    1    5    5    0    0 -0.21430281065E+02 -0.58121752033E+01  0.95584437463E+02  0.98129623520E+02  0.00000000000E+00 0.  1.
          5    1    4    4  501    0 -0.52950388128E+02 -0.44017377557E+02  0.51844057144E+02  0.86293405258E+02  0.41800000000E+01 0.  1.
         -5    1    4    4    0  501 -0.21084369331E+03  0.62786649393E+02  0.27958273645E+03  0.35578252525E+03  0.41800000000E+01 0.  1.
</event>
<event>
11    1  0.7105277E-009  0.5059529E+03  0.7561462E-02  0.9380317E-01
         22   -1    0    0    0    0  0.00000000000E+00  0.00000000000E+00  0.64087477922E+03  0.64087477922E+03  0.00000000000E+00 0.  1.
         22   -1    0    0    0    0 -0.00000000000E+00 -0.00000000000E+00 -0.13546265222E+04  0.13546265222E+04  0.00000000000E+00 0.  1.
         24    2    1    2    0    0  0.29452619234E+03 -0.12144318821E+03 -0.69964148547E+03  0.77304963947E+03  0.81322880890E+02 0.  0.
         25    2    1    2    0    0  0.10899210565E+02 -0.11333948785E+03 -0.53982358147E+03  0.56570425939E+03  0.12508867926E+03 0.  0.
        -24    2    1    2    0    0 -0.30542540291E+03  0.23478267606E+03  0.52571332396E+03  0.65674740257E+03  0.80839780239E+02 0.  0.
        -13    1    3    3    0    0  0.21637745058E+03 -0.11179536213E+03 -0.45550756941E+03  0.51653126712E+03  0.00000000000E+00 0.  1.
         14    1    3    3    0    0  0.78148741761E+02 -0.96478260790E+01 -0.24413391606E+03  0.25651837236E+03  0.00000000000E+00 0. -1.
         11    1    5    5    0    0 -0.14922874983E+02  0.59558044659E+01  0.59753141712E+02  0.61875695948E+02  0.00000000000E+00 0. -1.
        -12    1    5    5    0    0 -0.29050252793E+03  0.22882687159E+03  0.46596018225E+03  0.59487170662E+03  0.00000000000E+00 0.  1.
          5    1    4    4  501    0 -0.10490332730E+01 -0.13823949536E+03 -0.40341202387E+03  0.42646218115E+03  0.41800000000E+01 0.  1.
         -5    1    4    4    0  501  0.11948243838E+02  0.24900007506E+02 -0.13641155760E+03  0.13924207824E+03  0.41800000000E+01 0.  1.
</event>
<event>
11    1  0.9793445E-009  0.1494001E+03  0.7561462E-02  0.1097493E+00
         22   -1    0    0    0    0  0.00000000000E+00  0.00000000000E+00  0.54340289956E+03  0.54340289956E+03  0.00000000000E+00 0.  1.
         22   -1    0    0    0    0 -0.00000000000E+00 -0.00000000000E+00 -0.82436758607E+03  0.82436758607E+03  0.00000000000E+00 0.  1.
        -24    2    1    2    0    0 -0.75066948053E+02 -0.28335605934E+02 -0.57660997777E+03  0.58759473978E+03  0.79690391515E+02 0.  0.
         25    2    1    2    0    0  0.56103703538E+02  0.91936568475E+02 -0.20823645341E+03  0.26572533142E+03  0.12509025965E+03 0.  0.
         24    2    1    2    0    0  0.18963244515E+02 -0.63600962540E+02  0.50388174467E+03  0.51445041442E+03  0.79735369913E+02 0.  0.
        -13    1    5    5    0    0  0.18371932627E+02 -0.55913964329E+02  0.50328832013E+03  0.50671790229E+03  0.00000000000E+00 0.  1.
         14    1    5    5    0    0  0.59131188769E+00 -0.76869982116E+01  0.59342453074E+00  0.77325121356E+01  0.00000000000E+00 0. -1.
         13    1    3    3    0    0 -0.20707833766E+02 -0.23282168403E+02 -0.55627402735E+02  0.63759561478E+02  0.00000000000E+00 0. -1.
        -14    1    3    3    0    0 -0.54359114287E+02 -0.50534375319E+01 -0.52098257503E+03  0.52383517830E+03  0.00000000000E+00 0.  1.
          5    1    4    4  501    0  0.53511371592E+02  0.50044415639E+01 -0.15395495324E+03  0.16311992935E+03  0.41800000000E+01 0. -1.
         -5    1    4    4    0  501  0.25923319460E+01  0.86932126911E+02 -0.54281500168E+02  0.10260540207E+03  0.41800000000E+01 0. -1.
</event>
<event>
11    1  0.7105277E-009  0.1357133E+03  0.7561462E-02  0.1112442E+00
         22   -1    0    0    0    0  0.00000000000E+00  0.00000000000E+00  0.13379827510E+04  0.13379827510E+04  0.00000000000E+00 0. -1.
         22   -1    0    0    0    0 -0.00000000000E+00 -0.00000000000E+00 -0.10990622536E+03  0.10990622536E+03  0.00000000000E+00 0.  1.
        -24    2    1    2    0    0  0.53794864317E+01  0.51452712860E+02 -0.68218644709E+02  0.11700854256E+03  0.79755219331E+02 0.  0.
         25    2    1    2    0    0 -0.47718604827E+02 -0.59565581591E+02  0.33951119956E+03  0.36978912913E+03  0.12510404325E+03 0.  0.
         24    2    1    2    0    0  0.42339118396E+02  0.81128687310E+01  0.95678397081E+03  0.96109130469E+03  0.80015683332E+02 0.  0.
        -11    1    5    5    0    0 -0.82255767106E+01 -0.24487982561E+02  0.16338920865E+03  0.16541872599E+03  0.00000000000E+00 0.  1.
         12    1    5    5    0    0  0.50564695106E+02  0.32600851292E+02  0.79339476215E+03  0.79567257871E+03  0.00000000000E+00 0. -1.
         13    1    3    3    0    0  0.10859053769E+02  0.46125112107E+02  0.97298119856E+00  0.47396114904E+02  0.00000000000E+00 0. -1.
        -14    1    3    3    0    0 -0.54795673371E+01  0.53276007532E+01 -0.69191625908E+02  0.69612427653E+02  0.00000000000E+00 0.  1.
          5    1    4    4  501    0 -0.54044292930E+02 -0.68354889765E+02  0.34576723334E+03  0.35660290045E+03  0.41800000000E+01 0. -1.
         -5    1    4    4    0  501  0.63256881026E+01  0.87893081739E+01 -0.62560337825E+01  0.13186228681E+02  0.41800000000E+01 0. -1.
</event>
<event>
11    1  0.7105277E-009  0.1693486E+03  0.7561462E-02  0.1078600E+00
         22   -1    0    0    0    0  0.00000000000E+00  0.00000000000E+00  0.56681750970E+03  0.56681750970E+03  0.00000000000E+00 0.  1.
         22   -1    0    0    0    0 -0.00000000000E+00 -0.00000000000E+00 -0.20879319453E+03  0.20879319453E+03  0.00000000000E+00 0. -1.
        -24    2    1    2    0    0 -0.77959035672E+02 -0.40851514947E+02 -0.98217460338E+02  0.15286822495E+03  0.77301792790E+02 0.  0.
         25    2    1    2    0    0  0.51537335384E+02  0.14824911120E+03  0.68991116782E+02  0.21222248452E+03  0.12507882648E+03 0.  0.
         24    2    1    2    0    0  0.26421700288E+02 -0.10739759625E+03  0.38725065872E+03  0.41051999475E+03  0.79569111342E+02 0.  0.
        -11    1    5    5    0    0  0.50037906055E+02 -0.96703353819E+02  0.28664918956E+03  0.30663184531E+03  0.00000000000E+00 0.  1.
         12    1    5    5    0    0 -0.23616205767E+02 -0.10694242430E+02  0.10060146916E+03  0.10388814944E+03  0.00000000000E+00 0. -1.
         13    1    3    3    0    0 -0.79461581657E+02 -0.29529387716E+02 -0.40349700041E+02  0.93884109368E+02  0.00000000000E+00 0. -1.
        -14    1    3    3    0    0  0.15025459859E+01 -0.11322127230E+02 -0.57867760297E+02  0.58984115584E+02  0.00000000000E+00 0.  1.
          5    1    4    4  501    0 -0.13373017762E+02  0.47747250162E+02 -0.28932146367E+02  0.57560220599E+02  0.41800000000E+01 0. -1.
         -5    1    4    4    0  501  0.64910353146E+02  0.10050186103E+03  0.97923263149E+02  0.15466226393E+03  0.41800000000E+01 0. -1.
</event>
<event>
11    1  0.7105277E-009  0.1432585E+03  0.7561462E-02  0.1103973E+00
         22   -1    0    0    0    0  0.00000000000E+00  0.00000000000E+00  0.10813614774E+04  0.10813614774E+04  0.00000000000E+00 0. -1.
         22   -1    0    0    0    0 -0.00000000000E+00 -0.00000000000E+00 -0.13605956186E+04  0.13605956186E+04  0.00000000000E+00 0.  1.
         24    2    1    2    0    0  0.22865529136E+02 -0.52768443119E+02 -0.13358798526E+04  0.13394911894E+04  0.79714017877E+02 0.  0.
         25    2    1    2    0    0  0.82948060768E+01  0.10491023518E+03  0.36780522399E+03  0.40249638221E+03  0.12509074164E+03 0.  0.
        -24    2    1    2    0    0 -0.31160335213E+02 -0.52141792062E+02  0.68884048746E+03  0.69996952449E+03  0.10847296936E+03 0.  0.
        -13    1    3    3    0    0  0.88233204548E+01 -0.65153140697E+02 -0.12432883323E+04  0.12450255660E+04  0.00000000000E+00 0.  1.
         14    1    3    3    0    0  0.14042208681E+02  0.12384697579E+02 -0.92591520366E+02  0.94465623390E+02  0.00000000000E+00 0. -1.
         11    1    5    5    0    0  0.27769196495E+02 -0.57436880708E+02  0.40866404202E+03  0.41361385709E+03  0.00000000000E+00 0. -1.
        -12    1    5    5    0    0 -0.58929531708E+02  0.52950886459E+01  0.28017644544E+03  0.28635566740E+03  0.00000000000E+00 0.  1.
          5    1    4    4  501    0  0.55009592784E+02  0.37049667180E+02  0.84933790372E+02  0.10784226576E+03  0.41800000000E+01 0. -1.
         -5    1    4    4    0  501 -0.46714786707E+02  0.67860568001E+02  0.28287143362E+03  0.29465411646E+03  0.41800000000E+01 0. -1.
</event>
<event>
11    1  0.7105277E-009  0.1287424E+03  0.7561462E-02  0.1120824E+00
         22   -1    0    0    0    0  0.00000000000E+00  0.00000000000E+00  0.40505675985E+03  0.40505675985E+03  0.00000000000E+00 0.  1.
         22   -1    0    0    0    0 -0.00000000000E+00 -0.00000000000E+00 -0.38573856807E+03  0.38573856807E+03  0.00000000000E+00 0.  1.
        -24    2    1    2    0    0 -0.12480678390E+02  0.27660923941E+02 -0.34694748533E+03  0.35715694835E+03  0.79168390960E+02 0.  0.
         25    2    1    2    0    0  0.38896109499E+02 -0.13079151158E+02  0.14291529741E+03  0.19430925987E+03  0.12508930693E+03 0.  0.
         24    2    1    2    0    0 -0.26415431109E+02 -0.14581772783E+02  0.22335037969E+03  0.23932911970E+03  0.80514795721E+02 0.  0.
        -11    1    5    5    0    0 -0.52030799985E+02 -0.13710973678E+02  0.18875221790E+03  0.19627173691E+03  0.00000000000E+00 0.  1.
         12    1    5    5    0    0  0.25615368876E+02 -0.87079910515E+00  0.34598161795E+02  0.43057382797E+02  0.00000000000E+00 0. -1.
         11    1    3    3    0    0  0.21403965909E+02 -0.84475953377E+01 -0.39228660436E+02  0.45479439566E+02  0.00000000000E+00 0. -1.
        -12    1    3    3    0    0 -0.33884644299E+02  0.36108519279E+02 -0.30771882490E+03  0.31167750878E+03  0.00000000000E+00 0.  1.
          5    1    4    4  501    0 -0.25737618849E+02  0.33035586597E+02  0.88398331041E+02  0.97905629750E+02  0.41800000000E+01 0.  1.
         -5    1    4    4    0  501  0.64633728347E+02 -0.46114737755E+02  0.54516966370E+02  0.96403630121E+02  0.41800000000E+01 0.  1.
</event>
<event>
11    1  0.7105277E-009  0.3290318E+03  0.7561462E-02  0.9886017E-01
         22   -1    0    0    0    0  0.00000000000E+00  0.00000000000E+00  0.17629322866E+04  0.17629322866E+04  0.00000000000E+00 0. -1.
         22   -1    0    0    0    0 -0.00000000000E+00 -0.00000000000E+00 -0.20654968930E+04  0.20654968930E+04  0.00000000000E+00 0. -1.
        -24    2    1    2    0    0 -0.57273966465E+02 -0.13919076372E+03 -0.19743772303E+04  0.19817626352E+04  0.81014312286E+02 0.  0.
         25    2    1    2    0    0  0.78688014847E+01  0.41089466179E+03  0.60666742459E+03  0.74336397095E+03  0.12509311786E+03 0.  0.
         24    2    1    2    0    0  0.49405164980E+02 -0.27170389806E+03  0.10651451994E+04  0.11033025735E+04  0.80488473374E+02 0.  0.
        -13    1    5    5    0    0  0.64083671914E+02 -0.14743759253E+03  0.65855014379E+03  0.67788852519E+03  0.00000000000E+00 0.  1.
         14    1    5    5    0    0 -0.14678506934E+02 -0.12426630554E+03  0.40659505558E+03  0.42541404829E+03  0.00000000000E+00 0. -1.
         13    1    3    3    0    0 -0.35922022691E+02 -0.14424609954E+03 -0.16757342949E+04  0.16823147019E+04  0.00000000000E+00 0. -1.
        -14    1    3    3    0    0 -0.21351943774E+02  0.50553358178E+01 -0.29864293539E+03  0.29944793334E+03  0.00000000000E+00 0.  1.
          5    1    4    4  501    0  0.96174570543E+01 -0.60307322640E+01  0.11595793098E+02  0.16757088930E+02  0.41800000000E+01 0.  1.
         -5    1    4    4    0  501 -0.17486555696E+01  0.41692539405E+03  0.59507163149E+03  0.72660688202E+03  0.41800000000E+01 0. -1.
</event>
<event>
11    1  0.7105277E-009  0.1573444E+03  0.7561462E-02  0.1089602E+00
         22   -1    0    0    0    0  0.00000000000E+00  0.00000000000E+00  0.33150661108E+03  0.33150661108E+03  0.00000000000E+00 0.  1.
         22   -1    0    0    0    0 -0.00000000000E+00 -0.00000000000E+00 -0.82297156337E+03  0.82297156337E+03  0.00000000000E+00 0.  1.
         24    2    1    2    0    0  0.73591888278E+02  0.61679005121E+02 -0.60734305914E+03  0.62109144201E+03  0.87572382391E+02 0.  0.
         25    2    1    2    0    0 -0.83644804424E+02 -0.44201584823E+02 -0.17265552482E+03  0.23325635056E+03  0.12509341077E+03 0.  0.
        -24    2    1    2    0    0  0.10052916145E+02 -0.17477420298E+02  0.28853363166E+03  0.30013038188E+03  0.80125327992E+02 0.  0.
        -13    1    3    3    0    0  0.89118434200E+02  0.29932030607E+02 -0.41338729272E+03  0.42394230216E+03  0.00000000000E+00 0.  1.
         14    1    3    3    0    0 -0.15526545922E+02  0.31746974514E+02 -0.19395576641E+03  0.19714913985E+03  0.00000000000E+00 0. -1.
         13    1    5    5    0    0 -0.20190770544E+02 -0.93396103306E+01  0.20431167340E+02  0.30204770072E+02  0.00000000000E+00 0. -1.
        -14    1    5    5    0    0  0.30243686689E+02 -0.81378099672E+01  0.26810246432E+03  0.26992561181E+03  0.00000000000E+00 0.  1.
          5    1    4    4  501    0 -0.88784834902E+02 -0.58770250952E+02 -0.65856193612E+02  0.12526451989E+03  0.41800000000E+01 0. -1.
         -5    1    4    4    0  501  0.51400304786E+01  0.14568666129E+02 -0.10679933121E+03  0.10799183067E+03  0.41800000000E+01 0. -1.
</event>
<event>
11    1  0.7105277E-009  0.1615498E+03  0.7561462E-02  0.1085629E+00
         22   -1    0    0    0    0  0.00000000000E+00  0.00000000000E+00  0.27632921973E+03  0.27632921973E+03  0.00000000000E+00 0.  1.
         22   -1    0    0    0    0 -0.00000000000E+00 -0.00000000000E+00 -0.13518717987E+04  0.13518717987E+04  0.00000000000E+00 0.  1.
         24    2    1    2    0    0  0.27517252336E+02 -0.42305418872E+02 -0.11757362412E+04  0.11795325929E+04  0.79965500917E+02 0.  0.
         25    2    1    2    0    0 -0.57997367810E+02  0.13439374328E+03 -0.96039336355E+02  0.21516528655E+03  0.12508866256E+03 0.  0.
        -24    2    1    2    0    0  0.30480115475E+02 -0.92088324409E+02  0.19623299854E+03  0.23350313896E+03  0.81283634615E+02 0.  0.
        -13    1    3    3    0    0  0.52180493952E+01 -0.53468714664E+02 -0.10485110568E+04  0.10498864547E+04  0.00000000000E+00 0.  1.
         14    1    3    3    0    0  0.22299202940E+02  0.11163295792E+02 -0.12722518435E+03  0.12964613823E+03  0.00000000000E+00 0. -1.
         11    1    5    5    0    0  0.29149828197E+02 -0.51618838088E+02  0.38570512292E+02  0.70724121401E+02  0.00000000000E+00 0. -1.
        -12    1    5    5    0    0  0.13302872778E+01 -0.40469486321E+02  0.15766248625E+03  0.16277901756E+03  0.00000000000E+00 0.  1.
          5    1    4    4  501    0 -0.22151618762E+01  0.76620955018E+02 -0.10939942665E+03  0.13364649132E+03  0.41800000000E+01 0.  1.
         -5    1    4    4    0  501 -0.55782205934E+02  0.57772788262E+02  0.13360090298E+02  0.81518795227E+02  0.41800000000E+01 0.  1.
</event>
<event>
11    1  0.7105277E-009  0.1322114E+03  0.7561462E-02  0.1116581E+00
         22   -1    0    0    0    0  0.00000000000E+00  0.00000000000E+00  0.57297579848E+03  0.57297579848E+03  0.00000000000E+00 0. -1.
         22   -1    0    0    0    0 -0.00000000000E+00 -0.00000000000E+00 -0.47634555404E+03  0.47634555404E+03  0.00000000000E+00 0.  1.
         24    2    1    2    0    0  0.26576139619E+02 -0.34686400994E+02 -0.44514840985E+03  0.45461448079E+03  0.81288263233E+02 0.  0.
         25    2    1    2    0    0 -0.95535031314E+01  0.20278178919E+01  0.16209323228E+03  0.20498500291E+03  0.12509697837E+03 0.  0.
        -24    2    1    2    0    0 -0.17022636488E+02  0.32658583102E+02  0.37968542201E+03  0.38972186882E+03  0.79785726473E+02 0.  0.
        -13    1    3    3    0    0  0.32928929409E+02  0.37887535685E+01 -0.35302143178E+03  0.35457411122E+03  0.00000000000E+00 0.  1.
         14    1    3    3    0    0 -0.63527897896E+01 -0.38475154562E+02 -0.92126978070E+02  0.10004036958E+03  0.00000000000E+00 0. -1.
         11    1    5    5    0    0  0.24818086297E+02 -0.10743987019E+02  0.13854008388E+03  0.14115496983E+03  0.00000000000E+00 0. -1.
        -12    1    5    5    0    0 -0.41840722785E+02  0.43402570121E+02  0.24114533813E+03  0.24856689900E+03  0.00000000000E+00 0.  1.
          5    1    4    4  501    0  0.93808488919E+01 -0.23943363136E+02 -0.11437796921E+02  0.28453129223E+02  0.41800000000E+01 0. -1.
         -5    1    4    4    0  501 -0.18934352023E+02  0.25971181028E+02  0.17353102920E+03  0.17653187369E+03  0.41800000000E+01 0. -1.
</event>
<event>
11    1  0.7105277E-009  0.1418310E+03  0.7561462E-02  0.1105531E+00
         22   -1    0    0    0    0  0.00000000000E+00  0.00000000000E+00  0.22416941653E+03  0.22416941653E+03  0.00000000000E+00 0.  1.
         22   -1    0    0    0    0 -0.00000000000E+00 -0.00000000000E+00 -0.52222027913E+03  0.52222027913E+03  0.00000000000E+00 0. -1.
         24    2    1    2    0    0 -0.51725079530E+02  0.40549509655E+02 -0.44427273451E+03  0.45564537354E+03  0.76907068722E+02 0.  0.
         25    2    1    2    0    0  0.81067864676E+02 -0.38464499909E+02  0.50041672674E+02  0.16187569756E+03  0.12509219008E+03 0.  0.
        -24    2    1    2    0    0 -0.29342785146E+02 -0.20850097463E+01  0.96180199225E+02  0.12886862456E+03  0.80567644661E+02 0.  0.
        -11    1    3    3    0    0 -0.29083635302E+02  0.67592861104E+01 -0.43195333374E+02  0.52510785715E+02  0.00000000000E+00 0.  1.
         12    1    3    3    0    0 -0.22641444228E+02  0.33790223545E+02 -0.40107740113E+03  0.40313458783E+03  0.00000000000E+00 0. -1.
         11    1    5    5    0    0 -0.24528071537E+02  0.28218849749E+02  0.11995020862E+02  0.39265892324E+02  0.00000000000E+00 0. -1.
        -12    1    5    5    0    0 -0.48147136088E+01 -0.30303859496E+02  0.84185178364E+02  0.89602732233E+02  0.00000000000E+00 0.  1.
          5    1    4    4  501    0  0.96814161460E+02 -0.23877048857E+02  0.77795811179E+02  0.12654151871E+03  0.41800000000E+01 0. -1.
         -5    1    4    4    0  501 -0.15746296784E+02 -0.14587451052E+02 -0.27754138504E+02  0.35334178846E+02  0.41800000000E+01 0. -1.
</event>
<event>
11    1  0.7105277E-009  0.1530579E+03  0.7561462E-02  0.1093795E+00
         22   -1    0    0    0    0  0.00000000000E+00  0.00000000000E+00  0.53283312170E+03  0.53283312170E+03  0.00000000000E+00 0. -1.
         22   -1    0    0    0    0 -0.00000000000E+00 -0.00000000000E+00 -0.47124175174E+03  0.47124175174E+03  0.00000000000E+00 0.  1.
         24    2    1    2    0    0  0.55525432582E+02  0.71983686860E+02 -0.42890399332E+03  0.44581934012E+03  0.80817842705E+02 0.  0.
         25    2    1    2    0    0 -0.12400447951E+01 -0.45144143093E+02  0.13323385383E+03  0.18825011702E+03  0.12508922968E+03 0.  0.
        -24    2    1    2    0    0 -0.54285387787E+02 -0.26839543767E+02  0.35726150944E+03  0.37000541631E+03  0.74839545239E+02 0.  0.
        -13    1    3    3    0    0  0.32495934918E+02  0.33314126055E+02 -0.36325261423E+03  0.36622162487E+03  0.00000000000E+00 0.  1.
         14    1    3    3    0    0  0.23029497664E+02  0.38669560805E+02 -0.65651379092E+02  0.79597715244E+02  0.00000000000E+00 0. -1.
         13    1    5    5    0    0 -0.58256230133E+02  0.20326563916E+01  0.30153920228E+03  0.30712181712E+03  0.00000000000E+00 0. -1.
        -14    1    5    5    0    0  0.39708423461E+01 -0.28872200159E+02  0.55722307160E+02  0.62883599183E+02  0.00000000000E+00 0.  1.
          5    1    4    4  501    0  0.28139782461E+02 -0.64620386743E+02  0.25911163851E+02  0.75209723785E+02  0.41800000000E+01 0.  1.
         -5    1    4    4    0  501 -0.29379827257E+02  0.19476243650E+02  0.10732268998E+03  0.11304039323E+03  0.41800000000E+01 0.  1.
</event>
<event>
11    1  0.7105277E-009  0.1623976E+03  0.7561462E-02  0.1084844E+00
         22   -1    0    0    0    0  0.00000000000E+00  0.00000000000E+00  0.78510482545E+02  0.78510482545E+02  0.00000000000E+00 0.  1.
         22   -1    0    0    0    0 -0.00000000000E+00 -0.00000000000E+00 -0.12816123334E+04  0.12816123334E+04  0.00000000000E+00 0. -1.
         24    2    1    2    0    0  0.91636265329E+02  0.16016085771E+02 -0.48165387889E+03  0.49680700708E+03  0.78568588506E+02 0.  0.
         25    2    1    2    0    0 -0.11872155253E+03  0.95051349277E+01 -0.75210789531E+03  0.77168510953E+03  0.12508584036E+03 0.  0.
        -24    2    1    2    0    0  0.27085287203E+02 -0.25521220699E+02  0.30659923326E+02  0.91630699361E+02  0.77917961204E+02 0.  0.
        -13    1    3    3    0    0  0.31903603909E+02 -0.21869485748E+02 -0.78695276726E+02  0.87687290574E+02  0.00000000000E+00 0.  1.
         14    1    3    3    0    0  0.59732661420E+02  0.37885571519E+02 -0.40295860217E+03  0.40911971650E+03  0.00000000000E+00 0. -1.
         13    1    5    5    0    0 -0.12718865835E+02 -0.41448949320E+02  0.17829252166E+02  0.46879283064E+02  0.00000000000E+00 0. -1.
        -14    1    5    5    0    0  0.39804153038E+02  0.15927728621E+02  0.12830671161E+02  0.44751416296E+02  0.00000000000E+00 0.  1.
          5    1    4    4  501    0 -0.28621646503E+02  0.60306446626E+02 -0.23583680491E+03  0.24513779208E+03  0.41800000000E+01 0. -1.
         -5    1    4    4    0  501 -0.90099906029E+02 -0.50801311698E+02 -0.51627109040E+03  0.52654731745E+03  0.41800000000E+01 0. -1.
</event>
<event>
11    1  0.7105277E-009  0.1417781E+03  0.7561462E-02  0.1105589E+00
         22   -1    0    0    0    0  0.00000000000E+00  0.00000000000E+00  0.58365672933E+02  0.58365672933E+02  0.00000000000E+00 0. -1.
         22   -1    0    0    0    0 -0.00000000000E+00 -0.00000000000E+00 -0.12959135408E+04  0.12959135408E+04  0.00000000000E+00 0. -1.
         24    2    1    2    0    0  0.63561891521E+01 -0.99835082050E+01 -0.71561201070E+03  0.71987265352E+03  0.77304694888E+02 0.  0.
         25    2    1    2    0    0 -0.18456296242E+02 -0.56541399741E+02 -0.50988855470E+03  0.52836675833E+03  0.12509008092E+03 0.  0.
        -24    2    1    2    0    0  0.12100107090E+02  0.66524907946E+02 -0.12047302471E+02  0.10603980188E+03  0.80791869129E+02 0.  0.
        -13    1    3    3    0    0  0.27485863181E+02 -0.73755151491E+01 -0.10211491054E+03  0.10600625384E+03  0.00000000000E+00 0.  1.
         14    1    3    3    0    0 -0.21129674029E+02 -0.26079930559E+01 -0.61349710015E+03  0.61386639967E+03  0.00000000000E+00 0. -1.
         13    1    5    5    0    0 -0.24812945964E+02  0.63008994312E+02 -0.12963817312E+02  0.68948359015E+02  0.00000000000E+00 0. -1.
        -14    1    5    5    0    0  0.36913053053E+02  0.35159136340E+01  0.91651484109E+00  0.37091442866E+02  0.00000000000E+00 0.  1.
          5    1    4    4  501    0 -0.39707347478E+02  0.19849162018E+02 -0.31155823850E+03  0.31473269778E+03  0.41800000000E+01 0.  1.
         -5    1    4    4    0  501  0.21251051236E+02 -0.76390561759E+02 -0.19833031620E+03  0.21363406055E+03  0.41800000000E+01 0.  1.
</event>
<event>
11    1  0.7105277E-009  0.1339008E+03  0.7561462E-02  0.1114567E+00
         22   -1    0    0    0    0  0.00000000000E+00  0.00000000000E+00  0.96617288471E+03  0.96617288471E+03  0.00000000000E+00 0. -1.
         22   -1    0    0    0    0 -0.00000000000E+00 -0.00000000000E+00 -0.55252401283E+03  0.55252401283E+03  0.00000000000E+00 0. -1.
        -24    2    1    2    0    0 -0.21135789387E+02 -0.40021161901E+02 -0.44930882603E+03  0.45896354050E+03  0.81979847322E+02 0.  0.
         25    2    1    2    0    0  0.17841927096E+02  0.77843626788E+02 -0.38632596372E+02  0.15335772621E+03  0.12509256610E+03 0.  0.
         24    2    1    2    0    0  0.32938622907E+01 -0.37822464887E+02  0.90159029429E+03  0.90637563082E+03  0.84913703316E+02 0.  0.
        -13    1    5    5    0    0  0.41271929639E+02 -0.69102953988E+01  0.31940335411E+03  0.32213293370E+03  0.00000000000E+00 0.  1.
         14    1    5    5    0    0 -0.37978067348E+02 -0.30912169489E+02  0.58218694018E+03  0.58424269712E+03  0.00000000000E+00 0. -1.
         13    1    3    3    0    0 -0.68233404732E-01 -0.13043007602E+02 -0.39195452413E+03  0.39217148505E+03  0.00000000000E+00 0. -1.
        -14    1    3    3    0    0 -0.21067555982E+02 -0.26978154299E+02 -0.57354301905E+02  0.66792055452E+02  0.00000000000E+00 0.  1.
          5    1    4    4  501    0 -0.32993289989E+02  0.76610108757E+02  0.84345172991E+01  0.83942119524E+02  0.41800000000E+01 0.  1.
         -5    1    4    4    0  501  0.50835217084E+02  0.12335180312E+01 -0.47067113671E+02  0.69415606690E+02  0.41800000000E+01 0.  1.
</event>
<event>
11    1  0.7105277E-009  0.1704010E+03  0.7561462E-02  0.1077683E+00
         22   -1    0    0    0    0  0.00000000000E+00  0.00000000000E+00  0.92192989453E+03  0.92192989453E+03  0.00000000000E+00 0. -1.
         22   -1    0    0    0    0 -0.00000000000E+00 -0.00000000000E+00 -0.41172064842E+03  0.41172064842E+03  0.00000000000E+00 0. -1.
        -24    2    1    2    0    0  0.63064262843E+02 -0.25522459191E+02 -0.36447759059E+03  0.37948425527E+03  0.80844843887E+02 0.  0.
         25    2    1    2    0    0 -0.15061871702E+03  0.80090891092E+02  0.31383708220E+03  0.37847551609E+03  0.12509777522E+03 0.  0.
         24    2    1    2    0    0  0.87554454176E+02 -0.54568431901E+02  0.56084975450E+03  0.57569077158E+03  0.78891831977E+02 0.  0.
        -11    1    5    5    0    0  0.95308886038E+01 -0.48367210634E+02  0.16631967970E+03  0.17347178663E+03  0.00000000000E+00 0.  1.
         12    1    5    5    0    0  0.78023565572E+02 -0.62012212677E+01  0.39453007480E+03  0.40221898495E+03  0.00000000000E+00 0. -1.
         13    1    3    3    0    0  0.58707373994E+02  0.18390332314E+02 -0.21515094614E+03  0.22377374669E+03  0.00000000000E+00 0. -1.
        -14    1    3    3    0    0  0.43568888489E+01 -0.43912791505E+02 -0.14932664446E+03  0.15571050858E+03  0.00000000000E+00 0.  1.
          5    1    4    4  501    0 -0.14727331315E+03  0.17375537438E+02  0.21187411663E+03  0.25864928333E+03  0.41800000000E+01 0. -1.
         -5    1    4    4    0  501 -0.33454038694E+01  0.62715353654E+02  0.10196296557E+03  0.11982623276E+03  0.41800000000E+01 0. -1.
</event>
<event>
11    1  0.7105277E-009  0.1679976E+03  0.7561462E-02  0.1079787E+00
         22   -1    0    0    0    0  0.00000000000E+00  0.00000000000E+00  0.30283895071E+03  0.30283895071E+03  0.00000000000E+00 0. -1.
         22   -1    0    0    0    0 -0.00000000000E+00 -0.00000000000E+00 -0.31202965538E+03  0.31202965538E+03  0.00000000000E+00 0. -1.
         24    2    1    2    0    0 -0.40892186841E+01  0.59115311011E+02 -0.10781359979E+03  0.14780583522E+03  0.81923445491E+02 0.  0.
         25    2    1    2    0    0 -0.59390007022E+02 -0.14542106812E+03 -0.10266918577E+03  0.22552262268E+03  0.12508010091E+03 0.  0.
        -24    2    1    2    0    0  0.63479225707E+02  0.86305757113E+02  0.20129208089E+03  0.24154014819E+03  0.79654538804E+02 0.  0.
        -11    1    3    3    0    0 -0.19305556663E+02  0.36148148270E+02 -0.49046722958E+01  0.41272859748E+02  0.00000000000E+00 0.  1.
         12    1    3    3    0    0  0.15216337979E+02  0.22967162741E+02 -0.10290892749E+03  0.10653297547E+03  0.00000000000E+00 0. -1.
         11    1    5    5    0    0  0.74974063164E+02  0.72985296688E+02  0.19755524434E+03  0.22355321122E+03  0.00000000000E+00 0. -1.
        -12    1    5    5    0    0 -0.11494837458E+02  0.13320460425E+02  0.37368365437E+01  0.17986936967E+02  0.00000000000E+00 0.  1.
          5    1    4    4  501    0 -0.40204051826E+02 -0.13942260795E+03 -0.27687356025E+02  0.14778055175E+03  0.41800000000E+01 0.  1.
         -5    1    4    4    0  501 -0.19185955197E+02 -0.59984601753E+01 -0.74981829742E+02  0.77742070932E+02  0.41800000000E+01 0.  1.
</event>
<event>
11    1  0.7105277E-009  0.3280336E+03  0.7561462E-02  0.9889785E-01
         22   -1    0    0    0    0  0.00000000000E+00  0.00000000000E+00  0.61341252291E+03  0.61341252291E+03  0.00000000000E+00 0.  1.
         22   -1    0    0    0    0 -0.00000000000E+00 -0.00000000000E+00 -0.18212214193E+04  0.18212214193E+04  0.00000000000E+00 0. -1.
        -24    2    1    2    0    0  0.26453659481E+03 -0.16039752886E+03 -0.12831627618E+04  0.13223032368E+04  0.79197219017E+02 0.  0.
         25    2    1    2    0    0 -0.25044662695E+03  0.14289011087E+03 -0.46762372957E+03  0.56343643805E+03  0.12509024953E+03 0.  0.
         24    2    1    2    0    0 -0.14089967862E+02  0.17507417988E+02  0.54297759505E+03  0.54889426730E+03  0.77170014086E+02 0.  0.
        -11    1    5    5    0    0  0.29730835708E+02 -0.29771670350E+01  0.27166723204E+03  0.27330545380E+03  0.00000000000E+00 0.  1.
         12    1    5    5    0    0 -0.43820803569E+02  0.20484585023E+02  0.27131036301E+03  0.27558881350E+03  0.00000000000E+00 0. -1.
         11    1    3    3    0    0  0.88154080951E+02 -0.91034550011E+02 -0.60655705361E+03  0.61965304048E+03  0.00000000000E+00 0. -1.
        -12    1    3    3    0    0  0.17638251386E+03 -0.69362978850E+02 -0.67660570821E+03  0.70265019634E+03  0.00000000000E+00 0.  1.
          5    1    4    4  501    0 -0.49581765821E+02  0.63308560501E+02 -0.22269722651E+03  0.23680762747E+03  0.41800000000E+01 0.  1.
         -5    1    4    4    0  501 -0.20086486113E+03  0.79581550372E+02 -0.24492650306E+03  0.32662881058E+03  0.41800000000E+01 0.  1.
</event>
<event>
11    1  0.7105277E-009  0.1386935E+03  0.7561462E-02  0.1109026E+00
         22   -1    0    0    0    0  0.00000000000E+00  0.00000000000E+00  0.62002736004E+03  0.62002736004E+03  0.00000000000E+00 0. -1.
         22   -1    0    0    0    0 -0.00000000000E+00 -0.00000000000E+00 -0.11584927236E+04  0.11584927236E+04  0.00000000000E+00 0.  1.
        -24    2    1    2    0    0 -0.76530556528E+01  0.30307330387E+02 -0.77184852257E+03  0.77673813250E+03  0.81208873592E+02 0.  0.
         25    2    1    2    0    0  0.58595550868E+02  0.14093667661E+01 -0.36742671736E+03  0.39253666510E+03  0.12508883212E+03 0.  0.
         24    2    1    2    0    0 -0.50942495215E+02 -0.31716697153E+02  0.60080987642E+03  0.60924528600E+03  0.81278682452E+02 0.  0.
        -11    1    5    5    0    0 -0.46880528953E+02  0.60434248952E+00  0.14762657741E+03  0.15489272282E+03  0.00000000000E+00 0.  1.
         12    1    5    5    0    0 -0.40619662619E+01 -0.32321039642E+02  0.45318329900E+03  0.45435256318E+03  0.00000000000E+00 0. -1.
         11    1    3    3    0    0 -0.33662708942E+01 -0.21105081659E+01  0.21827855999E+00  0.39791544305E+01  0.00000000000E+00 0. -1.
        -12    1    3    3    0    0 -0.42867847585E+01  0.32417838553E+02 -0.77206680113E+03  0.77275897807E+03  0.00000000000E+00 0.  1.
          5    1    4    4  501    0  0.56576718951E+01  0.95979876834E+01 -0.32187781132E+03  0.32209770014E+03  0.41800000000E+01 0.  1.
         -5    1    4    4    0  501  0.52937878972E+02 -0.81886209172E+01 -0.45548906049E+02  0.70438964962E+02  0.41800000000E+01 0.  1.
</event>
<event>
11    1  0.7105277E-009  0.1372265E+03  0.7561462E-02  0.1110696E+00
         22   -1    0    0    0    0  0.00000000000E+00  0.00000000000E+00  0.47710775816E+03  0.47710775816E+03  0.00000000000E+00 0. -1.
         22   -1    0    0    0    0 -0.00000000000E+00 -0.00000000000E+00 -0.61600712745E+03  0.61600712745E+03  0.00000000000E+00 0.  1.
        -24    2    1    2    0    0 -0.26450108168E+02 -0.90845707982E+01 -0.43948413498E+03  0.44760509487E+03  0.80136623352E+02 0.  0.
         25    2    1    2    0    0 -0.30615084835E+02  0.75778456445E+01 -0.14343717211E+03  0.19291595284E+03  0.12509050865E+03 0.  0.
         24    2    1    2    0    0  0.57065193004E+02  0.15067251536E+01  0.44402193780E+03  0.45259383790E+03  0.66535662557E+02 0.  0.
        -11    1    5    5    0    0  0.45633745474E+02  0.31257554478E+02  0.30393082139E+03  0.30892299628E+03  0.00000000000E+00 0.  1.
         12    1    5    5    0    0  0.11431447530E+02 -0.29750829325E+02  0.14009111641E+03  0.14367084163E+03  0.00000000000E+00 0. -1.
         11    1    3    3    0    0  0.18396718855E+02  0.22304680053E+02 -0.18990415969E+03  0.19209249825E+03  0.00000000000E+00 0. -1.
        -12    1    3    3    0    0 -0.44846827024E+02 -0.31389250851E+02 -0.24957997529E+03  0.25551259662E+03  0.00000000000E+00 0.  1.
          5    1    4    4  501    0  0.84021193863E+01  0.26412272329E+02  0.12738158546E+02  0.30788582671E+02  0.41800000000E+01 0.  1.
         -5    1    4    4    0  501 -0.39017204222E+02 -0.18834426684E+02 -0.15617533065E+03  0.16212737017E+03  0.41800000000E+01 0.  1.
</event>
<event>
11    1  0.7105277E-009  0.1398348E+03  0.7561462E-02  0.1107743E+00
         22   -1    0    0    0    0  0.00000000000E+00  0.00000000000E+00  0.42590611375E+03  0.42590611375E+03  0.00000000000E+00 0. -1.
         22   -1    0    0    0    0 -0.00000000000E+00 -0.00000000000E+00 -0.75137113306E+03  0.75137113306E+03  0.00000000000E+00 0.  1.
        -24    2    1    2    0    0  0.26722428384E+02  0.37558053784E+02 -0.71260463786E+03  0.71864605963E+03  0.80759479537E+02 0.  0.
         25    2    1    2    0    0  0.46753650237E+02 -0.17613843608E+02  0.19651058717E+03  0.23824335223E+03  0.12508929896E+03 0.  0.
         24    2    1    2    0    0 -0.73476078621E+02 -0.19944210176E+02  0.19062903138E+03  0.22038783496E+03  0.80217607440E+02 0.  0.
        -11    1    5    5    0    0 -0.71910079437E+02 -0.12257783266E+02  0.75470405645E+02  0.10496234993E+03  0.00000000000E+00 0.  1.
         12    1    5    5    0    0 -0.15659991837E+01 -0.76864269104E+01  0.11515862573E+03  0.11542548502E+03  0.00000000000E+00 0. -1.
         11    1    3    3    0    0  0.18764991101E+02  0.60565635764E+02 -0.38965331559E+03  0.39477845366E+03  0.00000000000E+00 0. -1.
        -12    1    3    3    0    0  0.79574372829E+01 -0.23007581981E+02 -0.32295132227E+03  0.32386760596E+03  0.00000000000E+00 0.  1.
          5    1    4    4  501    0  0.28803776017E+02  0.16447630575E+02  0.19669409308E+03  0.19951496364E+03  0.41800000000E+01 0. -1.
         -5    1    4    4    0  501  0.17949874220E+02 -0.34061474183E+02 -0.18350591197E+00  0.38728388586E+02  0.41800000000E+01 0. -1.
</event>
<event>
11    1  0.7105277E-009  0.1670811E+03  0.7561462E-02  0.1080600E+00
         22   -1    0    0    0    0  0.00000000000E+00  0.00000000000E+00  0.54092345015E+03  0.54092345015E+03  0.00000000000E+00 0. -1.
         22   -1    0    0    0    0 -0.00000000000E+00 -0.00000000000E+00 -0.14964563343E+03  0.14964563343E+03  0.00000000000E+00 0. -1.
        -24    2    1    2    0    0  0.91080964899E+01  0.16620081781E+02 -0.70435827321E+02  0.10868534765E+03  0.80573658743E+02 0.  0.
         25    2    1    2    0    0  0.22870614988E+01 -0.12355374078E+03  0.11425550363E+03  0.20969632243E+03  0.12508984780E+03 0.  0.
         24    2    1    2    0    0 -0.11395157989E+02  0.10693365900E+03  0.34745814041E+03  0.37218741350E+03  0.78940828318E+02 0.  0.
        -11    1    5    5    0    0  0.57948880833E+01 -0.98439642377E+01  0.11994875414E+02  0.16563858126E+02  0.00000000000E+00 0.  1.
         12    1    5    5    0    0 -0.17190046072E+02  0.11677762324E+03  0.33546326500E+03  0.35562355537E+03  0.00000000000E+00 0. -1.
         13    1    3    3    0    0  0.28999171070E+02 -0.21033862399E+02 -0.49845983287E+02  0.61384015347E+02  0.00000000000E+00 0. -1.
        -14    1    3    3    0    0 -0.19891074581E+02  0.37653944180E+02 -0.20589844034E+02  0.47301332303E+02  0.00000000000E+00 0.  1.
          5    1    4    4  501    0  0.39813132120E+02 -0.16916934444E+02  0.80770560594E+02  0.91720357713E+02  0.41800000000E+01 0. -1.
         -5    1    4    4    0  501 -0.37526070621E+02 -0.10663680634E+03  0.33484943034E+02  0.11797596472E+03  0.41800000000E+01 0. -1.
</event>
<event>
11    1  0.7105277E-009  0.1339084E+03  0.7561462E-02  0.1114558E+00
         22   -1    0    0    0    0  0.00000000000E+00  0.00000000000E+00  0.85261104650E+03  0.85261104650E+03  0.00000000000E+00 0.  1.
         22   -1    0    0    0    0 -0.00000000000E+00 -0.00000000000E+00 -0.11110979279E+04  0.11110979279E+04  0.00000000000E+00 0.  1.
         24    2    1    2    0    0 -0.46073436955E+02 -0.77259344354E+01 -0.10102903700E+04  0.10149487613E+04  0.85158115234E+02 0.  0.
         25    2    1    2    0    0  0.71557083525E+02  0.12413266285E+02 -0.43000942171E+02  0.15090150226E+03  0.12509067501E+03 0.  0.
        -24    2    1    2    0    0 -0.25483646570E+02 -0.46873318493E+01  0.79480443085E+03  0.79785871081E+03  0.64753778304E+02 0.  0.
        -13    1    3    3    0    0 -0.28680705836E+02 -0.42153155167E+02 -0.75952582628E+03  0.76123514906E+03  0.00000000000E+00 0.  1.
         14    1    3    3    0    0 -0.17392731118E+02  0.34427220732E+02 -0.25076454377E+03  0.25371361223E+03  0.00000000000E+00 0. -1.
         13    1    5    5    0    0 -0.12388835304E+02  0.26826199474E+02  0.21115729825E+03  0.21321475752E+03  0.00000000000E+00 0. -1.
        -14    1    5    5    0    0 -0.13094811266E+02 -0.31513531323E+02  0.58364713259E+03  0.58464395329E+03  0.00000000000E+00 0.  1.
          5    1    4    4  501    0 -0.30556383405E+02  0.25740589553E+02 -0.21704539058E+02  0.45659937943E+02  0.41800000000E+01 0.  1.
         -5    1    4    4    0  501  0.10211346693E+03 -0.13327323268E+02 -0.21296403113E+02  0.10524156431E+03  0.41800000000E+01 0.  1.
</event>
<event>
11    1  0.7105277E-009  0.1499909E+03  0.7561462E-02  0.1096888E+00
         22   -1    0    0    0    0  0.00000000000E+00  0.00000000000E+00  0.81715640715E+03  0.81715640715E+03  0.00000000000E+00 0.  1.
         22   -1    0    0    0    0 -0.00000000000E+00 -0.00000000000E+00 -0.34721416324E+03  0.34721416324E+03  0.00000000000E+00 0.  1.
         24    2    1    2    0    0  0.57084175904E+02 -0.58621727238E+02 -0.30434839022E+03  0.32648694047E+03  0.85268221678E+02 0.  0.
         25    2    1    2    0    0 -0.28239997227E+02  0.12211538595E+03  0.27278985581E+03  0.32522567822E+03  0.12509105248E+03 0.  0.
        -24    2    1    2    0    0 -0.28844178677E+02 -0.63493658715E+02  0.50150077832E+03  0.51265795170E+03  0.80322558788E+02 0.  0.
        -11    1    3    3    0    0  0.63716527878E+02 -0.14649260037E+02 -0.23644767541E+03  0.24531999501E+03  0.00000000000E+00 0.  1.
         12    1    3    3    0    0 -0.66323519743E+01 -0.43972467201E+02 -0.67900714805E+02  0.81166945461E+02  0.00000000000E+00 0. -1.
         13    1    5    5    0    0 -0.32875184350E+02 -0.41567142970E+02  0.12860798484E+03  0.13909931303E+03  0.00000000000E+00 0. -1.
        -14    1    5    5    0    0  0.40310056734E+01 -0.21926515745E+02  0.37289279348E+03  0.37355863868E+03  0.00000000000E+00 0.  1.
          5    1    4    4  501    0 -0.53379374543E+02  0.32230287315E+02  0.19131011051E+03  0.20125898695E+03  0.41800000000E+01 0.  1.
         -5    1    4    4    0  501  0.25139377316E+02  0.89885098638E+02  0.81479745298E+02  0.12396669126E+03  0.41800000000E+01 0.  1.
</event>
<event>
11    1  0.7105277E-009  0.1682309E+03  0.7561462E-02  0.1079582E+00
         22   -1    0    0    0    0  0.00000000000E+00  0.00000000000E+00  0.87419552803E+03  0.87419552803E+03  0.00000000000E+00 0.  1.
         22   -1    0    0    0    0 -0.00000000000E+00 -0.00000000000E+00 -0.22993182249E+03  0.22993182249E+03  0.00000000000E+00 0. -1.
        -24    2    1    2    0    0 -0.37835262373E+01 -0.75688683320E+02 -0.13330591964E+03  0.17134221643E+03  0.76449951382E+02 0.  0.
         25    2    1    2    0    0  0.34471670553E+02  0.17755488049E+03  0.98671256147E+02  0.24103483736E+03  0.12509094442E+03 0.  0.
         24    2    1    2    0    0 -0.30688144315E+02 -0.10186619717E+03  0.67889836903E+03  0.69175029674E+03  0.79353596255E+02 0.  0.
        -13    1    5    5    0    0  0.11876582953E+02 -0.15660337988E+02  0.30691016691E+03  0.30753885927E+03  0.00000000000E+00 0.  1.
         14    1    5    5    0    0 -0.42564727268E+02 -0.86205859185E+02  0.37198820213E+03  0.38421143747E+03  0.00000000000E+00 0. -1.
         13    1    3    3    0    0  0.21396272794E+01 -0.90672656668E+02 -0.12016057394E+03  0.15054790667E+03  0.00000000000E+00 0. -1.
        -14    1    3    3    0    0 -0.59231535167E+01  0.14983973349E+02 -0.13145345696E+02  0.20794309759E+02  0.00000000000E+00 0.  1.
          5    1    4    4  501    0  0.73054577332E+02  0.81120157238E+02  0.80033805299E+02  0.13542648770E+03  0.41800000000E+01 0.  1.
         -5    1    4    4    0  501 -0.38582906779E+02  0.96434723254E+02  0.18637450848E+02  0.10560834966E+03  0.41800000000E+01 0.  1.
</event>
<event>
11    1  0.7105277E-009  0.1430407E+03  0.7561462E-02  0.1104210E+00
         22   -1    0    0    0    0  0.00000000000E+00  0.00000000000E+00  0.74807786990E+03  0.74807786990E+03  0.00000000000E+00 0. -1.
         22   -1    0    0    0    0 -0.00000000000E+00 -0.00000000000E+00 -0.51068793354E+02  0.51068793354E+02  0.00000000000E+00 0.  1.
        -24    2    1    2    0    0  0.47414516338E+01 -0.26351538291E+02  0.83722215544E+02  0.12813360805E+03  0.93230505748E+02 0.  0.
         25    2    1    2    0    0  0.65649040675E+02  0.24334942972E+02  0.21303168234E+03  0.25677155934E+03  0.12508856867E+03 0.  0.
         24    2    1    2    0    0 -0.70390492309E+02  0.20165953187E+01  0.40025517866E+03  0.41424149587E+03  0.80205491023E+02 0.  0.
        -13    1    5    5    0    0 -0.63480032549E+02  0.24940027131E+01  0.13828494474E+03  0.15217969813E+03  0.00000000000E+00 0.  1.
         14    1    5    5    0    0 -0.69104597599E+01 -0.47740739446E+00  0.26197023392E+03  0.26206179774E+03  0.00000000000E+00 0. -1.
         13    1    3    3    0    0 -0.14742886903E+02  0.29525047028E+02  0.11918813421E+02  0.35087593671E+02  0.00000000000E+00 0. -1.
        -14    1    3    3    0    0  0.19484338536E+02 -0.55876585319E+02  0.71803402123E+02  0.93046014378E+02  0.00000000000E+00 0.  1.
          5    1    4    4  501    0 -0.15215127293E+02  0.53589436916E+02  0.10171026641E+03  0.11604214122E+03  0.41800000000E+01 0.  1.
         -5    1    4    4    0  501  0.80864167968E+02 -0.29254493944E+02  0.11132141594E+03  0.14072941812E+03  0.41800000000E+01 0.  1.
</event>
<event>
11    1  0.7105277E-009  0.1364110E+03  0.7561462E-02  0.1111634E+00
         22   -1    0    0    0    0  0.00000000000E+00  0.00000000000E+00  0.14458222254E+04  0.14458222254E+04  0.00000000000E+00 0. -1.
         22   -1    0    0    0    0 -0.00000000000E+00 -0.00000000000E+00 -0.62380978470E+02  0.62380978470E+02  0.00000000000E+00 0.  1.
        -24    2    1    2    0    0  0.24032116962E+02 -0.50310596434E+02 -0.17482751753E+01  0.98289918116E+02  0.80926835956E+02 0.  0.
         25    2    1    2    0    0 -0.20625117653E+01  0.45831928229E+02  0.41592402269E+03  0.43674353973E+03  0.12508919717E+03 0.  0.
         24    2    1    2    0    0 -0.21969605197E+02  0.44786682045E+01  0.96926549943E+03  0.97316974603E+03  0.84148821692E+02 0.  0.
        -11    1    5    5    0    0 -0.50181972144E+02  0.18722545752E+02  0.50580864111E+03  0.50863655538E+03  0.00000000000E+00 0.  1.
         12    1    5    5    0    0  0.28212366947E+02 -0.14243877548E+02  0.46345685832E+03  0.46453319066E+03  0.00000000000E+00 0. -1.
         11    1    3    3    0    0 -0.25368936940E+02 -0.28387155809E+02  0.16151684351E+02  0.41355658425E+02  0.00000000000E+00 0. -1.
        -12    1    3    3    0    0  0.49401053903E+02 -0.21923440625E+02 -0.17899959526E+02  0.56934259691E+02  0.00000000000E+00 0.  1.
          5    1    4    4  501    0  0.37800460497E+00  0.69293464588E+02  0.40411699449E+03  0.41003627249E+03  0.41800000000E+01 0. -1.
         -5    1    4    4    0  501 -0.24405163703E+01 -0.23461536359E+02  0.11807028192E+02  0.26707267236E+02  0.41800000000E+01 0. -1.
</event>
<event>
11    1  0.7105277E-009  0.2748646E+03  0.7561462E-02  0.1011428E+00
         22   -1    0    0    0    0  0.00000000000E+00  0.00000000000E+00  0.16147889682E+04  0.16147889682E+04  0.00000000000E+00 0.  1.
         22   -1    0    0    0    0 -0.00000000000E+00 -0.00000000000E+00 -0.39132784253E+03  0.39132784253E+03  0.00000000000E+00 0.  1.
         24    2    1    2    0    0  0.40559821193E+02  0.26483869157E+03 -0.29954842549E+03  0.40982404793E+03  0.80261194844E+02 0.  0.
         25    2    1    2    0    0  0.53717496918E+02 -0.12901837398E+03  0.26430487883E+03  0.32409145714E+03  0.12508754262E+03 0.  0.
        -24    2    1    2    0    0 -0.94277318112E+02 -0.13582031759E+03  0.12587046723E+04  0.12722013056E+04  0.82603502495E+02 0.  0.
        -13    1    3    3    0    0  0.15428873849E+02  0.24585024499E+03 -0.24895608866E+03  0.35022782184E+03  0.00000000000E+00 0.  1.
         14    1    3    3    0    0  0.25130947344E+02  0.18988446580E+02 -0.50592336825E+02  0.59596226083E+02  0.00000000000E+00 0. -1.
         13    1    5    5    0    0 -0.18610582695E+02 -0.58215012921E+02  0.23662329778E+03  0.24438888389E+03  0.00000000000E+00 0. -1.
        -14    1    5    5    0    0 -0.75666735417E+02 -0.77605304672E+02  0.10220813745E+04  0.10278124217E+04  0.00000000000E+00 0.  1.
          5    1    4    4  501    0  0.48323701432E+02 -0.14455433799E+03  0.17037002609E+03  0.22863629402E+03  0.41800000000E+01 0. -1.
         -5    1    4    4    0  501  0.53937954859E+01  0.15535964011E+02  0.93934852740E+02  0.95455163123E+02  0.41800000000E+01 0. -1.
</event>
<event>
11    1  0.7105277E-009  0.1482410E+03  0.7561462E-02  0.1098690E+00
         22   -1    0    0    0    0  0.00000000000E+00  0.00000000000E+00  0.44770092039E+03  0.44770092039E+03  0.00000000000E+00 0.  1.
         22   -1    0    0    0    0 -0.00000000000E+00 -0.00000000000E+00 -0.27176559849E+04  0.27176559849E+04  0.00000000000E+00 0.  1.
         24    2    1    2    0    0 -0.40438623070E+01 -0.79509606129E+02 -0.26581123856E+04  0.26604863715E+04  0.79297846602E+02 0.  0.
         25    2    1    2    0    0 -0.80628848107E+01  0.74781556600E+02  0.45351696210E+02  0.15284421121E+03  0.12508910916E+03 0.  0.
        -24    2    1    2    0    0  0.12106747118E+02  0.47280495295E+01  0.34280562486E+03  0.35202632255E+03  0.78980425159E+02 0.  0.
        -13    1    3    3    0    0 -0.20252398881E+02 -0.74095711518E+02 -0.25382416652E+04  0.25394036869E+04  0.00000000000E+00 0.  1.
         14    1    3    3    0    0  0.16208536574E+02 -0.54138946113E+01 -0.11987072039E+03  0.12108268464E+03  0.00000000000E+00 0. -1.
         11    1    5    5    0    0  0.15290162590E+02 -0.35573595260E+02  0.14154510893E+03  0.14674565620E+03  0.00000000000E+00 0. -1.
        -12    1    5    5    0    0 -0.31834154725E+01  0.40301644789E+02  0.20126051592E+03  0.20528066635E+03  0.00000000000E+00 0.  1.
          5    1    4    4  501    0 -0.65680045728E+02  0.36196056417E+02  0.34024481739E+02  0.82457023137E+02  0.41800000000E+01 0. -1.
         -5    1    4    4    0  501  0.57617160918E+02  0.38585500183E+02  0.11327214470E+02  0.70387188069E+02  0.41800000000E+01 0. -1.
</event>
<event>
11    1  0.7105277E-009  0.1574023E+03  0.7561462E-02  0.1089546E+00
         22   -1    0    0    0    0  0.00000000000E+00  0.00000000000E+00  0.11508038532E+04  0.11508038532E+04  0.00000000000E+00 0.  1.
         22   -1    0    0    0    0 -0.00000000000E+00 -0.00000000000E+00 -0.21068552525E+04  0.21068552525E+04  0.00000000000E+00 0.  1.
        -24    2    1    2    0    0 -0.30858618011E+02  0.46030140473E+02 -0.20082304804E+04  0.20105166163E+04  0.78207247846E+02 0.  0.
         25    2    1    2    0    0  0.98497600171E+02 -0.11061731323E+03  0.62709581942E+01  0.19397155003E+03  0.12509064745E+03 0.  0.
         24    2    1    2    0    0 -0.67638982159E+02  0.64587172761E+02  0.10459081229E+04  0.10531709394E+04  0.80614461079E+02 0.  0.
        -11    1    5    5    0    0 -0.44420257120E+02  0.11857984366E+02  0.76686370099E+03  0.76824065691E+03  0.00000000000E+00 0.  1.
         12    1    5    5    0    0 -0.23218725039E+02  0.52729188395E+02  0.27904442190E+03  0.28493028252E+03  0.00000000000E+00 0. -1.
         13    1    3    3    0    0 -0.12434912256E+02 -0.21892052055E+02 -0.46232467582E+03  0.46300971357E+03  0.00000000000E+00 0. -1.
        -14    1    3    3    0    0 -0.18423705755E+02  0.67922192528E+02 -0.15459058046E+04  0.15475069027E+04  0.00000000000E+00 0.  1.
          5    1    4    4  501    0  0.89984090949E+02 -0.80320089863E+01  0.92145277401E+01  0.90906708849E+02  0.41800000000E+01 0. -1.
         -5    1    4    4    0  501  0.85135092217E+01 -0.10258530425E+03 -0.29435695459E+01  0.10306484119E+03  0.41800000000E+01 0. -1.
</event>
<event>
11    1  0.7105277E-009  0.1355669E+03  0.7561462E-02  0.1112612E+00
         22   -1    0    0    0    0  0.00000000000E+00  0.00000000000E+00  0.70789272299E+03  0.70789272299E+03  0.00000000000E+00 0. -1.
         22   -1    0    0    0    0 -0.00000000000E+00 -0.00000000000E+00 -0.13683850785E+03  0.13683850785E+03  0.00000000000E+00 0.  1.
        -24    2    1    2    0    0  0.28320613533E+02  0.41042085868E+02 -0.81188080147E+02  0.12426833591E+03  0.79778474469E+02 0.  0.
         25    2    1    2    0    0 -0.31856964440E+02 -0.64015247905E+02  0.13806948679E+03  0.19956181129E+03  0.12509562421E+03 0.  0.
         24    2    1    2    0    0  0.35363509065E+01  0.22973162037E+02  0.51417280849E+03  0.52090108364E+03  0.80149797201E+02 0.  0.
        -13    1    5    5    0    0  0.47312390636E+01 -0.12701710059E+02  0.14108572136E+02  0.19564505341E+02  0.00000000000E+00 0.  1.
         14    1    5    5    0    0 -0.11948881572E+01  0.35674872096E+02  0.50006423636E+03  0.50133657830E+03  0.00000000000E+00 0. -1.
         13    1    3    3    0    0  0.35100576283E+02  0.33369029263E+02 -0.64806488032E+01  0.48862474131E+02  0.00000000000E+00 0. -1.
        -14    1    3    3    0    0 -0.67799627495E+01  0.76730566055E+01 -0.74707431344E+02  0.75405861779E+02  0.00000000000E+00 0.  1.
          5    1    4    4  501    0 -0.90793105684E+01 -0.55065691901E+02 -0.32675268197E+01  0.56060801247E+02  0.41800000000E+01 0. -1.
         -5    1    4    4    0  501 -0.22777653871E+02 -0.89495560037E+01  0.14133701361E+03  0.14350101005E+03  0.41800000000E+01 0. -1.
</event>
<event>
11    1  0.7105277E-009  0.2052291E+03  0.7561462E-02  0.1050886E+00
         22   -1    0    0    0    0  0.00000000000E+00  0.00000000000E+00  0.95672536661E+03  0.95672536661E+03  0.00000000000E+00 0.  1.
         22   -1    0    0    0    0 -0.00000000000E+00 -0.00000000000E+00 -0.28606316010E+03  0.28606316010E+03  0.00000000000E+00 0.  1.
        -24    2    1    2    0    0 -0.29902191414E+02  0.33277103333E+02 -0.20264232295E+03  0.22218371512E+03  0.79373708222E+02 0.  0.
         25    2    1    2    0    0  0.17980775453E+03  0.23106305323E+02  0.13082040085E+03  0.25617561595E+03  0.12508892435E+03 0.  0.
         24    2    1    2    0    0 -0.14990556311E+03 -0.56383408656E+02  0.74248412862E+03  0.76442919563E+03  0.86130988988E+02 0.  0.
        -11    1    5    5    0    0 -0.15831469160E+03 -0.39835049263E+02  0.66182831804E+03  0.68166494356E+03  0.00000000000E+00 0.  1.
         12    1    5    5    0    0  0.84091284867E+01 -0.16548359393E+02  0.80655810581E+02  0.82764252072E+02  0.00000000000E+00 0. -1.
         13    1    3    3    0    0 -0.30347579668E+02 -0.19358907948E+02 -0.58012650774E+02  0.68273058804E+02  0.00000000000E+00 0. -1.
        -14    1    3    3    0    0  0.44538825405E+00  0.52636011281E+02 -0.14462967218E+03  0.15391065632E+03  0.00000000000E+00 0.  1.
          5    1    4    4  501    0  0.11204587836E+03  0.97396801046E+01  0.50880078071E+01  0.11266099791E+03  0.41800000000E+01 0.  1.
         -5    1    4    4    0  501  0.67761876163E+02  0.13366625218E+02  0.12573239304E+03  0.14351461804E+03  0.41800000000E+01 0.  1.
</event>
<event>
11    1  0.7105277E-009  0.1433240E+03  0.7561462E-02  0.1103902E+00
         22   -1    0    0    0    0  0.00000000000E+00  0.00000000000E+00  0.28178929160E+04  0.28178929160E+04  0.00000000000E+00 0. -1.
         22   -1    0    0    0    0 -0.00000000000E+00 -0.00000000000E+00 -0.63127841657E+03  0.63127841657E+03  0.00000000000E+00 0. -1.
        -24    2    1    2    0    0 -0.91238456456E+01 -0.10496593523E+03 -0.39623443477E+03  0.41792413638E+03  0.80980024370E+02 0.  0.
         25    2    1    2    0    0 -0.14319165126E+02  0.11976178503E+02 -0.20486743507E+03  0.24076696784E+03  0.12509835933E+03 0.  0.
         24    2    1    2    0    0  0.23443010772E+02  0.92989756727E+02  0.27877163693E+04  0.27904802284E+04  0.78871286125E+02 0.  0.
        -11    1    5    5    0    0  0.42935176049E+02  0.20935918648E+02  0.86819151653E+03  0.86950460114E+03  0.00000000000E+00 0.  1.
         12    1    5    5    0    0 -0.19492165277E+02  0.72053838079E+02  0.19195248527E+04  0.19209756272E+04  0.00000000000E+00 0. -1.
         11    1    3    3    0    0 -0.42469119766E+02 -0.77734586689E+02 -0.29227466405E+03  0.30540263808E+03  0.00000000000E+00 0. -1.
        -12    1    3    3    0    0  0.33345274121E+02 -0.27231348541E+02 -0.10395977072E+03  0.11252149830E+03  0.00000000000E+00 0.  1.
          5    1    4    4  501    0 -0.42246431627E+02 -0.35681781338E+02 -0.44505764456E+02  0.71106863062E+02  0.41800000000E+01 0.  1.
         -5    1    4    4    0  501  0.27927266501E+02  0.47657959841E+02 -0.16036167061E+03  0.16966010477E+03  0.41800000000E+01 0.  1.
</event>
<event>
11    1  0.7105277E-009  0.2781030E+03  0.7561462E-02  0.1009909E+00
         22   -1    0    0    0    0  0.00000000000E+00  0.00000000000E+00  0.69737425858E+03  0.69737425858E+03  0.00000000000E+00 0. -1.
         22   -1    0    0    0    0 -0.00000000000E+00 -0.00000000000E+00 -0.30273897791E+03  0.30273897791E+03  0.00000000000E+00 0.  1.
         24    2    1    2    0    0  0.17569931803E+03 -0.19361307427E+03 -0.14513918644E+03  0.31002952084E+03  0.81833046326E+02 0.  0.
         25    2    1    2    0    0 -0.21474180992E+03  0.46139516858E+02  0.36664373564E+03  0.44532667437E+03  0.12508124589E+03 0.  0.
        -24    2    1    2    0    0  0.39042491895E+02  0.14747355741E+03  0.17313073147E+03  0.24475704128E+03  0.81602651735E+02 0.  0.
        -13    1    3    3    0    0  0.18240299992E+03 -0.17080103870E+03 -0.13645154617E+03  0.28471542573E+03  0.00000000000E+00 0.  1.
         14    1    3    3    0    0 -0.67036818882E+01 -0.22812035573E+02 -0.86876402701E+01  0.25314095112E+02  0.00000000000E+00 0. -1.
         11    1    5    5    0    0  0.39978037738E+02  0.51649685212E+02  0.11618640294E+03  0.13328620976E+03  0.00000000000E+00 0. -1.
        -12    1    5    5    0    0 -0.93554584290E+00  0.95823872200E+02  0.56944328530E+02  0.11147083153E+03  0.00000000000E+00 0.  1.
          5    1    4    4  501    0 -0.22764954233E+03  0.28960035906E+02  0.32001278547E+03  0.39381296711E+03  0.41800000000E+01 0.  1.
         -5    1    4    4    0  501  0.12907732401E+02  0.17179480952E+02  0.46630950168E+02  0.51513707254E+02  0.41800000000E+01 0.  1.
</event>
<event>
11    1  0.7105277E-009  0.1622641E+03  0.7561462E-02  0.1084967E+00
         22   -1    0    0    0    0  0.00000000000E+00  0.00000000000E+00  0.63276964263E+03  0.63276964263E+03  0.00000000000E+00 0.  1.
         22   -1    0    0    0    0 -0.00000000000E+00 -0.00000000000E+00 -0.15951062942E+04  0.15951062942E+04  0.00000000000E+00 0. -1.
        -24    2    1    2    0    0  0.87858311410E+02 -0.56847713563E+02 -0.15605787025E+04  0.15661669127E+04  0.80759929457E+02 0.  0.
         25    2    1    2    0    0 -0.33724022606E+02 -0.10006568015E+02  0.14950305331E+03  0.19808188463E+03  0.12509128252E+03 0.  0.
         24    2    1    2    0    0 -0.54134288804E+02  0.66854281578E+02  0.44873899763E+03  0.46362713953E+03  0.78634727227E+02 0.  0.
        -11    1    5    5    0    0 -0.10082864229E+02  0.31549880444E+02  0.33515493448E+03  0.33678760253E+03  0.00000000000E+00 0.  1.
         12    1    5    5    0    0 -0.44051424575E+02  0.35304401134E+02  0.11358406314E+03  0.12683953700E+03  0.00000000000E+00 0. -1.
         13    1    3    3    0    0  0.43158455639E+02 -0.23444853275E+02 -0.12246962345E+04  0.12256807007E+04  0.00000000000E+00 0. -1.
        -14    1    3    3    0    0  0.44699855771E+02 -0.33402860288E+02 -0.33588246803E+03  0.34048621192E+03  0.00000000000E+00 0.  1.
          5    1    4    4  501    0 -0.42275966684E+02 -0.43074085273E+02  0.19442282840E+02  0.63546116665E+02  0.41800000000E+01 0. -1.
         -5    1    4    4    0  501  0.85519440780E+01  0.33067517258E+02  0.13006077047E+03  0.13453576796E+03  0.41800000000E+01 0. -1.
</event>
<event>
11    1  0.7105277E-009  0.2574113E+03  0.7561462E-02  0.1020024E+00
         22   -1    0    0    0    0  0.00000000000E+00  0.00000000000E+00  0.54832963836E+03  0.54832963836E+03  0.00000000000E+00 0. -1.
         22   -1    0    0    0    0 -0.00000000000E+00 -0.00000000000E+00 -0.79733387521E+03  0.79733387521E+03  0.00000000000E+00 0.  1.
         24    2    1    2    0    0  0.78334175518E+02 -0.16871097658E+03 -0.35624728645E+03  0.40948690137E+03  0.78535066193E+02 0.  0.
         25    2    1    2    0    0  0.13640531280E+03  0.23967262844E+03 -0.32328758037E+03  0.44295799175E+03  0.12509014608E+03 0.  0.
        -24    2    1    2    0    0 -0.21473948832E+03 -0.70961651861E+02  0.43053062997E+03  0.49321862046E+03  0.82215450766E+02 0.  0.
        -13    1    3    3    0    0  0.24986235539E+02 -0.11181051788E+03 -0.14834952559E+03  0.18743928515E+03  0.00000000000E+00 0.  1.
         14    1    3    3    0    0  0.53347939979E+02 -0.56900458701E+02 -0.20789776086E+03  0.22204761622E+03  0.00000000000E+00 0. -1.
         13    1    5    5    0    0 -0.12544146361E+03 -0.76814721773E+02  0.30971727036E+03  0.34287147714E+03  0.00000000000E+00 0. -1.
        -14    1    5    5    0    0 -0.89298024712E+02  0.58530699119E+01  0.12081335960E+03  0.15034714332E+03  0.00000000000E+00 0.  1.
          5    1    4    4  501    0  0.94299535833E+02  0.18506967804E+03 -0.14951825326E+03  0.25596165464E+03  0.41800000000E+01 0.  1.
         -5    1    4    4    0  501  0.42105776966E+02  0.54602950398E+02 -0.17376932711E+03  0.18699633710E+03  0.41800000000E+01 0.  1.
</event>
<event>
11    1  0.1398319E-008  0.1681375E+03  0.7561462E-02  0.1079664E+00
         22   -1    0    0    0    0  0.00000000000E+00  0.00000000000E+00  0.70091777891E+03  0.70091777891E+03  0.00000000000E+00 0. -1.
         22   -1    0    0    0    0 -0.00000000000E+00 -0.00000000000E+00 -0.23187894106E+04  0.23187894106E+04  0.00000000000E+00 0. -1.
        -24    2    1    2    0    0  0.37708138401E+02 -0.60670270654E+01 -0.14307539743E+04  0.14335283488E+04  0.80547372765E+02 0.  0.
         25    2    1    2    0    0 -0.54653406270E+02  0.11701941971E+03 -0.86910174723E+03  0.88750560255E+03  0.12509119916E+03 0.  0.
         24    2    1    2    0    0  0.16945267870E+02 -0.11095239264E+03  0.68198408988E+03  0.69867323815E+03  0.10219794188E+03 0.  0.
        -13    1    5    5    0    0  0.10171742589E+02 -0.52041632166E+02  0.95790526262E+02  0.10948799362E+03  0.00000000000E+00 0.  1.
         14    1    5    5    0    0  0.67735252804E+01 -0.58910760477E+02  0.58619356361E+03  0.58918524453E+03  0.00000000000E+00 0. -1.
         11    1    3    3    0    0  0.25746807691E+02 -0.20308012813E+02 -0.13592454232E+04  0.13596409210E+04  0.00000000000E+00 0. -1.
        -12    1    3    3    0    0  0.11961330710E+02  0.14240985747E+02 -0.71508551063E+02  0.73887427771E+02  0.00000000000E+00 0.  1.
          5    1    4    4  501    0 -0.80950672173E+02  0.10815220156E+03 -0.52000634032E+03  0.53728388809E+03  0.41800000000E+01 0. -1.
         -5    1    4    4    0  501  0.26297265903E+02  0.88672181513E+01 -0.34909540691E+03  0.35022171445E+03  0.41800000000E+01 0. -1.
</event>
<event>
11    1  0.7105277E-009  0.1826715E+03  0.7561462E-02  0.1067502E+00
         22   -1    0    0    0    0  0.00000000000E+00  0.00000000000E+00  0.51871650612E+03  0.51871650612E+03  0.00000000000E+00 0. -1.
         22   -1    0    0    0    0 -0.00000000000E+00 -0.00000000000E+00 -0.25975917577E+03  0.25975917577E+03  0.00000000000E+00 0.  1.
        -24    2    1    2    0    0 -0.97751643216E+02 -0.13587713775E+03 -0.98068467947E+02  0.20823825815E+03  0.75682015287E+02 0.  0.
         25    2    1    2    0    0  0.13856713249E+03 -0.17162462837E+02  0.34540107933E+03  0.39299450906E+03  0.12508948082E+03 0.  0.
         24    2    1    2    0    0 -0.40815489275E+02  0.15303960059E+03  0.11624718965E+02  0.17724291468E+03  0.78694937569E+02 0.  0.
        -11    1    5    5    0    0 -0.59770698371E+02  0.91698385075E+02 -0.89498920145E+01  0.10982363487E+03  0.00000000000E+00 0.  1.
         12    1    5    5    0    0  0.18955209096E+02  0.61341215517E+02  0.20574610979E+02  0.67419279808E+02  0.00000000000E+00 0. -1.
         13    1    3    3    0    0 -0.90932428210E+02 -0.12133402785E+03 -0.53376280846E+02  0.16074725557E+03  0.00000000000E+00 0. -1.
        -14    1    3    3    0    0 -0.68192150062E+01 -0.14543109901E+02 -0.44692187101E+02  0.47491002587E+02  0.00000000000E+00 0.  1.
          5    1    4    4  501    0  0.15483716158E+03 -0.38730216117E+02  0.28451533080E+03  0.32625300321E+03  0.41800000000E+01 0. -1.
         -5    1    4    4    0  501 -0.16270029090E+02  0.21567753280E+02  0.60885748531E+02  0.66741505843E+02  0.41800000000E+01 0. -1.
</event>
<event>
11    1  0.7105277E-009  0.1339733E+03  0.7561462E-02  0.1114481E+00
         22   -1    0    0    0    0  0.00000000000E+00  0.00000000000E+00  0.79012588009E+03  0.79012588009E+03  0.00000000000E+00 0. -1.
         22   -1    0    0    0    0 -0.00000000000E+00 -0.00000000000E+00 -0.73451900757E+03  0.73451900757E+03  0.00000000000E+00 0.  1.
         24    2    1    2    0    0 -0.19961720544E+02  0.42131106923E+02 -0.53185856771E+03  0.53990247015E+03  0.80297202699E+02 0.  0.
         25    2    1    2    0    0  0.50619789542E+02 -0.36922871888E+02 -0.17113250938E+03  0.22104236066E+03  0.12509087847E+03 0.  0.
        -24    2    1    2    0    0 -0.30658068998E+02 -0.52082350355E+01  0.75859794962E+03  0.76370005685E+03  0.82461413737E+02 0.  0.
        -11    1    3    3    0    0 -0.29347662946E+02 -0.12850103974E+02 -0.11684617409E+03  0.12115873428E+03  0.00000000000E+00 0.  1.
         12    1    3    3    0    0  0.93859424024E+01  0.54981210897E+02 -0.41501239362E+03  0.41874373587E+03  0.00000000000E+00 0. -1.
         13    1    5    5    0    0 -0.41692207034E+02  0.26116846140E+02  0.57673017944E+03  0.57882469683E+03  0.00000000000E+00 0. -1.
        -14    1    5    5    0    0  0.11034138036E+02 -0.31325081175E+02  0.18186777018E+03  0.18487536002E+03  0.00000000000E+00 0.  1.
          5    1    4    4  501    0  0.33483996701E+02  0.85977128586E+01 -0.16859991083E+03  0.17215836034E+03  0.41800000000E+01 0.  1.
         -5    1    4    4    0  501  0.17135792841E+02 -0.45520584746E+02 -0.25325985508E+01  0.48884000321E+02  0.41800000000E+01 0.  1.
</event>
<event>
11    1  0.7105277E-009  0.1377743E+03  0.7561462E-02  0.1110070E+00
         22   -1    0    0    0    0  0.00000000000E+00  0.00000000000E+00  0.13274798682E+04  0.13274798682E+04  0.00000000000E+00 0. -1.
         22   -1    0    0    0    0 -0.00000000000E+00 -0.00000000000E+00 -0.11753988474E+04  0.11753988474E+04  0.00000000000E+00 0.  1.
         24    2    1    2    0    0 -0.20011398184E+02 -0.39286591941E+02 -0.11500126235E+04  0.11536679517E+04  0.80478669629E+02 0.  0.
         25    2    1    2    0    0  0.19502530838E+02  0.93312711984E+02  0.26843730904E+03  0.31111693380E+03  0.12509015424E+03 0.  0.
        -24    2    1    2    0    0  0.50886734615E+00 -0.54026120043E+02  0.10336563352E+04  0.10380938301E+04  0.79210480044E+02 0.  0.
        -13    1    3    3    0    0 -0.23418090119E+02 -0.19267327308E+02 -0.10878473987E+04  0.10882700031E+04  0.00000000000E+00 0.  1.
         14    1    3    3    0    0  0.34066919350E+01 -0.20019264634E+02 -0.62165224784E+02  0.65397948583E+02  0.00000000000E+00 0. -1.
         11    1    5    5    0    0 -0.31652848271E+02 -0.52833469702E+02  0.56880564331E+03  0.57213035070E+03  0.00000000000E+00 0. -1.
        -12    1    5    5    0    0  0.32161715617E+02 -0.11926503412E+01  0.46485069191E+03  0.46596347940E+03  0.00000000000E+00 0.  1.
          5    1    4    4  501    0 -0.68282046265E+01  0.56043092962E+02  0.22454975106E+02  0.60902799231E+02  0.41800000000E+01 0.  1.
         -5    1    4    4    0  501  0.26330735464E+02  0.37269619022E+02  0.24598233393E+03  0.25021413457E+03  0.41800000000E+01 0.  1.
</event>
<event>
11    1  0.7105277E-009  0.1677818E+03  0.7561462E-02  0.1079978E+00
         22   -1    0    0    0    0  0.00000000000E+00  0.00000000000E+00  0.19947273998E+03  0.19947273998E+03  0.00000000000E+00 0.  1.
         22   -1    0    0    0    0 -0.00000000000E+00 -0.00000000000E+00 -0.10357637992E+04  0.10357637992E+04  0.00000000000E+00 0.  1.
         24    2    1    2    0    0 -0.39920857951E+02 -0.26727662486E+02 -0.75707186251E+03  0.76291078525E+03  0.81037142095E+02 0.  0.
         25    2    1    2    0    0  0.14592129010E+03  0.43833921948E+01 -0.21020200367E+03  0.28485761605E+03  0.12508693792E+03 0.  0.
        -24    2    1    2    0    0 -0.10600043215E+03  0.22344270291E+02  0.13098280698E+03  0.18746813787E+03  0.79072428570E+02 0.  0.
        -11    1    3    3    0    0  0.21709676809E+02 -0.23474981095E+02 -0.29753488305E+03  0.29924804332E+03  0.00000000000E+00 0.  1.
         12    1    3    3    0    0 -0.61630534760E+02 -0.32526813905E+01 -0.45953697947E+03  0.46366274193E+03  0.00000000000E+00 0. -1.
         11    1    5    5    0    0 -0.83678381603E+02  0.35957777841E+02  0.53353102144E+02  0.10555371544E+03  0.00000000000E+00 0. -1.
        -12    1    5    5    0    0 -0.22322050550E+02 -0.13613507550E+02  0.77629704839E+02  0.81914422430E+02  0.00000000000E+00 0.  1.
          5    1    4    4  501    0  0.15332128016E+03 -0.13708775553E+00 -0.12159716647E+03  0.19573139001E+03  0.41800000000E+01 0. -1.
         -5    1    4    4    0  501 -0.73999900510E+01  0.45204799503E+01 -0.88604837208E+02  0.89126226041E+02  0.41800000000E+01 0. -1.
</event>
<event>
11    1  0.7105277E-009  0.1647003E+03  0.7561462E-02  0.1082738E+00
         22   -1    0    0    0    0  0.00000000000E+00  0.00000000000E+00  0.12645480582E+04  0.12645480582E+04  0.00000000000E+00 0. -1.
         22   -1    0    0    0    0 -0.00000000000E+00 -0.00000000000E+00 -0.50708802786E+03  0.50708802786E+03  0.00000000000E+00 0. -1.
        -24    2    1    2    0    0  0.88835217919E+02  0.60466019617E+02 -0.47718533824E+03  0.49560651557E+03  0.79825658612E+02 0.  0.
         25    2    1    2    0    0 -0.80545659048E+02 -0.51312482641E+02  0.30767921323E+03  0.34559520741E+03  0.12509586352E+03 0.  0.
         24    2    1    2    0    0 -0.82895588710E+01 -0.91535369760E+01  0.92696615540E+03  0.93043436313E+03  0.79305402140E+02 0.  0.
        -13    1    5    5    0    0 -0.14763249998E+02 -0.24167367016E+02  0.11976910570E+03  0.12307174274E+03  0.00000000000E+00 0.  1.
         14    1    5    5    0    0  0.64736911275E+01  0.15013830040E+02  0.80719704970E+03  0.80736262039E+03  0.00000000000E+00 0. -1.
         11    1    3    3    0    0 -0.47652809822E+01  0.36682572700E+02 -0.14747547299E+03  0.15204385610E+03  0.00000000000E+00 0. -1.
        -12    1    3    3    0    0  0.93600498901E+02  0.23783446916E+02 -0.32970986525E+03  0.34356265947E+03  0.00000000000E+00 0.  1.
          5    1    4    4  501    0 -0.21481014424E+02 -0.69911175555E+01  0.25192976354E+03  0.25297507360E+03  0.41800000000E+01 0.  1.
         -5    1    4    4    0  501 -0.59064644623E+02 -0.44321365085E+02  0.55749449688E+02  0.92620133816E+02  0.41800000000E+01 0.  1.
</event>
<event>
11    1  0.7105277E-009  0.1678712E+03  0.7561462E-02  0.1079899E+00
         22   -1    0    0    0    0  0.00000000000E+00  0.00000000000E+00  0.19137778426E+03  0.19137778426E+03  0.00000000000E+00 0.  1.
         22   -1    0    0    0    0 -0.00000000000E+00 -0.00000000000E+00 -0.55603453525E+03  0.55603453525E+03  0.00000000000E+00 0.  1.
         24    2    1    2    0    0 -0.16587035155E+03 -0.94308636036E+02 -0.22861080016E+03  0.31483474719E+03  0.10222977909E+03 0.  0.
         25    2    1    2    0    0  0.75575320452E+02 -0.53623138513E+02 -0.18086705445E+03  0.23863829751E+03  0.12509306779E+03 0.  0.
        -24    2    1    2    0    0  0.90295031095E+02  0.14793177455E+03  0.44821103625E+02  0.19393927482E+03  0.74609037153E+02 0.  0.
        -11    1    3    3    0    0 -0.34193993850E+02  0.22098637279E+02 -0.43160779367E+02  0.59333227289E+02  0.00000000000E+00 0.  1.
         12    1    3    3    0    0 -0.13167635770E+03 -0.11640727331E+03 -0.18545002079E+03  0.25550151990E+03  0.00000000000E+00 0. -1.
         11    1    5    5    0    0  0.10049523339E+03  0.12547018123E+03  0.25851679561E+02  0.16282004683E+03  0.00000000000E+00 0. -1.
        -12    1    5    5    0    0 -0.10200202299E+02  0.22461593321E+02  0.18969424063E+02  0.31119227991E+02  0.00000000000E+00 0.  1.
          5    1    4    4  501    0  0.70160363442E+02  0.16967929665E+02 -0.13792874112E+03  0.15573116985E+03  0.41800000000E+01 0. -1.
         -5    1    4    4    0  501  0.54149570100E+01 -0.70591068178E+02 -0.42938313337E+02  0.82907127668E+02  0.41800000000E+01 0. -1.
</event>
<event>
11    1  0.7105277E-009  0.2062600E+03  0.7561462E-02  0.1050183E+00
         22   -1    0    0    0    0  0.00000000000E+00  0.00000000000E+00  0.62121141346E+03  0.62121141346E+03  0.00000000000E+00 0. -1.
         22   -1    0    0    0    0 -0.00000000000E+00 -0.00000000000E+00 -0.11213967588E+03  0.11213967588E+03  0.00000000000E+00 0.  1.
        -24    2    1    2    0    0  0.13583118990E+03 -0.34011077607E+02  0.17970656669E+03  0.24185859402E+03  0.81205072745E+02 0.  0.
         25    2    1    2    0    0 -0.16230424280E+03  0.94968135030E+02  0.11626152898E+03  0.25402096693E+03  0.12509314377E+03 0.  0.
         24    2    1    2    0    0  0.26473052905E+02 -0.60957057423E+02  0.21310364191E+03  0.23747152839E+03  0.81012216493E+02 0.  0.
        -13    1    5    5    0    0  0.70263054687E+01 -0.23606578275E+02  0.49773181038E+01  0.25127936682E+02  0.00000000000E+00 0.  1.
         14    1    5    5    0    0  0.19446747437E+02 -0.37350479147E+02  0.20812632381E+03  0.21234359171E+03  0.00000000000E+00 0. -1.
         13    1    3    3    0    0  0.24968491159E+02  0.23998261373E+02  0.24126693038E+02  0.42207101496E+02  0.00000000000E+00 0. -1.
        -14    1    3    3    0    0  0.11086269874E+03 -0.58009338981E+02  0.15557987366E+03  0.19965149252E+03  0.00000000000E+00 0.  1.
          5    1    4    4  501    0 -0.15282092064E+03  0.11564435748E+03  0.12549651165E+03  0.22911721462E+03  0.41800000000E+01 0. -1.
         -5    1    4    4    0  501 -0.94833221637E+01 -0.20676222449E+02 -0.92349826739E+01  0.24903752308E+02  0.41800000000E+01 0. -1.
</event>
<event>
11    1  0.7105277E-009  0.1890390E+03  0.7561462E-02  0.1062557E+00
         22   -1    0    0    0    0  0.00000000000E+00  0.00000000000E+00  0.28377942842E+02  0.28377942842E+02  0.00000000000E+00 0.  1.
         22   -1    0    0    0    0 -0.00000000000E+00 -0.00000000000E+00 -0.28774130157E+04  0.28774130157E+04  0.00000000000E+00 0.  1.
        -24    2    1    2    0    0 -0.14065875983E+02  0.34018844852E+02 -0.15699215651E+04  0.15719413245E+04  0.70644719619E+02 0.  0.
         25    2    1    2    0    0 -0.10312754280E+03  0.61310523020E+02 -0.91784718897E+03  0.93406951718E+03  0.12509248699E+03 0.  0.
         24    2    1    2    0    0  0.11719341878E+03 -0.95329367872E+02 -0.36126631879E+03  0.39978011687E+03  0.80553106529E+02 0.  0.
        -11    1    5    5    0    0  0.93283260937E+02 -0.10643810302E+03 -0.27085497552E+03  0.30560309932E+03  0.00000000000E+00 0.  1.
         12    1    5    5    0    0  0.23910157845E+02  0.11108735151E+02 -0.90411343266E+02  0.94177017557E+02  0.00000000000E+00 0. -1.
         11    1    3    3    0    0 -0.21539704899E+02  0.25273965272E+02 -0.27911006878E+03  0.28107857034E+03  0.00000000000E+00 0. -1.
        -12    1    3    3    0    0  0.74738289165E+01  0.87448795802E+01 -0.12908114964E+04  0.12908627542E+04  0.00000000000E+00 0.  1.
          5    1    4    4  501    0 -0.11302411411E+03  0.55643040308E+02 -0.91185453355E+03  0.92052526367E+03  0.41800000000E+01 0.  1.
         -5    1    4    4    0  501  0.98965713090E+01  0.56674827116E+01 -0.59926554190E+01  0.13544253502E+02  0.41800000000E+01 0.  1.
</event>
<event>
11    1  0.7105277E-009  0.1497298E+03  0.7561462E-02  0.1097155E+00
         22   -1    0    0    0    0  0.00000000000E+00  0.00000000000E+00  0.50404706767E+03  0.50404706767E+03  0.00000000000E+00 0.  1.
         22   -1    0    0    0    0 -0.00000000000E+00 -0.00000000000E+00 -0.23288384239E+03  0.23288384239E+03  0.00000000000E+00 0. -1.
        -24    2    1    2    0    0 -0.68958545697E+02 -0.48998904577E+02 -0.14512883204E+03  0.18523584678E+03  0.78062586239E+02 0.  0.
         25    2    1    2    0    0  0.61173083958E+02  0.39627688778E+02  0.18449474127E+02  0.14594756141E+03  0.12509119740E+03 0.  0.
         24    2    1    2    0    0  0.77854617381E+01  0.93712157990E+01  0.39784258319E+03  0.40574750187E+03  0.78764720387E+02 0.  0.
        -13    1    5    5    0    0  0.11762700207E+01  0.11410308232E+02  0.39862210814E+03  0.39878711595E+03  0.00000000000E+00 0.  1.
         14    1    5    5    0    0  0.66091917174E+01 -0.20390924328E+01 -0.77952495248E+00  0.69603859274E+01  0.00000000000E+00 0. -1.
         11    1    3    3    0    0 -0.79191233789E+02 -0.20460493975E+02 -0.12295569014E+03  0.14767526895E+03  0.00000000000E+00 0. -1.
        -12    1    3    3    0    0  0.10232688093E+02 -0.28538410602E+02 -0.22173141902E+02  0.37560577832E+02  0.00000000000E+00 0.  1.
          5    1    4    4  501    0  0.21443711272E+02 -0.19838743568E+02  0.57299421833E+02  0.64452343960E+02  0.41800000000E+01 0. -1.
         -5    1    4    4    0  501  0.39729372687E+02  0.59466432347E+02 -0.38849947706E+02  0.81495217448E+02  0.41800000000E+01 0. -1.
</event>
<event>
11    1  0.7105277E-009  0.1523284E+03  0.7561462E-02  0.1094523E+00
         22   -1    0    0    0    0  0.00000000000E+00  0.00000000000E+00  0.14193482328E+03  0.14193482328E+03  0.00000000000E+00 0. -1.
         22   -1    0    0    0    0 -0.00000000000E+00 -0.00000000000E+00 -0.55822473701E+03  0.55822473701E+03  0.00000000000E+00 0.  1.
         24    2    1    2    0    0 -0.35038150754E+02  0.73964068096E+02 -0.36813154351E+03  0.38574021919E+03  0.81094562066E+02 0.  0.
         25    2    1    2    0    0  0.25025568032E+02 -0.11288849971E+03 -0.11292406576E+03  0.20437465405E+03  0.12508821754E+03 0.  0.
        -24    2    1    2    0    0  0.10012582722E+02  0.38924431614E+02  0.64765695534E+02  0.11004468705E+03  0.79371749635E+02 0.  0.
        -11    1    3    3    0    0  0.99034990899E+01  0.63297362534E+02 -0.26669017590E+03  0.27427775214E+03  0.00000000000E+00 0.  1.
         12    1    3    3    0    0 -0.44941649844E+02  0.10666705562E+02 -0.10144136761E+03  0.11146246705E+03  0.00000000000E+00 0. -1.
         13    1    5    5    0    0  0.20301294738E+02  0.49359741713E+02  0.75085324903E+02  0.92121293336E+02  0.00000000000E+00 0. -1.
        -14    1    5    5    0    0 -0.10288712017E+02 -0.10435310099E+02 -0.10319629369E+02  0.17923393712E+02  0.00000000000E+00 0.  1.
          5    1    4    4  501    0  0.16928618108E+01 -0.11751899325E+03 -0.34865224130E+02  0.12266472928E+03  0.41800000000E+01 0.  1.
         -5    1    4    4    0  501  0.23332706221E+02  0.46304935362E+01 -0.78058841629E+02  0.81709924774E+02  0.41800000000E+01 0.  1.
</event>
<event>
11    1  0.7105277E-009  0.2725985E+03  0.7561462E-02  0.1012505E+00
         22   -1    0    0    0    0  0.00000000000E+00  0.00000000000E+00  0.50875201852E+03  0.50875201852E+03  0.00000000000E+00 0.  1.
         22   -1    0    0    0    0 -0.00000000000E+00 -0.00000000000E+00 -0.12897194821E+03  0.12897194821E+03  0.00000000000E+00 0.  1.
        -24    2    1    2    0    0 -0.11261545507E+03 -0.96764650967E+00 -0.34047411884E+02  0.14218069091E+03  0.79830730614E+02 0.  0.
         25    2    1    2    0    0  0.82303008066E+01  0.30741696362E+02  0.15294195680E+03  0.20013276096E+03  0.12509632334E+03 0.  0.
         24    2    1    2    0    0  0.10438515427E+03 -0.29774049852E+02  0.26088552539E+03  0.29541051486E+03  0.86158925592E+02 0.  0.
        -11    1    5    5    0    0  0.81634100222E+02  0.19817441109E+02  0.15571234395E+03  0.17692707919E+03  0.00000000000E+00 0.  1.
         12    1    5    5    0    0  0.22751054043E+02 -0.49591490961E+02  0.10517318144E+03  0.11848343568E+03  0.00000000000E+00 0. -1.
         11    1    3    3    0    0 -0.82901601395E+02  0.36194491880E+02 -0.21754108121E+02  0.93037400955E+02  0.00000000000E+00 0. -1.
        -12    1    3    3    0    0 -0.29713853677E+02 -0.37162138390E+02 -0.12293303763E+02  0.49143289953E+02  0.00000000000E+00 0.  1.
          5    1    4    4  501    0  0.58842147442E+02 -0.13991865650E+02  0.61371668545E+02  0.86267750173E+02  0.41800000000E+01 0. -1.
         -5    1    4    4    0  501 -0.50611846636E+02  0.44733562012E+02  0.91570288254E+02  0.11386501079E+03  0.41800000000E+01 0. -1.
</event>
<event>
11    1  0.7105277E-009  0.1629781E+03  0.7561462E-02  0.1084309E+00
         22   -1    0    0    0    0  0.00000000000E+00  0.00000000000E+00  0.63481662018E+03  0.63481662018E+03  0.00000000000E+00 0.  1.
         22   -1    0    0    0    0 -0.00000000000E+00 -0.00000000000E+00 -0.11459633266E+04  0.11459633266E+04  0.00000000000E+00 0. -1.
        -24    2    1    2    0    0 -0.82276961146E+01  0.36551176717E+02 -0.80953642180E+03  0.81406533054E+03  0.77132746994E+02 0.  0.
         25    2    1    2    0    0  0.53789032340E+02 -0.12969723689E+03 -0.30000220495E+03  0.35406767155E+03  0.12509180550E+03 0.  0.
         24    2    1    2    0    0 -0.45561336225E+02  0.93146060174E+02  0.59839192037E+03  0.61264694467E+03  0.80693026708E+02 0.  0.
        -11    1    5    5    0    0 -0.30631483467E+02  0.98073212334E+02  0.37861800720E+03  0.39231140454E+03  0.00000000000E+00 0.  1.
         12    1    5    5    0    0 -0.14929852759E+02 -0.49271521599E+01  0.21977391317E+03  0.22033554013E+03  0.00000000000E+00 0. -1.
         13    1    3    3    0    0 -0.10342578506E+02  0.51554548833E+02 -0.76890409756E+03  0.77069991026E+03  0.00000000000E+00 0. -1.
        -14    1    3    3    0    0  0.21148823910E+01 -0.15003372116E+02 -0.40632324245E+02  0.43365420279E+02  0.00000000000E+00 0.  1.
          5    1    4    4  501    0  0.44462910586E+02 -0.12491820406E+03 -0.31112326496E+03  0.33822576265E+03  0.41800000000E+01 0.  1.
         -5    1    4    4    0  501  0.93261217541E+01 -0.47790328324E+01  0.11121060007E+02  0.15841908896E+02  0.41800000000E+01 0.  1.
</event>
<event>
11    1  0.7105277E-009  0.1308816E+03  0.7561462E-02  0.1118191E+00
         22   -1    0    0    0    0  0.00000000000E+00  0.00000000000E+00  0.11720369123E+04  0.11720369123E+04  0.00000000000E+00 0.  1.
         22   -1    0    0    0    0 -0.00000000000E+00 -0.00000000000E+00 -0.17160535921E+03  0.17160535921E+03  0.00000000000E+00 0. -1.
         24    2    1    2    0    0  0.22557126274E+02  0.41097703704E+01 -0.12142423574E+03  0.14735694444E+03  0.80277704823E+02 0.  0.
         25    2    1    2    0    0 -0.77629781469E+01 -0.39935783818E+02  0.87750449225E+02  0.15811917563E+03  0.12508557753E+03 0.  0.
        -24    2    1    2    0    0 -0.14794148127E+02  0.35826013448E+02  0.10341053396E+04  0.10381661514E+04  0.83142856136E+02 0.  0.
        -11    1    3    3    0    0 -0.25434598367E+02 -0.58274172068E+01 -0.14776482406E+02  0.29987030825E+02  0.00000000000E+00 0.  1.
         12    1    3    3    0    0  0.47991724641E+02  0.99371875773E+01 -0.10664775334E+03  0.11736991362E+03  0.00000000000E+00 0. -1.
         11    1    5    5    0    0 -0.22932922898E+02 -0.10506962975E+02  0.73072445396E+03  0.73115972457E+03  0.00000000000E+00 0. -1.
        -12    1    5    5    0    0  0.81387747706E+01  0.46332976423E+02  0.30338088562E+03  0.30700642683E+03  0.00000000000E+00 0.  1.
          5    1    4    4  501    0 -0.26262419408E+02  0.26964698213E+02  0.79544241206E+02  0.88099763518E+02  0.41800000000E+01 0.  1.
         -5    1    4    4    0  501  0.18499441261E+02 -0.66900482031E+02  0.82062080191E+01  0.70019412116E+02  0.41800000000E+01 0.  1.
</event>
<event>
11    1  0.7105277E-009  0.1413335E+03  0.7561462E-02  0.1106078E+00
         22   -1    0    0    0    0  0.00000000000E+00  0.00000000000E+00  0.77879120376E+03  0.77879120376E+03  0.00000000000E+00 0. -1.
         22   -1    0    0    0    0 -0.00000000000E+00 -0.00000000000E+00 -0.39436040740E+03  0.39436040740E+03  0.00000000000E+00 0.  1.
        -24    2    1    2    0    0 -0.32385127991E+02 -0.17193614930E+02 -0.35805425475E+03  0.36853994998E+03  0.79211290106E+02 0.  0.
         25    2    1    2    0    0 -0.21063195889E+02 -0.29795524571E+02  0.13459240852E+03  0.18733253218E+03  0.12508768794E+03 0.  0.
         24    2    1    2    0    0  0.53448323879E+02  0.46989139500E+02  0.60789264258E+03  0.61727912901E+03  0.80220668454E+02 0.  0.
        -13    1    5    5    0    0  0.52291972330E+02  0.40392821452E+02  0.22938347627E+03  0.23871072364E+03  0.00000000000E+00 0.  1.
         14    1    5    5    0    0  0.11563515493E+01  0.65963180489E+01  0.37850916632E+03  0.37856840537E+03  0.00000000000E+00 0. -1.
         11    1    3    3    0    0 -0.32784025422E+02 -0.46856998740E+02 -0.25258628231E+03  0.25897915102E+03  0.00000000000E+00 0. -1.
        -12    1    3    3    0    0  0.39889743098E+00  0.29663383810E+02 -0.10546797244E+03  0.10956079896E+03  0.00000000000E+00 0.  1.
          5    1    4    4  501    0 -0.27320532111E+02  0.38566241273E+02  0.15692727144E+02  0.49974999009E+02  0.41800000000E+01 0. -1.
         -5    1    4    4    0  501  0.62573362222E+01 -0.68361765844E+02  0.11889968138E+03  0.13735753317E+03  0.41800000000E+01 0. -1.
</event>
<event>
11    1  0.7105277E-009  0.1913000E+03  0.7561462E-02  0.1060852E+00
         22   -1    0    0    0    0  0.00000000000E+00  0.00000000000E+00  0.96689832264E+03  0.96689832264E+03  0.00000000000E+00 0.  1.
         22   -1    0    0    0    0 -0.00000000000E+00 -0.00000000000E+00 -0.72132617058E+03  0.72132617058E+03  0.00000000000E+00 0.  1.
         24    2    1    2    0    0 -0.50033674797E+02  0.10374572003E+03 -0.65945936689E+03  0.67493887278E+03  0.85960935208E+02 0.  0.
         25    2    1    2    0    0  0.16305671986E+03 -0.16232326585E+03  0.34357088090E+03  0.43200232532E+03  0.12509485344E+03 0.  0.
        -24    2    1    2    0    0 -0.11302304507E+03  0.58577545818E+02  0.56146063805E+03  0.58128329510E+03  0.80291241733E+02 0.  0.
        -11    1    3    3    0    0 -0.65625825182E+02  0.49435576255E+02 -0.47381554871E+03  0.48088647239E+03  0.00000000000E+00 0.  1.
         12    1    3    3    0    0  0.15592150385E+02  0.54310143775E+02 -0.18564381818E+03  0.19405240039E+03  0.00000000000E+00 0. -1.
         13    1    5    5    0    0 -0.32829174686E+02  0.81407834239E+01  0.45484203738E+02  0.56681918237E+02  0.00000000000E+00 0. -1.
        -14    1    5    5    0    0 -0.80193870381E+02  0.50436762394E+02  0.51597643431E+03  0.52460137687E+03  0.00000000000E+00 0.  1.
          5    1    4    4  501    0  0.35430129612E+02 -0.94651560373E+02  0.71303606273E+02  0.12375737809E+03  0.41800000000E+01 0.  1.
         -5    1    4    4    0  501  0.12762659025E+03 -0.67671705474E+02  0.27226727462E+03  0.30824494723E+03  0.41800000000E+01 0.  1.
</event>
<event>
11    1  0.7105277E-009  0.1804374E+03  0.7561462E-02  0.1069290E+00
         22   -1    0    0    0    0  0.00000000000E+00  0.00000000000E+00  0.67536698753E+03  0.67536698753E+03  0.00000000000E+00 0.  1.
         22   -1    0    0    0    0 -0.00000000000E+00 -0.00000000000E+00 -0.31692188407E+03  0.31692188407E+03  0.00000000000E+00 0. -1.
        -24    2    1    2    0    0 -0.12842264958E+03  0.28593608234E+02 -0.25292186113E+03  0.29614178105E+03  0.80128117961E+02 0.  0.
         25    2    1    2    0    0  0.91428911527E+02 -0.99317717406E+02  0.21098065336E+03  0.27997070123E+03  0.12508997801E+03 0.  0.
         24    2    1    2    0    0  0.36993738052E+02  0.70724109172E+02  0.40038631123E+03  0.41617638932E+03  0.80766035798E+02 0.  0.
        -13    1    5    5    0    0  0.10216821130E+02  0.82116130338E+02  0.32498947307E+03  0.33535891207E+03  0.00000000000E+00 0.  1.
         14    1    5    5    0    0  0.26776916921E+02 -0.11392021166E+02  0.75396838152E+02  0.80817477252E+02  0.00000000000E+00 0. -1.
         11    1    3    3    0    0 -0.83070828516E+02  0.56533885962E+02 -0.15640914070E+03  0.18590498139E+03  0.00000000000E+00 0. -1.
        -12    1    3    3    0    0 -0.45351821063E+02 -0.27940277728E+02 -0.96512720432E+02  0.11023679966E+03  0.00000000000E+00 0.  1.
          5    1    4    4  501    0  0.30670843829E+02 -0.90279888457E+02  0.50267447819E+02  0.10786773211E+03  0.41800000000E+01 0.  1.
         -5    1    4    4    0  501  0.60758067698E+02 -0.90378289496E+01  0.16071320554E+03  0.17210296912E+03  0.41800000000E+01 0.  1.
</event>
<event>
11    1  0.7105277E-009  0.1468229E+03  0.7561462E-02  0.1100170E+00
         22   -1    0    0    0    0  0.00000000000E+00  0.00000000000E+00  0.15956187628E+04  0.15956187628E+04  0.00000000000E+00 0.  1.
         22   -1    0    0    0    0 -0.00000000000E+00 -0.00000000000E+00 -0.28395316254E+03  0.28395316254E+03  0.00000000000E+00 0.  1.
         24    2    1    2    0    0  0.70607244921E+02 -0.43689975452E+02 -0.25490801395E+03  0.27931743700E+03  0.78396033354E+02 0.  0.
         25    2    1    2    0    0 -0.75625065945E+02 -0.38674861284E+02  0.39447426125E+03  0.42246024566E+03  0.12509125020E+03 0.  0.
        -24    2    1    2    0    0  0.50178210237E+01  0.82364836735E+02  0.11720993530E+04  0.11777942427E+04  0.81075520546E+02 0.  0.
        -11    1    3    3    0    0  0.34494450987E+02 -0.90155092965E+01 -0.20691721344E+03  0.20996637773E+03  0.00000000000E+00 0.  1.
         12    1    3    3    0    0  0.36112793934E+02 -0.34674466155E+02 -0.47990800506E+02  0.69351059272E+02  0.00000000000E+00 0. -1.
         11    1    5    5    0    0  0.22589928347E+02  0.22057028719E+02  0.12908311716E+03  0.13288818049E+03  0.00000000000E+00 0. -1.
        -12    1    5    5    0    0 -0.17572107323E+02  0.60307808017E+02  0.10430162358E+04  0.10449060622E+04  0.00000000000E+00 0.  1.
          5    1    4    4  501    0 -0.16911165441E+02  0.17711726853E+02  0.28444149715E+03  0.28552430804E+03  0.41800000000E+01 0.  1.
         -5    1    4    4    0  501 -0.58713900504E+02 -0.56386588136E+02  0.11003276411E+03  0.13693593762E+03  0.41800000000E+01 0.  1.
</event>
<event>
11    1  0.7105277E-009  0.1443622E+03  0.7561462E-02  0.1102783E+00
         22   -1    0    0    0    0  0.00000000000E+00  0.00000000000E+00  0.69528331116E+03  0.69528331116E+03  0.00000000000E+00 0.  1.
         22   -1    0    0    0    0 -0.00000000000E+00 -0.00000000000E+00 -0.48897864285E+03  0.48897864285E+03  0.00000000000E+00 0. -1.
        -24    2    1    2    0    0  0.55004357252E+01 -0.67529209812E+02 -0.36147723863E+03  0.37630532181E+03  0.79683450020E+02 0.  0.
         25    2    1    2    0    0 -0.54759695405E+02  0.10305454007E+03 -0.53072521543E+02  0.17911621288E+03  0.12508821968E+03 0.  0.
         24    2    1    2    0    0  0.49259259680E+02 -0.35525330257E+02  0.62085442849E+03  0.62884041932E+03  0.79319151841E+02 0.  0.
        -13    1    5    5    0    0  0.18355750779E+02 -0.38232344059E+02  0.54822887022E+03  0.54986683830E+03  0.00000000000E+00 0.  1.
         14    1    5    5    0    0  0.30903508901E+02  0.27070138018E+01  0.72625558267E+02  0.78973581024E+02  0.00000000000E+00 0. -1.
         11    1    3    3    0    0 -0.35905899389E+02 -0.19439196639E+02 -0.12775453486E+03  0.13412060675E+03  0.00000000000E+00 0. -1.
        -12    1    3    3    0    0  0.41406335114E+02 -0.48090013173E+02 -0.23372270376E+03  0.24218471506E+03  0.00000000000E+00 0.  1.
          5    1    4    4  501    0  0.36014746964E+02  0.12072533663E+02 -0.29750684531E+02  0.48429161648E+02  0.41800000000E+01 0.  1.
         -5    1    4    4    0  501 -0.90774442369E+02  0.90982006406E+02 -0.23321837012E+02  0.13068705123E+03  0.41800000000E+01 0.  1.
</event>
<event>
11    1  0.7105277E-009  0.1619843E+03  0.7561462E-02  0.1085226E+00
         22   -1    0    0    0    0  0.00000000000E+00  0.00000000000E+00  0.33674410802E+03  0.33674410802E+03  0.00000000000E+00 0.  1.
         22   -1    0    0    0    0 -0.00000000000E+00 -0.00000000000E+00 -0.32174736406E+03  0.32174736406E+03  0.00000000000E+00 0. -1.
        -24    2    1    2    0    0 -0.77657025970E+02 -0.17998994703E+02 -0.22339051224E+03  0.25029007089E+03  0.79920092176E+02 0.  0.
         25    2    1    2    0    0 -0.34698200877E+02  0.57464691975E+02  0.15120981114E+02  0.14276337925E+03  0.12508629988E+03 0.  0.
         24    2    1    2    0    0  0.11235522685E+03 -0.39465697272E+02  0.22326627508E+03  0.26543802195E+03  0.80176528024E+02 0.  0.
        -13    1    5    5    0    0  0.11401765349E+03 -0.25228697144E+02  0.14650804051E+03  0.18735292472E+03  0.00000000000E+00 0.  1.
         14    1    5    5    0    0 -0.16624266394E+01 -0.14237000128E+02  0.76758234573E+02  0.78085097232E+02  0.00000000000E+00 0. -1.
         13    1    3    3    0    0 -0.91027291566E+02 -0.88340756888E+01 -0.21073738745E+03  0.22972647904E+03  0.00000000000E+00 0. -1.
        -14    1    3    3    0    0  0.13370265597E+02 -0.91649190144E+01 -0.12653124787E+02  0.20563591844E+02  0.00000000000E+00 0.  1.
          5    1    4    4  501    0 -0.26850384878E+02  0.41629763665E+02 -0.52761901454E+02  0.72493248209E+02  0.41800000000E+01 0.  1.
         -5    1    4    4    0  501 -0.78478159994E+01  0.15834928310E+02  0.67882882568E+02  0.70270131040E+02  0.41800000000E+01 0.  1.
</event>
<event>
11    1  0.7105277E-009  0.1438635E+03  0.7561462E-02  0.1103319E+00
         22   -1    0    0    0    0  0.00000000000E+00  0.00000000000E+00  0.16005085816E+03  0.16005085816E+03  0.00000000000E+00 0. -1.
         22   -1    0    0    0    0 -0.00000000000E+00 -0.00000000000E+00 -0.96026361192E+03  0.96026361192E+03  0.00000000000E+00 0. -1.
         24    2    1    2    0    0 -0.48560584877E+02  0.49631109225E+02 -0.76920488182E+03  0.77715240098E+03  0.86419481235E+02 0.  0.
         25    2    1    2    0    0  0.84520820362E+02 -0.35550743036E+02 -0.13256823349E+03  0.20404099815E+03  0.12510302950E+03 0.  0.
        -24    2    1    2    0    0 -0.35960235485E+02 -0.14080366190E+02  0.10156036154E+03  0.13912107094E+03  0.86883658392E+02 0.  0.
        -13    1    3    3    0    0  0.84701938578E+01  0.68777913112E+01 -0.10619151371E+02  0.15225458060E+02  0.00000000000E+00 0.  1.
         14    1    3    3    0    0 -0.57030778735E+02  0.42753317914E+02 -0.75858573045E+03  0.76192694292E+03  0.00000000000E+00 0. -1.
         11    1    5    5    0    0  0.17134259467E+02  0.18632688810E+02  0.57316789854E+02  0.62657596020E+02  0.00000000000E+00 0. -1.
        -12    1    5    5    0    0 -0.53094494952E+02 -0.32713055000E+02  0.44243571690E+02  0.76463474925E+02  0.00000000000E+00 0.  1.
          5    1    4    4  501    0 -0.13029738333E+02  0.15944989295E+02 -0.78233164475E+02  0.81005661459E+02  0.41800000000E+01 0. -1.
         -5    1    4    4    0  501  0.97550558695E+02 -0.51495732331E+02 -0.54335069016E+02  0.12303533669E+03  0.41800000000E+01 0. -1.
</event>
<event>
11    1  0.7105277E-009  0.1296378E+03  0.7561462E-02  0.1119715E+00
         22   -1    0    0    0    0  0.00000000000E+00  0.00000000000E+00  0.26204218228E+03  0.26204218228E+03  0.00000000000E+00 0. -1.
         22   -1    0    0    0    0 -0.00000000000E+00 -0.00000000000E+00 -0.24164685280E+04  0.24164685280E+04  0.00000000000E+00 0. -1.
        -24    2    1    2    0    0  0.32280962353E+02  0.12148679102E+02 -0.20928933995E+04  0.20947468641E+04  0.81067824551E+02 0.  0.
         25    2    1    2    0    0 -0.17753173834E+02 -0.28546960902E+02 -0.30196723217E+03  0.32857833537E+03  0.12509759793E+03 0.  0.
         24    2    1    2    0    0 -0.14527788518E+02  0.16398281799E+02  0.24043428594E+03  0.25518551080E+03  0.82650098497E+02 0.  0.
        -13    1    5    5    0    0 -0.17469788961E+02  0.41437500512E+02  0.72105648942E+02  0.84979318568E+02  0.00000000000E+00 0.  1.
         14    1    5    5    0    0  0.29420004426E+01 -0.25039218713E+02  0.16832863700E+03  0.17020619223E+03  0.00000000000E+00 0. -1.
         11    1    3    3    0    0  0.52598534621E+02  0.30416343683E+02 -0.14631068424E+04  0.14643679156E+04  0.00000000000E+00 0. -1.
        -12    1    3    3    0    0 -0.20317572268E+02 -0.18267664580E+02 -0.62978655707E+03  0.63037894855E+03  0.00000000000E+00 0.  1.
          5    1    4    4  501    0 -0.18543582057E+02  0.12125637300E+02  0.12826645782E+01  0.22583470589E+02  0.41800000000E+01 0. -1.
         -5    1    4    4    0  501  0.79040822236E+00 -0.40672598202E+02 -0.30324989675E+03  0.30599486478E+03  0.41800000000E+01 0. -1.
</event>
<event>
11    1  0.7105277E-009  0.1834056E+03  0.7561462E-02  0.1066921E+00
         22   -1    0    0    0    0  0.00000000000E+00  0.00000000000E+00  0.33875322636E+03  0.33875322636E+03  0.00000000000E+00 0. -1.
         22   -1    0    0    0    0 -0.00000000000E+00 -0.00000000000E+00 -0.12793933961E+04  0.12793933961E+04  0.00000000000E+00 0.  1.
         24    2    1    2    0    0  0.12640999004E+03  0.53094350605E+02 -0.11460605547E+04  0.11569741398E+04  0.79598176004E+02 0.  0.
         25    2    1    2    0    0 -0.10525111886E+03 -0.16408776385E+02 -0.64796763700E+02  0.17661456374E+03  0.12508811924E+03 0.  0.
        -24    2    1    2    0    0 -0.21158871178E+02 -0.36685574220E+02  0.27021714864E+03  0.28455791889E+03  0.78500780870E+02 0.  0.
        -13    1    3    3    0    0  0.12855162575E+03  0.28589140346E+02 -0.88306366828E+03  0.89282937993E+03  0.00000000000E+00 0.  1.
         14    1    3    3    0    0 -0.21416357152E+01  0.24505210259E+02 -0.26299688637E+03  0.26414475989E+03  0.00000000000E+00 0. -1.
         11    1    5    5    0    0  0.11429745135E+02 -0.30382901241E+02  0.23060031913E+03  0.23287392930E+03  0.00000000000E+00 0. -1.
        -12    1    5    5    0    0 -0.32588616313E+02 -0.63026729792E+01  0.39616829506E+02  0.51683989591E+02  0.00000000000E+00 0.  1.
          5    1    4    4  501    0  0.26957650967E+02  0.10606395215E+02 -0.12712203570E+02  0.31910548173E+02  0.41800000000E+01 0.  1.
         -5    1    4    4    0  501 -0.13220876983E+03 -0.27015171601E+02 -0.52084560131E+02  0.14470401556E+03  0.41800000000E+01 0.  1.
</event>
<event>
11    1  0.7105277E-009  0.1387620E+03  0.7561462E-02  0.1108949E+00
         22   -1    0    0    0    0  0.00000000000E+00  0.00000000000E+00  0.27963345617E+03  0.27963345617E+03  0.00000000000E+00 0.  1.
         22   -1    0    0    0    0 -0.00000000000E+00 -0.00000000000E+00 -0.12344965785E+04  0.12344965785E+04  0.00000000000E+00 0. -1.
        -24    2    1    2    0    0  0.30033183597E+02  0.47796080465E+02 -0.98724010147E+03  0.99212216375E+03  0.80479267103E+02 0.  0.
         25    2    1    2    0    0 -0.70742645110E+02 -0.74811441287E+02 -0.20793731703E+03  0.26360337310E+03  0.12509011516E+03 0.  0.
         24    2    1    2    0    0  0.40709461512E+02  0.27015360823E+02  0.24031429615E+03  0.25840449785E+03  0.81454487872E+02 0.  0.
        -13    1    5    5    0    0  0.45403881657E+01 -0.83039554193E+01  0.17759908053E+03  0.17785107311E+03  0.00000000000E+00 0.  1.
         14    1    5    5    0    0  0.36169073346E+02  0.35319316242E+02  0.62715215625E+02  0.80553424741E+02  0.00000000000E+00 0. -1.
         11    1    3    3    0    0  0.28314488334E+02  0.52996335122E+02 -0.98384545336E+03  0.98567854693E+03  0.00000000000E+00 0. -1.
        -12    1    3    3    0    0  0.17186952629E+01 -0.52002546576E+01 -0.33946481069E+01  0.64436168167E+01  0.00000000000E+00 0.  1.
          5    1    4    4  501    0 -0.85158427483E+02 -0.72272030238E+02 -0.21825738847E+03  0.24521207994E+03  0.41800000000E+01 0. -1.
         -5    1    4    4    0  501  0.14415782373E+02 -0.25394110498E+01  0.10320071433E+02  0.18391293165E+02  0.41800000000E+01 0. -1.
</event>
<event>
11    1  0.7105277E-009  0.1452847E+03  0.7561462E-02  0.1101797E+00
         22   -1    0    0    0    0  0.00000000000E+00  0.00000000000E+00  0.93881291658E+03  0.93881291658E+03  0.00000000000E+00 0. -1.
         22   -1    0    0    0    0 -0.00000000000E+00 -0.00000000000E+00 -0.79709400061E+03  0.79709400061E+03  0.00000000000E+00 0.  1.
         24    2    1    2    0    0  0.41211142254E+02 -0.69285342254E+02 -0.55392546182E+03  0.56542150596E+03  0.79807551352E+02 0.  0.
         25    2    1    2    0    0 -0.63550650199E+02  0.15641236921E+02 -0.21346813791E+03  0.25592775950E+03  0.12508812394E+03 0.  0.
        -24    2    1    2    0    0  0.22339507945E+02  0.53644105333E+02  0.90911251570E+03  0.91455765173E+03  0.80953001682E+02 0.  0.
        -13    1    3    3    0    0  0.14795878151E+02 -0.18299262895E+02 -0.28918159947E+02  0.37283253714E+02  0.00000000000E+00 0.  1.
         14    1    3    3    0    0  0.26415264103E+02 -0.50986079358E+02 -0.52500730187E+03  0.52813825224E+03  0.00000000000E+00 0. -1.
         13    1    5    5    0    0  0.45193393242E+02  0.22380264912E+02  0.29949628962E+03  0.30371260519E+03  0.00000000000E+00 0. -1.
        -14    1    5    5    0    0 -0.22853885297E+02  0.31263840421E+02  0.60961622608E+03  0.61084504654E+03  0.00000000000E+00 0.  1.
          5    1    4    4  501    0 -0.32273863583E+02  0.68387102416E+02 -0.87221426838E+02  0.11551384223E+03  0.41800000000E+01 0.  1.
         -5    1    4    4    0  501 -0.31276786616E+02 -0.52745865495E+02 -0.12624671107E+03  0.14041391727E+03  0.41800000000E+01 0.  1.
</event>
<event>
11    1  0.7105277E-009  0.1442655E+03  0.7561462E-02  0.1102887E+00
         22   -1    0    0    0    0  0.00000000000E+00  0.00000000000E+00  0.15824732400E+03  0.15824732400E+03  0.00000000000E+00 0. -1.
         22   -1    0    0    0    0 -0.00000000000E+00 -0.00000000000E+00 -0.16381311062E+04  0.16381311062E+04  0.00000000000E+00 0.  1.
         24    2    1    2    0    0 -0.49231954660E+01  0.51094297720E+00 -0.14394284900E+04  0.14416995339E+04  0.80738275396E+02 0.  0.
         25    2    1    2    0    0  0.60732444204E+02 -0.44927415479E+02 -0.14108638621E+03  0.20312617029E+03  0.12509184722E+03 0.  0.
        -24    2    1    2    0    0 -0.55809248738E+02  0.44416472502E+02  0.10063109400E+03  0.15155272609E+03  0.88057460967E+02 0.  0.
        -11    1    3    3    0    0 -0.38057233305E+02  0.18942124014E+02 -0.83732791218E+03  0.83840633918E+03  0.00000000000E+00 0.  1.
         12    1    3    3    0    0  0.33134037839E+02 -0.18431181037E+02 -0.60210057785E+03  0.60329319468E+03  0.00000000000E+00 0. -1.
         13    1    5    5    0    0 -0.64143055413E+01  0.30175155218E+02  0.94946444995E+02  0.99832413199E+02  0.00000000000E+00 0. -1.
        -14    1    5    5    0    0 -0.49394943197E+02  0.14241317284E+02  0.56846490057E+01  0.51720312893E+02  0.00000000000E+00 0.  1.
          5    1    4    4  501    0  0.26727462362E+02 -0.36651468962E+02  0.11120477887E+02  0.46891628782E+02  0.41800000000E+01 0.  1.
         -5    1    4    4    0  501  0.34004981842E+02 -0.82759465165E+01 -0.15220686410E+03  0.15623454150E+03  0.41800000000E+01 0.  1.
</event>
<event>
11    1  0.7105277E-009  0.1436091E+03  0.7561462E-02  0.1103594E+00
         22   -1    0    0    0    0  0.00000000000E+00  0.00000000000E+00  0.48633264516E+03  0.48633264516E+03  0.00000000000E+00 0. -1.
         22   -1    0    0    0    0 -0.00000000000E+00 -0.00000000000E+00 -0.93922575072E+03  0.93922575072E+03  0.00000000000E+00 0.  1.
        -24    2    1    2    0    0 -0.50066783126E+02  0.21584737715E+02 -0.63656341386E+03  0.64388106256E+03  0.79982868101E+02 0.  0.
         25    2    1    2    0    0  0.87909132226E+02 -0.79965644755E+02 -0.26764553547E+03  0.31845411929E+03  0.12512543134E+03 0.  0.
         24    2    1    2    0    0 -0.37842349100E+02  0.58380907040E+02  0.45131584377E+03  0.46322321403E+03  0.77777769855E+02 0.  0.
        -13    1    5    5    0    0 -0.51234884422E+02  0.34818812771E+02  0.17613088676E+03  0.18670686215E+03  0.00000000000E+00 0.  1.
         14    1    5    5    0    0  0.13392535321E+02  0.23562094269E+02  0.27518495701E+03  0.27651635188E+03  0.00000000000E+00 0. -1.
         11    1    3    3    0    0 -0.45122954898E+02  0.17131082843E+02 -0.15654749024E+03  0.16381902136E+03  0.00000000000E+00 0. -1.
        -12    1    3    3    0    0 -0.49438282277E+01  0.44536548722E+01 -0.48001592362E+03  0.48006204121E+03  0.00000000000E+00 0.  1.
          5    1    4    4  501    0 -0.14816761893E+02 -0.60631091391E+02 -0.63907192811E+02  0.89427441925E+02  0.41800000000E+01 0.  1.
         -5    1    4    4    0  501  0.10272589412E+03 -0.19334553364E+02 -0.20373834265E+03  0.22902667736E+03  0.41800000000E+01 0.  1.
</event>
<event>
11    1  0.7105277E-009  0.1350787E+03  0.7561462E-02  0.1113182E+00
         22   -1    0    0    0    0  0.00000000000E+00  0.00000000000E+00  0.19475359052E+03  0.19475359052E+03  0.00000000000E+00 0.  1.
         22   -1    0    0    0    0 -0.00000000000E+00 -0.00000000000E+00 -0.29283810319E+04  0.29283810319E+04  0.00000000000E+00 0.  1.
         24    2    1    2    0    0  0.97841974625E+01 -0.31522867510E+02 -0.23770560987E+04  0.23786635320E+04  0.80963451286E+02 0.  0.
         25    2    1    2    0    0  0.10728403693E+02 -0.15926724661E+02 -0.53104155879E+03  0.54591357891E+03  0.12509092400E+03 0.  0.
        -24    2    1    2    0    0 -0.20512601155E+02  0.47449592171E+02  0.17447021610E+03  0.19855751151E+03  0.79454379780E+02 0.  0.
        -13    1    3    3    0    0  0.39798263339E+02 -0.16575388277E+02 -0.18716235461E+04  0.18721200131E+04  0.00000000000E+00 0.  1.
         14    1    3    3    0    0 -0.30014065877E+02 -0.14947479233E+02 -0.50543255260E+03  0.50654351887E+03  0.00000000000E+00 0. -1.
         11    1    5    5    0    0 -0.33777113934E+02  0.15113098940E+02  0.24056322025E+02  0.44136218854E+02  0.00000000000E+00 0. -1.
        -12    1    5    5    0    0  0.13264512779E+02  0.32336493231E+02  0.15041389408E+03  0.15442129266E+03  0.00000000000E+00 0.  1.
          5    1    4    4  501    0 -0.51612011192E+02 -0.25820040623E+02 -0.17561558843E+03  0.18490208624E+03  0.41800000000E+01 0. -1.
         -5    1    4    4    0  501  0.62340414884E+02  0.98933159613E+01 -0.35542597036E+03  0.36101149267E+03  0.41800000000E+01 0. -1.
</event>
<event>
11    1  0.7105277E-009  0.2177825E+03  0.7561462E-02  0.1042616E+00
         22   -1    0    0    0    0  0.00000000000E+00  0.00000000000E+00  0.17325089931E+03  0.17325089931E+03  0.00000000000E+00 0.  1.
         22   -1    0    0    0    0 -0.00000000000E+00 -0.00000000000E+00 -0.79656314806E+03  0.79656314806E+03  0.00000000000E+00 0.  1.
        -24    2    1    2    0    0 -0.40540554778E+02 -0.17212455524E+01 -0.44320903341E+03  0.45239816331E+03  0.81137855527E+02 0.  0.
         25    2    1    2    0    0 -0.10503350436E+03 -0.11344721803E+03 -0.23330047714E+03  0.30655902915E+03  0.12508803862E+03 0.  0.
         24    2    1    2    0    0  0.14557405914E+03  0.11516846358E+03  0.53197261797E+02  0.21085685491E+03  0.84705861090E+02 0.  0.
        -11    1    5    5    0    0  0.88799743431E+02  0.10967078815E+03  0.60142791995E+02  0.15339567020E+03  0.00000000000E+00 0.  1.
         12    1    5    5    0    0  0.56774315705E+02  0.54976754341E+01 -0.69455301981E+01  0.57461184713E+02  0.00000000000E+00 0. -1.
         13    1    3    3    0    0  0.21762137341E+02  0.13485237666E+02 -0.98406784712E+02  0.10168253308E+03  0.00000000000E+00 0. -1.
        -14    1    3    3    0    0 -0.62302692119E+02 -0.15206483219E+02 -0.34480224870E+03  0.35071563022E+03  0.00000000000E+00 0.  1.
          5    1    4    4  501    0 -0.56987839936E+02 -0.13334426927E+03 -0.15339049617E+03  0.21112656101E+03  0.41800000000E+01 0.  1.
         -5    1    4    4    0  501 -0.48045664421E+02  0.19897051242E+02 -0.79909980961E+02  0.95432468138E+02  0.41800000000E+01 0.  1.
</event>
<event>
11    1  0.7105277E-009  0.1307306E+03  0.7561462E-02  0.1118375E+00
         22   -1    0    0    0    0  0.00000000000E+00  0.00000000000E+00  0.84138057524E+02  0.84138057524E+02  0.00000000000E+00 0.  1.
         22   -1    0    0    0    0 -0.00000000000E+00 -0.00000000000E+00 -0.25527674747E+04  0.25527674747E+04  0.00000000000E+00 0. -1.
         24    2    1    2    0    0 -0.27908713454E+02  0.26802576853E+02 -0.21562990435E+04  0.21584247941E+04  0.87605664863E+02 0.  0.
         25    2    1    2    0    0  0.53173469247E+02  0.16139111519E+02 -0.35067212009E+03  0.37643802627E+03  0.12508702195E+03 0.  0.
        -24    2    1    2    0    0 -0.25264755793E+02 -0.42941688372E+02  0.38341746344E+02  0.10204271189E+03  0.80376172165E+02 0.  0.
        -11    1    3    3    0    0 -0.15805441842E+02  0.14971810027E+02 -0.11425831174E+03  0.11631392388E+03  0.00000000000E+00 0.  1.
         12    1    3    3    0    0 -0.12103271612E+02  0.11830766826E+02 -0.20420407317E+04  0.20421108702E+04  0.00000000000E+00 0. -1.
         11    1    5    5    0    0  0.48757974299E+01 -0.40961373742E+02 -0.12327646724E+02  0.43053204447E+02  0.00000000000E+00 0. -1.
        -12    1    5    5    0    0 -0.30140553223E+02 -0.19803146294E+01  0.50669393068E+02  0.58989507444E+02  0.00000000000E+00 0.  1.
          5    1    4    4  501    0  0.45324834435E+02 -0.44540094795E+02 -0.10145637639E+03  0.11978743411E+03  0.41800000000E+01 0. -1.
         -5    1    4    4    0  501  0.78486348120E+01  0.60679206313E+02 -0.24921574370E+03  0.25665059216E+03  0.41800000000E+01 0. -1.
</event>
<event>
11    1  0.7105277E-009  0.1386641E+03  0.7561462E-02  0.1109059E+00
         22   -1    0    0    0    0  0.00000000000E+00  0.00000000000E+00  0.10343949076E+04  0.10343949076E+04  0.00000000000E+00 0.  1.
         22   -1    0    0    0    0 -0.00000000000E+00 -0.00000000000E+00 -0.34725359425E+03  0.34725359425E+03  0.00000000000E+00 0.  1.
        -24    2    1    2    0    0  0.51787935640E+02 -0.34403526070E+02 -0.24831684090E+03  0.26840170818E+03  0.80700871093E+02 0.  0.
         25    2    1    2    0    0 -0.65413297092E+02 -0.21726336584E+02 -0.27265034963E+02  0.14540338265E+03  0.12509128033E+03 0.  0.
         24    2    1    2    0    0  0.13625361452E+02  0.56129862654E+02  0.96272318918E+03  0.96784341098E+03  0.80924145035E+02 0.  0.
        -13    1    5    5    0    0  0.32676363260E+02  0.63937453917E+02  0.86498954619E+03  0.86796466388E+03  0.00000000000E+00 0.  1.
         14    1    5    5    0    0 -0.19051001808E+02 -0.78075912629E+01  0.97733642985E+02  0.99878747100E+02  0.00000000000E+00 0. -1.
         13    1    3    3    0    0  0.42303421628E+02 -0.26885264584E+02 -0.53884501958E+02  0.73593046441E+02  0.00000000000E+00 0. -1.
        -14    1    3    3    0    0  0.94845140113E+01 -0.75182614865E+01 -0.19443233894E+03  0.19480866174E+03  0.00000000000E+00 0.  1.
          5    1    4    4  501    0 -0.91994196840E+02  0.12388819791E+02 -0.38414243428E+02  0.10054621627E+03  0.41800000000E+01 0. -1.
         -5    1    4    4    0  501  0.26580899748E+02 -0.34115156375E+02  0.11149208465E+02  0.44857166376E+02  0.41800000000E+01 0. -1.
</event>
<event>
11    1  0.7105277E-009  0.2351002E+03  0.7561462E-02  0.1032150E+00
         22   -1    0    0    0    0  0.00000000000E+00  0.00000000000E+00  0.62570529674E+03  0.62570529674E+03  0.00000000000E+00 0. -1.
         22   -1    0    0    0    0 -0.00000000000E+00 -0.00000000000E+00 -0.23347796858E+03  0.23347796858E+03  0.00000000000E+00 0. -1.
        -24    2    1    2    0    0  0.14690503199E+03  0.29794297718E+02  0.38705711984E+01  0.16917449925E+03  0.78334164146E+02 0.  0.
         25    2    1    2    0    0 -0.73884341026E+01  0.14161636213E+03 -0.47264442032E+02  0.19491418547E+03  0.12509128361E+03 0.  0.
         24    2    1    2    0    0 -0.13951659789E+03 -0.17141065984E+03  0.43562119900E+03  0.49509458061E+03  0.80661758821E+02 0.  0.
        -11    1    5    5    0    0 -0.89977112634E+02 -0.14495948080E+03  0.26233725785E+03  0.31293764351E+03  0.00000000000E+00 0.  1.
         12    1    5    5    0    0 -0.49539485256E+02 -0.26451179050E+02  0.17328394115E+03  0.18215693710E+03  0.00000000000E+00 0. -1.
         11    1    3    3    0    0  0.69584123195E+02 -0.19466420651E+02 -0.18946070648E+02  0.74698362277E+02  0.00000000000E+00 0. -1.
        -12    1    3    3    0    0  0.77320908797E+02  0.49260718369E+02  0.22816641846E+02  0.94476136969E+02  0.00000000000E+00 0.  1.
          5    1    4    4  501    0  0.42751368141E+02  0.74193584543E+02  0.19015258209E+02  0.87814690742E+02  0.41800000000E+01 0. -1.
         -5    1    4    4    0  501 -0.50139802243E+02  0.67422777584E+02 -0.66279700242E+02  0.10709949472E+03  0.41800000000E+01 0. -1.
</event>
<event>
11    1  0.7105277E-009  0.1897674E+03  0.7561462E-02  0.1062005E+00
         22   -1    0    0    0    0  0.00000000000E+00  0.00000000000E+00  0.80996472997E+03  0.80996472997E+03  0.00000000000E+00 0. -1.
         22   -1    0    0    0    0 -0.00000000000E+00 -0.00000000000E+00 -0.29793542250E+03  0.29793542250E+03  0.00000000000E+00 0. -1.
         24    2    1    2    0    0  0.63292600027E+02  0.14070971018E+03 -0.22896284384E+03  0.28778096396E+03  0.81170952967E+02 0.  0.
         25    2    1    2    0    0 -0.37457811984E+02 -0.70607323361E+02  0.12521583359E+03  0.19420453449E+03  0.12509162420E+03 0.  0.
        -24    2    1    2    0    0 -0.25834788043E+02 -0.70102386814E+02  0.61577631772E+03  0.62591465402E+03  0.83707226359E+02 0.  0.
        -11    1    3    3    0    0  0.24407412876E+02  0.31606314595E+01 -0.69002989498E+02  0.73260657615E+02  0.00000000000E+00 0.  1.
         12    1    3    3    0    0  0.38885187151E+02  0.13754907872E+03 -0.15995985434E+03  0.21452030635E+03  0.00000000000E+00 0. -1.
         11    1    5    5    0    0 -0.48617919657E+02 -0.16507333466E+02  0.35650977615E+03  0.36018802681E+03  0.00000000000E+00 0. -1.
        -12    1    5    5    0    0  0.22783131615E+02 -0.53595053348E+02  0.25926654157E+03  0.26572662721E+03  0.00000000000E+00 0.  1.
          5    1    4    4  501    0 -0.64249159091E+02 -0.12829644597E+02  0.15785625140E+02  0.67521941511E+02  0.41800000000E+01 0. -1.
         -5    1    4    4    0  501  0.26791347107E+02 -0.57777678764E+02  0.10943020845E+03  0.12668259298E+03  0.41800000000E+01 0. -1.
</event>
<event>
11    1  0.7105277E-009  0.1687157E+03  0.7561462E-02  0.1079155E+00
         22   -1    0    0    0    0  0.00000000000E+00  0.00000000000E+00  0.36853101080E+03  0.36853101080E+03  0.00000000000E+00 0. -1.
         22   -1    0    0    0    0 -0.00000000000E+00 -0.00000000000E+00 -0.53163215418E+03  0.53163215418E+03  0.00000000000E+00 0.  1.
        -24    2    1    2    0    0 -0.68709136716E+02  0.90607638219E+02 -0.42932416132E+03  0.45122857724E+03  0.79732702517E+02 0.  0.
         25    2    1    2    0    0  0.41743638292E+02 -0.10506244749E+03 -0.74887848029E+00  0.16860721827E+03  0.12508870461E+03 0.  0.
         24    2    1    2    0    0  0.26965498424E+02  0.14454809273E+02  0.26697189643E+03  0.28032736948E+03  0.79833332522E+02 0.  0.
        -13    1    5    5    0    0 -0.40875704007E+01  0.18892111433E+02  0.10602750858E+02  0.22046279322E+02  0.00000000000E+00 0.  1.
         14    1    5    5    0    0  0.31053068825E+02 -0.44373021596E+01  0.25636914557E+03  0.25828109016E+03  0.00000000000E+00 0. -1.
         13    1    3    3    0    0 -0.28590151697E+02  0.78402285351E+01 -0.22762549064E+03  0.22954788160E+03  0.00000000000E+00 0. -1.
        -14    1    3    3    0    0 -0.40118985019E+02  0.82767409684E+02 -0.20169867068E+03  0.22168069564E+03  0.00000000000E+00 0.  1.
          5    1    4    4  501    0  0.50328316752E+02  0.68398772810E+01 -0.19837734277E+02  0.54687580761E+02  0.41800000000E+01 0. -1.
         -5    1    4    4    0  501 -0.85846784594E+01 -0.11190232477E+03  0.19088855797E+02  0.11391963751E+03  0.41800000000E+01 0. -1.
</event>
<event>
11    1  0.7105277E-009  0.1596606E+03  0.7561462E-02  0.1087397E+00
         22   -1    0    0    0    0  0.00000000000E+00  0.00000000000E+00  0.15818949192E+03  0.15818949192E+03  0.00000000000E+00 0. -1.
         22   -1    0    0    0    0 -0.00000000000E+00 -0.00000000000E+00 -0.15833484874E+04  0.15833484874E+04  0.00000000000E+00 0.  1.
         24    2    1    2    0    0  0.60677507828E+02 -0.80560756110E+02 -0.14218500191E+04  0.14277204734E+04  0.80972080782E+02 0.  0.
         25    2    1    2    0    0  0.14209630641E+02  0.98950312060E+02 -0.82343963265E+02  0.18005928104E+03  0.12509092111E+03 0.  0.
        -24    2    1    2    0    0 -0.74887138469E+02 -0.18389555950E+02  0.79034986958E+02  0.13375822485E+03  0.75488239315E+02 0.  0.
        -11    1    3    3    0    0  0.70495354880E+02 -0.63973597380E+02 -0.81124112653E+03  0.81680743239E+03  0.00000000000E+00 0.  1.
         12    1    3    3    0    0 -0.98178470524E+01 -0.16587158729E+02 -0.61060889259E+03  0.61091304100E+03  0.00000000000E+00 0. -1.
         11    1    5    5    0    0 -0.32580683081E+02 -0.35436727208E+02  0.73431485569E+02  0.87803448783E+02  0.00000000000E+00 0. -1.
        -12    1    5    5    0    0 -0.42306455388E+02  0.17047171258E+02  0.56035013892E+01  0.45954776066E+02  0.00000000000E+00 0.  1.
          5    1    4    4  501    0 -0.48828097035E+02  0.75079972560E+02 -0.29766405989E+02  0.94470612707E+02  0.41800000000E+01 0.  1.
         -5    1    4    4    0  501  0.63037727677E+02  0.23870339500E+02 -0.52577557276E+02  0.85588668336E+02  0.41800000000E+01 0.  1.
</event>
<event>
11    1  0.7105277E-009  0.1355060E+03  0.7561462E-02  0.1112683E+00
         22   -1    0    0    0    0  0.00000000000E+00  0.00000000000E+00  0.96917748290E+03  0.96917748290E+03  0.00000000000E+00 0. -1.
         22   -1    0    0    0    0 -0.00000000000E+00 -0.00000000000E+00 -0.24425548304E+04  0.24425548304E+04  0.00000000000E+00 0. -1.
         24    2    1    2    0    0 -0.45982617088E+02 -0.24314599141E+02 -0.24218135494E+04  0.24236897066E+04  0.79908228717E+02 0.  0.
         25    2    1    2    0    0  0.73393012607E+02  0.34266233722E+02  0.31180145186E+03  0.34558439358E+03  0.12509084152E+03 0.  0.
        -24    2    1    2    0    0 -0.27410395519E+02 -0.99516345807E+01  0.63663475004E+03  0.64245821310E+03  0.81230448764E+02 0.  0.
        -11    1    3    3    0    0  0.10091637425E+02 -0.64540814729E+01 -0.62234325570E+02  0.63376711754E+02  0.00000000000E+00 0.  1.
         12    1    3    3    0    0 -0.56074254513E+02 -0.17860517668E+02 -0.23595792238E+04  0.23603129948E+04  0.00000000000E+00 0. -1.
         13    1    5    5    0    0 -0.50451180996E+01 -0.25152657723E+02  0.56955952354E+03  0.57013696623E+03  0.00000000000E+00 0. -1.
        -14    1    5    5    0    0 -0.22365277420E+02  0.15201023142E+02  0.67075226502E+02  0.72321246871E+02  0.00000000000E+00 0.  1.
          5    1    4    4  501    0  0.76495552589E+01  0.72386150211E+02  0.15109228190E+03  0.16776358511E+03  0.41800000000E+01 0. -1.
         -5    1    4    4    0  501  0.65743457348E+02 -0.38119916489E+02  0.16070916996E+03  0.17782080848E+03  0.41800000000E+01 0. -1.
</event>
<event>
11    1  0.7105277E-009  0.1375771E+03  0.7561462E-02  0.1110295E+00
         22   -1    0    0    0    0  0.00000000000E+00  0.00000000000E+00  0.15942952652E+04  0.15942952652E+04  0.00000000000E+00 0. -1.
         22   -1    0    0    0    0 -0.00000000000E+00 -0.00000000000E+00 -0.26110067579E+03  0.26110067579E+03  0.00000000000E+00 0. -1.
        -24    2    1    2    0    0 -0.37688362073E+02 -0.43025126956E+02 -0.22137900487E+03  0.24201434600E+03  0.79313969044E+02 0.  0.
         25    2    1    2    0    0  0.86499132020E+02  0.14495457336E+02  0.18351257870E+03  0.23877701773E+03  0.12508149156E+03 0.  0.
         24    2    1    2    0    0 -0.48810769947E+02  0.28529669619E+02  0.13710610156E+04  0.13746045773E+04  0.80826988496E+02 0.  0.
        -13    1    5    5    0    0  0.19250500826E+02  0.22690124974E+02  0.48706478306E+03  0.48797287471E+03  0.00000000000E+00 0.  1.
         14    1    5    5    0    0 -0.68061270773E+02  0.58395446456E+01  0.88399623253E+03  0.88663170256E+03  0.00000000000E+00 0. -1.
         13    1    3    3    0    0 -0.50213022785E+02 -0.58661427621E+02 -0.16480345451E+03  0.18199639932E+03  0.00000000000E+00 0. -1.
        -14    1    3    3    0    0  0.12524660712E+02  0.15636300665E+02 -0.56575550362E+02  0.60017946676E+02  0.00000000000E+00 0.  1.
          5    1    4    4  501    0  0.11014178246E+03 -0.35392318438E+00  0.17896331353E+03  0.21018248617E+03  0.41800000000E+01 0. -1.
         -5    1    4    4    0  501 -0.23642650435E+02  0.14849380521E+02  0.45492651718E+01  0.28594531558E+02  0.41800000000E+01 0. -1.
</event>
<event>
11    1  0.7105277E-009  0.1516280E+03  0.7561462E-02  0.1095227E+00
         22   -1    0    0    0    0  0.00000000000E+00  0.00000000000E+00  0.74118527358E+02  0.74118527358E+02  0.00000000000E+00 0. -1.
         22   -1    0    0    0    0 -0.00000000000E+00 -0.00000000000E+00 -0.19086941613E+04  0.19086941613E+04  0.00000000000E+00 0.  1.
        -24    2    1    2    0    0  0.89013135624E+02 -0.17680717980E+02 -0.11122088331E+04  0.11188015661E+04  0.80451910706E+02 0.  0.
         25    2    1    2    0    0 -0.76325637311E+02 -0.24496674782E+01 -0.75937894601E+03  0.77339223313E+03  0.12509020282E+03 0.  0.
         24    2    1    2    0    0 -0.12687498313E+02  0.20130385458E+02  0.37012145143E+02  0.90618889383E+02  0.79219184499E+02 0.  0.
        -13    1    5    5    0    0 -0.15535253070E+02 -0.21943927298E+02 -0.88596542970E+01  0.28308541246E+02  0.00000000000E+00 0.  1.
         14    1    5    5    0    0  0.28477547568E+01  0.42074312756E+02  0.45871799440E+02  0.62310348137E+02  0.00000000000E+00 0. -1.
         11    1    3    3    0    0  0.37069015759E+00 -0.17441838229E+02 -0.51086385733E+02  0.53983089383E+02  0.00000000000E+00 0. -1.
        -12    1    3    3    0    0  0.88642445466E+02 -0.23887975056E+00 -0.10611224473E+04  0.10648184767E+04  0.00000000000E+00 0.  1.
          5    1    4    4  501    0 -0.49670301772E+02  0.59807892531E+02 -0.36399473019E+03  0.37222810062E+03  0.41800000000E+01 0. -1.
         -5    1    4    4    0  501 -0.26655335539E+02 -0.62257560009E+02 -0.39538421582E+03  0.40116413251E+03  0.41800000000E+01 0. -1.
</event>
<event>
11    1  0.7105277E-009  0.1252225E+03  0.7561462E-02  0.1125282E+00
         22   -1    0    0    0    0  0.00000000000E+00  0.00000000000E+00  0.99776720507E+02  0.99776720507E+02  0.00000000000E+00 0. -1.
         22   -1    0    0    0    0 -0.00000000000E+00 -0.00000000000E+00 -0.62383275787E+03  0.62383275787E+03  0.00000000000E+00 0. -1.
         24    2    1    2    0    0 -0.71433048169E+00 -0.24084770150E+02 -0.49715467021E+03  0.50114739356E+03  0.58355441363E+02 0.  0.
         25    2    1    2    0    0 -0.73026049917E+00  0.24141966162E+02 -0.52931804850E+02  0.13795520391E+03  0.12508594849E+03 0.  0.
        -24    2    1    2    0    0  0.14445909809E+01 -0.57196011728E-01  0.26030437698E+02  0.84506880907E+02  0.80384943363E+02 0.  0.
        -13    1    3    3    0    0  0.26368351366E+02 -0.57050562434E+01 -0.14608329726E+03  0.14855358413E+03  0.00000000000E+00 0.  1.
         14    1    3    3    0    0 -0.27082681847E+02 -0.18379713907E+02 -0.35107137295E+03  0.35259380942E+03  0.00000000000E+00 0. -1.
         13    1    5    5    0    0 -0.32271227260E+02 -0.13242090675E+02  0.32563821881E+02  0.47719886523E+02  0.00000000000E+00 0. -1.
        -14    1    5    5    0    0  0.33715818241E+02  0.13184894664E+02 -0.65333841828E+01  0.36786994384E+02  0.00000000000E+00 0.  1.
          5    1    4    4  501    0  0.33327357953E+02  0.54778196883E+02  0.44521131504E+01  0.64410071832E+02  0.41800000000E+01 0.  1.
         -5    1    4    4    0  501 -0.34057618452E+02 -0.30636230721E+02 -0.57383918001E+02  0.73545132079E+02  0.41800000000E+01 0.  1.
</event>
<event>
11    1  0.7105277E-009  0.1725332E+03  0.7561462E-02  0.1075848E+00
         22   -1    0    0    0    0  0.00000000000E+00  0.00000000000E+00  0.21595393423E+03  0.21595393423E+03  0.00000000000E+00 0.  1.
         22   -1    0    0    0    0 -0.00000000000E+00 -0.00000000000E+00 -0.10309570390E+04  0.10309570390E+04  0.00000000000E+00 0.  1.
         24    2    1    2    0    0 -0.11481772386E+03  0.35640360978E+01 -0.55783272068E+03  0.57528064615E+03  0.81084311049E+02 0.  0.
         25    2    1    2    0    0  0.12335693651E+03 -0.46182596172E+02 -0.43560053354E+03  0.47194942036E+03  0.12505464639E+03 0.  0.
        -24    2    1    2    0    0 -0.85392126556E+01  0.42618560074E+02  0.17843014942E+03  0.19968090676E+03  0.78395704501E+02 0.  0.
        -13    1    3    3    0    0 -0.86874840930E+02 -0.16870330269E+02 -0.50083740387E+03  0.50859605892E+03  0.00000000000E+00 0.  1.
         14    1    3    3    0    0 -0.27942882927E+02  0.20434366367E+02 -0.56995316813E+02  0.66684587228E+02  0.00000000000E+00 0. -1.
         11    1    5    5    0    0 -0.13878424034E+02  0.39437962753E+02  0.30821750674E+02  0.51941735381E+02  0.00000000000E+00 0. -1.
        -12    1    5    5    0    0  0.53392113779E+01  0.31805973218E+01  0.14760839875E+03  0.14773917138E+03  0.00000000000E+00 0.  1.
          5    1    4    4  501    0  0.14671618865E+03 -0.37508987916E+02 -0.40413164666E+03  0.43159289200E+03  0.41800000000E+01 0. -1.
         -5    1    4    4    0  501 -0.23359252137E+02 -0.86736082568E+01 -0.31468886880E+02  0.40356528369E+02  0.41800000000E+01 0. -1.
</event>
<event>
11    1  0.7105277E-009  0.1878965E+03  0.7561462E-02  0.1063429E+00
         22   -1    0    0    0    0  0.00000000000E+00  0.00000000000E+00  0.80018180165E+03  0.80018180165E+03  0.00000000000E+00 0.  1.
         22   -1    0    0    0    0 -0.00000000000E+00 -0.00000000000E+00 -0.24953630555E+03  0.24953630555E+03  0.00000000000E+00 0. -1.
        -24    2    1    2    0    0  0.42145733063E+02  0.29969136553E+02 -0.16054878196E+03  0.18732415251E+03  0.81486285750E+02 0.  0.
         25    2    1    2    0    0 -0.51479606196E+02  0.11348426321E+03  0.53854912526E+02  0.18459744930E+03  0.12508812427E+03 0.  0.
         24    2    1    2    0    0  0.93338731324E+01 -0.14345339977E+03  0.65733936553E+03  0.67779650540E+03  0.81529517141E+02 0.  0.
        -13    1    5    5    0    0  0.24323137972E+02 -0.67385993882E+02  0.46388726772E+03  0.46938671090E+03  0.00000000000E+00 0.  1.
         14    1    5    5    0    0 -0.14989264839E+02 -0.76067405885E+02  0.19345209780E+03  0.20840979450E+03  0.00000000000E+00 0. -1.
         13    1    3    3    0    0  0.15999748781E+02 -0.25658752492E+02 -0.83214325792E+02  0.88538057114E+02  0.00000000000E+00 0. -1.
        -14    1    3    3    0    0  0.26145984282E+02  0.55627889045E+02 -0.77334456163E+02  0.98786095397E+02  0.00000000000E+00 0.  1.
          5    1    4    4  501    0 -0.88286698496E+02  0.10711636432E+03  0.39744770423E+02  0.14444921534E+03  0.41800000000E+01 0. -1.
         -5    1    4    4    0  501  0.36807092300E+02  0.63678988964E+01  0.14110142103E+02  0.40148233960E+02  0.41800000000E+01 0. -1.
</event>
<event>
11    1  0.7105277E-009  0.1396516E+03  0.7561462E-02  0.1107948E+00
         22   -1    0    0    0    0  0.00000000000E+00  0.00000000000E+00  0.52785158839E+03  0.52785158839E+03  0.00000000000E+00 0.  1.
         22   -1    0    0    0    0 -0.00000000000E+00 -0.00000000000E+00 -0.12972845795E+03  0.12972845795E+03  0.00000000000E+00 0. -1.
        -24    2    1    2    0    0  0.44298382724E+01 -0.11206478976E+02 -0.68013530222E+02  0.10642262327E+03  0.80961261181E+02 0.  0.
         25    2    1    2    0    0  0.50277792430E+02  0.40084833636E+02  0.10247638509E+03  0.17401816014E+03  0.12508501213E+03 0.  0.
         24    2    1    2    0    0 -0.54707630703E+02 -0.28878354661E+02  0.36366027557E+03  0.37713926293E+03  0.78475113194E+02 0.  0.
        -13    1    5    5    0    0  0.14356013637E+02 -0.27065732120E+02  0.12304793266E+03  0.12680474247E+03  0.00000000000E+00 0.  1.
         14    1    5    5    0    0 -0.69063644339E+02 -0.18126225405E+01  0.24061234291E+03  0.25033452045E+03  0.00000000000E+00 0. -1.
         11    1    3    3    0    0 -0.20760931357E+02  0.12095843558E+02 -0.67985798415E+02  0.72106826919E+02  0.00000000000E+00 0. -1.
        -12    1    3    3    0    0  0.25190769630E+02 -0.23302322534E+02 -0.27731806584E-01  0.34315796349E+02  0.00000000000E+00 0.  1.
          5    1    4    4  501    0  0.78394356867E+02 -0.12138784837E+02  0.44892346251E+02  0.91245933815E+02  0.41800000000E+01 0. -1.
         -5    1    4    4    0  501 -0.28116564436E+02  0.52223618473E+02  0.57584038840E+02  0.82772226327E+02  0.41800000000E+01 0. -1.
</event>
<event>
11    1  0.7105277E-009  0.1368784E+03  0.7561462E-02  0.1111095E+00
         22   -1    0    0    0    0  0.00000000000E+00  0.00000000000E+00  0.33940292330E+03  0.33940292330E+03  0.00000000000E+00 0.  1.
         22   -1    0    0    0    0 -0.00000000000E+00 -0.00000000000E+00 -0.16500991878E+03  0.16500991878E+03  0.00000000000E+00 0. -1.
        -24    2    1    2    0    0 -0.67098969683E+01  0.24894178189E+02 -0.10373381697E+03  0.13381954737E+03  0.80512257771E+02 0.  0.
         25    2    1    2    0    0 -0.21127416972E+02  0.31546878280E+02  0.97758184231E+02  0.16323610344E+03  0.12509112520E+03 0.  0.
         24    2    1    2    0    0  0.27837313940E+02 -0.56441056469E+02  0.18036863726E+03  0.20735719127E+03  0.80645214142E+02 0.  0.
        -13    1    5    5    0    0 -0.10474163198E+02 -0.61906444751E+02  0.12389816373E+03  0.13889877959E+03  0.00000000000E+00 0.  1.
         14    1    5    5    0    0  0.38311477138E+02  0.54653882825E+01  0.56470473525E+02  0.68458411680E+02  0.00000000000E+00 0. -1.
         13    1    3    3    0    0 -0.35375390735E+02 -0.39528265847E+01 -0.20238233580E+02  0.40946662942E+02  0.00000000000E+00 0. -1.
        -14    1    3    3    0    0  0.28665493767E+02  0.28847004774E+02 -0.83495583386E+02  0.92872884429E+02  0.00000000000E+00 0.  1.
          5    1    4    4  501    0  0.38483710756E+02 -0.26551369867E+02  0.28882970134E+02  0.55115057825E+02  0.41800000000E+01 0. -1.
         -5    1    4    4    0  501 -0.59611127728E+02  0.58098248146E+02  0.68875214098E+02  0.10812104561E+03  0.41800000000E+01 0. -1.
</event>
<event>
11    1  0.7105277E-009  0.1684388E+03  0.7561462E-02  0.1079398E+00
         22   -1    0    0    0    0  0.00000000000E+00  0.00000000000E+00  0.86670634836E+02  0.86670634836E+02  0.00000000000E+00 0.  1.
         22   -1    0    0    0    0 -0.00000000000E+00 -0.00000000000E+00 -0.27322289502E+04  0.27322289502E+04  0.00000000000E+00 0.  1.
        -24    2    1    2    0    0 -0.10885466507E+03  0.28343048488E+02 -0.24482156489E+04  0.24520211008E+04  0.77427052823E+02 0.  0.
         25    2    1    2    0    0  0.11109158154E+03 -0.39516803729E+02 -0.22339232487E+03  0.28188132685E+03  0.12510009734E+03 0.  0.
         24    2    1    2    0    0 -0.22369164686E+01  0.11173755241E+02  0.26049658412E+02  0.84997157421E+02  0.80100408643E+02 0.  0.
        -11    1    5    5    0    0  0.27225830509E+02 -0.50143300960E+01  0.39962582219E+02  0.48614785106E+02  0.00000000000E+00 0.  1.
         12    1    5    5    0    0 -0.29462746978E+02  0.16188085337E+02 -0.13912923808E+02  0.36382372315E+02  0.00000000000E+00 0. -1.
         13    1    3    3    0    0 -0.12125553716E+02 -0.10367116521E+02 -0.83438523844E+02  0.84949946551E+02  0.00000000000E+00 0. -1.
        -14    1    3    3    0    0 -0.96729111351E+02  0.38710165009E+02 -0.23647771251E+04  0.23670711542E+04  0.00000000000E+00 0.  1.
          5    1    4    4  501    0  0.13502269710E+03 -0.51598554607E+02 -0.19254181913E+03  0.24079735065E+03  0.41800000000E+01 0.  1.
         -5    1    4    4    0  501 -0.23931115560E+02  0.12081750877E+02 -0.30850505741E+02  0.41083976203E+02  0.41800000000E+01 0.  1.
</event>
<event>
11    1  0.7105277E-009  0.1398497E+03  0.7561462E-02  0.1107726E+00
         22   -1    0    0    0    0  0.00000000000E+00  0.00000000000E+00  0.96283623256E+02  0.96283623256E+02  0.00000000000E+00 0. -1.
         22   -1    0    0    0    0 -0.00000000000E+00 -0.00000000000E+00 -0.10994960197E+04  0.10994960197E+04  0.00000000000E+00 0.  1.
        -24    2    1    2    0    0 -0.57480827126E+02  0.17934835590E+01 -0.73423779111E+03  0.74050867274E+03  0.77075926447E+02 0.  0.
         25    2    1    2    0    0  0.11043814998E+03 -0.22197844745E+02 -0.30193222471E+03  0.34568865100E+03  0.12509294877E+03 0.  0.
         24    2    1    2    0    0 -0.52957322849E+02  0.20404361186E+02  0.32957619338E+02  0.10958231925E+03  0.87756846012E+02 0.  0.
        -11    1    5    5    0    0 -0.38196107065E+02  0.24490855241E+02 -0.23490236558E+02  0.51093402694E+02  0.00000000000E+00 0.  1.
         12    1    5    5    0    0 -0.14761215784E+02 -0.40864940541E+01  0.56447855896E+02  0.58488916560E+02  0.00000000000E+00 0. -1.
         11    1    3    3    0    0  0.45868218458E+00 -0.29833338211E+02 -0.25745345210E+03  0.25917661634E+03  0.00000000000E+00 0. -1.
        -12    1    3    3    0    0 -0.57939509311E+02  0.31626821770E+02 -0.47678433902E+03  0.48133205641E+03  0.00000000000E+00 0.  1.
          5    1    4    4  501    0  0.16812876068E+01  0.69705633497E+01  0.10601113796E+02  0.13463710304E+02  0.41800000000E+01 0. -1.
         -5    1    4    4    0  501  0.10875686237E+03 -0.29168408095E+02 -0.31253333851E+03  0.33222494070E+03  0.41800000000E+01 0. -1.
</event>
<event>
11    1  0.2073242E-008  0.1602859E+03  0.7561462E-02  0.1086809E+00
         22   -1    0    0    0    0  0.00000000000E+00  0.00000000000E+00  0.97900299014E+03  0.97900299014E+03  0.00000000000E+00 0.  1.
         22   -1    0    0    0    0 -0.00000000000E+00 -0.00000000000E+00 -0.32965956260E+03  0.32965956260E+03  0.00000000000E+00 0.  1.
         24    2    1    2    0    0 -0.57947217547E+02 -0.79322321227E+02 -0.24065878327E+03  0.27211303448E+03  0.80491880977E+02 0.  0.
         25    2    1    2    0    0 -0.40477994818E+02  0.10731448473E+03  0.37077628102E+02  0.17371537054E+03  0.12508961891E+03 0.  0.
        -24    2    1    2    0    0  0.98425212364E+02 -0.27992163501E+02  0.85292458271E+03  0.86283414771E+03  0.80816700188E+02 0.  0.
        -13    1    3    3    0    0 -0.40511582945E+02 -0.94317562444E+02 -0.21042025689E+03  0.23412320570E+03  0.00000000000E+00 0.  1.
         14    1    3    3    0    0 -0.17435634602E+02  0.14995241217E+02 -0.30238526382E+02  0.37989828782E+02  0.00000000000E+00 0. -1.
         11    1    5    5    0    0  0.12724777959E+02 -0.40679112005E+02  0.23028363032E+03  0.23419491993E+03  0.00000000000E+00 0. -1.
        -12    1    5    5    0    0  0.85700434406E+02  0.12686948505E+02  0.62264095239E+03  0.62863922779E+03  0.00000000000E+00 0.  1.
          5    1    4    4  501    0  0.10320509924E+02 -0.25296634530E+02  0.55841479617E+01  0.28197300440E+02  0.41800000000E+01 0.  1.
         -5    1    4    4    0  501 -0.50798504742E+02  0.13261111926E+03  0.31493480141E+02  0.14551807010E+03  0.41800000000E+01 0.  1.
</event>
<event>
11    1  0.7105277E-009  0.1400591E+03  0.7561462E-02  0.1107492E+00
         22   -1    0    0    0    0  0.00000000000E+00  0.00000000000E+00  0.20994861588E+03  0.20994861588E+03  0.00000000000E+00 0. -1.
         22   -1    0    0    0    0 -0.00000000000E+00 -0.00000000000E+00 -0.28859340277E+03  0.28859340277E+03  0.00000000000E+00 0. -1.
         24    2    1    2    0    0  0.52900179099E+01 -0.20475960792E+02 -0.15097534607E+03  0.17375462806E+03  0.83365858667E+02 0.  0.
         25    2    1    2    0    0 -0.25307502900E+02 -0.41938478144E+02 -0.66338963418E+02  0.14982722946E+03  0.12509210594E+03 0.  0.
        -24    2    1    2    0    0  0.20017484990E+02  0.62414438935E+02  0.13866952261E+03  0.17496016113E+03  0.84175766041E+02 0.  0.
        -11    1    3    3    0    0 -0.31477161083E+01 -0.34588689144E+02 -0.16810559982E+02  0.38586013791E+02  0.00000000000E+00 0.  1.
         12    1    3    3    0    0  0.84377340182E+01  0.14112728352E+02 -0.13416478609E+03  0.13516861427E+03  0.00000000000E+00 0. -1.
         11    1    5    5    0    0  0.11672600132E+02  0.67426975053E+02  0.14700044779E+03  0.16214739655E+03  0.00000000000E+00 0. -1.
        -12    1    5    5    0    0  0.83448848584E+01 -0.50125361172E+01 -0.83309251827E+01  0.12812764574E+02  0.00000000000E+00 0.  1.
          5    1    4    4  501    0  0.50299179570E+02 -0.26675776429E+02 -0.27434323290E+02  0.63338132336E+02  0.41800000000E+01 0.  1.
         -5    1    4    4    0  501 -0.75606682470E+02 -0.15262701715E+02 -0.38904640128E+02  0.86489097124E+02  0.41800000000E+01 0.  1.
</event>
<event>
11    1  0.7105277E-009  0.1429934E+03  0.7561462E-02  0.1104261E+00
         22   -1    0    0    0    0  0.00000000000E+00  0.00000000000E+00  0.25023530190E+04  0.25023530190E+04  0.00000000000E+00 0.  1.
         22   -1    0    0    0    0 -0.00000000000E+00 -0.00000000000E+00 -0.44086016853E+02  0.44086016853E+02  0.00000000000E+00 0.  1.
        -24    2    1    2    0    0  0.12356342236E+02 -0.64339852801E+02  0.57303381740E+02  0.11519156853E+03  0.75452793513E+02 0.  0.
         25    2    1    2    0    0  0.56814062267E+02  0.71467795628E+02  0.42772448995E+03  0.45489732303E+03  0.12509137346E+03 0.  0.
         24    2    1    2    0    0 -0.69170404503E+02 -0.71279428271E+01  0.19732391305E+04  0.19763501443E+04  0.86324240313E+02 0.  0.
        -13    1    5    5    0    0 -0.56429480810E+02 -0.38636053010E+02  0.16296087483E+04  0.16310431335E+04  0.00000000000E+00 0.  1.
         14    1    5    5    0    0 -0.12740923692E+02  0.31508110183E+02  0.34363038223E+03  0.34530701084E+03  0.00000000000E+00 0. -1.
         11    1    3    3    0    0 -0.16533273854E+02 -0.58204364343E+02  0.60401887308E+02  0.85495527154E+02  0.00000000000E+00 0. -1.
        -12    1    3    3    0    0  0.28889616090E+02 -0.61354884577E+01 -0.30985055679E+01  0.29696041373E+02  0.00000000000E+00 0.  1.
          5    1    4    4  501    0  0.91709225241E+02  0.41388841041E+02  0.35236429884E+03  0.36647194934E+03  0.41800000000E+01 0. -1.
         -5    1    4    4    0  501 -0.34895162974E+02  0.30078954587E+02  0.75360191108E+02  0.88425373688E+02  0.41800000000E+01 0. -1.
</event>
<event>
11    1  0.7105277E-009  0.1755164E+03  0.7561462E-02  0.1073328E+00
         22   -1    0    0    0    0  0.00000000000E+00  0.00000000000E+00  0.19520939958E+04  0.19520939958E+04  0.00000000000E+00 0.  1.
         22   -1    0    0    0    0 -0.00000000000E+00 -0.00000000000E+00 -0.15312871018E+03  0.15312871018E+03  0.00000000000E+00 0. -1.
        -24    2    1    2    0    0  0.23877075649E+02 -0.81072198361E+02 -0.10038440400E+03  0.15287980750E+03  0.78437177960E+02 0.  0.
         25    2    1    2    0    0 -0.64247743222E+02  0.18514200290E+03  0.56772551445E+03  0.61348473991E+03  0.12508370237E+03 0.  0.
         24    2    1    2    0    0  0.40370667573E+02 -0.10406980454E+03  0.13316241751E+04  0.13388581585E+04  0.82812498182E+02 0.  0.
        -13    1    5    5    0    0  0.52068310806E+02 -0.31586323192E+02  0.43649665278E+03  0.44072455422E+03  0.00000000000E+00 0.  1.
         14    1    5    5    0    0 -0.11697643233E+02 -0.72483481345E+02  0.89512752234E+03  0.89813360430E+03  0.00000000000E+00 0. -1.
         11    1    3    3    0    0  0.47843183916E+02 -0.57656976287E+02 -0.91413765181E+02  0.11819379690E+03  0.00000000000E+00 0. -1.
        -12    1    3    3    0    0 -0.23966108267E+02 -0.23415222074E+02 -0.89706388145E+01  0.34686010595E+02  0.00000000000E+00 0.  1.
          5    1    4    4  501    0 -0.91578773710E+02  0.80451327280E+02  0.25801556980E+03  0.28539200149E+03  0.41800000000E+01 0. -1.
         -5    1    4    4    0  501  0.27331030487E+02  0.10469067562E+03  0.30970994466E+03  0.32809273843E+03  0.41800000000E+01 0. -1.
</event>
<event>
11    1  0.7105277E-009  0.1295354E+03  0.7561462E-02  0.1119841E+00
         22   -1    0    0    0    0  0.00000000000E+00  0.00000000000E+00  0.39540214742E+03  0.39540214742E+03  0.00000000000E+00 0. -1.
         22   -1    0    0    0    0 -0.00000000000E+00 -0.00000000000E+00 -0.17006115873E+03  0.17006115873E+03  0.00000000000E+00 0.  1.
        -24    2    1    2    0    0  0.10458875610E+02 -0.22723045706E+02 -0.78098624068E+02  0.11582677012E+03  0.81796825787E+02 0.  0.
         25    2    1    2    0    0 -0.39796042047E+02  0.60198752759E+01 -0.26320342600E+01  0.13143217854E+03  0.12509007191E+03 0.  0.
         24    2    1    2    0    0  0.29337166438E+02  0.16703170430E+02  0.30607164702E+03  0.31820435749E+03  0.80215302654E+02 0.  0.
        -11    1    5    5    0    0  0.57273225601E+02  0.97918540373E+01  0.21322289977E+03  0.22099798136E+03  0.00000000000E+00 0.  1.
         12    1    5    5    0    0 -0.27936059163E+02  0.69113163927E+01  0.92848747250E+02  0.97206376137E+02  0.00000000000E+00 0. -1.
         13    1    3    3    0    0  0.40462828281E+02 -0.24288114324E+02 -0.21739017814E+02  0.51959001775E+02  0.00000000000E+00 0. -1.
        -14    1    3    3    0    0 -0.30003952672E+02  0.15650686176E+01 -0.56359606254E+02  0.63867768341E+02  0.00000000000E+00 0.  1.
          5    1    4    4  501    0  0.23446793553E+02 -0.58300341887E+01  0.45014263713E+02  0.51259123716E+02  0.41800000000E+01 0. -1.
         -5    1    4    4    0  501 -0.63242835600E+02  0.11849909465E+02 -0.47646297973E+02  0.80173054823E+02  0.41800000000E+01 0. -1.
</event>
<event>
11    1  0.7105277E-009  0.1300545E+03  0.7561462E-02  0.1119202E+00
         22   -1    0    0    0    0  0.00000000000E+00  0.00000000000E+00  0.40280836076E+03  0.40280836076E+03  0.00000000000E+00 0. -1.
         22   -1    0    0    0    0 -0.00000000000E+00 -0.00000000000E+00 -0.17390936571E+03  0.17390936571E+03  0.00000000000E+00 0.  1.
         24    2    1    2    0    0 -0.29460610885E+02 -0.17854856103E+02 -0.11319541711E+03  0.14326887302E+03  0.80783934316E+02 0.  0.
         25    2    1    2    0    0  0.43035902226E+02  0.13714844707E+02  0.71720128760E+02  0.15109935609E+03  0.12508817968E+03 0.  0.
        -24    2    1    2    0    0 -0.13575291341E+02  0.41400113962E+01  0.27037428339E+03  0.28234949735E+03  0.80109658004E+02 0.  0.
        -11    1    3    3    0    0 -0.55531755771E+02 -0.24773365713E+02 -0.80431264148E+02  0.10082997471E+03  0.00000000000E+00 0.  1.
         12    1    3    3    0    0  0.26071144887E+02  0.69185096106E+01 -0.32764152959E+02  0.42438898314E+02  0.00000000000E+00 0. -1.
         13    1    5    5    0    0 -0.15518305547E+02  0.39473176305E+02  0.10522328807E+03  0.11344994406E+03  0.00000000000E+00 0. -1.
        -14    1    5    5    0    0  0.19430142057E+01 -0.35333164909E+02  0.16515099532E+03  0.16889955329E+03  0.00000000000E+00 0.  1.
          5    1    4    4  501    0 -0.40929486394E+02  0.36320755970E+01  0.47678852253E+02  0.63080584824E+02  0.41800000000E+01 0.  1.
         -5    1    4    4    0  501  0.83965388620E+02  0.10082769110E+02  0.24041276507E+02  0.88018771265E+02  0.41800000000E+01 0.  1.
</event>
<event>
11    1  0.7105277E-009  0.1352404E+03  0.7561462E-02  0.1112993E+00
         22   -1    0    0    0    0  0.00000000000E+00  0.00000000000E+00  0.87177693896E+03  0.87177693896E+03  0.00000000000E+00 0. -1.
         22   -1    0    0    0    0 -0.00000000000E+00 -0.00000000000E+00 -0.11121954311E+04  0.11121954311E+04  0.00000000000E+00 0.  1.
        -24    2    1    2    0    0 -0.41398906889E+02 -0.37211437368E+02 -0.88598435412E+03  0.89132945191E+03  0.80008471577E+02 0.  0.
         25    2    1    2    0    0  0.87447746092E+01  0.23024578924E+02 -0.20270832528E+03  0.23946920756E+03  0.12509290115E+03 0.  0.
         24    2    1    2    0    0  0.32654132280E+02  0.14186858444E+02  0.84827418724E+03  0.85317371061E+03  0.84075706498E+02 0.  0.
        -11    1    5    5    0    0 -0.26966622727E+02  0.16125751976E+02  0.32213683485E+03  0.32366553568E+03  0.00000000000E+00 0.  1.
         12    1    5    5    0    0  0.59620755007E+02 -0.19388935328E+01  0.52613735240E+03  0.52950817493E+03  0.00000000000E+00 0. -1.
         11    1    3    3    0    0 -0.11873950182E+02 -0.28385099209E+01 -0.15804990789E+02  0.19971118280E+02  0.00000000000E+00 0. -1.
        -12    1    3    3    0    0 -0.29524956706E+02 -0.34372927447E+02 -0.87017936333E+03  0.87135833363E+03  0.00000000000E+00 0.  1.
          5    1    4    4  501    0 -0.44699204669E+02 -0.25016772191E+02 -0.11529805390E+03  0.12623379667E+03  0.41800000000E+01 0. -1.
         -5    1    4    4    0  501  0.53443979279E+02  0.48041351115E+02 -0.87410271381E+02  0.11323541090E+03  0.41800000000E+01 0. -1.
</event>
<event>
11    1  0.7105277E-009  0.1318767E+03  0.7561462E-02  0.1116984E+00
         22   -1    0    0    0    0  0.00000000000E+00  0.00000000000E+00  0.16355754540E+03  0.16355754540E+03  0.00000000000E+00 0.  1.
         22   -1    0    0    0    0 -0.00000000000E+00 -0.00000000000E+00 -0.83254067823E+03  0.83254067823E+03  0.00000000000E+00 0. -1.
        -24    2    1    2    0    0 -0.34383273780E+02  0.28933876748E+02 -0.66206267044E+03  0.66866124846E+03  0.82228382330E+02 0.  0.
         25    2    1    2    0    0  0.19649109227E+02 -0.21485859496E+01 -0.12719071256E+03  0.17948734029E+03  0.12509006375E+03 0.  0.
         24    2    1    2    0    0  0.14734164553E+02 -0.26785290799E+02  0.12027025016E+03  0.14794963488E+03  0.80558140353E+02 0.  0.
        -13    1    5    5    0    0  0.34418313936E+02 -0.38042400773E+02  0.11306067022E+03  0.12415538547E+03  0.00000000000E+00 0.  1.
         14    1    5    5    0    0 -0.19684149383E+02  0.11257109974E+02  0.72095799483E+01  0.23794249409E+02  0.00000000000E+00 0. -1.
         13    1    3    3    0    0 -0.10183707458E+02 -0.28417550434E+02 -0.27088065857E+03  0.27255751000E+03  0.00000000000E+00 0. -1.
        -14    1    3    3    0    0 -0.24199566322E+02  0.57351427182E+02 -0.39118201187E+03  0.39610373846E+03  0.00000000000E+00 0.  1.
          5    1    4    4  501    0  0.36902491410E+01 -0.21991854860E+02 -0.14587454431E+03  0.14762829911E+03  0.41800000000E+01 0. -1.
         -5    1    4    4    0  501  0.15958860086E+02  0.19843268911E+02  0.18683831751E+02  0.31859041185E+02  0.41800000000E+01 0. -1.
</event>
<event>
11    1  0.7105277E-009  0.4094570E+03  0.7561462E-02  0.9622259E-01
         22   -1    0    0    0    0  0.00000000000E+00  0.00000000000E+00  0.20707384257E+04  0.20707384257E+04  0.00000000000E+00 0. -1.
         22   -1    0    0    0    0 -0.00000000000E+00 -0.00000000000E+00 -0.16677157171E+04  0.16677157171E+04  0.00000000000E+00 0. -1.
         24    2    1    2    0    0 -0.11388972676E+03 -0.23229428110E+03 -0.10649336583E+04  0.10988410938E+04  0.80228111534E+02 0.  0.
         25    2    1    2    0    0  0.21443004124E+03  0.59986804557E+03 -0.37923084233E+03  0.75185629244E+03  0.12509971236E+03 0.  0.
        -24    2    1    2    0    0 -0.10054031448E+03 -0.36757376447E+03  0.18471872093E+04  0.18877567566E+04  0.79411326247E+02 0.  0.
        -13    1    3    3    0    0  0.81728369783E+01 -0.54984154719E+02 -0.21405738941E+03  0.22115745182E+03  0.00000000000E+00 0.  1.
         14    1    3    3    0    0 -0.12206256374E+03 -0.17731012638E+03 -0.85087626888E+03  0.87768364194E+03  0.00000000000E+00 0. -1.
         13    1    5    5    0    0 -0.10399738746E+03 -0.35998081451E+03  0.18357456861E+04  0.18735965061E+04  0.00000000000E+00 0. -1.
        -14    1    5    5    0    0  0.34570729794E+01 -0.75929499557E+01  0.11441523157E+02  0.14160250519E+02  0.00000000000E+00 0.  1.
          5    1    4    4  501    0  0.88964617056E+02  0.25311708306E+03 -0.89440639645E+02  0.28284282074E+03  0.41800000000E+01 0. -1.
         -5    1    4    4    0  501  0.12546542418E+03  0.34675096250E+03 -0.28979020269E+03  0.46901347170E+03  0.41800000000E+01 0. -1.
</event>
<event>
11    1  0.7105277E-009  0.2020910E+03  0.7561462E-02  0.1053055E+00
         22   -1    0    0    0    0  0.00000000000E+00  0.00000000000E+00  0.89634654375E+03  0.89634654375E+03  0.00000000000E+00 0. -1.
         22   -1    0    0    0    0 -0.00000000000E+00 -0.00000000000E+00 -0.40965798748E+03  0.40965798748E+03  0.00000000000E+00 0. -1.
        -24    2    1    2    0    0  0.12002716623E+03  0.10066714804E+03 -0.32332890756E+03  0.37005514404E+03  0.88650052673E+02 0.  0.
         25    2    1    2    0    0 -0.11846308754E+03 -0.13246820513E+03  0.13574309021E+03  0.25623123138E+03  0.12508768491E+03 0.  0.
         24    2    1    2    0    0 -0.15640786927E+01  0.31801057088E+02  0.67427437362E+03  0.67971815582E+03  0.79731341762E+02 0.  0.
        -11    1    5    5    0    0 -0.24223540883E+02  0.39035649899E+01  0.66500414283E+02  0.70882458002E+02  0.00000000000E+00 0.  1.
         12    1    5    5    0    0  0.22659462190E+02  0.27897492098E+02  0.60777395934E+03  0.60883569782E+03  0.00000000000E+00 0. -1.
         11    1    3    3    0    0  0.94670853827E+02  0.24566250739E+02 -0.15007056935E+03  0.17912913506E+03  0.00000000000E+00 0. -1.
        -12    1    3    3    0    0  0.25356312403E+02  0.76100897301E+02 -0.17325833820E+03  0.19092600898E+03  0.00000000000E+00 0.  1.
          5    1    4    4  501    0 -0.13695171849E+03 -0.74578509352E+02  0.90445199865E+02  0.18032064173E+03  0.41800000000E+01 0.  1.
         -5    1    4    4    0  501  0.18488630952E+02 -0.57889695775E+02  0.45297890340E+02  0.75910589648E+02  0.41800000000E+01 0.  1.
</event>
<event>
11    1  0.7105277E-009  0.1332984E+03  0.7561462E-02  0.1115281E+00
         22   -1    0    0    0    0  0.00000000000E+00  0.00000000000E+00  0.21285407372E+04  0.21285407372E+04  0.00000000000E+00 0. -1.
         22   -1    0    0    0    0 -0.00000000000E+00 -0.00000000000E+00 -0.11531758450E+03  0.11531758450E+03  0.00000000000E+00 0.  1.
         24    2    1    2    0    0  0.35569079848E+02 -0.26320253493E+02 -0.65981850584E+02  0.12578769823E+03  0.97524485301E+02 0.  0.
         25    2    1    2    0    0 -0.84699986141E+02 -0.10176326018E+02  0.30106513204E+03  0.33699558001E+03  0.12509261351E+03 0.  0.
        -24    2    1    2    0    0  0.49130906293E+02  0.36496579510E+02  0.17781398713E+04  0.17810750435E+04  0.81860017611E+02 0.  0.
        -13    1    3    3    0    0  0.50581933501E+02 -0.54489809959E+02 -0.38808782808E+02  0.83867711362E+02  0.00000000000E+00 0.  1.
         14    1    3    3    0    0 -0.15012853652E+02  0.28169556467E+02 -0.27173067775E+02  0.41919986863E+02  0.00000000000E+00 0. -1.
         11    1    5    5    0    0  0.56656766484E+02  0.48528256019E+02  0.17013587752E+04  0.17029934418E+04  0.00000000000E+00 0. -1.
        -12    1    5    5    0    0 -0.75258601906E+01 -0.12031676509E+02  0.76781096096E+02  0.78081601731E+02  0.00000000000E+00 0.  1.
          5    1    4    4  501    0 -0.76262669311E+02  0.34583615923E+02  0.98596574747E+02  0.12942479736E+03  0.41800000000E+01 0. -1.
         -5    1    4    4    0  501 -0.84373168306E+01 -0.44759941941E+02  0.20246855729E+03  0.20757078265E+03  0.41800000000E+01 0. -1.
</event>
<event>
11    1  0.7105277E-009  0.3033459E+03  0.7561462E-02  0.9987850E-01
         22   -1    0    0    0    0  0.00000000000E+00  0.00000000000E+00  0.17265609343E+04  0.17265609343E+04  0.00000000000E+00 0.  1.
         22   -1    0    0    0    0 -0.00000000000E+00 -0.00000000000E+00 -0.70829232020E+03  0.70829232020E+03  0.00000000000E+00 0.  1.
        -24    2    1    2    0    0  0.33064690943E+02 -0.21225155799E+02 -0.60322394641E+03  0.60998199143E+03  0.81578914666E+02 0.  0.
         25    2    1    2    0    0 -0.18018605294E+02 -0.25785116311E+03  0.14739226025E+03  0.32277484352E+03  0.12508888348E+03 0.  0.
         24    2    1    2    0    0 -0.15046085649E+02  0.27907631891E+03  0.14741003003E+04  0.15020964196E+04  0.72194057385E+02 0.  0.
        -13    1    5    5    0    0 -0.17542000697E+02  0.27486886934E+03  0.13454030309E+04  0.13733062049E+04  0.00000000000E+00 0.  1.
         14    1    5    5    0    0  0.24959150474E+01  0.42074495740E+01  0.12869726944E+03  0.12879021463E+03  0.00000000000E+00 0. -1.
         11    1    3    3    0    0  0.27388347493E+01 -0.12243519258E+02 -0.10348018104E+02  0.16263039639E+02  0.00000000000E+00 0. -1.
        -12    1    3    3    0    0  0.30325856194E+02 -0.89816365406E+01 -0.59287592831E+03  0.59371895179E+03  0.00000000000E+00 0.  1.
          5    1    4    4  501    0 -0.23421236502E+02 -0.17947533201E+03  0.16178059356E+03  0.24279699745E+03  0.41800000000E+01 0.  1.
         -5    1    4    4    0  501  0.54026312083E+01 -0.78375831107E+02 -0.14388333316E+02  0.79977846065E+02  0.41800000000E+01 0.  1.
</event>
<event>
11    1  0.7105277E-009  0.1361506E+03  0.7561462E-02  0.1111935E+00
         22   -1    0    0    0    0  0.00000000000E+00  0.00000000000E+00  0.20422049965E+03  0.20422049965E+03  0.00000000000E+00 0. -1.
         22   -1    0    0    0    0 -0.00000000000E+00 -0.00000000000E+00 -0.12029154504E+04  0.12029154504E+04  0.00000000000E+00 0. -1.
        -24    2    1    2    0    0 -0.63484349191E+00 -0.31150316532E+02 -0.10315805463E+04  0.10351699932E+04  0.80297859121E+02 0.  0.
         25    2    1    2    0    0  0.34346750363E+02 -0.13285016706E+02 -0.12796453471E+03  0.18269842835E+03  0.12509037791E+03 0.  0.
         24    2    1    2    0    0 -0.33711906871E+02  0.44435333238E+02  0.16085013023E+03  0.18926752848E+03  0.82694869477E+02 0.  0.
        -11    1    5    5    0    0 -0.19913935529E+02  0.15878702929E+02  0.15239258562E+00  0.25470007037E+02  0.00000000000E+00 0.  1.
         12    1    5    5    0    0 -0.13797971342E+02  0.28556630310E+02  0.16069773764E+03  0.16379752144E+03  0.00000000000E+00 0. -1.
         11    1    3    3    0    0  0.15718032260E+02 -0.14310163416E+02 -0.95106405719E+03  0.95130157058E+03  0.00000000000E+00 0. -1.
        -12    1    3    3    0    0 -0.16352875752E+02 -0.16840153116E+02 -0.80516489091E+02  0.83868422650E+02  0.00000000000E+00 0.  1.
          5    1    4    4  501    0  0.23997833751E+02  0.13720279132E+02  0.18384640354E+02  0.33460566122E+02  0.41800000000E+01 0. -1.
         -5    1    4    4    0  501  0.10348916612E+02 -0.27005295839E+02 -0.14634917507E+03  0.14923786222E+03  0.41800000000E+01 0. -1.
</event>
<event>
11    1  0.7105277E-009  0.1874228E+03  0.7561462E-02  0.1063792E+00
         22   -1    0    0    0    0  0.00000000000E+00  0.00000000000E+00  0.55905552861E+03  0.55905552861E+03  0.00000000000E+00 0.  1.
         22   -1    0    0    0    0 -0.00000000000E+00 -0.00000000000E+00 -0.17103676211E+04  0.17103676211E+04  0.00000000000E+00 0. -1.
        -24    2    1    2    0    0  0.10624702079E+03 -0.73524703700E+02 -0.82015951582E+03  0.83409364295E+03  0.79726170916E+02 0.  0.
         25    2    1    2    0    0 -0.16465425687E+03  0.28512556032E+02 -0.86529404393E+03  0.89011536610E+03  0.12509033678E+03 0.  0.
         24    2    1    2    0    0  0.58407236078E+02  0.45012147668E+02  0.53414146721E+03  0.54521414070E+03  0.80708447873E+02 0.  0.
        -13    1    5    5    0    0  0.71223160218E+02  0.47407917685E+02  0.51497198838E+03  0.52203103167E+03  0.00000000000E+00 0.  1.
         14    1    5    5    0    0 -0.12815924140E+02 -0.23957700169E+01  0.19169478835E+02  0.23183109031E+02  0.00000000000E+00 0. -1.
         11    1    3    3    0    0  0.74977769694E+02 -0.75000554185E+01 -0.50412018340E+03  0.50972058630E+03  0.00000000000E+00 0. -1.
        -12    1    3    3    0    0  0.31269251097E+02 -0.66024648282E+02 -0.31603933242E+03  0.32437305665E+03  0.00000000000E+00 0.  1.
          5    1    4    4  501    0 -0.13392275180E+03  0.29615616916E+02 -0.38328695527E+03  0.40711024391E+03  0.41800000000E+01 0.  1.
         -5    1    4    4    0  501 -0.30731505065E+02 -0.11030608846E+01 -0.48200708866E+03  0.48300512219E+03  0.41800000000E+01 0.  1.
</event>
<event>
11    1  0.7105277E-009  0.1422483E+03  0.7561462E-02  0.1105073E+00
         22   -1    0    0    0    0  0.00000000000E+00  0.00000000000E+00  0.21535083250E+04  0.21535083250E+04  0.00000000000E+00 0.  1.
         22   -1    0    0    0    0 -0.00000000000E+00 -0.00000000000E+00 -0.16611614136E+03  0.16611614136E+03  0.00000000000E+00 0. -1.
         24    2    1    2    0    0  0.20231038228E+02 -0.66559840642E+02 -0.11969011007E+03  0.15910728082E+03  0.78421279438E+02 0.  0.
         25    2    1    2    0    0 -0.55851518171E+02  0.33511253146E+02  0.16884946154E+03  0.21999970620E+03  0.12508930370E+03 0.  0.
        -24    2    1    2    0    0  0.35620479943E+02  0.33048587496E+02  0.19382328322E+04  0.19405174793E+04  0.80625977117E+02 0.  0.
        -13    1    3    3    0    0 -0.73417983217E+01  0.64670589461E+01  0.57606333225E+01  0.11353842974E+02  0.00000000000E+00 0.  1.
         14    1    3    3    0    0  0.27572836550E+02 -0.73026899588E+02 -0.12545074339E+03  0.14775343785E+03  0.00000000000E+00 0. -1.
         11    1    5    5    0    0 -0.19886225928E+02 -0.10825184933E+02  0.37323375167E+03  0.37391988446E+03  0.00000000000E+00 0. -1.
        -12    1    5    5    0    0  0.55506705871E+02  0.43873772429E+02  0.15649990805E+04  0.15665975949E+04  0.00000000000E+00 0.  1.
          5    1    4    4  501    0  0.68066724707E+01  0.48999526921E+02  0.14117229178E+03  0.14964749512E+03  0.41800000000E+01 0. -1.
         -5    1    4    4    0  501 -0.62658190642E+02 -0.15488273774E+02  0.27677169755E+02  0.70352211086E+02  0.41800000000E+01 0. -1.
</event>
<event>
11    1  0.7105277E-009  0.3300226E+03  0.7561462E-02  0.9882290E-01
         22   -1    0    0    0    0  0.00000000000E+00  0.00000000000E+00  0.27660720655E+04  0.27660720655E+04  0.00000000000E+00 0. -1.
         22   -1    0    0    0    0 -0.00000000000E+00 -0.00000000000E+00 -0.39958602301E+03  0.39958602301E+03  0.00000000000E+00 0. -1.
         24    2    1    2    0    0  0.76822857617E+01  0.20614097775E+02 -0.27443148125E+03  0.28680684339E+03  0.80383885005E+02 0.  0.
         25    2    1    2    0    0  0.22636979733E+03  0.17805436895E+03  0.11705587922E+03  0.33510558220E+03  0.12508808462E+03 0.  0.
        -24    2    1    2    0    0 -0.23405208310E+03 -0.19866846673E+03  0.25238616445E+04  0.25437456629E+04  0.80714680768E+02 0.  0.
        -11    1    3    3    0    0  0.39451141361E+02  0.15939681040E+01 -0.84100578242E+02  0.92907699087E+02  0.00000000000E+00 0.  1.
         12    1    3    3    0    0 -0.31768855599E+02  0.19020129671E+02 -0.19033090301E+03  0.19389914430E+03  0.00000000000E+00 0. -1.
         11    1    5    5    0    0 -0.14165678371E+03 -0.67648275697E+02  0.12852265525E+04  0.12947780601E+04  0.00000000000E+00 0. -1.
        -12    1    5    5    0    0 -0.92395299384E+02 -0.13102019103E+03  0.12386350920E+04  0.12489676029E+04  0.00000000000E+00 0.  1.
          5    1    4    4  501    0  0.22788025206E+03  0.16091032272E+03  0.74140768187E+02  0.28867952325E+03  0.41800000000E+01 0. -1.
         -5    1    4    4    0  501 -0.15104547258E+01  0.17144046237E+02  0.42915111033E+02  0.46426058953E+02  0.41800000000E+01 0. -1.
</event>
<event>
11    1  0.7105277E-009  0.2060724E+03  0.7561462E-02  0.1050311E+00
         22   -1    0    0    0    0  0.00000000000E+00  0.00000000000E+00  0.49578752082E+03  0.49578752082E+03  0.00000000000E+00 0. -1.
         22   -1    0    0    0    0 -0.00000000000E+00 -0.00000000000E+00 -0.11909280861E+04  0.11909280861E+04  0.00000000000E+00 0. -1.
         24    2    1    2    0    0  0.11164232736E+03 -0.13468135815E+03 -0.97598487982E+03  0.99486805893E+03  0.81319687313E+02 0.  0.
         25    2    1    2    0    0 -0.95793265092E+02  0.74401026658E+02 -0.16203175407E+03  0.23793779830E+03  0.12509294195E+03 0.  0.
        -24    2    1    2    0    0 -0.15849062271E+02  0.60280331497E+02  0.44287606862E+03  0.45390974968E+03  0.77523787073E+02 0.  0.
        -13    1    3    3    0    0  0.29755221496E+02 -0.62555125980E+02 -0.20952206359E+03  0.22067626090E+03  0.00000000000E+00 0.  1.
         14    1    3    3    0    0  0.81887105867E+02 -0.72126232174E+02 -0.76646281623E+03  0.77419179803E+03  0.00000000000E+00 0. -1.
         13    1    5    5    0    0  0.29682382161E+02  0.28203067132E+02  0.24271028320E+03  0.24613967250E+03  0.00000000000E+00 0. -1.
        -14    1    5    5    0    0 -0.45531444433E+02  0.32077264365E+02  0.20016578542E+03  0.20777007718E+03  0.00000000000E+00 0.  1.
          5    1    4    4  501    0 -0.29524605195E+02 -0.34177495597E+02 -0.57529428253E+02  0.73259204420E+02  0.41800000000E+01 0. -1.
         -5    1    4    4    0  501 -0.66268659897E+02  0.10857852225E+03 -0.10450232582E+03  0.16467859388E+03  0.41800000000E+01 0. -1.
</event>
<event>
11    1  0.9410920E-009  0.1629758E+03  0.7561462E-02  0.1084311E+00
         22   -1    0    0    0    0  0.00000000000E+00  0.00000000000E+00  0.34345152257E+03  0.34345152257E+03  0.00000000000E+00 0. -1.
         22   -1    0    0    0    0 -0.00000000000E+00 -0.00000000000E+00 -0.79385705996E+03  0.79385705996E+03  0.00000000000E+00 0.  1.
        -24    2    1    2    0    0  0.53191847214E+01  0.27445999742E+02 -0.60654161846E+03  0.61542512237E+03  0.10036817074E+03 0.  0.
         25    2    1    2    0    0  0.46670042054E+02  0.65563319991E+02 -0.13566063898E+03  0.20131622696E+03  0.12509105689E+03 0.  0.
         24    2    1    2    0    0 -0.51989226775E+02 -0.93009319734E+02  0.29179672005E+03  0.32056723319E+03  0.79148037913E+02 0.  0.
        -11    1    5    5    0    0  0.74224477520E+01 -0.32613248195E+02  0.28390033617E+02  0.43871524902E+02  0.00000000000E+00 0.  1.
         12    1    5    5    0    0 -0.59411674527E+02 -0.60396071538E+02  0.26340668643E+03  0.27669570829E+03  0.00000000000E+00 0. -1.
         13    1    3    3    0    0 -0.47594665586E+02  0.12914938761E+02 -0.28627894561E+03  0.29049558092E+03  0.00000000000E+00 0. -1.
        -14    1    3    3    0    0  0.52913850308E+02  0.14531060981E+02 -0.32026267285E+03  0.32492954145E+03  0.00000000000E+00 0.  1.
          5    1    4    4  501    0 -0.34683690099E+02  0.17559047827E+01 -0.61021766434E+01  0.35507048882E+02  0.41800000000E+01 0. -1.
         -5    1    4    4    0  501  0.81353732153E+02  0.63807415209E+02 -0.12955846234E+03  0.16580917808E+03  0.41800000000E+01 0. -1.
</event>
<event>
11    1  0.7105277E-009  0.1352448E+03  0.7561462E-02  0.1112988E+00
         22   -1    0    0    0    0  0.00000000000E+00  0.00000000000E+00  0.25601755726E+03  0.25601755726E+03  0.00000000000E+00 0. -1.
         22   -1    0    0    0    0 -0.00000000000E+00 -0.00000000000E+00 -0.14214436723E+04  0.14214436723E+04  0.00000000000E+00 0. -1.
        -24    2    1    2    0    0 -0.10049038213E+02  0.21016393265E+02 -0.13187948400E+04  0.13215090305E+04  0.81385598577E+02 0.  0.
         25    2    1    2    0    0  0.53387818263E+02 -0.44484745208E+02 -0.33440710836E+02  0.14696861550E+03  0.12510931662E+03 0.  0.
         24    2    1    2    0    0 -0.43338780050E+02  0.23468351943E+02  0.18680943578E+03  0.20898358360E+03  0.79670317684E+02 0.  0.
        -13    1    5    5    0    0  0.11658737578E+02  0.12409665685E+02  0.36343000624E+01  0.17410746718E+02  0.00000000000E+00 0.  1.
         14    1    5    5    0    0 -0.54997517628E+02  0.11058686258E+02  0.18317513572E+03  0.19157283688E+03  0.00000000000E+00 0. -1.
         11    1    3    3    0    0 -0.72430408399E+01 -0.11786413902E+02 -0.11139105968E+04  0.11139964986E+04  0.00000000000E+00 0. -1.
        -12    1    3    3    0    0 -0.28059973732E+01  0.32802807167E+02 -0.20488424317E+03  0.20751253186E+03  0.00000000000E+00 0.  1.
          5    1    4    4  501    0  0.81950836464E+02 -0.79512391510E+01  0.10301483438E+02  0.83082818695E+02  0.41800000000E+01 0. -1.
         -5    1    4    4    0  501 -0.28563018201E+02 -0.36533506057E+02 -0.43742194274E+02  0.63885796806E+02  0.41800000000E+01 0. -1.
</event>
<event>
11    1  0.7105277E-009  0.1510861E+03  0.7561462E-02  0.1095774E+00
         22   -1    0    0    0    0  0.00000000000E+00  0.00000000000E+00  0.97111632854E+03  0.97111632854E+03  0.00000000000E+00 0. -1.
         22   -1    0    0    0    0 -0.00000000000E+00 -0.00000000000E+00 -0.57187140570E+03  0.57187140570E+03  0.00000000000E+00 0.  1.
        -24    2    1    2    0    0 -0.79341706008E+02  0.24466204528E+02 -0.52217830927E+03  0.53487282655E+03  0.80777796700E+02 0.  0.
         25    2    1    2    0    0  0.14181364277E+03 -0.45150429508E+02  0.19887089919E+03  0.27811231380E+03  0.12508858454E+03 0.  0.
         24    2    1    2    0    0 -0.62471936761E+02  0.20684224980E+02  0.72255233291E+03  0.73000259389E+03  0.80568810635E+02 0.  0.
        -13    1    5    5    0    0  0.79688437693E+01  0.21412916421E+01  0.71994220598E+01  0.10950766134E+02  0.00000000000E+00 0.  1.
         14    1    5    5    0    0 -0.70440780531E+02  0.18542933338E+02  0.71535291085E+03  0.71905182776E+03  0.00000000000E+00 0. -1.
         13    1    3    3    0    0 -0.81010400421E+01  0.36547369171E+02 -0.26875157326E+03  0.27134617221E+03  0.00000000000E+00 0. -1.
        -14    1    3    3    0    0 -0.71240665966E+02 -0.12081164643E+02 -0.25342673601E+03  0.26352665435E+03  0.00000000000E+00 0.  1.
          5    1    4    4  501    0  0.46761968197E+02 -0.12349709008E+02 -0.69152943407E+01  0.49035606227E+02  0.41800000000E+01 0. -1.
         -5    1    4    4    0  501  0.95051674572E+02 -0.32800720500E+02  0.20578619353E+03  0.22907670757E+03  0.41800000000E+01 0. -1.
</event>
<event>
11    1  0.7105277E-009  0.1455872E+03  0.7561462E-02  0.1101475E+00
         22   -1    0    0    0    0  0.00000000000E+00  0.00000000000E+00  0.38175690150E+03  0.38175690150E+03  0.00000000000E+00 0.  1.
         22   -1    0    0    0    0 -0.00000000000E+00 -0.00000000000E+00 -0.78268784287E+03  0.78268784287E+03  0.00000000000E+00 0. -1.
        -24    2    1    2    0    0 -0.23219579101E+02 -0.35612904828E+02 -0.58127291170E+03  0.58839593232E+03  0.80772194784E+02 0.  0.
         25    2    1    2    0    0 -0.14039781617E+02  0.99086904874E+02 -0.15485881960E+03  0.22280939053E+03  0.12508972906E+03 0.  0.
         24    2    1    2    0    0  0.37259360718E+02 -0.63474000046E+02  0.33520078994E+03  0.35323942152E+03  0.83673835229E+02 0.  0.
        -11    1    5    5    0    0  0.48229463448E+02 -0.47711563396E+02  0.32396030651E+03  0.33098754451E+03  0.00000000000E+00 0.  1.
         12    1    5    5    0    0 -0.10970102729E+02 -0.15762436650E+02  0.11240483426E+02  0.22251877015E+02  0.00000000000E+00 0. -1.
         11    1    3    3    0    0 -0.18459455462E+02 -0.25510247590E+02 -0.57444238391E+03  0.57530476850E+03  0.00000000000E+00 0. -1.
        -12    1    3    3    0    0 -0.47601236391E+01 -0.10102657238E+02 -0.68305277978E+01  0.13091163826E+02  0.00000000000E+00 0.  1.
          5    1    4    4  501    0 -0.19373079860E+02  0.12788058415E+03 -0.13599817014E+03  0.18772782081E+03  0.41800000000E+01 0.  1.
         -5    1    4    4    0  501  0.53332982435E+01 -0.28793679271E+02 -0.18860649463E+02  0.35081569724E+02  0.41800000000E+01 0.  1.
</event>
<event>
11    1  0.7105277E-009  0.1834005E+03  0.7561462E-02  0.1066925E+00
         22   -1    0    0    0    0  0.00000000000E+00  0.00000000000E+00  0.18372011966E+04  0.18372011966E+04  0.00000000000E+00 0.  1.
         22   -1    0    0    0    0 -0.00000000000E+00 -0.00000000000E+00 -0.22977703677E+03  0.22977703677E+03  0.00000000000E+00 0.  1.
         24    2    1    2    0    0 -0.25114324937E+01 -0.41456786467E+02 -0.15934463370E+03  0.18437749661E+03  0.82942007024E+02 0.  0.
         25    2    1    2    0    0  0.69938026269E+02 -0.76996905372E+02  0.67681109585E+02  0.17620946990E+03  0.12509673750E+03 0.  0.
        -24    2    1    2    0    0 -0.67426593775E+02  0.11845369184E+03  0.16990876840E+04  0.17063912669E+04  0.79338358847E+02 0.  0.
        -11    1    3    3    0    0 -0.18421468012E+02 -0.15091527780E+01 -0.13229002197E+03  0.13357498995E+03  0.00000000000E+00 0.  1.
         12    1    3    3    0    0  0.15910035519E+02 -0.39947633689E+02 -0.27054611733E+02  0.50802506666E+02  0.00000000000E+00 0. -1.
         11    1    5    5    0    0 -0.54385971043E+02  0.26631030735E+02  0.48488723567E+03  0.48865394398E+03  0.00000000000E+00 0. -1.
        -12    1    5    5    0    0 -0.13040622732E+02  0.91822661104E+02  0.12142004483E+04  0.12177373229E+04  0.00000000000E+00 0.  1.
          5    1    4    4  501    0  0.41450914656E+02 -0.76857478029E+02 -0.14962551948E+02  0.88693858951E+02  0.41800000000E+01 0.  1.
         -5    1    4    4    0  501  0.28487111613E+02 -0.13942734229E+00  0.82643661533E+02  0.87515610948E+02  0.41800000000E+01 0.  1.
</event>
<event>
11    1  0.7105277E-009  0.1355569E+03  0.7561462E-02  0.1112624E+00
         22   -1    0    0    0    0  0.00000000000E+00  0.00000000000E+00  0.27930464166E+03  0.27930464166E+03  0.00000000000E+00 0.  1.
         22   -1    0    0    0    0 -0.00000000000E+00 -0.00000000000E+00 -0.81136988038E+03  0.81136988038E+03  0.00000000000E+00 0.  1.
         24    2    1    2    0    0 -0.60309450270E+02  0.78579365429E+01 -0.75586288982E+03  0.76226191642E+03  0.77559938498E+02 0.  0.
         25    2    1    2    0    0  0.37937558675E+02  0.47738868792E+02  0.15040623447E+03  0.20490697985E+03  0.12508627852E+03 0.  0.
        -24    2    1    2    0    0  0.22371891595E+02 -0.55596805335E+02  0.73391416626E+02  0.12350562577E+03  0.79220156944E+02 0.  0.
        -11    1    3    3    0    0 -0.76623492929E+02  0.19153212075E+01 -0.50329261281E+03  0.50909555315E+03  0.00000000000E+00 0.  1.
         12    1    3    3    0    0  0.16314042659E+02  0.59426153354E+01 -0.25257027700E+03  0.25316636327E+03  0.00000000000E+00 0. -1.
         13    1    5    5    0    0  0.34209470306E+02 -0.22457658803E+02 -0.12964954236E+01  0.40942828406E+02  0.00000000000E+00 0. -1.
        -14    1    5    5    0    0 -0.11837578711E+02 -0.33139146532E+02  0.74687912050E+02  0.82562797367E+02  0.00000000000E+00 0.  1.
          5    1    4    4  501    0  0.63973931863E+02 -0.19330195995E+02  0.76865139355E+02  0.10194136787E+03  0.41800000000E+01 0.  1.
         -5    1    4    4    0  501 -0.26036373188E+02  0.67069064787E+02  0.73541095116E+02  0.10296561198E+03  0.41800000000E+01 0.  1.
</event>
<event>
11    1  0.7105277E-009  0.1900444E+03  0.7561462E-02  0.1061796E+00
         22   -1    0    0    0    0  0.00000000000E+00  0.00000000000E+00  0.22750139980E+04  0.22750139980E+04  0.00000000000E+00 0.  1.
         22   -1    0    0    0    0 -0.00000000000E+00 -0.00000000000E+00 -0.78150109672E+03  0.78150109672E+03  0.00000000000E+00 0. -1.
        -24    2    1    2    0    0 -0.38067710817E+02  0.13848994416E+03 -0.75803112700E+03  0.77563152898E+03  0.79777590847E+02 0.  0.
         25    2    1    2    0    0  0.43070218003E+01 -0.11298989779E+03  0.51293822713E+03  0.53994170133E+03  0.12508456554E+03 0.  0.
         24    2    1    2    0    0  0.33760689016E+02 -0.25500046368E+02  0.17386058011E+04  0.17409418644E+04  0.79614113081E+02 0.  0.
        -11    1    5    5    0    0  0.44305805020E+02 -0.39802038257E+02  0.16114771795E+04  0.16125774110E+04  0.00000000000E+00 0.  1.
         12    1    5    5    0    0 -0.10545116004E+02  0.14301991888E+02  0.12712862167E+03  0.12836445338E+03  0.00000000000E+00 0. -1.
         13    1    3    3    0    0 -0.43748923202E+02  0.13884000294E+03 -0.75551001851E+03  0.76940620141E+03  0.00000000000E+00 0. -1.
        -14    1    3    3    0    0  0.56812123859E+01 -0.35005877763E+00 -0.25211084916E+01  0.62253275695E+01  0.00000000000E+00 0.  1.
          5    1    4    4  501    0 -0.54625037594E+02 -0.49832741448E+02  0.32079581827E+03  0.32923339179E+03  0.41800000000E+01 0. -1.
         -5    1    4    4    0  501  0.58932059395E+02 -0.63157156346E+02  0.19214240886E+03  0.21070830953E+03  0.41800000000E+01 0. -1.
</event>
<event>
11    1  0.7105277E-009  0.1325625E+03  0.7561462E-02  0.1116160E+00
         22   -1    0    0    0    0  0.00000000000E+00  0.00000000000E+00  0.97760968137E+03  0.97760968137E+03  0.00000000000E+00 0. -1.
         22   -1    0    0    0    0 -0.00000000000E+00 -0.00000000000E+00 -0.14702496904E+03  0.14702496904E+03  0.00000000000E+00 0. -1.
         24    2    1    2    0    0 -0.19294868486E+02 -0.43005652437E+02 -0.10223183641E+03  0.13769016391E+03  0.79280860056E+02 0.  0.
         25    2    1    2    0    0  0.47407244154E+01  0.13904329969E+02  0.13482787499E+03  0.18450236833E+03  0.12508702244E+03 0.  0.
        -24    2    1    2    0    0  0.14554144071E+02  0.29101322468E+02  0.79798867375E+03  0.80244211817E+03  0.77901986467E+02 0.  0.
        -13    1    3    3    0    0  0.18365484935E+02  0.67828228080E+01 -0.20977734830E+01  0.19690057789E+02  0.00000000000E+00 0.  1.
         14    1    3    3    0    0 -0.37660353421E+02 -0.49788475245E+02 -0.10013406293E+03  0.11800010612E+03  0.00000000000E+00 0. -1.
         13    1    5    5    0    0  0.34305722451E+02  0.13801519234E+02  0.71034816194E+03  0.71130997160E+03  0.00000000000E+00 0. -1.
        -14    1    5    5    0    0 -0.19751578380E+02  0.15299803234E+02  0.87640511809E+02  0.91132146566E+02  0.00000000000E+00 0.  1.
          5    1    4    4  501    0  0.47738173071E+02 -0.21084187016E+02  0.11343978823E+03  0.12493812094E+03  0.41800000000E+01 0. -1.
         -5    1    4    4    0  501 -0.42997448655E+02  0.34988516985E+02  0.21388086769E+02  0.59564247391E+02  0.41800000000E+01 0. -1.
</event>
<event>
11    1  0.7105277E-009  0.1412669E+03  0.7561462E-02  0.1106152E+00
         22   -1    0    0    0    0  0.00000000000E+00  0.00000000000E+00  0.53819166439E+03  0.53819166439E+03  0.00000000000E+00 0.  1.
         22   -1    0    0    0    0 -0.00000000000E+00 -0.00000000000E+00 -0.19651512675E+04  0.19651512675E+04  0.00000000000E+00 0.  1.
        -24    2    1    2    0    0 -0.62486964957E+01  0.93309179273E+01 -0.17655324796E+04  0.17672684321E+04  0.77502661148E+02 0.  0.
         25    2    1    2    0    0 -0.81431357097E+01  0.54972959145E+02 -0.16979692275E+03  0.21809821525E+03  0.12508996613E+03 0.  0.
         24    2    1    2    0    0  0.14391832205E+02 -0.64303877073E+02  0.50836979924E+03  0.51797628450E+03  0.74279641147E+02 0.  0.
        -13    1    5    5    0    0  0.19195038715E+02 -0.80304801533E+02  0.41865369633E+03  0.42671797256E+03  0.00000000000E+00 0.  1.
         14    1    5    5    0    0 -0.48032065099E+01  0.16000924461E+02  0.89716102912E+02  0.91258311940E+02  0.00000000000E+00 0. -1.
         13    1    3    3    0    0 -0.41134329954E+02 -0.15249212909E+01 -0.10447336673E+04  0.10455442573E+04  0.00000000000E+00 0. -1.
        -14    1    3    3    0    0  0.34885633459E+02  0.10855839218E+02 -0.72079881232E+03  0.72172417481E+03  0.00000000000E+00 0.  1.
          5    1    4    4  501    0 -0.32542850530E+02 -0.26118448892E+02 -0.99443720154E+02  0.10792467916E+03  0.41800000000E+01 0.  1.
         -5    1    4    4    0  501  0.24399714820E+02  0.81091408037E+02 -0.70353202596E+02  0.11017353610E+03  0.41800000000E+01 0.  1.
</event>
<event>
11    1  0.7105277E-009  0.1499001E+03  0.7561462E-02  0.1096981E+00
         22   -1    0    0    0    0  0.00000000000E+00  0.00000000000E+00  0.16353987057E+03  0.16353987057E+03  0.00000000000E+00 0. -1.
         22   -1    0    0    0    0 -0.00000000000E+00 -0.00000000000E+00 -0.47242750943E+03  0.47242750943E+03  0.00000000000E+00 0. -1.
        -24    2    1    2    0    0  0.80997501328E+02  0.23580074115E+02 -0.33664373423E+03  0.35621535561E+03  0.80273038204E+02 0.  0.
         25    2    1    2    0    0 -0.83375215126E+02  0.57590758727E+02 -0.49602632896E+00  0.16099098009E+03  0.12509887146E+03 0.  0.
         24    2    1    2    0    0  0.23777137980E+01 -0.81170832842E+02  0.28252121702E+02  0.11876104429E+03  0.81924633863E+02 0.  0.
        -13    1    5    5    0    0 -0.67872499891E+01  0.12662607673E+02  0.19295358409E+02  0.24056584372E+02  0.00000000000E+00 0.  1.
         14    1    5    5    0    0  0.91649637871E+01 -0.93833440515E+02  0.89567632922E+01  0.94704459920E+02  0.00000000000E+00 0. -1.
         13    1    3    3    0    0  0.27933305676E+02 -0.29148424324E+02 -0.94031718334E+02  0.10233212721E+03  0.00000000000E+00 0. -1.
        -14    1    3    3    0    0  0.53064195652E+02  0.52728498439E+02 -0.24261201589E+03  0.25388322840E+03  0.00000000000E+00 0.  1.
          5    1    4    4  501    0 -0.14320200579E+02  0.71803362923E+02  0.35772950596E+02  0.81596369197E+02  0.41800000000E+01 0. -1.
         -5    1    4    4    0  501 -0.69055014547E+02 -0.14212604197E+02 -0.36268976925E+02  0.79394610896E+02  0.41800000000E+01 0. -1.
</event>
<event>
11    1  0.7105277E-009  0.1619872E+03  0.7561462E-02  0.1085223E+00
         22   -1    0    0    0    0  0.00000000000E+00  0.00000000000E+00  0.27031282223E+03  0.27031282223E+03  0.00000000000E+00 0.  1.
         22   -1    0    0    0    0 -0.00000000000E+00 -0.00000000000E+00 -0.16326989495E+04  0.16326989495E+04  0.00000000000E+00 0.  1.
        -24    2    1    2    0    0 -0.66185647876E+02 -0.88968718707E+01 -0.15078029767E+04  0.15114835623E+04  0.81566218200E+02 0.  0.
         25    2    1    2    0    0  0.93428039634E+02  0.10243565235E+03 -0.14257690409E+02  0.18727631103E+03  0.12508906218E+03 0.  0.
         24    2    1    2    0    0 -0.27242391758E+02 -0.93538780477E+02  0.15967453987E+03  0.20425189845E+03  0.82044061186E+02 0.  0.
        -11    1    5    5    0    0 -0.46668190176E+02 -0.55589379367E+02  0.13913697388E+03  0.15693054698E+03  0.00000000000E+00 0.  1.
         12    1    5    5    0    0  0.19425798418E+02 -0.37949401109E+02  0.20537565990E+02  0.47321351476E+02  0.00000000000E+00 0. -1.
         11    1    3    3    0    0 -0.78941134397E+01  0.22864291383E+02 -0.84901480738E+03  0.84935930912E+03  0.00000000000E+00 0. -1.
        -12    1    3    3    0    0 -0.58291534436E+02 -0.31761163253E+02 -0.65878816937E+03  0.66212425313E+03  0.00000000000E+00 0.  1.
          5    1    4    4  501    0  0.87859248386E+02  0.74523738537E+02 -0.62478726295E+02  0.13112627033E+03  0.41800000000E+01 0.  1.
         -5    1    4    4    0  501  0.55687912484E+01  0.27911913811E+02  0.48221035886E+02  0.56150040699E+02  0.41800000000E+01 0.  1.
</event>
<event>
11    1  0.7105277E-009  0.1359882E+03  0.7561462E-02  0.1112123E+00
         22   -1    0    0    0    0  0.00000000000E+00  0.00000000000E+00  0.55642224167E+03  0.55642224167E+03  0.00000000000E+00 0. -1.
         22   -1    0    0    0    0 -0.00000000000E+00 -0.00000000000E+00 -0.15665554909E+03  0.15665554909E+03  0.00000000000E+00 0.  1.
         24    2    1    2    0    0  0.52715144136E+02  0.30785314505E+01 -0.10291695652E+03  0.14049682235E+03  0.79743923751E+02 0.  0.
         25    2    1    2    0    0 -0.56755218995E+02 -0.17702612933E+02  0.12749998003E+03  0.18824909591E+03  0.12508772848E+03 0.  0.
        -24    2    1    2    0    0  0.40400748592E+01  0.14624081482E+02  0.37518366907E+03  0.38433187249E+03  0.81963508402E+02 0.  0.
        -13    1    3    3    0    0 -0.20530689328E+01  0.86067532970E+01 -0.80623025444E+02  0.81107111440E+02  0.00000000000E+00 0.  1.
         14    1    3    3    0    0  0.54768213069E+02 -0.55282218465E+01 -0.22293931073E+02  0.59389710912E+02  0.00000000000E+00 0. -1.
         13    1    5    5    0    0  0.19661680952E+02  0.17974796425E+02  0.36365582931E+03  0.36463027466E+03  0.00000000000E+00 0. -1.
        -14    1    5    5    0    0 -0.15621606093E+02 -0.33507149424E+01  0.11527839755E+02  0.19701597828E+02  0.00000000000E+00 0.  1.
          5    1    4    4  501    0  0.50053487555E+01 -0.23084033483E+02  0.12369278032E+03  0.12599723180E+03  0.41800000000E+01 0.  1.
         -5    1    4    4    0  501 -0.61760567751E+02  0.53814205501E+01  0.38071997124E+01  0.62251864114E+02  0.41800000000E+01 0.  1.
</event>
<event>
11    1  0.7105277E-009  0.1671716E+03  0.7561462E-02  0.1080520E+00
         22   -1    0    0    0    0  0.00000000000E+00  0.00000000000E+00  0.19889765528E+03  0.19889765528E+03  0.00000000000E+00 0. -1.
         22   -1    0    0    0    0 -0.00000000000E+00 -0.00000000000E+00 -0.18345005831E+04  0.18345005831E+04  0.00000000000E+00 0. -1.
        -24    2    1    2    0    0  0.10219895311E+03 -0.28594410534E+02 -0.14374301179E+04  0.14443171717E+04  0.92652482784E+02 0.  0.
         25    2    1    2    0    0 -0.13880081028E+03  0.39100537585E+02 -0.35603366480E+03  0.40398091981E+03  0.12508435603E+03 0.  0.
         24    2    1    2    0    0  0.36601857172E+02 -0.10506127051E+02  0.15786085487E+03  0.18510014680E+03  0.88836592639E+02 0.  0.
        -13    1    5    5    0    0  0.42863847343E+02 -0.40219117325E+01  0.20925068677E+02  0.47867981806E+02  0.00000000000E+00 0.  1.
         14    1    5    5    0    0 -0.62619901713E+01 -0.64842153187E+01  0.13693578619E+03  0.13723216499E+03  0.00000000000E+00 0. -1.
         11    1    3    3    0    0  0.11866725126E+03 -0.34075180102E+02 -0.12460082626E+04  0.12521100690E+04  0.00000000000E+00 0. -1.
        -12    1    3    3    0    0 -0.16468298149E+02  0.54807695683E+01 -0.19142185525E+03  0.19220710275E+03  0.00000000000E+00 0.  1.
          5    1    4    4  501    0 -0.15191664811E+03  0.51879657110E+02 -0.34854625785E+03  0.38376051524E+03  0.41800000000E+01 0.  1.
         -5    1    4    4    0  501  0.13115837834E+02 -0.12779119525E+02 -0.74874069464E+01  0.20220404563E+02  0.41800000000E+01 0.  1.
</event>
<event>
11    1  0.7105277E-009  0.1318948E+03  0.7561462E-02  0.1116963E+00
         22   -1    0    0    0    0  0.00000000000E+00  0.00000000000E+00  0.17073701234E+03  0.17073701234E+03  0.00000000000E+00 0.  1.
         22   -1    0    0    0    0 -0.00000000000E+00 -0.00000000000E+00 -0.16527815765E+04  0.16527815765E+04  0.00000000000E+00 0.  1.
        -24    2    1    2    0    0 -0.42787154656E+02 -0.66866732241E+01 -0.13772433558E+04  0.13803320761E+04  0.81498019221E+02 0.  0.
         25    2    1    2    0    0  0.27979391373E+02 -0.50690112978E+01 -0.24629455207E+03  0.27769593035E+03  0.12508190172E+03 0.  0.
         24    2    1    2    0    0  0.14807763282E+02  0.11755684522E+02  0.14149334369E+03  0.16549058236E+03  0.83721565740E+02 0.  0.
        -11    1    5    5    0    0  0.42846026312E+02  0.21699672705E+01  0.12369759138E+03  0.13092587537E+03  0.00000000000E+00 0.  1.
         12    1    5    5    0    0 -0.28038263030E+02  0.95857172514E+01  0.17795752309E+02  0.34564706989E+02  0.00000000000E+00 0. -1.
         11    1    3    3    0    0  0.22474466469E+02  0.97283756936E+01 -0.30706650463E+03  0.30804152513E+03  0.00000000000E+00 0. -1.
        -12    1    3    3    0    0 -0.65261621124E+02 -0.16415048918E+02 -0.10701768512E+04  0.10722905510E+04  0.00000000000E+00 0.  1.
          5    1    4    4  501    0  0.76104461260E+02 -0.16377090906E+02 -0.13606140982E+03  0.15681287502E+03  0.41800000000E+01 0.  1.
         -5    1    4    4    0  501 -0.48125069887E+02  0.11308079608E+02 -0.11023314225E+03  0.12088305533E+03  0.41800000000E+01 0.  1.
</event>
<event>
11    1  0.7105277E-009  0.1387132E+03  0.7561462E-02  0.1109004E+00
         22   -1    0    0    0    0  0.00000000000E+00  0.00000000000E+00  0.46273719027E+03  0.46273719027E+03  0.00000000000E+00 0.  1.
         22   -1    0    0    0    0 -0.00000000000E+00 -0.00000000000E+00 -0.48882163341E+03  0.48882163341E+03  0.00000000000E+00 0.  1.
        -24    2    1    2    0    0 -0.30276076503E+02 -0.22654597013E+02 -0.35968805342E+03  0.37049015206E+03  0.80359102964E+02 0.  0.
         25    2    1    2    0    0  0.27006476874E+02 -0.38385434403E+02 -0.79700725785E+02  0.15557095114E+03  0.12508926325E+03 0.  0.
         24    2    1    2    0    0  0.32695996293E+01  0.61040031416E+02  0.41330433606E+03  0.42549772048E+03  0.80568357372E+02 0.  0.
        -11    1    5    5    0    0 -0.32392078005E+02  0.55025181263E+02  0.29291397110E+03  0.29979261458E+03  0.00000000000E+00 0.  1.
         12    1    5    5    0    0  0.35661677635E+02  0.60148501527E+01  0.12039036496E+03  0.12570510590E+03  0.00000000000E+00 0. -1.
         13    1    3    3    0    0  0.21001356016E+02 -0.66063986971E+01 -0.34731272468E+02  0.41121317410E+02  0.00000000000E+00 0. -1.
        -14    1    3    3    0    0 -0.51277432519E+02 -0.16048198315E+02 -0.32495678095E+03  0.32936883465E+03  0.00000000000E+00 0.  1.
          5    1    4    4  501    0 -0.45312707279E+02 -0.15236444853E+02 -0.60340981029E+02  0.77096673626E+02  0.41800000000E+01 0.  1.
         -5    1    4    4    0  501  0.72319184153E+02 -0.23148989550E+02 -0.19359744756E+02  0.78474277510E+02  0.41800000000E+01 0.  1.
</event>
<event>
11    1  0.7105277E-009  0.1302442E+03  0.7561462E-02  0.1118969E+00
         22   -1    0    0    0    0  0.00000000000E+00  0.00000000000E+00  0.10068969010E+04  0.10068969010E+04  0.00000000000E+00 0. -1.
         22   -1    0    0    0    0 -0.00000000000E+00 -0.00000000000E+00 -0.69176711237E+03  0.69176711237E+03  0.00000000000E+00 0. -1.
        -24    2    1    2    0    0 -0.31620276076E+02  0.46776103723E+02 -0.59035864946E+03  0.59755068744E+03  0.73182261004E+02 0.  0.
         25    2    1    2    0    0 -0.44016013014E+01 -0.54189226544E+02 -0.46786456699E+02  0.14419315816E+03  0.12508736132E+03 0.  0.
         24    2    1    2    0    0  0.36021877377E+02  0.74131228207E+01  0.95227489478E+03  0.95692016776E+03  0.86696033334E+02 0.  0.
        -11    1    5    5    0    0  0.37114058722E+02 -0.31601715288E+01  0.14934810590E+03  0.15392302223E+03  0.00000000000E+00 0.  1.
         12    1    5    5    0    0 -0.10921813453E+01  0.10573294350E+02  0.80292678888E+03  0.80299714552E+03  0.00000000000E+00 0. -1.
         11    1    3    3    0    0 -0.43170046525E+01 -0.10368221623E+02 -0.30680413462E+03  0.30700963107E+03  0.00000000000E+00 0. -1.
        -12    1    3    3    0    0 -0.27303271423E+02  0.57144325347E+02 -0.28355451484E+03  0.29054105637E+03  0.00000000000E+00 0.  1.
          5    1    4    4  501    0 -0.14342220479E+02  0.31598920993E+02  0.14884443591E+02  0.37989605910E+02  0.41800000000E+01 0. -1.
         -5    1    4    4    0  501  0.99406191773E+01 -0.85788147537E+02 -0.61670900290E+02  0.10620355225E+03  0.41800000000E+01 0. -1.
</event>
<event>
11    1  0.7105277E-009  0.1500846E+03  0.7561462E-02  0.1096792E+00
         22   -1    0    0    0    0  0.00000000000E+00  0.00000000000E+00  0.25867507219E+03  0.25867507219E+03  0.00000000000E+00 0.  1.
         22   -1    0    0    0    0 -0.00000000000E+00 -0.00000000000E+00 -0.24062277213E+04  0.24062277213E+04  0.00000000000E+00 0. -1.
         24    2    1    2    0    0  0.83903191495E+02 -0.12707031113E+02 -0.22546042317E+04  0.22576195886E+04  0.80029689049E+02 0.  0.
         25    2    1    2    0    0 -0.42475401693E+02 -0.54788677095E+02 -0.98158408428E+02  0.17346355637E+03  0.12509425789E+03 0.  0.
        -24    2    1    2    0    0 -0.41427789803E+02  0.67495708208E+02  0.20520999099E+03  0.23381964853E+03  0.79300411357E+02 0.  0.
        -13    1    3    3    0    0 -0.14800390342E+02 -0.99736806113E+01 -0.37105598767E+03  0.37148495508E+03  0.00000000000E+00 0.  1.
         14    1    3    3    0    0  0.98703581837E+02 -0.27333505018E+01 -0.18835482440E+04  0.18861346335E+04  0.00000000000E+00 0. -1.
         11    1    5    5    0    0 -0.48191667343E+01 -0.75808296142E+01  0.95553044717E+02  0.95974359599E+02  0.00000000000E+00 0. -1.
        -12    1    5    5    0    0 -0.36608623068E+02  0.75076537822E+02  0.10965694628E+03  0.13784528893E+03  0.00000000000E+00 0.  1.
          5    1    4    4  501    0 -0.46847545030E+02 -0.56983584616E+01 -0.11241290314E+03  0.12198892145E+03  0.41800000000E+01 0.  1.
         -5    1    4    4    0  501  0.43721433376E+01 -0.49090318633E+02  0.14254494708E+02  0.51474634921E+02  0.41800000000E+01 0.  1.
</event>
<event>
11    1  0.7105277E-009  0.1342376E+03  0.7561462E-02  0.1114169E+00
         22   -1    0    0    0    0  0.00000000000E+00  0.00000000000E+00  0.56017345901E+03  0.56017345901E+03  0.00000000000E+00 0.  1.
         22   -1    0    0    0    0 -0.00000000000E+00 -0.00000000000E+00 -0.19608115664E+03  0.19608115664E+03  0.00000000000E+00 0.  1.
        -24    2    1    2    0    0  0.29557472909E+02 -0.19857554769E+01 -0.12089612162E+03  0.14770557836E+03  0.79520300719E+02 0.  0.
         25    2    1    2    0    0 -0.56845796979E+02 -0.36862528211E+02  0.31791682653E+02  0.14576851682E+03  0.12508980290E+03 0.  0.
         24    2    1    2    0    0  0.27288324070E+02  0.38848283688E+02  0.45319674134E+03  0.46278052047E+03  0.80775503665E+02 0.  0.
        -13    1    5    5    0    0 -0.85641010529E+01 -0.12095075854E+02  0.24540014912E+03  0.24584724500E+03  0.00000000000E+00 0.  1.
         14    1    5    5    0    0  0.35852425123E+02  0.50943359542E+02  0.20779659221E+03  0.21693327546E+03  0.00000000000E+00 0. -1.
         13    1    3    3    0    0 -0.77052579981E+01 -0.15303194575E+02  0.32204576933E+01  0.17433591505E+02  0.00000000000E+00 0. -1.
        -14    1    3    3    0    0  0.37262730907E+02  0.13317439098E+02 -0.12411657932E+03  0.13027198686E+03  0.00000000000E+00 0.  1.
          5    1    4    4  501    0 -0.38286981401E+02 -0.49040655252E+02  0.74683092637E+02  0.97292936734E+02  0.41800000000E+01 0.  1.
         -5    1    4    4    0  501 -0.18558815578E+02  0.12178127041E+02 -0.42891409984E+02  0.48475580082E+02  0.41800000000E+01 0.  1.
</event>
<event>
11    1  0.7105277E-009  0.2079883E+03  0.7561462E-02  0.1049014E+00
         22   -1    0    0    0    0  0.00000000000E+00  0.00000000000E+00  0.15295499648E+04  0.15295499648E+04  0.00000000000E+00 0.  1.
         22   -1    0    0    0    0 -0.00000000000E+00 -0.00000000000E+00 -0.16538070614E+04  0.16538070614E+04  0.00000000000E+00 0. -1.
        -24    2    1    2    0    0  0.38809043882E+02  0.16166593485E+03 -0.16066224872E+04  0.16169980990E+04  0.76190676964E+02 0.  0.
         25    2    1    2    0    0 -0.10998448968E+03 -0.13868073835E+03  0.25650435060E+03  0.33581499495E+03  0.12509314050E+03 0.  0.
         24    2    1    2    0    0  0.71175445802E+02 -0.22985196506E+02  0.12258610401E+04  0.12305439323E+04  0.76868824961E+02 0.  0.
        -13    1    5    5    0    0  0.73954827674E+02 -0.17099271010E+01  0.11248222542E+04  0.11272521208E+04  0.00000000000E+00 0.  1.
         14    1    5    5    0    0 -0.27793818721E+01 -0.21275269405E+02  0.10103878596E+03  0.10329181148E+03  0.00000000000E+00 0. -1.
         13    1    3    3    0    0  0.54250262947E+02  0.11537197964E+03 -0.94227897852E+03  0.95086458451E+03  0.00000000000E+00 0. -1.
        -14    1    3    3    0    0 -0.15441219065E+02  0.46293955213E+02 -0.66434350873E+03  0.66613351449E+03  0.00000000000E+00 0.  1.
          5    1    4    4  501    0 -0.13306660358E+03 -0.97190293090E+02  0.16840368777E+03  0.23564793340E+03  0.41800000000E+01 0.  1.
         -5    1    4    4    0  501  0.23082113900E+02 -0.41490445259E+02  0.88100662830E+02  0.10016706156E+03  0.41800000000E+01 0.  1.
</event>
<event>
11    1  0.7105277E-009  0.1545246E+03  0.7561462E-02  0.1092343E+00
         22   -1    0    0    0    0  0.00000000000E+00  0.00000000000E+00  0.16835346244E+04  0.16835346244E+04  0.00000000000E+00 0. -1.
         22   -1    0    0    0    0 -0.00000000000E+00 -0.00000000000E+00 -0.58248064359E+03  0.58248064359E+03  0.00000000000E+00 0. -1.
         24    2    1    2    0    0  0.36997284128E+02 -0.31420664671E+01 -0.50760592591E+03  0.51516504417E+03  0.79703043227E+02 0.  0.
         25    2    1    2    0    0  0.41607525735E+02 -0.44301714009E+02  0.15589144469E+01  0.13908165858E+03  0.12508976567E+03 0.  0.
        -24    2    1    2    0    0 -0.78604809863E+02  0.47443780476E+02  0.16071009923E+04  0.16117685652E+04  0.81207635924E+02 0.  0.
        -13    1    3    3    0    0  0.23342646164E+02  0.31307654852E+02 -0.12983390890E+03  0.13557983730E+03  0.00000000000E+00 0.  1.
         14    1    3    3    0    0  0.13654637963E+02 -0.34449721320E+02 -0.37777201701E+03  0.37958520686E+03  0.00000000000E+00 0. -1.
         13    1    5    5    0    0 -0.40564636238E+02  0.67608699913E+02  0.11176627160E+04  0.11204402585E+04  0.00000000000E+00 0. -1.
        -14    1    5    5    0    0 -0.38040173625E+02 -0.20164919437E+02  0.48943827624E+03  0.49132830677E+03  0.00000000000E+00 0.  1.
          5    1    4    4  501    0 -0.36291549097E+02 -0.48547949267E+02  0.42778971660E+01  0.60907739393E+02  0.41800000000E+01 0.  1.
         -5    1    4    4    0  501  0.77899074832E+02  0.42462352581E+01 -0.27189827191E+01  0.78173919184E+02  0.41800000000E+01 0.  1.
</event>
<event>
11    1  0.7105277E-009  0.1461511E+03  0.7561462E-02  0.1100878E+00
         22   -1    0    0    0    0  0.00000000000E+00  0.00000000000E+00  0.12751784234E+04  0.12751784234E+04  0.00000000000E+00 0.  1.
         22   -1    0    0    0    0 -0.00000000000E+00 -0.00000000000E+00 -0.24722734008E+03  0.24722734008E+03  0.00000000000E+00 0. -1.
         24    2    1    2    0    0  0.58147858454E+02 -0.46222527842E+02 -0.19007662328E+03  0.21893459878E+03  0.79281399474E+02 0.  0.
         25    2    1    2    0    0 -0.82102961968E+02  0.39684262317E+02  0.10512548484E+03  0.18710559727E+03  0.12506558251E+03 0.  0.
        -24    2    1    2    0    0  0.23955103514E+02  0.65382655246E+01  0.11129022217E+04  0.11163655674E+04  0.84285995316E+02 0.  0.
        -11    1    3    3    0    0  0.14401283991E+02  0.20710720303E+02 -0.25020119296E+02  0.35529386226E+02  0.00000000000E+00 0.  1.
         12    1    3    3    0    0  0.43746574463E+02 -0.66933248144E+02 -0.16505650399E+03  0.18340521256E+03  0.00000000000E+00 0. -1.
         13    1    5    5    0    0  0.37857548860E+02  0.29323566219E+02  0.38392128537E+03  0.38689613452E+03  0.00000000000E+00 0. -1.
        -14    1    5    5    0    0 -0.13902445346E+02 -0.22785300694E+02  0.72898093637E+03  0.72946943288E+03  0.00000000000E+00 0.  1.
          5    1    4    4  501    0  0.29041093309E+02  0.28780635415E+02  0.15778544041E+02  0.44024367429E+02  0.41800000000E+01 0. -1.
         -5    1    4    4    0  501 -0.11114405528E+03  0.10903626902E+02  0.89346940800E+02  0.14308122984E+03  0.41800000000E+01 0. -1.
</event>
<event>
11    1  0.7105277E-009  0.1399362E+03  0.7561462E-02  0.1107630E+00
         22   -1    0    0    0    0  0.00000000000E+00  0.00000000000E+00  0.11308950273E+03  0.11308950273E+03  0.00000000000E+00 0.  1.
         22   -1    0    0    0    0 -0.00000000000E+00 -0.00000000000E+00 -0.29804699992E+04  0.29804699992E+04  0.00000000000E+00 0.  1.
         24    2    1    2    0    0 -0.33822982709E+02 -0.51441517843E+02 -0.27318016069E+04  0.27337720622E+04  0.83543071257E+02 0.  0.
         25    2    1    2    0    0  0.38388501105E+02  0.89213638968E+02 -0.19629667858E+03  0.25221534544E+03  0.12508974402E+03 0.  0.
        -24    2    1    2    0    0 -0.45655183951E+01 -0.37772121124E+02  0.60717789006E+02  0.10757209429E+03  0.80234210133E+02 0.  0.
        -11    1    3    3    0    0 -0.27777896684E+02 -0.69458923319E+02 -0.25226160670E+04  0.25237250197E+04  0.00000000000E+00 0.  1.
         12    1    3    3    0    0 -0.60450860258E+01  0.18017405476E+02 -0.20918553995E+03  0.21004704256E+03  0.00000000000E+00 0. -1.
         13    1    5    5    0    0 -0.16236714281E+02  0.22289966759E+02  0.17457894860E+02  0.32638192378E+02  0.00000000000E+00 0. -1.
        -14    1    5    5    0    0  0.11671195886E+02 -0.60062087883E+02  0.43259894145E+02  0.74933901912E+02  0.00000000000E+00 0.  1.
          5    1    4    4  501    0  0.17992798692E+02  0.11987040899E+03 -0.15219842478E+03  0.19461369083E+03  0.41800000000E+01 0.  1.
         -5    1    4    4    0  501  0.20395702412E+02 -0.30656770019E+02 -0.44098253803E+02  0.57601654606E+02  0.41800000000E+01 0.  1.
</event>
<event>
11    1  0.7105277E-009  0.1535485E+03  0.7561462E-02  0.1093307E+00
         22   -1    0    0    0    0  0.00000000000E+00  0.00000000000E+00  0.73033631148E+03  0.73033631148E+03  0.00000000000E+00 0. -1.
         22   -1    0    0    0    0 -0.00000000000E+00 -0.00000000000E+00 -0.18300721470E+04  0.18300721470E+04  0.00000000000E+00 0. -1.
        -24    2    1    2    0    0 -0.27439460024E+02  0.16474059735E+02 -0.16605007034E+04  0.16626656109E+04  0.78549532804E+02 0.  0.
         25    2    1    2    0    0  0.57991537066E+02  0.67360331294E+02 -0.12720732816E+03  0.19932466408E+03  0.12509270470E+03 0.  0.
         24    2    1    2    0    0 -0.30552077042E+02 -0.83834391029E+02  0.68797219598E+03  0.69841818356E+03  0.80750121711E+02 0.  0.
        -13    1    5    5    0    0  0.16059960932E+02  0.31064472771E+01  0.44160530501E+02  0.47092725701E+02  0.00000000000E+00 0.  1.
         14    1    5    5    0    0 -0.46612037974E+02 -0.86940838306E+02  0.64381166548E+03  0.65132545786E+03  0.00000000000E+00 0. -1.
         11    1    3    3    0    0  0.15749949466E+02  0.69251677887E+01 -0.11819106448E+04  0.11820358672E+04  0.00000000000E+00 0. -1.
        -12    1    3    3    0    0 -0.43189409490E+02  0.95488919464E+01 -0.47859005852E+03  0.48062974372E+03  0.00000000000E+00 0.  1.
          5    1    4    4  501    0  0.28829918356E+02 -0.10190468002E+02  0.15287064859E+02  0.34440914369E+02  0.41800000000E+01 0. -1.
         -5    1    4    4    0  501  0.29161618709E+02  0.77550799296E+02 -0.14249439302E+03  0.16488374971E+03  0.41800000000E+01 0. -1.
</event>
<event>
11    1  0.7105277E-009  0.2336920E+03  0.7561462E-02  0.1032964E+00
         22   -1    0    0    0    0  0.00000000000E+00  0.00000000000E+00  0.11195838727E+04  0.11195838727E+04  0.00000000000E+00 0.  1.
         22   -1    0    0    0    0 -0.00000000000E+00 -0.00000000000E+00 -0.10622371502E+03  0.10622371502E+03  0.00000000000E+00 0. -1.
        -24    2    1    2    0    0  0.49236285985E+02 -0.15502219925E+03  0.14865227585E+03  0.23451485833E+03  0.80272196576E+02 0.  0.
         25    2    1    2    0    0 -0.21057440191E+03  0.17570339522E+03  0.54469538362E+03  0.62253565366E+03  0.12507724536E+03 0.  0.
         24    2    1    2    0    0  0.16133811592E+03 -0.20681195971E+02  0.32001249820E+03  0.36875707572E+03  0.84356875079E+02 0.  0.
        -11    1    5    5    0    0  0.10286156581E+03  0.80185928364E+01  0.26179946096E+03  0.28139608617E+03  0.00000000000E+00 0.  1.
         12    1    5    5    0    0  0.58476550115E+02 -0.28699788807E+02  0.58213037241E+02  0.87360989553E+02  0.00000000000E+00 0. -1.
         13    1    3    3    0    0  0.22946907072E+02 -0.16758005672E+02 -0.18300224639E+01  0.28473501374E+02  0.00000000000E+00 0. -1.
        -14    1    3    3    0    0  0.26289378912E+02 -0.13826419358E+03  0.15048229831E+03  0.20604135695E+03  0.00000000000E+00 0.  1.
          5    1    4    4  501    0 -0.13085348597E+03  0.28527848056E+02  0.24307199470E+03  0.27755709307E+03  0.41800000000E+01 0.  1.
         -5    1    4    4    0  501 -0.79720915932E+02  0.14717554717E+03  0.30162338892E+03  0.34497856059E+03  0.41800000000E+01 0.  1.
</event>
<event>
11    1  0.7105277E-009  0.1270175E+03  0.7561462E-02  0.1122989E+00
         22   -1    0    0    0    0  0.00000000000E+00  0.00000000000E+00  0.13793840152E+03  0.13793840152E+03  0.00000000000E+00 0. -1.
         22   -1    0    0    0    0 -0.00000000000E+00 -0.00000000000E+00 -0.49451785141E+03  0.49451785141E+03  0.00000000000E+00 0.  1.
         24    2    1    2    0    0  0.20287293219E+02  0.70554302408E+01 -0.36151741731E+03  0.37089838007E+03  0.80058803112E+02 0.  0.
         25    2    1    2    0    0 -0.26710548650E+02 -0.38767459480E+01 -0.74316925371E+02  0.14798162648E+03  0.12508826408E+03 0.  0.
        -24    2    1    2    0    0  0.64232554310E+01 -0.31786842928E+01  0.79254892786E+02  0.11357624638E+03  0.81036186162E+02 0.  0.
        -11    1    3    3    0    0  0.47456979159E+02 -0.65652659045E+01 -0.15737086432E+03  0.16450184353E+03  0.00000000000E+00 0.  1.
         12    1    3    3    0    0 -0.27169685940E+02  0.13620696145E+02 -0.20414655299E+03  0.20639653654E+03  0.00000000000E+00 0. -1.
         13    1    5    5    0    0 -0.12479939095E+02  0.33704283646E+02  0.19600367787E+02  0.40937782466E+02  0.00000000000E+00 0. -1.
        -14    1    5    5    0    0  0.18903194526E+02 -0.36882967939E+02  0.59654524999E+02  0.72638463916E+02  0.00000000000E+00 0.  1.
          5    1    4    4  501    0 -0.52501751912E+02  0.44907536536E+02 -0.57952714849E+02  0.90272422976E+02  0.41800000000E+01 0. -1.
         -5    1    4    4    0  501  0.25791203261E+02 -0.48784282484E+02 -0.16364210522E+02  0.57709203504E+02  0.41800000000E+01 0. -1.
</event>
<event>
11    1  0.7105277E-009  0.1351073E+03  0.7561462E-02  0.1113148E+00
         22   -1    0    0    0    0  0.00000000000E+00  0.00000000000E+00  0.14208481287E+04  0.14208481287E+04  0.00000000000E+00 0.  1.
         22   -1    0    0    0    0 -0.00000000000E+00 -0.00000000000E+00 -0.22790551581E+03  0.22790551581E+03  0.00000000000E+00 0. -1.
        -24    2    1    2    0    0 -0.26554953132E+02  0.39969795541E+02 -0.17583932984E+03  0.19966738049E+03  0.81515905336E+02 0.  0.
         25    2    1    2    0    0  0.34053493205E+02 -0.87527687088E+02  0.12078619610E+03  0.19762998323E+03  0.12509024222E+03 0.  0.
         24    2    1    2    0    0 -0.74985400729E+01  0.47557891547E+02  0.12479957466E+04  0.12514562808E+04  0.79570459119E+02 0.  0.
        -11    1    5    5    0    0  0.78189268037E+01  0.27357162924E+02  0.11461367525E+04  0.11464898628E+04  0.00000000000E+00 0.  1.
         12    1    5    5    0    0 -0.15317466877E+02  0.20200728623E+02  0.10185899413E+03  0.10496641803E+03  0.00000000000E+00 0. -1.
         11    1    3    3    0    0 -0.71030509142E+01  0.61642226451E+02 -0.14235705274E+03  0.15529245918E+03  0.00000000000E+00 0. -1.
        -12    1    3    3    0    0 -0.19451902218E+02 -0.21672430911E+02 -0.33482277102E+02  0.44374921312E+02  0.00000000000E+00 0.  1.
          5    1    4    4  501    0 -0.25749729309E+02 -0.65425305701E+02  0.11315025574E+03  0.13328155146E+03  0.41800000000E+01 0. -1.
         -5    1    4    4    0  501  0.59803222515E+02 -0.22102381386E+02  0.76359403537E+01  0.64348431769E+02  0.41800000000E+01 0. -1.
</event>
<event>
11    1  0.7105277E-009  0.1481966E+03  0.7561462E-02  0.1098736E+00
         22   -1    0    0    0    0  0.00000000000E+00  0.00000000000E+00  0.45754818930E+03  0.45754818930E+03  0.00000000000E+00 0. -1.
         22   -1    0    0    0    0 -0.00000000000E+00 -0.00000000000E+00 -0.88984580428E+03  0.88984580428E+03  0.00000000000E+00 0.  1.
        -24    2    1    2    0    0  0.27006518950E+01  0.47656698063E+02 -0.83688809301E+03  0.84226158146E+03  0.82124521255E+02 0.  0.
         25    2    1    2    0    0 -0.69992590054E+02 -0.78939275012E+02  0.12913004512E+03  0.20845366074E+03  0.12509191949E+03 0.  0.
         24    2    1    2    0    0  0.67291938159E+02  0.31282576948E+02  0.27546043292E+03  0.29667875137E+03  0.81443396619E+02 0.  0.
        -13    1    5    5    0    0  0.30673023307E+02  0.57146128455E+02  0.14888643350E+03  0.16239976736E+03  0.00000000000E+00 0.  1.
         14    1    5    5    0    0  0.36618914852E+02 -0.25863551506E+02  0.12657399941E+03  0.13427898402E+03  0.00000000000E+00 0. -1.
         13    1    3    3    0    0  0.22316548999E+02 -0.15327687759E+02 -0.32801292315E+03  0.32912830952E+03  0.00000000000E+00 0. -1.
        -14    1    3    3    0    0 -0.19615897104E+02  0.62984385822E+02 -0.50887516986E+03  0.51313327194E+03  0.00000000000E+00 0.  1.
          5    1    4    4  501    0 -0.34488125091E+01 -0.86787548217E+02  0.37104245232E+02  0.94541896784E+02  0.41800000000E+01 0. -1.
         -5    1    4    4    0  501 -0.66543777545E+02  0.78482732058E+01  0.92025799888E+02  0.11391176396E+03  0.41800000000E+01 0. -1.
</event>
<event>
11    1  0.7105277E-009  0.1296568E+03  0.7561462E-02  0.1119691E+00
         22   -1    0    0    0    0  0.00000000000E+00  0.00000000000E+00  0.12999476636E+03  0.12999476636E+03  0.00000000000E+00 0. -1.
         22   -1    0    0    0    0 -0.00000000000E+00 -0.00000000000E+00 -0.90495491977E+03  0.90495491977E+03  0.00000000000E+00 0.  1.
         24    2    1    2    0    0 -0.10898511966E+02 -0.10167592493E+02 -0.74733316713E+03  0.75182456147E+03  0.80691703659E+02 0.  0.
         25    2    1    2    0    0  0.17748866719E+02  0.41864300778E+02 -0.10133646138E+03  0.16728507399E+03  0.12509026991E+03 0.  0.
        -24    2    1    2    0    0 -0.68503547535E+01 -0.31696708285E+02  0.73709475095E+02  0.11584005067E+03  0.83271975746E+02 0.  0.
        -11    1    3    3    0    0 -0.18251377553E+02  0.32932176775E+02 -0.39450808600E+03  0.39630073299E+03  0.00000000000E+00 0.  1.
         12    1    3    3    0    0  0.73528655878E+01 -0.43099769268E+02 -0.35282508113E+03  0.35552382848E+03  0.00000000000E+00 0. -1.
         13    1    5    5    0    0  0.13128667558E+02 -0.18766952289E+02  0.86040856824E+02  0.89037011704E+02  0.00000000000E+00 0. -1.
        -14    1    5    5    0    0 -0.19979022312E+02 -0.12929755996E+02 -0.12331381729E+02  0.26803038969E+02  0.00000000000E+00 0.  1.
          5    1    4    4  501    0  0.17238259688E+00  0.39411494150E+02 -0.12855421588E+03  0.13452492114E+03  0.41800000000E+01 0. -1.
         -5    1    4    4    0  501  0.17576484122E+02  0.24528066285E+01  0.27217754503E+02  0.32760152848E+02  0.41800000000E+01 0. -1.
</event>
<event>
11    1  0.7105277E-009  0.1601417E+03  0.7561462E-02  0.1086944E+00
         22   -1    0    0    0    0  0.00000000000E+00  0.00000000000E+00  0.18811457192E+04  0.18811457192E+04  0.00000000000E+00 0.  1.
         22   -1    0    0    0    0 -0.00000000000E+00 -0.00000000000E+00 -0.17221650918E+03  0.17221650918E+03  0.00000000000E+00 0. -1.
        -24    2    1    2    0    0 -0.12926643093E+02 -0.17349426556E+02 -0.15008501582E+03  0.17177412949E+03  0.80701542020E+02 0.  0.
         25    2    1    2    0    0  0.75454168670E+02 -0.62983974946E+02  0.87564866032E+03  0.88998211329E+03  0.12508906026E+03 0.  0.
         24    2    1    2    0    0 -0.62527525576E+02  0.80333401502E+02  0.98336556555E+03  0.99160598562E+03  0.76885943799E+02 0.  0.
        -11    1    5    5    0    0 -0.59645785698E+02  0.44739583366E+02  0.85857736760E+03  0.86180876430E+03  0.00000000000E+00 0.  1.
         12    1    5    5    0    0 -0.28817398787E+01  0.35593818136E+02  0.12478819796E+03  0.12979722132E+03  0.00000000000E+00 0. -1.
         13    1    3    3    0    0 -0.27802985560E+02 -0.33704256082E+02 -0.14144145163E+03  0.14803603319E+03  0.00000000000E+00 0. -1.
        -14    1    3    3    0    0  0.14876342467E+02  0.16354829526E+02 -0.86435641954E+01  0.23738096301E+02  0.00000000000E+00 0.  1.
          5    1    4    4  501    0  0.21025896714E+02 -0.70109886145E+01  0.66352746810E+03  0.66391069853E+03  0.41800000000E+01 0.  1.
         -5    1    4    4    0  501  0.54428271956E+02 -0.55972986332E+02  0.21212119222E+03  0.22607141476E+03  0.41800000000E+01 0.  1.
</event>
<event>
11    1  0.7105277E-009  0.1493811E+03  0.7561462E-02  0.1097513E+00
         22   -1    0    0    0    0  0.00000000000E+00  0.00000000000E+00  0.39432440627E+03  0.39432440627E+03  0.00000000000E+00 0.  1.
         22   -1    0    0    0    0 -0.00000000000E+00 -0.00000000000E+00 -0.30981678191E+04  0.30981678191E+04  0.00000000000E+00 0.  1.
        -24    2    1    2    0    0 -0.36089970605E+02  0.26543708010E+02 -0.29995467083E+04  0.30014160621E+04  0.95973267248E+02 0.  0.
         25    2    1    2    0    0  0.10714853311E+02 -0.10254681693E+03 -0.12752978703E+02  0.16260651340E+03  0.12509029534E+03 0.  0.
         24    2    1    2    0    0  0.25375117294E+02  0.76003108921E+02  0.30845627420E+03  0.32846964987E+03  0.79540358630E+02 0.  0.
        -13    1    5    5    0    0  0.56724292616E+01  0.11228734727E+01  0.16788341453E+03  0.16798296989E+03  0.00000000000E+00 0.  1.
         14    1    5    5    0    0  0.19702688032E+02  0.74880235449E+02  0.14057285967E+03  0.16048667999E+03  0.00000000000E+00 0. -1.
         11    1    3    3    0    0 -0.24644743488E+02 -0.22953385499E+02 -0.41312566005E+03  0.41449611853E+03  0.00000000000E+00 0. -1.
        -12    1    3    3    0    0 -0.11445227117E+02  0.49497093509E+02 -0.25864210482E+04  0.25869199435E+04  0.00000000000E+00 0.  1.
          5    1    4    4  501    0 -0.15198093991E+02  0.25782633799E+02  0.42676353513E+01  0.30519033046E+02  0.41800000000E+01 0.  1.
         -5    1    4    4    0  501  0.25912947302E+02 -0.12832945073E+03 -0.17020614055E+02  0.13208748035E+03  0.41800000000E+01 0.  1.
</event>
<event>
11    1  0.7105277E-009  0.1449458E+03  0.7561462E-02  0.1102158E+00
         22   -1    0    0    0    0  0.00000000000E+00  0.00000000000E+00  0.77444113495E+03  0.77444113495E+03  0.00000000000E+00 0. -1.
         22   -1    0    0    0    0 -0.00000000000E+00 -0.00000000000E+00 -0.33979705559E+03  0.33979705559E+03  0.00000000000E+00 0.  1.
        -24    2    1    2    0    0  0.40677008793E+02  0.61838466592E+02 -0.30823554044E+03  0.32686389670E+03  0.79700963496E+02 0.  0.
         25    2    1    2    0    0  0.21344739503E+01 -0.61071187634E+02  0.25143814976E+03  0.28740835639E+03  0.12509266257E+03 0.  0.
         24    2    1    2    0    0 -0.42811482744E+02 -0.76727895823E+00  0.49144147004E+03  0.49996593746E+03  0.81349913156E+02 0.  0.
        -13    1    5    5    0    0 -0.11803275193E+02 -0.22246562384E+02  0.42197932871E+02  0.49141554531E+02  0.00000000000E+00 0.  1.
         14    1    5    5    0    0 -0.31008207551E+02  0.21479283426E+02  0.44924353717E+03  0.45082438292E+03  0.00000000000E+00 0. -1.
         11    1    3    3    0    0  0.16534317396E+02 -0.13564582533E+02 -0.13118772846E+03  0.13291953073E+03  0.00000000000E+00 0. -1.
        -12    1    3    3    0    0  0.24142691397E+02  0.75403049125E+02 -0.17704781198E+03  0.19394436597E+03  0.00000000000E+00 0.  1.
          5    1    4    4  501    0 -0.31737331862E+02 -0.61217435564E+02  0.24247231745E+03  0.25212126007E+03  0.41800000000E+01 0.  1.
         -5    1    4    4    0  501  0.33871805812E+02  0.14624793042E+00  0.89658323133E+01  0.35287096317E+02  0.41800000000E+01 0.  1.
</event>
<event>
11    1  0.7105277E-009  0.2016047E+03  0.7561462E-02  0.1053395E+00
         22   -1    0    0    0    0  0.00000000000E+00  0.00000000000E+00  0.14116579495E+04  0.14116579495E+04  0.00000000000E+00 0. -1.
         22   -1    0    0    0    0 -0.00000000000E+00 -0.00000000000E+00 -0.12166324373E+03  0.12166324373E+03  0.00000000000E+00 0. -1.
        -24    2    1    2    0    0  0.33054167994E+02 -0.87601237572E+01 -0.74248862767E+02  0.11693323485E+03  0.83613216661E+02 0.  0.
         25    2    1    2    0    0 -0.17283721956E+03 -0.20632496138E+02  0.85712976268E+03  0.88352539241E+03  0.12508910664E+03 0.  0.
         24    2    1    2    0    0  0.13978305156E+03  0.29392619895E+02  0.50711380584E+03  0.53286256596E+03  0.79842811290E+02 0.  0.
        -13    1    5    5    0    0  0.28345512741E+02 -0.81638119952E+01  0.22923665882E+03  0.23112672209E+03  0.00000000000E+00 0.  1.
         14    1    5    5    0    0  0.11143753882E+03  0.37556431891E+02  0.27787714702E+03  0.30173584386E+03  0.00000000000E+00 0. -1.
         11    1    3    3    0    0  0.43061319964E+02 -0.21796299420E+02 -0.84679859684E+02  0.97468120847E+02  0.00000000000E+00 0. -1.
        -12    1    3    3    0    0 -0.10007151970E+02  0.13036175663E+02  0.10430996917E+02  0.19465114003E+02  0.00000000000E+00 0.  1.
          5    1    4    4  501    0 -0.11365228260E+03 -0.68560198508E+02  0.63280435128E+03  0.64658809265E+03  0.41800000000E+01 0. -1.
         -5    1    4    4    0  501 -0.59184936963E+02  0.47927702369E+02  0.22432541140E+03  0.23693729976E+03  0.41800000000E+01 0. -1.
</event>
<event>
11    1  0.7105277E-009  0.1356109E+03  0.7561462E-02  0.1112561E+00
         22   -1    0    0    0    0  0.00000000000E+00  0.00000000000E+00  0.35401737026E+03  0.35401737026E+03  0.00000000000E+00 0. -1.
         22   -1    0    0    0    0 -0.00000000000E+00 -0.00000000000E+00 -0.73383830060E+03  0.73383830060E+03  0.00000000000E+00 0.  1.
        -24    2    1    2    0    0  0.27269281596E+02 -0.10902419802E+02 -0.65428216696E+03  0.66063696503E+03  0.86565403454E+02 0.  0.
         25    2    1    2    0    0 -0.22771514258E+02  0.62070943376E+02  0.53760049254E+01  0.14159005948E+03  0.12508996619E+03 0.  0.
         24    2    1    2    0    0 -0.44977673378E+01 -0.51168523574E+02  0.26908523169E+03  0.28562864635E+03  0.80860459965E+02 0.  0.
        -13    1    5    5    0    0 -0.32851112722E+02 -0.37884314717E+02  0.83336445973E+02  0.97259344724E+02  0.00000000000E+00 0.  1.
         14    1    5    5    0    0  0.28353345385E+02 -0.13284208857E+02  0.18574878572E+03  0.18836930163E+03  0.00000000000E+00 0. -1.
         13    1    3    3    0    0 -0.46579454569E+01  0.27987702472E+02 -0.96355255283E+02  0.10044572249E+03  0.00000000000E+00 0. -1.
        -14    1    3    3    0    0  0.31927227053E+02 -0.38890122274E+02 -0.55792691168E+03  0.56019124254E+03  0.00000000000E+00 0.  1.
          5    1    4    4  501    0  0.41418579535E+02  0.48590145966E+02  0.30937145540E+02  0.71070953208E+02  0.41800000000E+01 0.  1.
         -5    1    4    4    0  501 -0.64190093793E+02  0.13480797411E+02 -0.25561140615E+02  0.70519106273E+02  0.41800000000E+01 0.  1.
</event>
<event>
11    1  0.7105277E-009  0.1427507E+03  0.7561462E-02  0.1104525E+00
         22   -1    0    0    0    0  0.00000000000E+00  0.00000000000E+00  0.87220343507E+03  0.87220343507E+03  0.00000000000E+00 0.  1.
         22   -1    0    0    0    0 -0.00000000000E+00 -0.00000000000E+00 -0.12408739850E+03  0.12408739850E+03  0.00000000000E+00 0. -1.
        -24    2    1    2    0    0 -0.48877949646E+02  0.23283293477E+01 -0.75480749354E+02  0.12032680376E+03  0.79916963792E+02 0.  0.
         25    2    1    2    0    0 -0.28167997029E+02  0.78526734220E+01  0.17156208232E+03  0.21432672790E+03  0.12508915887E+03 0.  0.
         24    2    1    2    0    0  0.77045946676E+02 -0.10181002770E+02  0.65203470361E+03  0.66163730191E+03  0.81085965806E+02 0.  0.
        -11    1    5    5    0    0  0.49102919627E+02 -0.36063252215E+02  0.53736372183E+03  0.54080627254E+03  0.00000000000E+00 0.  1.
         12    1    5    5    0    0  0.27943027049E+02  0.25882249445E+02  0.11467098178E+03  0.12083102937E+03  0.00000000000E+00 0. -1.
         11    1    3    3    0    0 -0.66403086467E+02  0.11588300200E+02 -0.74518728734E+02  0.10048233440E+03  0.00000000000E+00 0. -1.
        -12    1    3    3    0    0  0.17525136821E+02 -0.92599708518E+01 -0.96202062037E+00  0.19844469366E+02  0.00000000000E+00 0.  1.
          5    1    4    4  501    0 -0.23322875420E+02  0.40784808062E+02  0.85979891763E+01  0.47945332457E+02  0.41800000000E+01 0. -1.
         -5    1    4    4    0  501 -0.48451216088E+01 -0.32932134640E+02  0.16296409314E+03  0.16638139544E+03  0.41800000000E+01 0. -1.
</event>
<event>
11    1  0.7105277E-009  0.1465332E+03  0.7561462E-02  0.1100475E+00
         22   -1    0    0    0    0  0.00000000000E+00  0.00000000000E+00  0.91147820689E+03  0.91147820689E+03  0.00000000000E+00 0. -1.
         22   -1    0    0    0    0 -0.00000000000E+00 -0.00000000000E+00 -0.80912664087E+03  0.80912664087E+03  0.00000000000E+00 0. -1.
        -24    2    1    2    0    0 -0.71530297541E+02 -0.29472681554E+02 -0.78140360971E+03  0.79036995085E+03  0.90043520122E+02 0.  0.
         25    2    1    2    0    0  0.28690247516E+02  0.47759293807E+01  0.18573926601E+03  0.22581492076E+03  0.12508942279E+03 0.  0.
         24    2    1    2    0    0  0.42840050025E+02  0.24696752173E+02  0.69801590972E+03  0.70441997615E+03  0.80846107706E+02 0.  0.
        -11    1    5    5    0    0  0.30885520359E+02  0.53807279242E+02  0.40594525094E+03  0.41065884312E+03  0.00000000000E+00 0.  1.
         12    1    5    5    0    0  0.11954529666E+02 -0.29110527069E+02  0.29207065877E+03  0.29376113304E+03  0.00000000000E+00 0. -1.
         13    1    3    3    0    0 -0.30215484649E+02 -0.16706614052E+02 -0.66968685206E+03  0.67057629416E+03  0.00000000000E+00 0. -1.
        -14    1    3    3    0    0 -0.41314812892E+02 -0.12766067502E+02 -0.11171675765E+03  0.11979365669E+03  0.00000000000E+00 0.  1.
          5    1    4    4  501    0 -0.44337156288E+02  0.26207100193E+02  0.85265119244E+02  0.99700594220E+02  0.41800000000E+01 0.  1.
         -5    1    4    4    0  501  0.73027403804E+02 -0.21431170812E+02  0.10047414677E+03  0.12611432654E+03  0.41800000000E+01 0.  1.
</event>
<event>
11    1  0.7105277E-009  0.1714422E+03  0.7561462E-02  0.1076783E+00
         22   -1    0    0    0    0  0.00000000000E+00  0.00000000000E+00  0.67809403038E+03  0.67809403038E+03  0.00000000000E+00 0.  1.
         22   -1    0    0    0    0 -0.00000000000E+00 -0.00000000000E+00 -0.29119048948E+03  0.29119048948E+03  0.00000000000E+00 0.  1.
        -24    2    1    2    0    0  0.40100733092E+02 -0.12659414976E+02 -0.15761645313E+03  0.18230148720E+03  0.81379090393E+02 0.  0.
         25    2    1    2    0    0 -0.13394129618E+03 -0.54657537682E+02 -0.32007336106E+02  0.19391112230E+03  0.12509730828E+03 0.  0.
         24    2    1    2    0    0  0.93840563085E+02  0.67316952658E+02  0.57652733013E+03  0.59307191037E+03  0.77542924121E+02 0.  0.
        -11    1    5    5    0    0  0.41213072485E+02 -0.87667743217E+01  0.25664379398E+03  0.26007962370E+03  0.00000000000E+00 0.  1.
         12    1    5    5    0    0  0.52627490600E+02  0.76083726980E+02  0.31988353615E+03  0.33299228667E+03  0.00000000000E+00 0. -1.
         13    1    3    3    0    0 -0.28148954079E+01 -0.85430315417E+01  0.74614074789E+01  0.11686728612E+02  0.00000000000E+00 0. -1.
        -14    1    3    3    0    0  0.42915628500E+02 -0.41163834346E+01 -0.16507786061E+03  0.17061475858E+03  0.00000000000E+00 0.  1.
          5    1    4    4  501    0 -0.26925748469E+02  0.35160692086E+02 -0.30845250742E+02  0.54131064020E+02  0.41800000000E+01 0.  1.
         -5    1    4    4    0  501 -0.10701554771E+03 -0.89818229767E+02 -0.11620853639E+01  0.13978005828E+03  0.41800000000E+01 0.  1.
</event>
<event>
11    1  0.7105277E-009  0.1439198E+03  0.7561462E-02  0.1103259E+00
         22   -1    0    0    0    0  0.00000000000E+00  0.00000000000E+00  0.25169403267E+04  0.25169403267E+04  0.00000000000E+00 0. -1.
         22   -1    0    0    0    0 -0.00000000000E+00 -0.00000000000E+00 -0.15769985743E+03  0.15769985743E+03  0.00000000000E+00 0.  1.
         24    2    1    2    0    0  0.15837654729E+02 -0.38736252871E+02 -0.69269185745E+02  0.11409310051E+03  0.80421930443E+02 0.  0.
         25    2    1    2    0    0  0.55611688801E+02  0.38913166444E+02  0.13217512951E+02  0.14292849432E+03  0.12508779871E+03 0.  0.
        -24    2    1    2    0    0 -0.71449343530E+02 -0.17691357275E+00  0.24152921421E+04  0.24176185893E+04  0.78348399993E+02 0.  0.
        -13    1    3    3    0    0 -0.47184881874E+01 -0.35406726686E+02 -0.82169096189E+02  0.89597214208E+02  0.00000000000E+00 0.  1.
         14    1    3    3    0    0  0.20556142916E+02 -0.33295261852E+01  0.12899910444E+02  0.24495886301E+02  0.00000000000E+00 0. -1.
         13    1    5    5    0    0 -0.75764941401E+02 -0.17428982884E+02  0.22555794304E+04  0.22569188427E+04  0.00000000000E+00 0. -1.
        -14    1    5    5    0    0  0.43155978714E+01  0.17252069311E+02  0.15971271174E+03  0.16069974664E+03  0.00000000000E+00 0.  1.
          5    1    4    4  501    0  0.42312326347E+02  0.17465666071E+02 -0.54055260669E+02  0.70956508215E+02  0.41800000000E+01 0. -1.
         -5    1    4    4    0  501  0.13299362455E+02  0.21447500373E+02  0.67272773619E+02  0.71971986109E+02  0.41800000000E+01 0. -1.
</event>
<event>
11    1  0.7105277E-009  0.1512432E+03  0.7561462E-02  0.1095615E+00
         22   -1    0    0    0    0  0.00000000000E+00  0.00000000000E+00  0.22420913391E+04  0.22420913391E+04  0.00000000000E+00 0.  1.
         22   -1    0    0    0    0 -0.00000000000E+00 -0.00000000000E+00 -0.76065096780E+02  0.76065096780E+02  0.00000000000E+00 0. -1.
         24    2    1    2    0    0 -0.39645274865E+02 -0.35224825179E+02 -0.33455300959E+02  0.10119719945E+03  0.79429716645E+02 0.  0.
         25    2    1    2    0    0 -0.42833124991E+02  0.73257779515E+02  0.10135438183E+04  0.10247538379E+04  0.12509187747E+03 0.  0.
        -24    2    1    2    0    0  0.82478399856E+02 -0.38032954336E+02  0.11859377250E+04  0.11922053986E+04  0.81585738404E+02 0.  0.
        -11    1    3    3    0    0  0.26684908911E+01 -0.49922388959E+02 -0.11440218402E+02  0.51285908007E+02  0.00000000000E+00 0.  1.
         12    1    3    3    0    0 -0.42313765756E+02  0.14697563780E+02 -0.22015082557E+02  0.49911291444E+02  0.00000000000E+00 0. -1.
         13    1    5    5    0    0 -0.16038017602E+02 -0.21307024319E+00  0.12274218619E+03  0.12378573294E+03  0.00000000000E+00 0. -1.
        -14    1    5    5    0    0  0.98516417458E+02 -0.37819884093E+02  0.10631955388E+04  0.10684196657E+04  0.00000000000E+00 0.  1.
          5    1    4    4  501    0 -0.36561929010E+02 -0.22162383505E+02  0.15342810187E+03  0.15932859361E+03  0.41800000000E+01 0.  1.
         -5    1    4    4    0  501 -0.62711959808E+01  0.95420163020E+02  0.86011571639E+03  0.86542524425E+03  0.41800000000E+01 0.  1.
</event>
<event>
11    1  0.7105277E-009  0.1411770E+03  0.7561462E-02  0.1106251E+00
         22   -1    0    0    0    0  0.00000000000E+00  0.00000000000E+00  0.30037030309E+03  0.30037030309E+03  0.00000000000E+00 0.  1.
         22   -1    0    0    0    0 -0.00000000000E+00 -0.00000000000E+00 -0.15710354210E+04  0.15710354210E+04  0.00000000000E+00 0.  1.
        -24    2    1    2    0    0  0.61888869747E+02  0.21912080214E+02 -0.15110598162E+04  0.15145456391E+04  0.78970585353E+02 0.  0.
         25    2    1    2    0    0 -0.37183553037E+02 -0.53134402437E+02  0.59054582343E+02  0.15277709414E+03  0.12509002942E+03 0.  0.
         24    2    1    2    0    0 -0.24705316710E+02  0.31222322222E+02  0.18134011595E+03  0.20408299084E+03  0.84737497123E+02 0.  0.
        -11    1    5    5    0    0 -0.33708951862E+02  0.43259124126E+02  0.18091574120E+03  0.18904536669E+03  0.00000000000E+00 0.  1.
         12    1    5    5    0    0  0.90036351524E+01 -0.12036801903E+02  0.42437475363E+00  0.15037624146E+02  0.00000000000E+00 0. -1.
         13    1    3    3    0    0 -0.80678349683E+01  0.10342005138E+02 -0.47747295565E+02  0.49516171754E+02  0.00000000000E+00 0. -1.
        -14    1    3    3    0    0  0.69956704716E+02  0.11570075076E+02 -0.14633125206E+04  0.14650294674E+04  0.00000000000E+00 0.  1.
          5    1    4    4  501    0 -0.67605728192E+02 -0.56288994181E+02  0.77073599178E+02  0.11703331765E+03  0.41800000000E+01 0. -1.
         -5    1    4    4    0  501  0.30422175154E+02  0.31545917444E+01 -0.18019016835E+02  0.35743776492E+02  0.41800000000E+01 0. -1.
</event>
<event>
11    1  0.7105277E-009  0.1390942E+03  0.7561462E-02  0.1108574E+00
         22   -1    0    0    0    0  0.00000000000E+00  0.00000000000E+00  0.72728476432E+03  0.72728476432E+03  0.00000000000E+00 0. -1.
         22   -1    0    0    0    0 -0.00000000000E+00 -0.00000000000E+00 -0.12690697473E+04  0.12690697473E+04  0.00000000000E+00 0.  1.
         24    2    1    2    0    0  0.60500107159E+02  0.85344466884E+01 -0.11822046005E+04  0.11865761416E+04  0.81376424556E+02 0.  0.
         25    2    1    2    0    0 -0.58491230664E+02  0.43009929678E+02 -0.16972677476E+02  0.14562719872E+03  0.12509249023E+03 0.  0.
        -24    2    1    2    0    0 -0.20088764947E+01 -0.51544376366E+02  0.65739229502E+03  0.66415117133E+03  0.79191480009E+02 0.  0.
        -13    1    3    3    0    0  0.70477656716E+02  0.42830713463E+01 -0.11568063179E+04  0.11589591459E+04  0.00000000000E+00 0.  1.
         14    1    3    3    0    0 -0.99775495578E+01  0.42513753421E+01 -0.25398282615E+02  0.27616995624E+02  0.00000000000E+00 0. -1.
         11    1    5    5    0    0  0.21217383834E+02 -0.64293549437E+02  0.44733213445E+03  0.45242665305E+03  0.00000000000E+00 0. -1.
        -12    1    5    5    0    0 -0.23226260328E+02  0.12749173071E+02  0.21006016057E+03  0.21172451829E+03  0.00000000000E+00 0.  1.
          5    1    4    4  501    0  0.40844413655E+01  0.20164453272E+02  0.48054976454E+02  0.52440833318E+02  0.41800000000E+01 0.  1.
         -5    1    4    4    0  501 -0.62575672029E+02  0.22845476406E+02 -0.65027653930E+02  0.93186365407E+02  0.41800000000E+01 0.  1.
</event>
<event>
11    1  0.7105277E-009  0.1412355E+03  0.7561462E-02  0.1106187E+00
         22   -1    0    0    0    0  0.00000000000E+00  0.00000000000E+00  0.28943184809E+03  0.28943184809E+03  0.00000000000E+00 0.  1.
         22   -1    0    0    0    0 -0.00000000000E+00 -0.00000000000E+00 -0.30015306100E+03  0.30015306100E+03  0.00000000000E+00 0. -1.
        -24    2    1    2    0    0 -0.28001152905E+02 -0.61919463246E+02 -0.20581295684E+03  0.23196982759E+03  0.82661618754E+02 0.  0.
         25    2    1    2    0    0  0.16395411975E+02  0.52063478441E+02 -0.12567635830E+02  0.13705668843E+03  0.12508866876E+03 0.  0.
         24    2    1    2    0    0  0.11605740930E+02  0.98559848052E+01  0.20765937976E+03  0.22055839307E+03  0.72744436844E+02 0.  0.
        -11    1    5    5    0    0  0.15923623223E+02  0.17111571446E+01  0.21034716859E+03  0.21095596974E+03  0.00000000000E+00 0.  1.
         12    1    5    5    0    0 -0.43178822934E+01  0.81448276606E+01 -0.26877888242E+01  0.96024233339E+01  0.00000000000E+00 0. -1.
         13    1    3    3    0    0 -0.28637328508E+02 -0.81660434270E+02 -0.17720698193E+03  0.19720760014E+03  0.00000000000E+00 0. -1.
        -14    1    3    3    0    0  0.63617560311E+00  0.19740971024E+02 -0.28605974912E+02  0.34762227447E+02  0.00000000000E+00 0.  1.
          5    1    4    4  501    0 -0.15401925486E+02  0.69901610884E+02  0.32681033813E+02  0.78797061392E+02  0.41800000000E+01 0.  1.
         -5    1    4    4    0  501  0.31797337462E+02 -0.17838132444E+02 -0.45248669642E+02  0.58259627042E+02  0.41800000000E+01 0.  1.
</event>
<event>
11    1  0.7105277E-009  0.1356202E+03  0.7561462E-02  0.1112550E+00
         22   -1    0    0    0    0  0.00000000000E+00  0.00000000000E+00  0.17122224743E+04  0.17122224743E+04  0.00000000000E+00 0. -1.
         22   -1    0    0    0    0 -0.00000000000E+00 -0.00000000000E+00 -0.36187856962E+03  0.36187856962E+03  0.00000000000E+00 0.  1.
         24    2    1    2    0    0  0.50507166911E+02 -0.15347398029E+02 -0.31388547064E+03  0.33107470761E+03  0.91103549874E+02 0.  0.
         25    2    1    2    0    0 -0.31941539247E+02  0.51647366388E+02  0.88775789981E+02  0.16497504866E+03  0.12509162006E+03 0.  0.
        -24    2    1    2    0    0 -0.18565627664E+02 -0.36299968359E+02  0.15754535853E+04  0.15780512876E+04  0.80805300821E+02 0.  0.
        -13    1    3    3    0    0  0.26122045844E+02  0.38008166742E+02 -0.15447224103E+03  0.16120997260E+03  0.00000000000E+00 0.  1.
         14    1    3    3    0    0  0.24385121067E+02 -0.53355564771E+02 -0.15941322962E+03  0.16986473501E+03  0.00000000000E+00 0. -1.
         13    1    5    5    0    0 -0.44124351316E+01 -0.53758818644E+02  0.14153998758E+04  0.14164272973E+04  0.00000000000E+00 0. -1.
        -14    1    5    5    0    0 -0.14153192532E+02  0.17458850285E+02  0.16005370952E+03  0.16162399031E+03  0.00000000000E+00 0.  1.
          5    1    4    4  501    0 -0.25224051683E+02 -0.12663137263E+02  0.95651152847E+02  0.99815946970E+02  0.41800000000E+01 0. -1.
         -5    1    4    4    0  501 -0.67174875638E+01  0.64310503651E+02 -0.68753628651E+01  0.65159101693E+02  0.41800000000E+01 0. -1.
</event>
<event>
11    1  0.7105277E-009  0.2013818E+03  0.7561462E-02  0.1053551E+00
         22   -1    0    0    0    0  0.00000000000E+00  0.00000000000E+00  0.43202632493E+03  0.43202632493E+03  0.00000000000E+00 0. -1.
         22   -1    0    0    0    0 -0.00000000000E+00 -0.00000000000E+00 -0.39253864062E+03  0.39253864062E+03  0.00000000000E+00 0.  1.
         24    2    1    2    0    0  0.16809455688E+02 -0.23039480391E+02 -0.24049009233E+03  0.25530479879E+03  0.80818811683E+02 0.  0.
         25    2    1    2    0    0  0.14247364923E+03  0.38846021138E+02 -0.44737417053E+02  0.19863683865E+03  0.12508958031E+03 0.  0.
        -24    2    1    2    0    0 -0.15928310492E+03 -0.15806540746E+02  0.32471519370E+03  0.37062332810E+03  0.79377201224E+02 0.  0.
        -13    1    3    3    0    0  0.26049061540E+02 -0.33691676370E+01 -0.22941406613E+03  0.23091279444E+03  0.00000000000E+00 0.  1.
         14    1    3    3    0    0 -0.92396058521E+01 -0.19670312754E+02 -0.11076026202E+02  0.24392004358E+02  0.00000000000E+00 0. -1.
         13    1    5    5    0    0 -0.14107505578E+03  0.10100557383E+02  0.22279498151E+03  0.26389732171E+03  0.00000000000E+00 0. -1.
        -14    1    5    5    0    0 -0.18208049134E+02 -0.25907098129E+02  0.10192021219E+03  0.10672600639E+03  0.00000000000E+00 0.  1.
          5    1    4    4  501    0  0.30586823543E+02 -0.43615395808E+02 -0.21765689182E+02  0.57698129532E+02  0.41800000000E+01 0.  1.
         -5    1    4    4    0  501  0.11188682569E+03  0.82461416946E+02 -0.22971727870E+02  0.14093870912E+03  0.41800000000E+01 0.  1.
</event>
<event>
11    1  0.7105277E-009  0.1414397E+03  0.7561462E-02  0.1105961E+00
         22   -1    0    0    0    0  0.00000000000E+00  0.00000000000E+00  0.10485580619E+04  0.10485580619E+04  0.00000000000E+00 0. -1.
         22   -1    0    0    0    0 -0.00000000000E+00 -0.00000000000E+00 -0.47721069338E+03  0.47721069338E+03  0.00000000000E+00 0. -1.
        -24    2    1    2    0    0 -0.62968381687E+02  0.90228346346E+01 -0.39604464567E+03  0.40924776888E+03  0.81153843582E+02 0.  0.
         25    2    1    2    0    0  0.95232297883E+02 -0.25408303548E+02  0.15085511469E+02  0.15996543699E+03  0.12508635388E+03 0.  0.
         24    2    1    2    0    0 -0.32263916196E+02  0.16385468913E+02  0.95230650273E+03  0.95655554941E+03  0.82470601311E+02 0.  0.
        -13    1    5    5    0    0 -0.98095740918E+01 -0.22033141635E+02  0.92315666424E+02  0.95414198846E+02  0.00000000000E+00 0.  1.
         14    1    5    5    0    0 -0.22454342104E+02  0.38418610548E+02  0.85999083631E+03  0.86114135057E+03  0.00000000000E+00 0. -1.
         11    1    3    3    0    0 -0.61914458151E+02  0.34719281301E+02 -0.34336380755E+03  0.35062448996E+03  0.00000000000E+00 0. -1.
        -12    1    3    3    0    0 -0.10539235360E+01 -0.25696446667E+02 -0.52680838123E+02  0.58623278921E+02  0.00000000000E+00 0.  1.
          5    1    4    4  501    0  0.94762509407E+02 -0.30235879046E+02  0.58906701144E+02  0.11567892380E+03  0.41800000000E+01 0.  1.
         -5    1    4    4    0  501  0.46978847606E+00  0.48275754987E+01 -0.43821189675E+02  0.44286513195E+02  0.41800000000E+01 0.  1.
</event>
<event>
11    1  0.7105277E-009  0.1474879E+03  0.7561462E-02  0.1099474E+00
         22   -1    0    0    0    0  0.00000000000E+00  0.00000000000E+00  0.21639344372E+04  0.21639344372E+04  0.00000000000E+00 0.  1.
         22   -1    0    0    0    0 -0.00000000000E+00 -0.00000000000E+00 -0.60336718406E+03  0.60336718406E+03  0.00000000000E+00 0.  1.
         24    2    1    2    0    0 -0.21048922959E+02 -0.43314161426E+02 -0.58832293711E+03  0.59559848016E+03  0.79337869289E+02 0.  0.
         25    2    1    2    0    0  0.65706003510E+02 -0.25874270819E+02  0.54439179243E+03  0.56302441728E+03  0.12508922419E+03 0.  0.
        -24    2    1    2    0    0 -0.44657080551E+02  0.69188432246E+02  0.16044983978E+04  0.16086787238E+04  0.81552644596E+02 0.  0.
        -11    1    3    3    0    0 -0.29315840897E+01  0.87739632948E+01 -0.37959955733E+03  0.37971226020E+03  0.00000000000E+00 0.  1.
         12    1    3    3    0    0 -0.18117338869E+02 -0.52088124721E+02 -0.20872337977E+03  0.21588621996E+03  0.00000000000E+00 0. -1.
         11    1    5    5    0    0 -0.10225574291E+02 -0.14742200554E+02  0.11219970448E+03  0.11362512281E+03  0.00000000000E+00 0. -1.
        -12    1    5    5    0    0 -0.34431506260E+02  0.83930632800E+02  0.14922986933E+04  0.14950536010E+04  0.00000000000E+00 0.  1.
          5    1    4    4  501    0 -0.11219468049E+02 -0.23585830591E+02  0.20423506454E+02  0.33417957506E+02  0.41800000000E+01 0. -1.
         -5    1    4    4    0  501  0.76925471559E+02 -0.22884402279E+01  0.52396828597E+03  0.52960645978E+03  0.41800000000E+01 0. -1.
</event>
<event>
11    1  0.7105277E-009  0.1357599E+03  0.7561462E-02  0.1112388E+00
         22   -1    0    0    0    0  0.00000000000E+00  0.00000000000E+00  0.61576017274E+03  0.61576017274E+03  0.00000000000E+00 0.  1.
         22   -1    0    0    0    0 -0.00000000000E+00 -0.00000000000E+00 -0.19207681626E+03  0.19207681626E+03  0.00000000000E+00 0.  1.
         24    2    1    2    0    0  0.45142502404E+02  0.25546415863E+02 -0.13367667463E+03  0.16555844970E+03  0.82762805910E+02 0.  0.
         25    2    1    2    0    0 -0.63231001039E+02 -0.88739751578E+01  0.88518748210E+02  0.16600687211E+03  0.12508319582E+03 0.  0.
        -24    2    1    2    0    0  0.18088498635E+02 -0.16672440705E+02  0.46884128291E+03  0.47627166719E+03  0.80108603448E+02 0.  0.
        -11    1    3    3    0    0  0.15706014479E+02  0.50290350679E+02 -0.10537363962E+03  0.11781087467E+03  0.00000000000E+00 0.  1.
         12    1    3    3    0    0  0.29436487926E+02 -0.24743934815E+02 -0.28303035006E+02  0.47747575039E+02  0.00000000000E+00 0. -1.
         13    1    5    5    0    0 -0.29534216807E+02 -0.20109879885E+02  0.18025111542E+03  0.18375837897E+03  0.00000000000E+00 0. -1.
        -14    1    5    5    0    0  0.47622715442E+02  0.34374391801E+01  0.28859016748E+03  0.29251328821E+03  0.00000000000E+00 0.  1.
          5    1    4    4  501    0 -0.11159915254E+02 -0.11616935948E+01 -0.32140763794E+02  0.34298605479E+02  0.41800000000E+01 0.  1.
         -5    1    4    4    0  501 -0.52071085785E+02 -0.77122815630E+01  0.12065951200E+03  0.13170826663E+03  0.41800000000E+01 0.  1.
</event>
<event>
11    1  0.7105277E-009  0.1918269E+03  0.7561462E-02  0.1060459E+00
         22   -1    0    0    0    0  0.00000000000E+00  0.00000000000E+00  0.40542714688E+03  0.40542714688E+03  0.00000000000E+00 0. -1.
         22   -1    0    0    0    0 -0.00000000000E+00 -0.00000000000E+00 -0.48715992363E+03  0.48715992363E+03  0.00000000000E+00 0. -1.
         24    2    1    2    0    0 -0.14652569297E+03  0.20685515128E+02 -0.39853231693E+03  0.43258221283E+03  0.80010586670E+02 0.  0.
         25    2    1    2    0    0  0.12791194202E+03 -0.21424611529E+01  0.57204011647E+02  0.18784841968E+03  0.12509466327E+03 0.  0.
        -24    2    1    2    0    0  0.18613750950E+02 -0.18543053975E+02  0.25959552854E+03  0.27215643801E+03  0.77388447047E+02 0.  0.
        -11    1    3    3    0    0 -0.17691041878E+02  0.19813785920E+02 -0.21590339897E+02  0.34230130764E+02  0.00000000000E+00 0.  1.
         12    1    3    3    0    0 -0.12883465109E+03  0.87172920710E+00 -0.37694197704E+03  0.39835208206E+03  0.00000000000E+00 0. -1.
         13    1    5    5    0    0 -0.64766678210E+01 -0.13066136356E+02  0.23843460873E+03  0.23888016616E+03  0.00000000000E+00 0. -1.
        -14    1    5    5    0    0  0.25090418771E+02 -0.54769176185E+01  0.21160919806E+02  0.33276271843E+02  0.00000000000E+00 0.  1.
          5    1    4    4  501    0  0.25417836344E+02  0.16885189679E+02  0.75851096388E+02  0.81865971308E+02  0.41800000000E+01 0. -1.
         -5    1    4    4    0  501  0.10249410567E+03 -0.19027650832E+02 -0.18647084741E+02  0.10598244837E+03  0.41800000000E+01 0. -1.
</event>
<event>
11    1  0.7105277E-009  0.2921880E+03  0.7561462E-02  0.1003553E+00
         22   -1    0    0    0    0  0.00000000000E+00  0.00000000000E+00  0.28735203446E+03  0.28735203446E+03  0.00000000000E+00 0. -1.
         22   -1    0    0    0    0 -0.00000000000E+00 -0.00000000000E+00 -0.18516329185E+03  0.18516329185E+03  0.00000000000E+00 0.  1.
         24    2    1    2    0    0  0.35055996576E+02 -0.12940772943E+03  0.48098719550E+02  0.16400290697E+03  0.81290733414E+02 0.  0.
         25    2    1    2    0    0  0.32232763507E+02  0.38901014149E+01 -0.14790753250E+02  0.13007740300E+03  0.12508909008E+03 0.  0.
        -24    2    1    2    0    0 -0.67288760082E+02  0.12551762802E+03  0.68880776316E+02  0.17843501634E+03  0.82535092747E+02 0.  0.
        -11    1    3    3    0    0  0.22752878942E+01 -0.20961131883E+02 -0.22244037568E+02  0.30648706207E+02  0.00000000000E+00 0.  1.
         12    1    3    3    0    0  0.32780708682E+02 -0.10844659755E+03  0.70342757118E+02  0.13335420076E+03  0.00000000000E+00 0. -1.
         13    1    5    5    0    0 -0.67851954658E+02  0.73475041431E+02  0.76392302791E+02  0.12585012272E+03  0.00000000000E+00 0. -1.
        -14    1    5    5    0    0  0.56319457527E+00  0.52042586588E+02 -0.75115264749E+01  0.52584893619E+02  0.00000000000E+00 0.  1.
          5    1    4    4  501    0  0.41871930231E+02 -0.54486833906E+02  0.41065963578E+00  0.68845585564E+02  0.41800000000E+01 0.  1.
         -5    1    4    4    0  501 -0.96391667239E+01  0.58376935320E+02 -0.15201412885E+02  0.61231817434E+02  0.41800000000E+01 0.  1.
</event>
<event>
11    1  0.7105277E-009  0.1592168E+03  0.7561462E-02  0.1087816E+00
         22   -1    0    0    0    0  0.00000000000E+00  0.00000000000E+00  0.21157459166E+04  0.21157459166E+04  0.00000000000E+00 0.  1.
         22   -1    0    0    0    0 -0.00000000000E+00 -0.00000000000E+00 -0.17744769386E+03  0.17744769386E+03  0.00000000000E+00 0.  1.
        -24    2    1    2    0    0 -0.25906079258E+02  0.87882136626E+01 -0.15544970241E+03  0.17738058211E+03  0.80937650622E+02 0.  0.
         25    2    1    2    0    0  0.11564154265E+03 -0.16633490745E+02  0.96393461887E+03  0.97901198227E+03  0.12507946501E+03 0.  0.
         24    2    1    2    0    0 -0.89735463391E+02  0.78452770826E+01  0.11298133062E+04  0.11368010460E+04  0.87889189138E+02 0.  0.
        -13    1    5    5    0    0 -0.79772421580E+02  0.39466836331E+02  0.68569426668E+03  0.69144623636E+03  0.00000000000E+00 0.  1.
         14    1    5    5    0    0 -0.99630418103E+01 -0.31621559249E+02  0.44411903955E+03  0.44535480968E+03  0.00000000000E+00 0. -1.
         11    1    3    3    0    0  0.15236164176E+02 -0.14948458730E+02 -0.85514286370E+01  0.22994000281E+02  0.00000000000E+00 0. -1.
        -12    1    3    3    0    0 -0.41142243435E+02  0.23736672393E+02 -0.14689827377E+03  0.15438658183E+03  0.00000000000E+00 0.  1.
          5    1    4    4  501    0  0.10326047746E+03  0.47725379902E+01  0.93506274186E+03  0.94076846617E+03  0.41800000000E+01 0. -1.
         -5    1    4    4    0  501  0.12381065190E+02 -0.21406028735E+02  0.28871877011E+02  0.38243516099E+02  0.41800000000E+01 0. -1.
</event>
<event>
11    1  0.7105277E-009  0.2760609E+03  0.7561462E-02  0.1010865E+00
         22   -1    0    0    0    0  0.00000000000E+00  0.00000000000E+00  0.38941517007E+03  0.38941517007E+03  0.00000000000E+00 0. -1.
         22   -1    0    0    0    0 -0.00000000000E+00 -0.00000000000E+00 -0.10187654677E+04  0.10187654677E+04  0.00000000000E+00 0.  1.
        -24    2    1    2    0    0  0.75406326912E+02  0.15449531860E+01 -0.76045924682E+03  0.76838781844E+03  0.80206436383E+02 0.  0.
         25    2    1    2    0    0 -0.35461556671E+02  0.24389553868E+03 -0.96921051005E+02  0.29288841417E+03  0.12508947693E+03 0.  0.
         24    2    1    2    0    0 -0.39944770242E+02 -0.24544049187E+03  0.22803000015E+03  0.34690440519E+03  0.80674442361E+02 0.  0.
        -11    1    5    5    0    0 -0.22850131446E+02 -0.37659017552E+02  0.98642474510E+01  0.45140153831E+02  0.00000000000E+00 0.  1.
         12    1    5    5    0    0 -0.17094638796E+02 -0.20778147431E+03  0.21816575270E+03  0.30176425136E+03  0.00000000000E+00 0. -1.
         13    1    3    3    0    0 -0.12089875348E+02  0.13180183340E+02 -0.22426773906E+03  0.22497977932E+03  0.00000000000E+00 0. -1.
        -14    1    3    3    0    0  0.87496202261E+02 -0.11635230154E+02 -0.53619150776E+03  0.54340803912E+03  0.00000000000E+00 0.  1.
          5    1    4    4  501    0 -0.64351488239E+02  0.14746754276E+03 -0.10442653239E+03  0.19185974896E+03  0.41800000000E+01 0. -1.
         -5    1    4    4    0  501  0.28889931568E+02  0.96427995926E+02  0.75054813799E+01  0.10102866521E+03  0.41800000000E+01 0. -1.
</event>
<event>
11    1  0.7105277E-009  0.1529483E+03  0.7561462E-02  0.1093904E+00
         22   -1    0    0    0    0  0.00000000000E+00  0.00000000000E+00  0.11038229395E+04  0.11038229395E+04  0.00000000000E+00 0.  1.
         22   -1    0    0    0    0 -0.00000000000E+00 -0.00000000000E+00 -0.37044791117E+03  0.37044791117E+03  0.00000000000E+00 0.  1.
         24    2    1    2    0    0 -0.23799411304E+02  0.42572690434E+02 -0.33807100740E+03  0.35071554337E+03  0.79564692964E+02 0.  0.
         25    2    1    2    0    0 -0.57261354563E+02  0.69762247337E+01  0.19674373409E+03  0.24017180736E+03  0.12508744825E+03 0.  0.
        -24    2    1    2    0    0  0.81060765866E+02 -0.49548915167E+02  0.87470230161E+03  0.88338349990E+03  0.78970555822E+02 0.  0.
        -13    1    3    3    0    0  0.36798812545E+01  0.59430290061E+02 -0.24803305956E+03  0.25508018257E+03  0.00000000000E+00 0.  1.
         14    1    3    3    0    0 -0.27479292558E+02 -0.16857599627E+02 -0.90037947840E+02  0.95635360803E+02  0.00000000000E+00 0. -1.
         13    1    5    5    0    0  0.10963401946E+02 -0.20226179643E+02  0.48342722415E+02  0.53537961632E+02  0.00000000000E+00 0. -1.
        -14    1    5    5    0    0  0.70097363920E+02 -0.29322735524E+02  0.82635957920E+03  0.82984553827E+03  0.00000000000E+00 0.  1.
          5    1    4    4  501    0 -0.14843461118E+02  0.63343373177E+02  0.74728202719E+02  0.99168986811E+02  0.41800000000E+01 0. -1.
         -5    1    4    4    0  501 -0.42417893445E+02 -0.56367148443E+02  0.12201553137E+03  0.14100282055E+03  0.41800000000E+01 0. -1.
</event>
<event>
11    1  0.7726304E-009  0.1642037E+03  0.7561462E-02  0.1083189E+00
         22   -1    0    0    0    0  0.00000000000E+00  0.00000000000E+00  0.14661507093E+04  0.14661507093E+04  0.00000000000E+00 0.  1.
         22   -1    0    0    0    0 -0.00000000000E+00 -0.00000000000E+00 -0.40051783513E+03  0.40051783513E+03  0.00000000000E+00 0.  1.
         24    2    1    2    0    0 -0.55624366681E+02 -0.56705474251E+02 -0.26277689449E+03  0.28608710940E+03  0.80526746549E+02 0.  0.
         25    2    1    2    0    0 -0.30983452847E+02 -0.84639430368E+01 -0.88951110950E+02  0.15680518120E+03  0.12507578515E+03 0.  0.
        -24    2    1    2    0    0  0.86607819528E+02  0.65169417288E+02  0.14173608797E+04  0.14237762539E+04  0.80492176921E+02 0.  0.
        -11    1    3    3    0    0 -0.65259656176E+02 -0.31758184968E+02 -0.24071497121E+03  0.25141818232E+03  0.00000000000E+00 0.  1.
         12    1    3    3    0    0  0.96352894946E+01 -0.24947289282E+02 -0.22061923279E+02  0.34668927081E+02  0.00000000000E+00 0. -1.
         11    1    5    5    0    0  0.94354109925E+02  0.32796961861E+02  0.95197885201E+03  0.95720534550E+03  0.00000000000E+00 0. -1.
        -12    1    5    5    0    0 -0.77462903972E+01  0.32372455427E+02  0.46538202764E+03  0.46657090837E+03  0.00000000000E+00 0.  1.
          5    1    4    4  501    0 -0.28494216487E+02  0.10473847912E+02  0.26009047759E+02  0.40194089474E+02  0.41800000000E+01 0.  1.
         -5    1    4    4    0  501 -0.24892363597E+01 -0.18937790949E+02 -0.11496015871E+03  0.11661109173E+03  0.41800000000E+01 0.  1.
</event>
<event>
11    1  0.7105277E-009  0.1340195E+03  0.7561462E-02  0.1114427E+00
         22   -1    0    0    0    0  0.00000000000E+00  0.00000000000E+00  0.25069965078E+03  0.25069965078E+03  0.00000000000E+00 0.  1.
         22   -1    0    0    0    0 -0.00000000000E+00 -0.00000000000E+00 -0.49666157317E+03  0.49666157317E+03  0.00000000000E+00 0.  1.
        -24    2    1    2    0    0 -0.29362796476E+02 -0.13288418275E+02 -0.33368503493E+03  0.34435722246E+03  0.78723809877E+02 0.  0.
         25    2    1    2    0    0  0.64523424050E+02 -0.18255502228E+02 -0.11345840141E+03  0.18170524966E+03  0.12508978092E+03 0.  0.
         24    2    1    2    0    0 -0.35160627573E+02  0.31543920504E+02  0.20118151396E+03  0.22129875184E+03  0.79169737616E+02 0.  0.
        -11    1    5    5    0    0  0.14921439331E+02  0.42494203630E+01  0.12588955972E+03  0.12684198111E+03  0.00000000000E+00 0.  1.
         12    1    5    5    0    0 -0.50082066904E+02  0.27294500141E+02  0.75291954234E+02  0.94456770725E+02  0.00000000000E+00 0. -1.
         13    1    3    3    0    0 -0.84118757945E+01  0.29985053505E+02 -0.74443141796E+02  0.80694760973E+02  0.00000000000E+00 0. -1.
        -14    1    3    3    0    0 -0.20950920682E+02 -0.43273471781E+02 -0.25924189314E+03  0.26366246148E+03  0.00000000000E+00 0.  1.
          5    1    4    4  501    0  0.59900873447E+02  0.46653976523E+02 -0.52175584376E+02  0.92219695131E+02  0.41800000000E+01 0. -1.
         -5    1    4    4    0  501  0.46225506029E+01 -0.64909478751E+02 -0.61282817038E+02  0.89485554532E+02  0.41800000000E+01 0. -1.
</event>
<event>
11    1  0.7105277E-009  0.1417331E+03  0.7561462E-02  0.1105638E+00
         22   -1    0    0    0    0  0.00000000000E+00  0.00000000000E+00  0.38231593050E+03  0.38231593050E+03  0.00000000000E+00 0.  1.
         22   -1    0    0    0    0 -0.00000000000E+00 -0.00000000000E+00 -0.19381086404E+04  0.19381086404E+04  0.00000000000E+00 0. -1.
         24    2    1    2    0    0 -0.48762014160E+02 -0.48159935648E+02 -0.17837177610E+04  0.17868108375E+04  0.79666833978E+02 0.  0.
         25    2    1    2    0    0 -0.10886962824E+02  0.50180573027E+02 -0.11408257022E+03  0.17691401286E+03  0.12508844570E+03 0.  0.
        -24    2    1    2    0    0  0.59648976984E+02 -0.20206373791E+01  0.34200762133E+03  0.35669972061E+03  0.81874258500E+02 0.  0.
        -13    1    3    3    0    0  0.18162463451E+02  0.10391496653E+01 -0.17326904201E+03  0.17422145628E+03  0.00000000000E+00 0.  1.
         14    1    3    3    0    0 -0.66924477612E+02 -0.49199085313E+02 -0.16104487190E+04  0.16125893812E+04  0.00000000000E+00 0. -1.
         11    1    5    5    0    0 -0.19520022183E+02  0.42354386627E+01  0.10063589992E+03  0.10259899882E+03  0.00000000000E+00 0. -1.
        -12    1    5    5    0    0  0.79168999167E+02 -0.62560760419E+01  0.24137172141E+03  0.25410072179E+03  0.00000000000E+00 0.  1.
          5    1    4    4  501    0 -0.40430725871E+02  0.69251117755E+02 -0.30071322927E+02  0.85744491178E+02  0.41800000000E+01 0. -1.
         -5    1    4    4    0  501  0.29543763047E+02 -0.19070544728E+02 -0.84011247293E+02  0.91169521678E+02  0.41800000000E+01 0. -1.
</event>
<event>
11    1  0.7105277E-009  0.1457970E+03  0.7561462E-02  0.1101252E+00
         22   -1    0    0    0    0  0.00000000000E+00  0.00000000000E+00  0.13459921879E+04  0.13459921879E+04  0.00000000000E+00 0.  1.
         22   -1    0    0    0    0 -0.00000000000E+00 -0.00000000000E+00 -0.12648199249E+03  0.12648199249E+03  0.00000000000E+00 0.  1.
         24    2    1    2    0    0 -0.59819078765E+02 -0.45898268073E+02 -0.87155478282E+02  0.14034162729E+03  0.80091958149E+02 0.  0.
         25    2    1    2    0    0  0.87274984381E+02 -0.14889877258E+02  0.71323905674E+03  0.72951790310E+03  0.12509111695E+03 0.  0.
        -24    2    1    2    0    0 -0.27455905616E+02  0.60788145332E+02  0.59342661692E+03  0.60261464998E+03  0.80871758541E+02 0.  0.
        -11    1    3    3    0    0  0.78211898352E+01 -0.22880622314E+02 -0.58607991200E+02  0.63400240697E+02  0.00000000000E+00 0.  1.
         12    1    3    3    0    0 -0.67640268600E+02 -0.23017645759E+02 -0.28547487082E+02  0.76941386596E+02  0.00000000000E+00 0. -1.
         13    1    5    5    0    0 -0.10289202713E+02  0.27772294761E+02  0.51476917907E+02  0.59388897330E+02  0.00000000000E+00 0. -1.
        -14    1    5    5    0    0 -0.17166702903E+02  0.33015850570E+02  0.54194969902E+03  0.54322575265E+03  0.00000000000E+00 0.  1.
          5    1    4    4  501    0  0.10182782805E+03 -0.35298142698E+02  0.37160533624E+03  0.38694038787E+03  0.41800000000E+01 0. -1.
         -5    1    4    4    0  501 -0.14552843671E+02  0.20408265440E+02  0.34163372050E+03  0.34257751523E+03  0.41800000000E+01 0. -1.
</event>
<event>
11    1  0.7105277E-009  0.1384435E+03  0.7561462E-02  0.1109309E+00
         22   -1    0    0    0    0  0.00000000000E+00  0.00000000000E+00  0.16547011523E+04  0.16547011523E+04  0.00000000000E+00 0.  1.
         22   -1    0    0    0    0 -0.00000000000E+00 -0.00000000000E+00 -0.72170406224E+02  0.72170406224E+02  0.00000000000E+00 0.  1.
        -24    2    1    2    0    0  0.78412935547E+02 -0.29953645133E+02 -0.58694063297E+01  0.11841172694E+03  0.83313131193E+02 0.  0.
         25    2    1    2    0    0  0.15678456388E+02  0.19110401629E+02  0.72501857590E+03  0.73615154276E+03  0.12512448625E+03 0.  0.
         24    2    1    2    0    0 -0.94091391935E+02  0.10843243504E+02  0.86338157652E+03  0.87230828884E+03  0.80766565700E+02 0.  0.
        -13    1    5    5    0    0 -0.43878015807E+02 -0.29587680890E+02  0.53836023211E+03  0.54095512813E+03  0.00000000000E+00 0.  1.
         14    1    5    5    0    0 -0.50213376128E+02  0.40430924395E+02  0.32502134441E+03  0.33135316071E+03  0.00000000000E+00 0. -1.
         13    1    3    3    0    0 -0.38064847917E+01  0.20653112812E+02  0.39455563180E+01  0.21368383419E+02  0.00000000000E+00 0. -1.
        -14    1    3    3    0    0  0.82219420338E+02 -0.50606757945E+02 -0.98149626477E+01  0.97043343524E+02  0.00000000000E+00 0.  1.
          5    1    4    4  501    0 -0.50338836089E+02  0.25572396023E+02  0.23927972114E+03  0.24588656573E+03  0.41800000000E+01 0.  1.
         -5    1    4    4    0  501  0.66017292477E+02 -0.64619943946E+01  0.48573885477E+03  0.49026497703E+03  0.41800000000E+01 0.  1.
</event>
<event>
11    1  0.7594467E-009  0.2145252E+03  0.7561462E-02  0.1044702E+00
         22   -1    0    0    0    0  0.00000000000E+00  0.00000000000E+00  0.34383641201E+03  0.34383641201E+03  0.00000000000E+00 0.  1.
         22   -1    0    0    0    0 -0.00000000000E+00 -0.00000000000E+00 -0.33012020790E+04  0.33012020790E+04  0.00000000000E+00 0. -1.
        -24    2    1    2    0    0  0.35328377501E+02 -0.66283144254E+02 -0.25904922989E+04  0.25928229075E+04  0.80241695480E+02 0.  0.
         25    2    1    2    0    0  0.60509110359E+02  0.21011938539E+03 -0.65792591802E+03  0.70450368817E+03  0.12508966577E+03 0.  0.
         24    2    1    2    0    0 -0.95837487860E+02 -0.14383624114E+03  0.29105254992E+03  0.34771189532E+03  0.79487653065E+02 0.  0.
        -13    1    5    5    0    0 -0.92136544089E+02 -0.13938705934E+03  0.29612805980E+03  0.34001429804E+03  0.00000000000E+00 0.  1.
         14    1    5    5    0    0 -0.37009437704E+01 -0.44491817934E+01 -0.50755098794E+01  0.76975972847E+01  0.00000000000E+00 0. -1.
         11    1    3    3    0    0  0.53806036225E+02 -0.16195115681E+02 -0.12274846344E+04  0.12287700757E+04  0.00000000000E+00 0. -1.
        -12    1    3    3    0    0 -0.18477658724E+02 -0.50088028573E+02 -0.13630076645E+04  0.13640528318E+04  0.00000000000E+00 0.  1.
          5    1    4    4  501    0 -0.25197321574E+02  0.17220073081E+02 -0.17137857317E+03  0.17412502311E+03  0.41800000000E+01 0. -1.
         -5    1    4    4    0  501  0.85706431933E+02  0.19289931231E+03 -0.48654734485E+03  0.53037866505E+03  0.41800000000E+01 0. -1.
</event>
<event>
11    1  0.7105277E-009  0.2036238E+03  0.7561462E-02  0.1051990E+00
         22   -1    0    0    0    0  0.00000000000E+00  0.00000000000E+00  0.95154042121E+03  0.95154042121E+03  0.00000000000E+00 0. -1.
         22   -1    0    0    0    0 -0.00000000000E+00 -0.00000000000E+00 -0.83178532625E+03  0.83178532625E+03  0.00000000000E+00 0. -1.
         24    2    1    2    0    0 -0.16774906531E+03  0.24670517053E+02 -0.74601355468E+03  0.76924055731E+03  0.80289650193E+02 0.  0.
         25    2    1    2    0    0  0.62911356028E+02  0.11954184403E+03  0.73323016049E+02  0.19816894578E+03  0.12508627102E+03 0.  0.
        -24    2    1    2    0    0  0.10483770928E+03 -0.14421236109E+03  0.79244563358E+03  0.81591624437E+03  0.77208064784E+02 0.  0.
        -11    1    3    3    0    0 -0.42740692334E+02 -0.21768416326E+02 -0.29679724258E+03  0.30064802333E+03  0.00000000000E+00 0.  1.
         12    1    3    3    0    0 -0.12500837298E+03  0.46438933379E+02 -0.44921631209E+03  0.46859253398E+03  0.00000000000E+00 0. -1.
         13    1    5    5    0    0  0.57768473191E+02 -0.12887531400E+03  0.64834971420E+03  0.66355361122E+03  0.00000000000E+00 0. -1.
        -14    1    5    5    0    0  0.47069236093E+02 -0.15337047086E+02  0.14409591938E+03  0.15236263316E+03  0.00000000000E+00 0.  1.
          5    1    4    4  501    0  0.32187685447E+02  0.66584103854E+02 -0.28430404934E+02  0.79342613425E+02  0.41800000000E+01 0. -1.
         -5    1    4    4    0  501  0.30723670581E+02  0.52957740179E+02  0.10175342098E+03  0.11882633235E+03  0.41800000000E+01 0. -1.
</event>
<event>
11    1  0.7105277E-009  0.1392984E+03  0.7561462E-02  0.1108344E+00
         22   -1    0    0    0    0  0.00000000000E+00  0.00000000000E+00  0.13401212079E+03  0.13401212079E+03  0.00000000000E+00 0.  1.
         22   -1    0    0    0    0 -0.00000000000E+00 -0.00000000000E+00 -0.21959705357E+04  0.21959705357E+04  0.00000000000E+00 0.  1.
         24    2    1    2    0    0  0.23786678799E+02  0.20282442416E+02 -0.20837138056E+04  0.20855245327E+04  0.81068917086E+02 0.  0.
         25    2    1    2    0    0 -0.44372947598E+02 -0.63205066051E+02  0.32237716070E+02  0.15050002175E+03  0.12508855805E+03 0.  0.
        -24    2    1    2    0    0  0.20586268799E+02  0.42922623635E+02 -0.10482325411E+02  0.93958102073E+02  0.80324963220E+02 0.  0.
        -13    1    3    3    0    0  0.51199105294E+02  0.23077271962E+02 -0.11086819130E+04  0.11101033705E+04  0.00000000000E+00 0.  1.
         14    1    3    3    0    0 -0.27412426495E+02 -0.27948295456E+01 -0.97503189260E+03  0.97542116226E+03  0.00000000000E+00 0. -1.
         11    1    5    5    0    0  0.35657598016E+02  0.59975644396E+02 -0.24306409297E+01  0.69817263139E+02  0.00000000000E+00 0. -1.
        -12    1    5    5    0    0 -0.15071329217E+02 -0.17053020760E+02 -0.80516844809E+01  0.24140838933E+02  0.00000000000E+00 0.  1.
          5    1    4    4  501    0 -0.88225208099E+01  0.37639634198E+02  0.51766176257E+00  0.38888549853E+02  0.41800000000E+01 0. -1.
         -5    1    4    4    0  501 -0.35550426788E+02 -0.10084470025E+03  0.31720054308E+02  0.11161147189E+03  0.41800000000E+01 0. -1.
</event>
<event>
11    1  0.7105277E-009  0.1315046E+03  0.7561462E-02  0.1117434E+00
         22   -1    0    0    0    0  0.00000000000E+00  0.00000000000E+00  0.39215076725E+03  0.39215076725E+03  0.00000000000E+00 0. -1.
         22   -1    0    0    0    0 -0.00000000000E+00 -0.00000000000E+00 -0.94394026021E+03  0.94394026021E+03  0.00000000000E+00 0.  1.
        -24    2    1    2    0    0 -0.45942831812E+01 -0.40255641768E+02 -0.89618905243E+03  0.90110339848E+03  0.84799132871E+02 0.  0.
         25    2    1    2    0    0  0.41894113835E+01  0.42893208016E+02  0.68431873202E+02  0.14895478429E+03  0.12508888053E+03 0.  0.
         24    2    1    2    0    0  0.40487179766E+00 -0.26375662482E+01  0.27596768627E+03  0.28603284469E+03  0.75163180481E+02 0.  0.
        -13    1    5    5    0    0 -0.93742962256E+01  0.66367773477E+01  0.19095153558E+01  0.11643474232E+02  0.00000000000E+00 0.  1.
         14    1    5    5    0    0  0.97791680233E+01 -0.92743435959E+01  0.27405817091E+03  0.27438937046E+03  0.00000000000E+00 0. -1.
         11    1    3    3    0    0  0.14014548260E+02  0.88328418574E+01 -0.39842026826E+02  0.43148739957E+02  0.00000000000E+00 0. -1.
        -12    1    3    3    0    0 -0.18608831441E+02 -0.49088483626E+02 -0.85634702560E+03  0.85795465852E+03  0.00000000000E+00 0.  1.
          5    1    4    4  501    0 -0.54060016022E+02  0.63674429750E+01  0.57363518710E+02  0.79190121487E+02  0.41800000000E+01 0.  1.
         -5    1    4    4    0  501  0.58249427405E+02  0.36525765041E+02  0.11068354491E+02  0.69764662803E+02  0.41800000000E+01 0.  1.
</event>
<event>
11    1  0.7105277E-009  0.1965108E+03  0.7561462E-02  0.1057019E+00
         22   -1    0    0    0    0  0.00000000000E+00  0.00000000000E+00  0.55891447180E+03  0.55891447180E+03  0.00000000000E+00 0.  1.
         22   -1    0    0    0    0 -0.00000000000E+00 -0.00000000000E+00 -0.11841351822E+04  0.11841351822E+04  0.00000000000E+00 0.  1.
         24    2    1    2    0    0  0.59094673109E+02 -0.14009077864E+03 -0.11215404312E+04  0.11345466421E+04  0.78902076215E+02 0.  0.
         25    2    1    2    0    0 -0.56761971547E+02  0.12663693328E+03  0.11681339622E+03  0.22034763524E+03  0.12509546968E+03 0.  0.
        -24    2    1    2    0    0 -0.23327015623E+01  0.13453845361E+02  0.37950632449E+03  0.38815537673E+03  0.80331181393E+02 0.  0.
        -11    1    3    3    0    0  0.25776410548E+02 -0.13504637063E+03 -0.91691244189E+03  0.92716253788E+03  0.00000000000E+00 0.  1.
         12    1    3    3    0    0  0.33318262561E+02 -0.50444080111E+01 -0.20462798928E+03  0.20738410418E+03  0.00000000000E+00 0. -1.
         11    1    5    5    0    0 -0.29910561211E+02 -0.21503719014E+02  0.18232220565E+03  0.18600655439E+03  0.00000000000E+00 0. -1.
        -12    1    5    5    0    0  0.27577859649E+02  0.34957564374E+02  0.19718411884E+03  0.20214882234E+03  0.00000000000E+00 0.  1.
          5    1    4    4  501    0 -0.67469439601E+02  0.14412723032E+03  0.80389237442E+02  0.17833868256E+03  0.41800000000E+01 0. -1.
         -5    1    4    4    0  501  0.10707468055E+02 -0.17490297039E+02  0.36424158783E+02  0.42008952685E+02  0.41800000000E+01 0. -1.
</event>
<event>
11    1  0.7105277E-009  0.1278305E+03  0.7561462E-02  0.1121964E+00
         22   -1    0    0    0    0  0.00000000000E+00  0.00000000000E+00  0.31612054870E+03  0.31612054870E+03  0.00000000000E+00 0. -1.
         22   -1    0    0    0    0 -0.00000000000E+00 -0.00000000000E+00 -0.21583836788E+03  0.21583836788E+03  0.00000000000E+00 0. -1.
        -24    2    1    2    0    0 -0.24274768318E+02 -0.22833352483E+01 -0.13979835202E+03  0.16375868246E+03  0.81724224416E+02 0.  0.
         25    2    1    2    0    0  0.38238288731E+02  0.41777778230E+01  0.18883784064E+02  0.13222972930E+03  0.12509389856E+03 0.  0.
         24    2    1    2    0    0 -0.13963520414E+02 -0.18944425748E+01  0.22119674878E+03  0.23597050482E+03  0.80966095719E+02 0.  0.
        -13    1    5    5    0    0 -0.39609401699E+02 -0.62073018838E+01  0.56771446823E+02  0.69501312750E+02  0.00000000000E+00 0.  1.
         14    1    5    5    0    0  0.25645881286E+02  0.43128593091E+01  0.16442530196E+03  0.16646919207E+03  0.00000000000E+00 0. -1.
         13    1    3    3    0    0 -0.21635104331E+02 -0.37988543379E+02 -0.10541006302E+03  0.11411611873E+03  0.00000000000E+00 0. -1.
        -14    1    3    3    0    0 -0.26396639865E+01  0.35705208130E+02 -0.34388289005E+02  0.49642563736E+02  0.00000000000E+00 0.  1.
          5    1    4    4  501    0 -0.38570329653E+02  0.30114022280E+02  0.13193728717E+02  0.50853431987E+02  0.41800000000E+01 0. -1.
         -5    1    4    4    0  501  0.76808618384E+02 -0.25936244457E+02  0.56900553471E+01  0.81376297314E+02  0.41800000000E+01 0. -1.
</event>
<event>
11    1  0.7105277E-009  0.1395828E+03  0.7561462E-02  0.1108025E+00
         22   -1    0    0    0    0  0.00000000000E+00  0.00000000000E+00  0.77699705945E+03  0.77699705945E+03  0.00000000000E+00 0. -1.
         22   -1    0    0    0    0 -0.00000000000E+00 -0.00000000000E+00 -0.22133971383E+04  0.22133971383E+04  0.00000000000E+00 0.  1.
         24    2    1    2    0    0 -0.10582565909E+02  0.20724399896E+02 -0.21933833573E+04  0.21950344219E+04  0.81878384857E+02 0.  0.
         25    2    1    2    0    0  0.63336561856E+02  0.11935326783E+02  0.39904098338E+03  0.42312482236E+03  0.12508771636E+03 0.  0.
        -24    2    1    2    0    0 -0.52753995947E+02 -0.32659726679E+02  0.35794229508E+03  0.37223495345E+03  0.81157452716E+02 0.  0.
        -13    1    3    3    0    0 -0.60295212326E+01 -0.22188769725E+02 -0.15659393726E+04  0.15661081749E+04  0.00000000000E+00 0.  1.
         14    1    3    3    0    0 -0.45530446766E+01  0.42913169621E+02 -0.62744398466E+03  0.62892624705E+03  0.00000000000E+00 0. -1.
         13    1    5    5    0    0 -0.58248128913E+02 -0.52272842903E+02  0.31683525537E+03  0.32635850483E+03  0.00000000000E+00 0. -1.
        -14    1    5    5    0    0  0.54941329657E+01  0.19613116224E+02  0.41107039708E+02  0.45876448627E+02  0.00000000000E+00 0.  1.
          5    1    4    4  501    0  0.56873372169E+02  0.51229400881E+02  0.35672001359E+03  0.36486390952E+03  0.41800000000E+01 0.  1.
         -5    1    4    4    0  501  0.64631896877E+01 -0.39294074098E+02  0.42320969792E+02  0.58260912835E+02  0.41800000000E+01 0.  1.
</event>
<event>
11    1  0.7105277E-009  0.1329344E+03  0.7561462E-02  0.1115715E+00
         22   -1    0    0    0    0  0.00000000000E+00  0.00000000000E+00  0.30189973438E+03  0.30189973438E+03  0.00000000000E+00 0.  1.
         22   -1    0    0    0    0 -0.00000000000E+00 -0.00000000000E+00 -0.10418975933E+04  0.10418975933E+04  0.00000000000E+00 0. -1.
        -24    2    1    2    0    0 -0.25508124268E+02 -0.28488447477E+02 -0.53950662769E+03  0.54692182281E+03  0.81202357700E+02 0.  0.
         25    2    1    2    0    0  0.63667167181E+02  0.51290986425E+02 -0.47995625193E+03  0.50268230482E+03  0.12508885781E+03 0.  0.
         24    2    1    2    0    0 -0.38159042912E+02 -0.22802538948E+02  0.27946502069E+03  0.29419320007E+03  0.80454166069E+02 0.  0.
        -11    1    5    5    0    0 -0.33905203808E+02  0.93073001636E+00  0.26257000753E+03  0.26475165336E+03  0.00000000000E+00 0.  1.
         12    1    5    5    0    0 -0.42538391040E+01 -0.23733268965E+02  0.16895013167E+02  0.29441546712E+02  0.00000000000E+00 0. -1.
         11    1    3    3    0    0 -0.34349031842E+02 -0.53209438677E+02 -0.36574792673E+03  0.37119084883E+03  0.00000000000E+00 0. -1.
        -12    1    3    3    0    0  0.88409075738E+01  0.24720991200E+02 -0.17375870096E+03  0.17573097397E+03  0.00000000000E+00 0.  1.
          5    1    4    4  501    0  0.91371823156E+00  0.67390625723E+02 -0.12730745322E+03  0.14410756872E+03  0.41800000000E+01 0. -1.
         -5    1    4    4    0  501  0.62753448949E+02 -0.16099639298E+02 -0.35264879870E+03  0.35857473610E+03  0.41800000000E+01 0. -1.
</event>
<event>
11    1  0.7105277E-009  0.1594089E+03  0.7561462E-02  0.1087635E+00
         22   -1    0    0    0    0  0.00000000000E+00  0.00000000000E+00  0.82971406286E+02  0.82971406286E+02  0.00000000000E+00 0.  1.
         22   -1    0    0    0    0 -0.00000000000E+00 -0.00000000000E+00 -0.17312038877E+04  0.17312038877E+04  0.00000000000E+00 0.  1.
        -24    2    1    2    0    0  0.75332594468E+02  0.65039661223E+02 -0.14903319674E+04  0.14956902665E+04  0.78069475925E+02 0.  0.
         25    2    1    2    0    0 -0.86279644307E+02 -0.38358989868E+02 -0.16958982571E+03  0.23091838008E+03  0.12508796964E+03 0.  0.
         24    2    1    2    0    0  0.10947049839E+02 -0.26680671354E+02  0.11689311617E+02  0.87566647441E+02  0.81850971978E+02 0.  0.
        -11    1    5    5    0    0  0.62291855077E+01 -0.47581497077E+02  0.32292589767E+02  0.57841273931E+02  0.00000000000E+00 0.  1.
         12    1    5    5    0    0  0.47178643312E+01  0.20900825723E+02 -0.20603278150E+02  0.29725373509E+02  0.00000000000E+00 0. -1.
         11    1    3    3    0    0  0.45683702082E+02  0.23125818202E+02 -0.30665810171E+03  0.31090351469E+03  0.00000000000E+00 0. -1.
        -12    1    3    3    0    0  0.29648892386E+02  0.41913843020E+02 -0.11836738657E+04  0.11847867518E+04  0.00000000000E+00 0.  1.
          5    1    4    4  501    0 -0.87141593929E+02  0.24893421816E+02 -0.11997517333E+03  0.15041560576E+03  0.41800000000E+01 0.  1.
         -5    1    4    4    0  501  0.86194962251E+00 -0.63252411684E+02 -0.49614652380E+02  0.80502774311E+02  0.41800000000E+01 0.  1.
</event>
<event>
11    1  0.7105277E-009  0.1793184E+03  0.7561462E-02  0.1070196E+00
         22   -1    0    0    0    0  0.00000000000E+00  0.00000000000E+00  0.12306868085E+04  0.12306868085E+04  0.00000000000E+00 0.  1.
         22   -1    0    0    0    0 -0.00000000000E+00 -0.00000000000E+00 -0.80513061924E+03  0.80513061924E+03  0.00000000000E+00 0.  1.
        -24    2    1    2    0    0 -0.11847813627E+03  0.53162186201E+02 -0.78100522982E+03  0.79584906564E+03  0.80890540002E+02 0.  0.
         25    2    1    2    0    0  0.52225836662E+02  0.42089910723E+02  0.51792776194E+03  0.53702496364E+03  0.12509015304E+03 0.  0.
         24    2    1    2    0    0  0.66252299612E+02 -0.95252096924E+02  0.68863365709E+03  0.70294339842E+03  0.80316738756E+02 0.  0.
        -13    1    5    5    0    0  0.52921225162E+02 -0.99654473236E+02  0.67091436640E+03  0.68033650288E+03  0.00000000000E+00 0.  1.
         14    1    5    5    0    0  0.13331074449E+02  0.44023763125E+01  0.17719290693E+02  0.22606895537E+02  0.00000000000E+00 0. -1.
         13    1    3    3    0    0 -0.80764347408E+01  0.41147718704E+02 -0.21714358330E+03  0.22115537371E+03  0.00000000000E+00 0. -1.
        -14    1    3    3    0    0 -0.11040170153E+03  0.12014467497E+02 -0.56386164652E+03  0.57469369193E+03  0.00000000000E+00 0.  1.
          5    1    4    4  501    0  0.63383388603E+02 -0.16250917961E+02  0.39534644119E+03  0.40074658732E+03  0.41800000000E+01 0.  1.
         -5    1    4    4    0  501 -0.11157551941E+02  0.58340828683E+02  0.12258132075E+03  0.13627837632E+03  0.41800000000E+01 0.  1.
</event>
<event>
11    1  0.7105277E-009  0.1331450E+03  0.7561462E-02  0.1115464E+00
         22   -1    0    0    0    0  0.00000000000E+00  0.00000000000E+00  0.31008817826E+03  0.31008817826E+03  0.00000000000E+00 0.  1.
         22   -1    0    0    0    0 -0.00000000000E+00 -0.00000000000E+00 -0.10538296342E+04  0.10538296342E+04  0.00000000000E+00 0.  1.
        -24    2    1    2    0    0 -0.53526519304E+02  0.56318385865E+01 -0.69944573270E+03  0.70615688732E+03  0.80848071404E+02 0.  0.
         25    2    1    2    0    0  0.17314202667E+02  0.13621946429E+00 -0.33202233448E+03  0.35522666611E+03  0.12508938225E+03 0.  0.
         24    2    1    2    0    0  0.36212316637E+02 -0.57680580507E+01  0.28772661126E+03  0.30253425902E+03  0.85998678374E+02 0.  0.
        -11    1    5    5    0    0  0.27419409106E+02  0.23762021377E+02  0.25506617367E+03  0.25763386929E+03  0.00000000000E+00 0.  1.
         12    1    5    5    0    0  0.87929075311E+01 -0.29530079428E+02  0.32660437588E+02  0.44900389723E+02  0.00000000000E+00 0. -1.
         11    1    3    3    0    0 -0.16935592269E+02  0.34585712648E+02 -0.15487901647E+03  0.15959478547E+03  0.00000000000E+00 0. -1.
        -12    1    3    3    0    0 -0.36590927035E+02 -0.28953874062E+02 -0.54456671622E+03  0.54656210185E+03  0.00000000000E+00 0.  1.
          5    1    4    4  501    0  0.66676596727E+02  0.22878446710E+02 -0.16321101900E+03  0.17783278943E+03  0.41800000000E+01 0. -1.
         -5    1    4    4    0  501 -0.49362394059E+02 -0.22742227246E+02 -0.16881131548E+03  0.17739387667E+03  0.41800000000E+01 0. -1.
</event>
<event>
11    1  0.7105277E-009  0.1873084E+03  0.7561462E-02  0.1063880E+00
         22   -1    0    0    0    0  0.00000000000E+00  0.00000000000E+00  0.13704613657E+04  0.13704613657E+04  0.00000000000E+00 0. -1.
         22   -1    0    0    0    0 -0.00000000000E+00 -0.00000000000E+00 -0.41900611113E+03  0.41900611113E+03  0.00000000000E+00 0. -1.
         24    2    1    2    0    0 -0.14565770305E+03 -0.18714625756E+02 -0.29762629264E+03  0.34181559575E+03  0.81792956626E+02 0.  0.
         25    2    1    2    0    0  0.11195865070E+03  0.26689170045E+02 -0.24070821317E+02  0.17167955747E+03  0.12508962687E+03 0.  0.
        -24    2    1    2    0    0  0.33699052355E+02 -0.79745442891E+01  0.12731523686E+04  0.12759723236E+04  0.77389906736E+02 0.  0.
        -13    1    3    3    0    0  0.31431625006E+01  0.86699501613E+01 -0.55811763829E+02  0.56568546809E+02  0.00000000000E+00 0.  1.
         14    1    3    3    0    0 -0.14880086555E+03 -0.27384575917E+02 -0.24181452881E+03  0.28524704894E+03  0.00000000000E+00 0. -1.
         11    1    5    5    0    0  0.44549580222E+02  0.16287184031E+02  0.10749426531E+04  0.10759886825E+04  0.00000000000E+00 0. -1.
        -12    1    5    5    0    0 -0.10850527866E+02 -0.24261728321E+02  0.19820971545E+03  0.19998364111E+03  0.00000000000E+00 0.  1.
          5    1    4    4  501    0  0.46954348044E+02  0.28073356456E+02 -0.72196971457E+02  0.90679100296E+02  0.41800000000E+01 0.  1.
         -5    1    4    4    0  501  0.65004302654E+02 -0.13841864114E+01  0.48126150139E+02  0.81000457176E+02  0.41800000000E+01 0.  1.
</event>
<event>
11    1  0.7105277E-009  0.1482580E+03  0.7561462E-02  0.1098672E+00
         22   -1    0    0    0    0  0.00000000000E+00  0.00000000000E+00  0.36662170532E+03  0.36662170532E+03  0.00000000000E+00 0. -1.
         22   -1    0    0    0    0 -0.00000000000E+00 -0.00000000000E+00 -0.10650370348E+04  0.10650370348E+04  0.00000000000E+00 0. -1.
        -24    2    1    2    0    0  0.19393315348E+02 -0.81824509977E+02 -0.96112174828E+03  0.96814002958E+03  0.80428544355E+02 0.  0.
         25    2    1    2    0    0  0.95911545329E+01  0.25859519007E+02 -0.48819434703E+02  0.13707316261E+03  0.12508001333E+03 0.  0.
         24    2    1    2    0    0 -0.28984469881E+02  0.55964990971E+02  0.31152585353E+03  0.32644554789E+03  0.74472535949E+02 0.  0.
        -13    1    5    5    0    0 -0.79219564573E+01  0.64560375723E+02  0.15237712465E+03  0.16567917076E+03  0.00000000000E+00 0.  1.
         14    1    5    5    0    0 -0.21062513424E+02 -0.85953847525E+01  0.15914872888E+03  0.16076637713E+03  0.00000000000E+00 0. -1.
         11    1    3    3    0    0  0.56164742005E+01 -0.88693088037E+02 -0.91911250867E+03  0.92339905363E+03  0.00000000000E+00 0. -1.
        -12    1    3    3    0    0  0.13776841148E+02  0.68685780595E+01 -0.42009239607E+02  0.44740975949E+02  0.00000000000E+00 0.  1.
          5    1    4    4  501    0 -0.49175931765E+02 -0.42449011977E+01  0.76088485583E+01  0.50116448672E+02  0.41800000000E+01 0. -1.
         -5    1    4    4    0  501  0.58767086298E+02  0.30104420205E+02 -0.56428283262E+02  0.86956713942E+02  0.41800000000E+01 0. -1.
</event>
<event>
11    1  0.7105277E-009  0.1929027E+03  0.7561462E-02  0.1059659E+00
         22   -1    0    0    0    0  0.00000000000E+00  0.00000000000E+00  0.12548140927E+04  0.12548140927E+04  0.00000000000E+00 0.  1.
         22   -1    0    0    0    0 -0.00000000000E+00 -0.00000000000E+00 -0.39876949545E+03  0.39876949545E+03  0.00000000000E+00 0.  1.
         24    2    1    2    0    0 -0.14009418482E+03 -0.46917441995E+02 -0.31792636040E+03  0.35880078154E+03  0.76375409762E+02 0.  0.
         25    2    1    2    0    0  0.13377768669E+03  0.42332859615E+02  0.91186267399E+02  0.20892613380E+03  0.12508658426E+03 0.  0.
        -24    2    1    2    0    0  0.63164981362E+01  0.45845823802E+01  0.10827846902E+04  0.10858566728E+04  0.81247226956E+02 0.  0.
        -13    1    3    3    0    0 -0.98878896271E+02  0.39077113906E+01 -0.21727588318E+03  0.23874906440E+03  0.00000000000E+00 0.  1.
         14    1    3    3    0    0 -0.41215288554E+02 -0.50825153385E+02 -0.10065047721E+03  0.12005171715E+03  0.00000000000E+00 0. -1.
         13    1    5    5    0    0  0.23987507542E+02  0.30022200149E+01  0.98888547472E+02  0.10180058283E+03  0.00000000000E+00 0. -1.
        -14    1    5    5    0    0 -0.17671009405E+02  0.15823623653E+01  0.98389614276E+03  0.98405608996E+03  0.00000000000E+00 0.  1.
          5    1    4    4  501    0  0.62683568573E+02  0.84040193259E+02  0.43302506986E+02  0.11351019057E+03  0.41800000000E+01 0. -1.
         -5    1    4    4    0  501  0.71094118115E+02 -0.41707333644E+02  0.47883760413E+02  0.95415943225E+02  0.41800000000E+01 0. -1.
</event>
<event>
11    1  0.7105277E-009  0.1521521E+03  0.7561462E-02  0.1094700E+00
         22   -1    0    0    0    0  0.00000000000E+00  0.00000000000E+00  0.43575682877E+03  0.43575682877E+03  0.00000000000E+00 0. -1.
         22   -1    0    0    0    0 -0.00000000000E+00 -0.00000000000E+00 -0.61813312640E+03  0.61813312640E+03  0.00000000000E+00 0.  1.
         24    2    1    2    0    0 -0.24933572436E+02 -0.82835251214E+02 -0.55818327688E+03  0.57066478503E+03  0.81279544835E+02 0.  0.
         25    2    1    2    0    0  0.11376894525E+02  0.89193225284E+02  0.74645420474E+02  0.17118684482E+03  0.12509249328E+03 0.  0.
        -24    2    1    2    0    0  0.13556677912E+02 -0.63579740696E+01  0.30116155878E+03  0.31203832532E+03  0.80283401990E+02 0.  0.
        -11    1    3    3    0    0 -0.20941476803E+02 -0.23491956763E+01 -0.28671144134E+03  0.28748480789E+03  0.00000000000E+00 0.  1.
         12    1    3    3    0    0 -0.39920956333E+01 -0.80486055538E+02 -0.27147183553E+03  0.28317997713E+03  0.00000000000E+00 0. -1.
         13    1    5    5    0    0  0.29146648248E+02 -0.58470283856E+01  0.29286677895E+03  0.29437164445E+03  0.00000000000E+00 0. -1.
        -14    1    5    5    0    0 -0.15589970336E+02 -0.51094568402E+00  0.82947798258E+01  0.17666680869E+02  0.00000000000E+00 0.  1.
          5    1    4    4  501    0 -0.30155924851E+02 -0.19420504017E+02  0.28535834175E+02  0.46025015068E+02  0.41800000000E+01 0. -1.
         -5    1    4    4    0  501  0.41532819375E+02  0.10861372930E+03  0.46109586299E+02  0.12516182975E+03  0.41800000000E+01 0. -1.
</event>
<event>
11    1  0.7105277E-009  0.1323570E+03  0.7561462E-02  0.1116406E+00
         22   -1    0    0    0    0  0.00000000000E+00  0.00000000000E+00  0.11810052589E+04  0.11810052589E+04  0.00000000000E+00 0.  1.
         22   -1    0    0    0    0 -0.00000000000E+00 -0.00000000000E+00 -0.73585085657E+02  0.73585085657E+02  0.00000000000E+00 0.  1.
         24    2    1    2    0    0  0.11061998513E+02  0.34823352978E+02 -0.30374305996E+02  0.93289105234E+02  0.80282158459E+02 0.  0.
         25    2    1    2    0    0  0.30062644880E+02 -0.36526786946E+01  0.49120751457E+03  0.50778858457E+03  0.12508924642E+03 0.  0.
        -24    2    1    2    0    0 -0.41124643393E+02 -0.31170674283E+02  0.64658696470E+03  0.65351265479E+03  0.79631902002E+02 0.  0.
        -11    1    3    3    0    0 -0.28286512497E+02 -0.60819081358E+01 -0.21025333417E+02  0.35765640511E+02  0.00000000000E+00 0.  1.
         12    1    3    3    0    0  0.39348511010E+02  0.40905261113E+02 -0.93489725791E+01  0.57523464723E+02  0.00000000000E+00 0. -1.
         13    1    5    5    0    0 -0.21895028855E+01  0.72361070377E+01  0.39071686767E+01  0.85100608115E+01  0.00000000000E+00 0. -1.
        -14    1    5    5    0    0 -0.38935140507E+02 -0.38406781321E+02  0.64267979603E+03  0.64500259398E+03  0.00000000000E+00 0.  1.
          5    1    4    4  501    0 -0.54193911451E+01  0.47581148627E+02  0.35127227463E+03  0.35454621537E+03  0.41800000000E+01 0. -1.
         -5    1    4    4    0  501  0.35482036025E+02 -0.51233827321E+02  0.13993523994E+03  0.15324236920E+03  0.41800000000E+01 0. -1.
</event>
<event>
11    1  0.7105277E-009  0.1525875E+03  0.7561462E-02  0.1094264E+00
         22   -1    0    0    0    0  0.00000000000E+00  0.00000000000E+00  0.29920973690E+03  0.29920973690E+03  0.00000000000E+00 0.  1.
         22   -1    0    0    0    0 -0.00000000000E+00 -0.00000000000E+00 -0.18456015053E+03  0.18456015053E+03  0.00000000000E+00 0. -1.
        -24    2    1    2    0    0 -0.72281758018E+02 -0.49353717384E+02 -0.94543859757E+02  0.15213594459E+03  0.80909593110E+02 0.  0.
         25    2    1    2    0    0  0.92195942838E+02  0.15986621152E+02  0.76724423953E+02  0.17403907067E+03  0.12508915603E+03 0.  0.
         24    2    1    2    0    0 -0.19914184819E+02  0.33367096232E+02  0.13246902217E+03  0.15759487217E+03  0.76014235720E+02 0.  0.
        -11    1    5    5    0    0 -0.40983185688E+02 -0.46951412811E+01  0.55063468543E+02  0.68801536530E+02  0.00000000000E+00 0.  1.
         12    1    5    5    0    0  0.21069000869E+02  0.38062237513E+02  0.77405553626E+02  0.88793335641E+02  0.00000000000E+00 0. -1.
         11    1    3    3    0    0 -0.34558848870E+02  0.20099234778E+02 -0.27885285587E+02  0.48743024384E+02  0.00000000000E+00 0. -1.
        -12    1    3    3    0    0 -0.37722909149E+02 -0.69452952162E+02 -0.66658574170E+02  0.10339292021E+03  0.00000000000E+00 0.  1.
          5    1    4    4  501    0  0.58846337412E+02 -0.49835591598E+02  0.17142722220E+02  0.79106402660E+02  0.41800000000E+01 0.  1.
         -5    1    4    4    0  501  0.33349605426E+02  0.65822212750E+02  0.59581701732E+02  0.94932668006E+02  0.41800000000E+01 0.  1.
</event>
<event>
11    1  0.7105277E-009  0.1534338E+03  0.7561462E-02  0.1093421E+00
         22   -1    0    0    0    0  0.00000000000E+00  0.00000000000E+00  0.46357499497E+03  0.46357499497E+03  0.00000000000E+00 0. -1.
         22   -1    0    0    0    0 -0.00000000000E+00 -0.00000000000E+00 -0.28263728045E+03  0.28263728045E+03  0.00000000000E+00 0. -1.
         24    2    1    2    0    0  0.52421611925E+01 -0.96581633550E+02 -0.22065542380E+03  0.25419468213E+03  0.81059411412E+02 0.  0.
         25    2    1    2    0    0 -0.29924180523E+02  0.30364141262E+02  0.83580640628E+02  0.15636927005E+03  0.12509271551E+03 0.  0.
        -24    2    1    2    0    0  0.24682019331E+02  0.66217492288E+02  0.31801249769E+03  0.33564832324E+03  0.80832480108E+02 0.  0.
        -11    1    3    3    0    0 -0.31662213191E+02 -0.26047524883E+02 -0.42446360823E+02  0.59014090214E+02  0.00000000000E+00 0.  1.
         12    1    3    3    0    0  0.36904374383E+02 -0.70534108667E+02 -0.17820906298E+03  0.19518059192E+03  0.00000000000E+00 0. -1.
         11    1    5    5    0    0 -0.26492905395E+02  0.38092722015E+02  0.17796763779E+03  0.18391685515E+03  0.00000000000E+00 0. -1.
        -12    1    5    5    0    0  0.51174924726E+02  0.28124770273E+02  0.14004485990E+03  0.15173146809E+03  0.00000000000E+00 0.  1.
          5    1    4    4  501    0 -0.41243755226E+02  0.27020715145E+02  0.11356388099E+03  0.12387652666E+03  0.41800000000E+01 0. -1.
         -5    1    4    4    0  501  0.11319574702E+02  0.33434261173E+01 -0.29983240366E+02  0.32492743382E+02  0.41800000000E+01 0. -1.
</event>
<event>
11    1  0.7105277E-009  0.1629466E+03  0.7561462E-02  0.1084338E+00
         22   -1    0    0    0    0  0.00000000000E+00  0.00000000000E+00  0.13439577695E+03  0.13439577695E+03  0.00000000000E+00 0.  1.
         22   -1    0    0    0    0 -0.00000000000E+00 -0.00000000000E+00 -0.65116160771E+03  0.65116160771E+03  0.00000000000E+00 0.  1.
         24    2    1    2    0    0  0.23307245577E+02  0.10326642021E+03 -0.46187293987E+03  0.48062470789E+03  0.80413406959E+02 0.  0.
         25    2    1    2    0    0 -0.92208293533E+02 -0.73768034446E+02 -0.81614976967E+02  0.19039854266E+03  0.12508600353E+03 0.  0.
        -24    2    1    2    0    0  0.68901047956E+02 -0.29498385761E+02  0.26722086071E+02  0.11453413410E+03  0.82380148205E+02 0.  0.
        -11    1    3    3    0    0  0.30792173532E+02  0.27819746376E+02 -0.28753794717E+03  0.29051706887E+03  0.00000000000E+00 0.  1.
         12    1    3    3    0    0 -0.74849279557E+01  0.75446673832E+02 -0.17433499270E+03  0.19010763903E+03  0.00000000000E+00 0. -1.
         13    1    5    5    0    0  0.36214041211E+02 -0.41112701451E+02 -0.18241263786E+02  0.57744737474E+02  0.00000000000E+00 0. -1.
        -14    1    5    5    0    0  0.32687006745E+02  0.11614315690E+02  0.44963349857E+02  0.56789396627E+02  0.00000000000E+00 0.  1.
          5    1    4    4  501    0 -0.12212097013E+03 -0.61612930240E+02 -0.78321279237E+02  0.15767491779E+03  0.41800000000E+01 0. -1.
         -5    1    4    4    0  501  0.29912676601E+02 -0.12155104206E+02 -0.32936977294E+01  0.32723624867E+02  0.41800000000E+01 0. -1.
</event>
<event>
11    1  0.7105277E-009  0.1532634E+03  0.7561462E-02  0.1093590E+00
         22   -1    0    0    0    0  0.00000000000E+00  0.00000000000E+00  0.48908448777E+03  0.48908448777E+03  0.00000000000E+00 0.  1.
         22   -1    0    0    0    0 -0.00000000000E+00 -0.00000000000E+00 -0.80697490640E+03  0.80697490640E+03  0.00000000000E+00 0.  1.
         24    2    1    2    0    0  0.84487843933E+02 -0.30432124944E+02 -0.75388962977E+03  0.76454335315E+03  0.90070277975E+02 0.  0.
         25    2    1    2    0    0 -0.72614136186E+02 -0.48111348351E+02  0.11381277519E+03  0.19023340233E+03  0.12509150631E+03 0.  0.
        -24    2    1    2    0    0 -0.11873707747E+02  0.78543473295E+02  0.32218643594E+03  0.34128263868E+03  0.79747588215E+02 0.  0.
        -13    1    3    3    0    0  0.83194541962E+02 -0.46479139081E+02 -0.72687529142E+03  0.73309571780E+03  0.00000000000E+00 0.  1.
         14    1    3    3    0    0  0.12933019716E+01  0.16047014136E+02 -0.27014338347E+02  0.31447635348E+02  0.00000000000E+00 0. -1.
         11    1    5    5    0    0 -0.21107293419E+01  0.79402186046E+02  0.15836578066E+03  0.17716907973E+03  0.00000000000E+00 0. -1.
        -12    1    5    5    0    0 -0.97629784049E+01 -0.85871275154E+00  0.16382065528E+03  0.16411355895E+03  0.00000000000E+00 0.  1.
          5    1    4    4  501    0 -0.87662629685E+02 -0.66650434536E+02  0.48192648569E+02  0.12027892934E+03  0.41800000000E+01 0. -1.
         -5    1    4    4    0  501  0.15048493498E+02  0.18539086185E+02  0.65620126626E+02  0.69954472992E+02  0.41800000000E+01 0. -1.
</event>
<event>
11    1  0.7105277E-009  0.1728148E+03  0.7561462E-02  0.1075608E+00
         22   -1    0    0    0    0  0.00000000000E+00  0.00000000000E+00  0.35434202166E+04  0.35434202166E+04  0.00000000000E+00 0.  1.
         22   -1    0    0    0    0 -0.00000000000E+00 -0.00000000000E+00 -0.75641630582E+03  0.75641630582E+03  0.00000000000E+00 0.  1.
         24    2    1    2    0    0  0.10863592430E+03  0.44464975820E+02 -0.57656361840E+03  0.59406382614E+03  0.81898262107E+02 0.  0.
         25    2    1    2    0    0 -0.11032011808E+03 -0.71235890441E+02 -0.12237918615E+03  0.21878953424E+03  0.12508842692E+03 0.  0.
        -24    2    1    2    0    0  0.16841937737E+01  0.26770914622E+02  0.34859467153E+04  0.34869831620E+04  0.80669399063E+02 0.  0.
        -13    1    3    3    0    0  0.85141273641E+02  0.20369702411E+02 -0.52657369363E+03  0.53380128895E+03  0.00000000000E+00 0.  1.
         14    1    3    3    0    0  0.23494650663E+02  0.24095273408E+02 -0.49989924769E+02  0.60262537192E+02  0.00000000000E+00 0. -1.
         11    1    5    5    0    0  0.27630391537E+02  0.14426431016E+02  0.54156467119E+03  0.54246092351E+03  0.00000000000E+00 0. -1.
        -12    1    5    5    0    0 -0.25946197764E+02  0.12344483606E+02  0.29443820441E+04  0.29445222385E+04  0.00000000000E+00 0.  1.
          5    1    4    4  501    0 -0.93474201091E+02 -0.12925354116E+02 -0.15375364276E+02  0.95699348353E+02  0.41800000000E+01 0.  1.
         -5    1    4    4    0  501 -0.16845916987E+02 -0.58310536326E+02 -0.10700382187E+03  0.12309018588E+03  0.41800000000E+01 0.  1.
</event>
<event>
11    1  0.7105277E-009  0.1990982E+03  0.7561462E-02  0.1055163E+00
         22   -1    0    0    0    0  0.00000000000E+00  0.00000000000E+00  0.12504242649E+03  0.12504242649E+03  0.00000000000E+00 0.  1.
         22   -1    0    0    0    0 -0.00000000000E+00 -0.00000000000E+00 -0.13273393061E+04  0.13273393061E+04  0.00000000000E+00 0.  1.
         24    2    1    2    0    0  0.53470457743E+02  0.13021156327E+03 -0.57691113154E+03  0.59919791107E+03  0.79984635283E+02 0.  0.
         25    2    1    2    0    0 -0.10776665177E+03 -0.14323634023E+03 -0.69733246292E+03  0.73078917702E+03  0.12509978825E+03 0.  0.
        -24    2    1    2    0    0  0.54296194030E+02  0.13024776966E+02  0.71946714813E+02  0.12239464452E+03  0.81770396435E+02 0.  0.
        -11    1    3    3    0    0  0.35109852840E+02  0.13187190235E+03 -0.43001385596E+03  0.45114833117E+03  0.00000000000E+00 0.  1.
         12    1    3    3    0    0  0.18360604903E+02 -0.16603390841E+01 -0.14689727558E+03  0.14804957990E+03  0.00000000000E+00 0. -1.
         11    1    5    5    0    0 -0.10570582201E+02  0.29141540974E+02  0.14336259273E+02  0.34153988762E+02  0.00000000000E+00 0. -1.
        -12    1    5    5    0    0  0.64866776231E+02 -0.16116764008E+02  0.57610455540E+02  0.88240655756E+02  0.00000000000E+00 0.  1.
          5    1    4    4  501    0 -0.25972631159E+01 -0.13016313865E+01  0.46586134815E+01  0.69003695213E+01  0.41800000000E+01 0. -1.
         -5    1    4    4    0  501 -0.10516938866E+03 -0.14193470885E+03 -0.70199107640E+03  0.72388880750E+03  0.41800000000E+01 0. -1.
</event>
<event>
11    1  0.7105277E-009  0.1434630E+03  0.7561462E-02  0.1103752E+00
         22   -1    0    0    0    0  0.00000000000E+00  0.00000000000E+00  0.61735295216E+03  0.61735295216E+03  0.00000000000E+00 0. -1.
         22   -1    0    0    0    0 -0.00000000000E+00 -0.00000000000E+00 -0.10669616164E+03  0.10669616164E+03  0.00000000000E+00 0.  1.
        -24    2    1    2    0    0  0.11684869196E+02 -0.21976348815E+01 -0.24984916239E+02  0.84879058868E+02  0.80242400436E+02 0.  0.
         25    2    1    2    0    0  0.39020416826E+02 -0.48105813534E+02  0.60777209789E+02  0.15222660022E+03  0.12506920628E+03 0.  0.
         24    2    1    2    0    0 -0.50705286022E+02  0.50303448415E+02  0.47486449697E+03  0.48694345471E+03  0.80722826063E+02 0.  0.
        -11    1    5    5    0    0  0.14995377690E+02  0.24088867732E+02  0.63637870724E+02  0.69677209265E+02  0.00000000000E+00 0.  1.
         12    1    5    5    0    0 -0.65700663712E+02  0.26214580684E+02  0.41122662625E+03  0.41726624545E+03  0.00000000000E+00 0. -1.
         11    1    3    3    0    0  0.13569333520E+02  0.36969123248E+02 -0.23025295808E+02  0.45618057093E+02  0.00000000000E+00 0. -1.
        -12    1    3    3    0    0 -0.18844643236E+01 -0.39166758129E+02 -0.19596204302E+01  0.39261001775E+02  0.00000000000E+00 0.  1.
          5    1    4    4  501    0 -0.35572927500E+02  0.16614035312E+02  0.84187850460E+01  0.40370876655E+02  0.41800000000E+01 0. -1.
         -5    1    4    4    0  501  0.74593344326E+02 -0.64719848846E+02  0.52358424743E+02  0.11185572356E+03  0.41800000000E+01 0. -1.
</event>
<event>
11    1  0.7105277E-009  0.1459579E+03  0.7561462E-02  0.1101082E+00
         22   -1    0    0    0    0  0.00000000000E+00  0.00000000000E+00  0.21540433048E+04  0.21540433048E+04  0.00000000000E+00 0.  1.
         22   -1    0    0    0    0 -0.00000000000E+00 -0.00000000000E+00 -0.28118554163E+03  0.28118554163E+03  0.00000000000E+00 0. -1.
        -24    2    1    2    0    0 -0.63520403670E+01  0.80049455130E+02 -0.25250338877E+03  0.27754900027E+03  0.82627008472E+02 0.  0.
         25    2    1    2    0    0 -0.43237795717E+02 -0.13880262018E+02  0.29458744001E+03  0.32325709347E+03  0.12510483611E+03 0.  0.
         24    2    1    2    0    0  0.49589836084E+02 -0.66169193112E+02  0.18307737120E+04  0.18344227527E+04  0.80851328417E+02 0.  0.
        -11    1    5    5    0    0  0.54845207877E+02 -0.80607414436E+02  0.14089193019E+04  0.14122886219E+04  0.00000000000E+00 0.  1.
         12    1    5    5    0    0 -0.52553717926E+01  0.14438221324E+02  0.42185441001E+03  0.42213413084E+03  0.00000000000E+00 0. -1.
         11    1    3    3    0    0 -0.23550038969E+01  0.12446453740E+02 -0.17149650370E+03  0.17196369104E+03  0.00000000000E+00 0. -1.
        -12    1    3    3    0    0 -0.39970364701E+01  0.67603001390E+02 -0.81006885066E+02  0.10558530923E+03  0.00000000000E+00 0.  1.
          5    1    4    4  501    0 -0.25990021846E+02 -0.88319705095E+00  0.29955100598E+03  0.30070673231E+03  0.41800000000E+01 0.  1.
         -5    1    4    4    0  501 -0.17247773871E+02 -0.12997064967E+02 -0.49635659749E+01  0.22550361160E+02  0.41800000000E+01 0.  1.
</event>
<event>
11    1  0.7105277E-009  0.1923796E+03  0.7561462E-02  0.1060047E+00
         22   -1    0    0    0    0  0.00000000000E+00  0.00000000000E+00  0.14200005114E+03  0.14200005114E+03  0.00000000000E+00 0. -1.
         22   -1    0    0    0    0 -0.00000000000E+00 -0.00000000000E+00 -0.18277664969E+04  0.18277664969E+04  0.00000000000E+00 0.  1.
        -24    2    1    2    0    0  0.14930596652E+03 -0.10442117653E+02 -0.14781438349E+04  0.14878401398E+04  0.79735659756E+02 0.  0.
         25    2    1    2    0    0 -0.10704759961E+03  0.12089087361E+03 -0.25878819401E+03  0.32968464538E+03  0.12508734602E+03 0.  0.
         24    2    1    2    0    0 -0.42258366913E+02 -0.11044875596E+03  0.51165583207E+02  0.15224176282E+03  0.81086004800E+02 0.  0.
        -13    1    5    5    0    0 -0.64485037590E+01 -0.34376609128E+02 -0.21548481738E+02  0.41081279448E+02  0.00000000000E+00 0.  1.
         14    1    5    5    0    0 -0.35809863154E+02 -0.76072146830E+02  0.72714064944E+02  0.11116048337E+03  0.00000000000E+00 0. -1.
         11    1    3    3    0    0  0.21497361087E+02 -0.19528077086E+02 -0.11212903512E+03  0.11582919686E+03  0.00000000000E+00 0. -1.
        -12    1    3    3    0    0  0.12780860544E+03  0.90859594325E+01 -0.13660147998E+04  0.13720109430E+04  0.00000000000E+00 0.  1.
          5    1    4    4  501    0 -0.87485868275E+02  0.55175311195E+02 -0.23534028227E+03  0.25710039473E+03  0.41800000000E+01 0. -1.
         -5    1    4    4    0  501 -0.19561731337E+02  0.65715562417E+02 -0.23447911740E+02  0.72584250645E+02  0.41800000000E+01 0. -1.
</event>
<event>
11    1  0.7105277E-009  0.2587854E+03  0.7561462E-02  0.1019320E+00
         22   -1    0    0    0    0  0.00000000000E+00  0.00000000000E+00  0.45308894127E+03  0.45308894127E+03  0.00000000000E+00 0.  1.
         22   -1    0    0    0    0 -0.00000000000E+00 -0.00000000000E+00 -0.13456543567E+04  0.13456543567E+04  0.00000000000E+00 0. -1.
        -24    2    1    2    0    0 -0.44741938134E+02  0.33169963937E+02 -0.73450177658E+03  0.74084771308E+03  0.79122605097E+02 0.  0.
         25    2    1    2    0    0 -0.13038474776E+02 -0.25099587300E+03 -0.53921271330E+03  0.60792040675E+03  0.12509172903E+03 0.  0.
         24    2    1    2    0    0  0.57780412909E+02  0.21782590907E+03  0.38114907449E+03  0.44997517809E+03  0.80102067009E+02 0.  0.
        -11    1    5    5    0    0  0.69390503367E+02  0.19177687926E+03  0.36239936938E+03  0.41584458191E+03  0.00000000000E+00 0.  1.
         12    1    5    5    0    0 -0.11610090457E+02  0.26049029803E+02  0.18749705111E+02  0.34130596183E+02  0.00000000000E+00 0. -1.
         11    1    3    3    0    0 -0.52731159161E+02  0.45201427250E+01 -0.62932022233E+03  0.63154172393E+03  0.00000000000E+00 0. -1.
        -12    1    3    3    0    0  0.79892210268E+01  0.28649821212E+02 -0.10518155425E+03  0.10930598915E+03  0.00000000000E+00 0.  1.
          5    1    4    4  501    0 -0.12557071904E+02 -0.25637247438E+03 -0.44712554558E+03  0.51558049961E+03  0.41800000000E+01 0.  1.
         -5    1    4    4    0  501 -0.48140287113E+00  0.53766013781E+01 -0.92087167721E+02  0.92339907136E+02  0.41800000000E+01 0.  1.
</event>
<event>
11    1  0.7105277E-009  0.1551066E+03  0.7561462E-02  0.1091772E+00
         22   -1    0    0    0    0  0.00000000000E+00  0.00000000000E+00  0.19399035007E+03  0.19399035007E+03  0.00000000000E+00 0.  1.
         22   -1    0    0    0    0 -0.00000000000E+00 -0.00000000000E+00 -0.67644515812E+03  0.67644515812E+03  0.00000000000E+00 0.  1.
        -24    2    1    2    0    0  0.33941315120E+02  0.87434373130E+02 -0.56718555790E+03  0.58034855789E+03  0.79424234821E+02 0.  0.
         25    2    1    2    0    0 -0.42331631574E+02 -0.61362113167E+02 -0.28922932710E+02  0.14847024541E+03  0.12509836838E+03 0.  0.
         24    2    1    2    0    0  0.83903164541E+01 -0.26072259962E+02  0.11365368256E+03  0.14161670490E+03  0.79924785887E+02 0.  0.
        -11    1    5    5    0    0  0.14343728583E+01 -0.46687727638E+02  0.11006374462E+03  0.11956516724E+03  0.00000000000E+00 0.  1.
         12    1    5    5    0    0  0.69559435958E+01  0.20615467675E+02  0.35899379333E+01  0.22051537659E+02  0.00000000000E+00 0. -1.
         13    1    3    3    0    0 -0.23116895316E+02  0.48043516706E+02 -0.26512217748E+03  0.27042991576E+03  0.00000000000E+00 0. -1.
        -14    1    3    3    0    0  0.57058210436E+02  0.39390856423E+02 -0.30206338042E+03  0.30991864213E+03  0.00000000000E+00 0.  1.
          5    1    4    4  501    0 -0.78506454673E+02 -0.44182037139E+02  0.12098365487E+02  0.90989882286E+02  0.41800000000E+01 0.  1.
         -5    1    4    4    0  501  0.36174823099E+02 -0.17180076028E+02 -0.41021298197E+02  0.57480363120E+02  0.41800000000E+01 0.  1.
</event>
<event>
11    1  0.7105277E-009  0.1971935E+03  0.7561462E-02  0.1056526E+00
         22   -1    0    0    0    0  0.00000000000E+00  0.00000000000E+00  0.21532292874E+03  0.21532292874E+03  0.00000000000E+00 0. -1.
         22   -1    0    0    0    0 -0.00000000000E+00 -0.00000000000E+00 -0.10779798465E+04  0.10779798465E+04  0.00000000000E+00 0. -1.
        -24    2    1    2    0    0  0.82781702589E+02 -0.81264804969E+02 -0.87370887502E+03  0.88495770487E+03  0.79537175595E+02 0.  0.
         25    2    1    2    0    0 -0.52187070136E+02 -0.96599270130E+02 -0.85410776294E+02  0.18710017100E+03  0.12512619231E+03 0.  0.
         24    2    1    2    0    0 -0.30594632453E+02  0.17786407510E+03  0.96462733545E+02  0.22124489938E+03  0.84098667016E+02 0.  0.
        -13    1    5    5    0    0 -0.16548725425E+02 -0.23456783770E+01  0.79532786057E+00  0.16733053118E+02  0.00000000000E+00 0.  1.
         14    1    5    5    0    0 -0.14045907028E+02  0.18020975348E+03  0.95667405684E+02  0.20451184626E+03  0.00000000000E+00 0. -1.
         11    1    3    3    0    0  0.81575992683E+02 -0.45313276263E+02 -0.75967128496E+03  0.76538121010E+03  0.00000000000E+00 0. -1.
        -12    1    3    3    0    0  0.12057099066E+01 -0.35951528706E+02 -0.11403759006E+03  0.11957649476E+03  0.00000000000E+00 0.  1.
          5    1    4    4  501    0 -0.44016958677E+02 -0.62873445608E+02  0.17144345779E+02  0.78752547933E+02  0.41800000000E+01 0. -1.
         -5    1    4    4    0  501 -0.81701114591E+01 -0.33725824522E+02 -0.10255512207E+03  0.10834762307E+03  0.41800000000E+01 0. -1.
</event>
<event>
11    1  0.7105277E-009  0.1892315E+03  0.7561462E-02  0.1062411E+00
         22   -1    0    0    0    0  0.00000000000E+00  0.00000000000E+00  0.38644672056E+03  0.38644672056E+03  0.00000000000E+00 0. -1.
         22   -1    0    0    0    0 -0.00000000000E+00 -0.00000000000E+00 -0.20112092710E+04  0.20112092710E+04  0.00000000000E+00 0.  1.
        -24    2    1    2    0    0 -0.11202527148E+03 -0.77192387429E+02 -0.15804227607E+04  0.15882446779E+04  0.79225805749E+02 0.  0.
         25    2    1    2    0    0  0.19052846256E+03  0.60718821069E+02 -0.38431404077E+03  0.45092489049E+03  0.12509238449E+03 0.  0.
         24    2    1    2    0    0 -0.78503191086E+02  0.16473566360E+02  0.33997425101E+03  0.35848642315E+03  0.80597114278E+02 0.  0.
        -11    1    5    5    0    0  0.11837091725E+02  0.39362407391E+01  0.95633643991E+01  0.15718418186E+02  0.00000000000E+00 0.  1.
         12    1    5    5    0    0 -0.90340282811E+02  0.12537325620E+02  0.33041088661E+03  0.34276800496E+03  0.00000000000E+00 0. -1.
         13    1    3    3    0    0 -0.35915258747E+02 -0.51499252036E+02 -0.38133828085E+03  0.38647246113E+03  0.00000000000E+00 0. -1.
        -14    1    3    3    0    0 -0.76110012730E+02 -0.25693135393E+02 -0.11990844798E+04  0.12017722168E+04  0.00000000000E+00 0.  1.
          5    1    4    4  501    0  0.57053305845E+02  0.29762697778E+02 -0.30205975778E+02  0.71209348119E+02  0.41800000000E+01 0. -1.
         -5    1    4    4    0  501  0.13347515672E+03  0.30956123291E+02 -0.35410806499E+03  0.37971554237E+03  0.41800000000E+01 0. -1.
</event>
<event>
11    1  0.7105277E-009  0.1563475E+03  0.7561462E-02  0.1090564E+00
         22   -1    0    0    0    0  0.00000000000E+00  0.00000000000E+00  0.29979818911E+03  0.29979818911E+03  0.00000000000E+00 0.  1.
         22   -1    0    0    0    0 -0.00000000000E+00 -0.00000000000E+00 -0.16021089070E+03  0.16021089070E+03  0.00000000000E+00 0. -1.
        -24    2    1    2    0    0  0.10701026973E+03  0.33057383462E+02 -0.54947960699E+02  0.14832197680E+03  0.80225569410E+02 0.  0.
         25    2    1    2    0    0 -0.37914476226E+02  0.48693248487E+01  0.12204803283E+03  0.17889840406E+03  0.12509076236E+03 0.  0.
         24    2    1    2    0    0 -0.69095793503E+02 -0.37926708310E+02  0.72487226289E+02  0.13278869895E+03  0.78522459910E+02 0.  0.
        -11    1    5    5    0    0  0.78582286719E+00  0.11398748889E+02  0.39487976820E+02  0.41107776723E+02  0.00000000000E+00 0.  1.
         12    1    5    5    0    0 -0.69881616371E+02 -0.49325457200E+02  0.32999249469E+02  0.91680922225E+02  0.00000000000E+00 0. -1.
         13    1    3    3    0    0  0.63702507726E+02  0.12783432189E+02 -0.72528198083E+02  0.97374355691E+02  0.00000000000E+00 0. -1.
        -14    1    3    3    0    0  0.43307762003E+02  0.20273951273E+02  0.17580237383E+02  0.50947621106E+02  0.00000000000E+00 0.  1.
          5    1    4    4  501    0 -0.84138055680E+02  0.29118659894E+01  0.81163221140E+02  0.11701552138E+03  0.41800000000E+01 0.  1.
         -5    1    4    4    0  501  0.46223579454E+02  0.19574588592E+01  0.40884811686E+02  0.61882882684E+02  0.41800000000E+01 0.  1.
</event>
<event>
11    1  0.7105277E-009  0.1608009E+03  0.7561462E-02  0.1086326E+00
         22   -1    0    0    0    0  0.00000000000E+00  0.00000000000E+00  0.30120147206E+04  0.30120147206E+04  0.00000000000E+00 0.  1.
         22   -1    0    0    0    0 -0.00000000000E+00 -0.00000000000E+00 -0.35825794099E+02  0.35825794099E+02  0.00000000000E+00 0. -1.
         24    2    1    2    0    0  0.81095608613E+02 -0.58007817084E+02  0.11131769971E+03  0.16898324758E+03  0.78881576517E+02 0.  0.
         25    2    1    2    0    0 -0.77605506036E+02  0.84887982618E+02  0.12207180736E+04  0.12324882391E+04  0.12508421217E+03 0.  0.
        -24    2    1    2    0    0 -0.34901025769E+01 -0.26880165533E+02  0.16441531532E+04  0.16463690280E+04  0.80973212769E+02 0.  0.
        -13    1    3    3    0    0  0.11568875603E+02 -0.11506814215E+02  0.76770913496E+02  0.78485787345E+02  0.00000000000E+00 0.  1.
         14    1    3    3    0    0  0.69526733010E+02 -0.46501002870E+02  0.34546786216E+02  0.90497460234E+02  0.00000000000E+00 0. -1.
         11    1    5    5    0    0  0.20842604826E+02  0.71585603780E+01  0.14807881929E+03  0.14970970538E+03  0.00000000000E+00 0. -1.
        -12    1    5    5    0    0 -0.24332707403E+02 -0.34038725911E+02  0.14960743339E+04  0.14966593227E+04  0.00000000000E+00 0.  1.
          5    1    4    4  501    0 -0.31190883014E+02  0.83015263197E+02  0.10916070621E+04  0.10952113292E+04  0.41800000000E+01 0. -1.
         -5    1    4    4    0  501 -0.46414623023E+02  0.18727194210E+01  0.12911101145E+03  0.13727690988E+03  0.41800000000E+01 0. -1.
</event>
<event>
11    1  0.7105277E-009  0.1434485E+03  0.7561462E-02  0.1103768E+00
         22   -1    0    0    0    0  0.00000000000E+00  0.00000000000E+00  0.60096398180E+03  0.60096398180E+03  0.00000000000E+00 0.  1.
         22   -1    0    0    0    0 -0.00000000000E+00 -0.00000000000E+00 -0.63078535031E+03  0.63078535031E+03  0.00000000000E+00 0.  1.
         24    2    1    2    0    0 -0.52036512358E+02 -0.24001563689E+02 -0.54032185513E+03  0.55024538450E+03  0.86823973354E+02 0.  0.
         25    2    1    2    0    0  0.11734041824E+03  0.75460009928E+01  0.11984937755E+02  0.17209107741E+03  0.12508390906E+03 0.  0.
        -24    2    1    2    0    0 -0.65303905879E+02  0.16455562696E+02  0.49851554887E+03  0.50941287022E+03  0.80301520599E+02 0.  0.
        -13    1    3    3    0    0 -0.22779281637E+02  0.28039160312E+02 -0.31806086489E+03  0.32010592615E+03  0.00000000000E+00 0.  1.
         14    1    3    3    0    0 -0.29257230721E+02 -0.52040724001E+02 -0.22226099024E+03  0.23013945834E+03  0.00000000000E+00 0. -1.
         11    1    5    5    0    0 -0.17982378305E+02  0.44374006552E+02  0.18360108268E+03  0.18974133959E+03  0.00000000000E+00 0. -1.
        -12    1    5    5    0    0 -0.47321527575E+02 -0.27918443856E+02  0.31491446619E+03  0.31967153063E+03  0.00000000000E+00 0.  1.
          5    1    4    4  501    0  0.12097298332E+03 -0.36385938196E+02  0.70644548366E+00  0.12639766871E+03  0.41800000000E+01 0.  1.
         -5    1    4    4    0  501 -0.36325650798E+01  0.43931939189E+02  0.11278492271E+02  0.45693408692E+02  0.41800000000E+01 0.  1.
</event>
<event>
11    1  0.7105277E-009  0.2797951E+03  0.7561462E-02  0.1009124E+00
         22   -1    0    0    0    0  0.00000000000E+00  0.00000000000E+00  0.14107246146E+04  0.14107246146E+04  0.00000000000E+00 0. -1.
         22   -1    0    0    0    0 -0.00000000000E+00 -0.00000000000E+00 -0.60885510506E+03  0.60885510506E+03  0.00000000000E+00 0. -1.
        -24    2    1    2    0    0  0.36721965780E+02 -0.10214655611E+03 -0.54457272976E+03  0.56206459144E+03  0.87032897582E+02 0.  0.
         25    2    1    2    0    0 -0.10123777087E+03 -0.17750403455E+03  0.40955547309E+03  0.47449030965E+03  0.12509436393E+03 0.  0.
         24    2    1    2    0    0  0.64515805092E+02  0.27965059066E+03  0.93688676623E+03  0.98302481859E+03  0.78830446211E+02 0.  0.
        -11    1    5    5    0    0 -0.59344671413E+01  0.50324850551E+02  0.25973923518E+03  0.26463612523E+03  0.00000000000E+00 0.  1.
         12    1    5    5    0    0  0.70450272233E+02  0.22932574011E+03  0.67714753105E+03  0.71838869336E+03  0.00000000000E+00 0. -1.
         13    1    3    3    0    0 -0.22015510227E+02 -0.67329482067E+02 -0.28087778858E+03  0.28967270145E+03  0.00000000000E+00 0. -1.
        -14    1    3    3    0    0  0.58737476008E+02 -0.34817074047E+02 -0.26369494118E+03  0.27239189000E+03  0.00000000000E+00 0.  1.
          5    1    4    4  501    0 -0.45696636632E+02 -0.17671696056E+03  0.29158093227E+03  0.34402613158E+03  0.41800000000E+01 0. -1.
         -5    1    4    4    0  501 -0.55541134240E+02 -0.78707398565E+00  0.11797454082E+03  0.13046417807E+03  0.41800000000E+01 0. -1.
</event>
<event>
11    1  0.7105277E-009  0.3740123E+03  0.7561462E-02  0.9729709E-01
         22   -1    0    0    0    0  0.00000000000E+00  0.00000000000E+00  0.52127088044E+03  0.52127088044E+03  0.00000000000E+00 0. -1.
         22   -1    0    0    0    0 -0.00000000000E+00 -0.00000000000E+00 -0.11792924172E+04  0.11792924172E+04  0.00000000000E+00 0.  1.
         24    2    1    2    0    0 -0.28194158941E+03 -0.15044029891E+03 -0.31556317960E+03  0.45559958981E+03  0.76599755476E+02 0.  0.
         25    2    1    2    0    0  0.32878316690E+03  0.18223798002E+03 -0.73759935858E+03  0.83726306718E+03  0.12509027814E+03 0.  0.
        -24    2    1    2    0    0 -0.46841577489E+02 -0.31797681109E+02  0.39514100143E+03  0.40770064065E+03  0.82934766356E+02 0.  0.
        -13    1    3    3    0    0 -0.13455601773E+03 -0.10575375227E+03 -0.19888107420E+03  0.26237922879E+03  0.00000000000E+00 0.  1.
         14    1    3    3    0    0 -0.14738557168E+03 -0.44686546635E+02 -0.11668210540E+03  0.19322036102E+03  0.00000000000E+00 0. -1.
         11    1    5    5    0    0 -0.12005298035E+02 -0.56123092539E+02  0.20596309664E+03  0.21381002286E+03  0.00000000000E+00 0. -1.
        -12    1    5    5    0    0 -0.34836279454E+02  0.24325411430E+02  0.18917790478E+03  0.19389061779E+03  0.00000000000E+00 0.  1.
          5    1    4    4  501    0  0.13045680657E+03  0.52137929398E+02 -0.16070344980E+03  0.21349569841E+03  0.41800000000E+01 0.  1.
         -5    1    4    4    0  501  0.19832636033E+03  0.13010005062E+03 -0.57689590878E+03  0.62376736877E+03  0.41800000000E+01 0.  1.
</event>
<event>
11    1  0.7105277E-009  0.1654275E+03  0.7561462E-02  0.1082081E+00
         22   -1    0    0    0    0  0.00000000000E+00  0.00000000000E+00  0.54401899785E+03  0.54401899785E+03  0.00000000000E+00 0.  1.
         22   -1    0    0    0    0 -0.00000000000E+00 -0.00000000000E+00 -0.29924210151E+03  0.29924210151E+03  0.00000000000E+00 0.  1.
        -24    2    1    2    0    0 -0.10348431933E+03 -0.25534208433E+02 -0.21851064462E+03  0.25828032067E+03  0.87182693736E+02 0.  0.
         25    2    1    2    0    0  0.14154220005E+03 -0.65114655796E+02  0.15991982862E+03  0.25592304994E+03  0.12509253820E+03 0.  0.
         24    2    1    2    0    0 -0.38057880725E+02  0.90648864230E+02  0.30336771234E+03  0.32905772874E+03  0.81125834874E+02 0.  0.
        -11    1    5    5    0    0 -0.50357574564E+02  0.78107530915E+02  0.29557503584E+03  0.30984072281E+03  0.00000000000E+00 0.  1.
         12    1    5    5    0    0  0.12299693840E+02  0.12541333315E+02  0.77926764982E+01  0.19217005929E+02  0.00000000000E+00 0. -1.
         13    1    3    3    0    0 -0.76552767838E+02 -0.25935149906E+02 -0.68732258843E+02  0.10609939524E+03  0.00000000000E+00 0. -1.
        -14    1    3    3    0    0 -0.26931551489E+02  0.40094147231E+00 -0.14977838578E+03  0.15218092544E+03  0.00000000000E+00 0.  1.
          5    1    4    4  501    0  0.13064814868E+03 -0.73412708195E+02  0.17808864491E+03  0.23279046871E+03  0.41800000000E+01 0.  1.
         -5    1    4    4    0  501  0.10894051375E+02  0.82980523983E+01 -0.18168816293E+02  0.23132581232E+02  0.41800000000E+01 0.  1.
</event>
<event>
11    1  0.7105277E-009  0.2135983E+03  0.7561462E-02  0.1045303E+00
         22   -1    0    0    0    0  0.00000000000E+00  0.00000000000E+00  0.46183406321E+03  0.46183406321E+03  0.00000000000E+00 0. -1.
         22   -1    0    0    0    0 -0.00000000000E+00 -0.00000000000E+00 -0.17659811732E+04  0.17659811732E+04  0.00000000000E+00 0. -1.
         24    2    1    2    0    0  0.26475691316E+02  0.13073778112E+03 -0.16577164433E+04  0.16649901064E+04  0.79843086318E+02 0.  0.
         25    2    1    2    0    0 -0.73306068241E+02  0.79417237916E+02  0.33725421605E+02  0.16871598649E+03  0.12508718046E+03 0.  0.
        -24    2    1    2    0    0  0.46830376924E+02 -0.21015501903E+03  0.31984391176E+03  0.39410914346E+03  0.81631322705E+02 0.  0.
        -13    1    3    3    0    0  0.78289610716E+01 -0.92275957303E+01 -0.73088609257E+02  0.74083641633E+02  0.00000000000E+00 0.  1.
         14    1    3    3    0    0  0.18646730245E+02  0.13996537685E+03 -0.15846278340E+04  0.15909064648E+04  0.00000000000E+00 0. -1.
         13    1    5    5    0    0  0.53092891167E+02 -0.19240074844E+03  0.31765566504E+03  0.37515600038E+03  0.00000000000E+00 0. -1.
        -14    1    5    5    0    0 -0.62625142424E+01 -0.17754270595E+02  0.21882467190E+01  0.18953143082E+02  0.00000000000E+00 0.  1.
          5    1    4    4  501    0 -0.29669504316E+02  0.38677793464E+02  0.79516352508E+02  0.93362593740E+02  0.41800000000E+01 0.  1.
         -5    1    4    4    0  501 -0.43636563925E+02  0.40739444451E+02 -0.45790930903E+02  0.75353392746E+02  0.41800000000E+01 0.  1.
</event>
<event>
11    1  0.7105277E-009  0.1367258E+03  0.7561462E-02  0.1111271E+00
         22   -1    0    0    0    0  0.00000000000E+00  0.00000000000E+00  0.36507095998E+03  0.36507095998E+03  0.00000000000E+00 0. -1.
         22   -1    0    0    0    0 -0.00000000000E+00 -0.00000000000E+00 -0.91263773953E+03  0.91263773953E+03  0.00000000000E+00 0.  1.
        -24    2    1    2    0    0  0.95771845813E+01  0.53415151645E+02 -0.74292842993E+03  0.74923424338E+03  0.80401483598E+02 0.  0.
         25    2    1    2    0    0 -0.58465540200E+02 -0.54113676800E+02 -0.12545301912E+03  0.19424797437E+03  0.12508919271E+03 0.  0.
         24    2    1    2    0    0  0.48888355618E+02  0.69852515529E+00  0.32081466950E+03  0.33422648176E+03  0.79967053793E+02 0.  0.
        -13    1    5    5    0    0  0.10705907063E+02  0.33506371004E+01  0.82131576396E-01  0.11218286884E+02  0.00000000000E+00 0.  1.
         14    1    5    5    0    0  0.38182448555E+02 -0.26521119451E+01  0.32073253792E+03  0.32300819488E+03  0.00000000000E+00 0. -1.
         13    1    3    3    0    0  0.30160980066E+02  0.58463288186E+02 -0.37730004228E+03  0.38299211832E+03  0.00000000000E+00 0. -1.
        -14    1    3    3    0    0 -0.20583795484E+02 -0.50481365417E+01 -0.36562838765E+03  0.36624212507E+03  0.00000000000E+00 0.  1.
          5    1    4    4  501    0 -0.45335938247E+02  0.24453940591E+02 -0.96355487910E+02  0.10933981415E+03  0.41800000000E+01 0.  1.
         -5    1    4    4    0  501 -0.13129601953E+02 -0.78567617391E+02 -0.29097531206E+02  0.84908160221E+02  0.41800000000E+01 0.  1.
</event>
<event>
11    1  0.7105277E-009  0.1303801E+03  0.7561462E-02  0.1118803E+00
         22   -1    0    0    0    0  0.00000000000E+00  0.00000000000E+00  0.35878128259E+03  0.35878128259E+03  0.00000000000E+00 0.  1.
         22   -1    0    0    0    0 -0.00000000000E+00 -0.00000000000E+00 -0.12102681741E+04  0.12102681741E+04  0.00000000000E+00 0.  1.
        -24    2    1    2    0    0  0.12095215241E+02 -0.26776113747E+02 -0.10456667915E+04  0.10492237154E+04  0.81167183257E+02 0.  0.
         25    2    1    2    0    0  0.19404957974E+02  0.61711205096E+01 -0.13149110068E+03  0.18262435067E+03  0.12508840384E+03 0.  0.
         24    2    1    2    0    0 -0.31500173215E+02  0.20604993237E+02  0.32567100069E+03  0.33720139060E+03  0.78907226997E+02 0.  0.
        -11    1    5    5    0    0 -0.47098502752E+01  0.45827346810E+02  0.23265143002E+03  0.23716875067E+03  0.00000000000E+00 0.  1.
         12    1    5    5    0    0 -0.26790322940E+02 -0.25222353572E+02  0.93019570671E+02  0.10003263993E+03  0.00000000000E+00 0. -1.
         13    1    3    3    0    0 -0.24128011626E+02  0.16965749845E+02 -0.34393928661E+03  0.34520172434E+03  0.00000000000E+00 0. -1.
        -14    1    3    3    0    0  0.36223226867E+02 -0.43741863592E+02 -0.70172750488E+03  0.70402199107E+03  0.00000000000E+00 0.  1.
          5    1    4    4  501    0  0.46292052297E+02  0.53360639318E+02 -0.60221554786E+02  0.92921579814E+02  0.41800000000E+01 0. -1.
         -5    1    4    4    0  501 -0.26887094323E+02 -0.47189518809E+02 -0.71269545896E+02  0.89702770853E+02  0.41800000000E+01 0. -1.
</event>
<event>
11    1  0.7105277E-009  0.1697115E+03  0.7561462E-02  0.1078283E+00
         22   -1    0    0    0    0  0.00000000000E+00  0.00000000000E+00  0.44931069000E+03  0.44931069000E+03  0.00000000000E+00 0. -1.
         22   -1    0    0    0    0 -0.00000000000E+00 -0.00000000000E+00 -0.33975384770E+03  0.33975384770E+03  0.00000000000E+00 0.  1.
        -24    2    1    2    0    0  0.53923211525E+02 -0.26368689093E+02 -0.15007643387E+03  0.18218796938E+03  0.84062474853E+02 0.  0.
         25    2    1    2    0    0 -0.16408209944E+03  0.14612011795E+02 -0.93695599582E+02  0.22707895835E+03  0.12509812828E+03 0.  0.
         24    2    1    2    0    0  0.11015888791E+03  0.11756677297E+02  0.35332887574E+03  0.37979760997E+03  0.84449571091E+02 0.  0.
        -13    1    5    5    0    0  0.41317757780E+01  0.75862902517E+00 -0.46609202421E+01  0.62746527060E+01  0.00000000000E+00 0.  1.
         14    1    5    5    0    0  0.10602711214E+03  0.10998048272E+02  0.35798979599E+03  0.37352295726E+03  0.00000000000E+00 0. -1.
         11    1    3    3    0    0  0.29570709515E+01 -0.26910623632E+02 -0.11997999348E+03  0.12299644210E+03  0.00000000000E+00 0. -1.
        -12    1    3    3    0    0  0.50966140573E+02  0.54193453974E+00 -0.30096440387E+02  0.59191527282E+02  0.00000000000E+00 0.  1.
          5    1    4    4  501    0 -0.13271780077E+03 -0.33714846229E+02 -0.99070442165E+02  0.16906546190E+03  0.41800000000E+01 0.  1.
         -5    1    4    4    0  501 -0.31364298672E+02  0.48326858025E+02  0.53748425828E+01  0.58013496451E+02  0.41800000000E+01 0.  1.
</event>
<event>
11    1  0.7105277E-009  0.1287990E+03  0.7561462E-02  0.1120753E+00
         22   -1    0    0    0    0  0.00000000000E+00  0.00000000000E+00  0.75104789051E+03  0.75104789051E+03  0.00000000000E+00 0. -1.
         22   -1    0    0    0    0 -0.00000000000E+00 -0.00000000000E+00 -0.17214299653E+03  0.17214299653E+03  0.00000000000E+00 0. -1.
         24    2    1    2    0    0  0.18335807654E+02 -0.14544505623E+02 -0.11244298958E+03  0.14133508260E+03  0.82367682880E+02 0.  0.
         25    2    1    2    0    0 -0.38188427924E+02  0.35874155262E+02  0.66661718668E+02  0.15111781037E+03  0.12508995497E+03 0.  0.
        -24    2    1    2    0    0  0.19852620271E+02 -0.21329649639E+02  0.62468616489E+03  0.63073799406E+03  0.82149449562E+02 0.  0.
        -13    1    3    3    0    0  0.42185192948E+02 -0.28343523686E+01 -0.23213014062E+02  0.48233474675E+02  0.00000000000E+00 0.  1.
         14    1    3    3    0    0 -0.23849385294E+02 -0.11710153255E+02 -0.89229975516E+02  0.93101607928E+02  0.00000000000E+00 0. -1.
         13    1    5    5    0    0  0.73050010293E+01 -0.24973747345E+02  0.61191215535E+03  0.61246513122E+03  0.00000000000E+00 0. -1.
        -14    1    5    5    0    0  0.12547619241E+02  0.36440977066E+01  0.12774009543E+02  0.18272862845E+02  0.00000000000E+00 0.  1.
          5    1    4    4  501    0  0.30350932208E+02 -0.25500431028E+02  0.47467106614E+01  0.40142928774E+02  0.41800000000E+01 0.  1.
         -5    1    4    4    0  501 -0.68539360132E+02  0.61374586289E+02  0.61915008007E+02  0.11097488160E+03  0.41800000000E+01 0.  1.
</event>
<event>
11    1  0.7105277E-009  0.1510204E+03  0.7561462E-02  0.1095841E+00
         22   -1    0    0    0    0  0.00000000000E+00  0.00000000000E+00  0.12000613072E+04  0.12000613072E+04  0.00000000000E+00 0. -1.
         22   -1    0    0    0    0 -0.00000000000E+00 -0.00000000000E+00 -0.14141242008E+04  0.14141242008E+04  0.00000000000E+00 0. -1.
         24    2    1    2    0    0  0.28794571848E+02  0.80152804609E+02 -0.13904849396E+04  0.13954434954E+04  0.80997420391E+02 0.  0.
         25    2    1    2    0    0 -0.36061072424E+02 -0.21677029523E+02  0.21660041013E+03  0.25363881849E+03  0.12508644221E+03 0.  0.
        -24    2    1    2    0    0  0.72665005763E+01 -0.58475775086E+02  0.95982163583E+03  0.96510319417E+03  0.81819218329E+02 0.  0.
        -13    1    3    3    0    0  0.17116670751E+02 -0.11730355496E+02 -0.13955783645E+03  0.14109206700E+03  0.00000000000E+00 0.  1.
         14    1    3    3    0    0  0.11677901097E+02  0.91883160106E+02 -0.12509271031E+04  0.12543514284E+04  0.00000000000E+00 0. -1.
         11    1    5    5    0    0  0.16143898275E+02 -0.44548323943E+01  0.66686400573E+03  0.66707426357E+03  0.00000000000E+00 0. -1.
        -12    1    5    5    0    0 -0.88773976985E+01 -0.54020942692E+02  0.29295763010E+03  0.29802893060E+03  0.00000000000E+00 0.  1.
          5    1    4    4  501    0 -0.30331776470E+02 -0.56711298331E+02  0.20674885687E+03  0.21656119283E+03  0.41800000000E+01 0.  1.
         -5    1    4    4    0  501 -0.57292959542E+01  0.35034268808E+02  0.98515532550E+01  0.37077625660E+02  0.41800000000E+01 0.  1.
</event>
<event>
11    1  0.7105277E-009  0.1271186E+03  0.7561462E-02  0.1122861E+00
         22   -1    0    0    0    0  0.00000000000E+00  0.00000000000E+00  0.86456980475E+03  0.86456980475E+03  0.00000000000E+00 0. -1.
         22   -1    0    0    0    0 -0.00000000000E+00 -0.00000000000E+00 -0.84782394114E+03  0.84782394114E+03  0.00000000000E+00 0. -1.
         24    2    1    2    0    0 -0.21769727634E+01  0.11943089158E+01 -0.72891802872E+03  0.73340052086E+03  0.80923827333E+02 0.  0.
         25    2    1    2    0    0 -0.38155324345E+01  0.20601133325E+02 -0.79555199299E+02  0.14972484822E+03  0.12509810333E+03 0.  0.
        -24    2    1    2    0    0  0.59925051979E+01 -0.21795442241E+02  0.82521909163E+03  0.82926837681E+03  0.78667275029E+02 0.  0.
        -11    1    3    3    0    0  0.33830850367E+02 -0.89631537723E+00 -0.17093666407E+03  0.17425462100E+03  0.00000000000E+00 0.  1.
         12    1    3    3    0    0 -0.36007823131E+02  0.20906242930E+01 -0.55798136465E+03  0.55914589986E+03  0.00000000000E+00 0. -1.
         11    1    5    5    0    0  0.32494408645E+02 -0.65633653215E+01  0.68287579277E+03  0.68367997829E+03  0.00000000000E+00 0. -1.
        -12    1    5    5    0    0 -0.26501903447E+02 -0.15232076920E+02  0.14234329886E+03  0.14558839852E+03  0.00000000000E+00 0.  1.
          5    1    4    4  501    0  0.55652737162E+02 -0.11127685254E+02 -0.22066388695E+02  0.61036468138E+02  0.41800000000E+01 0.  1.
         -5    1    4    4    0  501 -0.59468269596E+02  0.31728818580E+02 -0.57488810604E+02  0.88688380084E+02  0.41800000000E+01 0.  1.
</event>
<event>
11    1  0.7105277E-009  0.1908204E+03  0.7561462E-02  0.1061212E+00
         22   -1    0    0    0    0  0.00000000000E+00  0.00000000000E+00  0.16255506674E+04  0.16255506674E+04  0.00000000000E+00 0.  1.
         22   -1    0    0    0    0 -0.00000000000E+00 -0.00000000000E+00 -0.71110150289E+03  0.71110150289E+03  0.00000000000E+00 0.  1.
         24    2    1    2    0    0 -0.14608286207E+03  0.14986508526E+02 -0.63046974057E+03  0.65202960769E+03  0.78011008869E+02 0.  0.
         25    2    1    2    0    0  0.10775540520E+03 -0.64807286186E+02  0.47308742869E+02  0.18356742851E+03  0.12509065498E+03 0.  0.
        -24    2    1    2    0    0  0.38327456863E+02  0.49820777660E+02  0.14976101622E+04  0.15010551341E+04  0.79869980335E+02 0.  0.
        -11    1    3    3    0    0 -0.14590177503E+03 -0.39633263406E+01 -0.58104639905E+03  0.59909761622E+03  0.00000000000E+00 0.  1.
         12    1    3    3    0    0 -0.18108703343E+00  0.18949834866E+02 -0.49423341521E+02  0.52931991471E+02  0.00000000000E+00 0. -1.
         11    1    5    5    0    0  0.41322521401E+02  0.67972980112E+01  0.32970357794E+03  0.33235252871E+03  0.00000000000E+00 0. -1.
        -12    1    5    5    0    0 -0.29950645386E+01  0.43023479649E+02  0.11679065843E+04  0.11687026054E+04  0.00000000000E+00 0.  1.
          5    1    4    4  501    0  0.73079279549E+02 -0.26057450560E+02  0.88010306895E+02  0.11740041886E+03  0.41800000000E+01 0. -1.
         -5    1    4    4    0  501  0.34676125655E+02 -0.38749835626E+02 -0.40701564026E+02  0.66167009647E+02  0.41800000000E+01 0. -1.
</event>
<event>
11    1  0.7105277E-009  0.1476477E+03  0.7561462E-02  0.1099307E+00
         22   -1    0    0    0    0  0.00000000000E+00  0.00000000000E+00  0.44903793174E+02  0.44903793174E+02  0.00000000000E+00 0.  1.
         22   -1    0    0    0    0 -0.00000000000E+00 -0.00000000000E+00 -0.14794280233E+04  0.14794280233E+04  0.00000000000E+00 0.  1.
         24    2    1    2    0    0  0.49888444978E+02 -0.54997043551E+02 -0.10067988223E+04  0.10127073943E+04  0.80117826125E+02 0.  0.
         25    2    1    2    0    0 -0.60139898950E+02  0.82250738790E+02 -0.38413585551E+03  0.41664155369E+03  0.12509131583E+03 0.  0.
        -24    2    1    2    0    0  0.10251453973E+02 -0.27253695239E+02 -0.43589552309E+02  0.94982868516E+02  0.79207575574E+02 0.  0.
        -13    1    3    3    0    0  0.60563465494E+02 -0.45516011176E+02 -0.97392230046E+03  0.97686451873E+03  0.00000000000E+00 0.  1.
         14    1    3    3    0    0 -0.10675020516E+02 -0.94810323753E+01 -0.32876521866E+02  0.35842875553E+02  0.00000000000E+00 0. -1.
         11    1    5    5    0    0  0.92645307678E+01  0.27657700640E+02 -0.18988888918E+02  0.34804566330E+02  0.00000000000E+00 0. -1.
        -12    1    5    5    0    0  0.98692320484E+00 -0.54911395879E+02 -0.24600663391E+02  0.60178302187E+02  0.00000000000E+00 0.  1.
          5    1    4    4  501    0 -0.85178107976E+02  0.69983405434E+02 -0.18406155760E+03  0.21459057878E+03  0.41800000000E+01 0. -1.
         -5    1    4    4    0  501  0.25038209025E+02  0.12267333356E+02 -0.20007429791E+03  0.20205097491E+03  0.41800000000E+01 0. -1.
</event>
<event>
11    1  0.7105277E-009  0.1495821E+03  0.7561462E-02  0.1097307E+00
         22   -1    0    0    0    0  0.00000000000E+00  0.00000000000E+00  0.14703414662E+04  0.14703414662E+04  0.00000000000E+00 0. -1.
         22   -1    0    0    0    0 -0.00000000000E+00 -0.00000000000E+00 -0.38276297026E+02  0.38276297026E+02  0.00000000000E+00 0. -1.
         24    2    1    2    0    0 -0.83839571408E+02  0.63600183794E+02  0.43815463442E+03  0.45823148496E+03  0.83201881221E+02 0.  0.
         25    2    1    2    0    0 -0.38928865789E+02 -0.71724072160E+02  0.24275070930E+03  0.28501711162E+03  0.12508816065E+03 0.  0.
        -24    2    1    2    0    0  0.12276843720E+03  0.81238883655E+01  0.75115982542E+03  0.76536916660E+03  0.80067416102E+02 0.  0.
        -13    1    3    3    0    0 -0.33743134617E+02 -0.48587301988E+01  0.24377546647E+03  0.24614768828E+03  0.00000000000E+00 0.  1.
         14    1    3    3    0    0 -0.50096436791E+02  0.68458913993E+02  0.19437916795E+03  0.21208379669E+03  0.00000000000E+00 0. -1.
         13    1    5    5    0    0  0.33362639856E+02 -0.14400838549E+02  0.79504876369E+02  0.87415532118E+02  0.00000000000E+00 0. -1.
        -14    1    5    5    0    0  0.89405797341E+02  0.22524726914E+02  0.67165494905E+03  0.67795363448E+03  0.00000000000E+00 0.  1.
          5    1    4    4  501    0 -0.62306409868E+02 -0.51524608145E+01  0.51445785291E+02  0.81072669792E+02  0.41800000000E+01 0.  1.
         -5    1    4    4    0  501  0.23377544079E+02 -0.66571611345E+02  0.19130492400E+03  0.20394444183E+03  0.41800000000E+01 0.  1.
</event>
<event>
11    1  0.7105277E-009  0.1669387E+03  0.7561462E-02  0.1080727E+00
         22   -1    0    0    0    0  0.00000000000E+00  0.00000000000E+00  0.16869739917E+04  0.16869739917E+04  0.00000000000E+00 0. -1.
         22   -1    0    0    0    0 -0.00000000000E+00 -0.00000000000E+00 -0.47175398409E+03  0.47175398409E+03  0.00000000000E+00 0.  1.
         24    2    1    2    0    0  0.75266213726E+02  0.51261672853E+02 -0.44095209850E+03  0.45737676710E+03  0.80386515538E+02 0.  0.
         25    2    1    2    0    0 -0.27956925526E+02 -0.14759808594E+03  0.49023804296E+03  0.52777500266E+03  0.12508529094E+03 0.  0.
        -24    2    1    2    0    0 -0.47309288200E+02  0.96336413089E+02  0.11659340631E+04  0.11735762060E+04  0.79749598968E+02 0.  0.
        -13    1    3    3    0    0  0.69538209288E+02  0.63043654158E+02 -0.26860429047E+03  0.28453177281E+03  0.00000000000E+00 0.  1.
         14    1    3    3    0    0  0.57280044380E+01 -0.11781981305E+02 -0.17234780803E+03  0.17284499429E+03  0.00000000000E+00 0. -1.
         13    1    5    5    0    0  0.70917191196E+01  0.72828303383E+02  0.56259532628E+03  0.56733390116E+03  0.00000000000E+00 0. -1.
        -14    1    5    5    0    0 -0.54401007320E+02  0.23508109706E+02  0.60333873684E+03  0.60624230485E+03  0.00000000000E+00 0.  1.
          5    1    4    4  501    0 -0.30296457616E+02 -0.16992015851E+03  0.43245165626E+03  0.46564218346E+03  0.41800000000E+01 0. -1.
         -5    1    4    4    0  501  0.23395320901E+01  0.22322072570E+02  0.57786386694E+02  0.62132819197E+02  0.41800000000E+01 0. -1.
</event>
<event>
11    1  0.7105277E-009  0.1756112E+03  0.7561462E-02  0.1073249E+00
         22   -1    0    0    0    0  0.00000000000E+00  0.00000000000E+00  0.76587471633E+03  0.76587471633E+03  0.00000000000E+00 0. -1.
         22   -1    0    0    0    0 -0.00000000000E+00 -0.00000000000E+00 -0.46659212549E+03  0.46659212549E+03  0.00000000000E+00 0. -1.
         24    2    1    2    0    0 -0.10384328135E+03  0.67762952801E+02 -0.41872774629E+03  0.44357266284E+03  0.77772339916E+02 0.  0.
         25    2    1    2    0    0  0.10432195395E+03 -0.41170215798E+02  0.19078826295E+03  0.25421568166E+03  0.12508954703E+03 0.  0.
        -24    2    1    2    0    0 -0.47867260017E+00 -0.26592737003E+02  0.52722207417E+03  0.53467849733E+03  0.84915117735E+02 0.  0.
        -11    1    3    3    0    0 -0.92908489907E+02  0.51371303537E+02 -0.22437876321E+03  0.24822737098E+03  0.00000000000E+00 0.  1.
         12    1    3    3    0    0 -0.10934791445E+02  0.16391649264E+02 -0.19434898308E+03  0.19534529187E+03  0.00000000000E+00 0. -1.
         11    1    5    5    0    0  0.28144909126E+02 -0.16039332629E+02  0.45661525283E+03  0.45776291376E+03  0.00000000000E+00 0. -1.
        -12    1    5    5    0    0 -0.28623581726E+02 -0.10553404374E+02  0.70606821345E+02  0.76915583565E+02  0.00000000000E+00 0.  1.
          5    1    4    4  501    0  0.70402972411E+01  0.37711208833E+02  0.71260362933E+02  0.81038341434E+02  0.41800000000E+01 0. -1.
         -5    1    4    4    0  501  0.97281656711E+02 -0.78881424632E+02  0.11952790002E+03  0.17317734022E+03  0.41800000000E+01 0. -1.
</event>
<event>
11    1  0.7105277E-009  0.1721838E+03  0.7561462E-02  0.1076147E+00
         22   -1    0    0    0    0  0.00000000000E+00  0.00000000000E+00  0.16483621042E+04  0.16483621042E+04  0.00000000000E+00 0.  1.
         22   -1    0    0    0    0 -0.00000000000E+00 -0.00000000000E+00 -0.96088654902E+03  0.96088654902E+03  0.00000000000E+00 0.  1.
         24    2    1    2    0    0 -0.57163857483E+02  0.10511594667E+03 -0.89102533555E+03  0.90286298970E+03  0.83176683809E+02 0.  0.
         25    2    1    2    0    0  0.22068366922E+02 -0.96667613049E+02  0.38946038951E+02  0.16429628610E+03  0.12507931661E+03 0.  0.
        -24    2    1    2    0    0  0.35095490561E+02 -0.84483336238E+01  0.15395548518E+04  0.15420893774E+04  0.80668696198E+02 0.  0.
        -13    1    3    3    0    0 -0.61034959333E+02  0.11550287052E+03 -0.86105025968E+03  0.87090397235E+03  0.00000000000E+00 0.  1.
         14    1    3    3    0    0  0.38711018501E+01 -0.10386923847E+02 -0.29975075866E+02  0.31959017346E+02  0.00000000000E+00 0. -1.
         11    1    5    5    0    0  0.49037634761E+02  0.94177149436E+01  0.54663208507E+03  0.54890802455E+03  0.00000000000E+00 0. -1.
        -12    1    5    5    0    0 -0.13942144200E+02 -0.17866048567E+02  0.99292276670E+03  0.99318135288E+03  0.00000000000E+00 0.  1.
          5    1    4    4  501    0  0.35030479195E+02 -0.12399399297E+03  0.34413593065E+02  0.13342942911E+03  0.41800000000E+01 0.  1.
         -5    1    4    4    0  501 -0.12962112273E+02  0.27326379925E+02  0.45324458854E+01  0.30866856984E+02  0.41800000000E+01 0.  1.
</event>
<event>
11    1  0.7105277E-009  0.1581549E+03  0.7561462E-02  0.1088826E+00
         22   -1    0    0    0    0  0.00000000000E+00  0.00000000000E+00  0.19092877292E+04  0.19092877292E+04  0.00000000000E+00 0.  1.
         22   -1    0    0    0    0 -0.00000000000E+00 -0.00000000000E+00 -0.44916052648E+03  0.44916052648E+03  0.00000000000E+00 0. -1.
         24    2    1    2    0    0 -0.36788933344E+02  0.11384084727E+02 -0.30614957977E+03  0.32224109758E+03  0.92890994016E+02 0.  0.
         25    2    1    2    0    0  0.62721837450E+02 -0.10425277770E+03 -0.75496409601E+02  0.19014181469E+03  0.12510608012E+03 0.  0.
        -24    2    1    2    0    0 -0.25932904106E+02  0.92868692970E+02  0.18417731921E+04  0.18460653434E+04  0.80818632692E+02 0.  0.
        -13    1    3    3    0    0  0.18912906170E+02 -0.22160361166E+02 -0.49079335594E+02  0.57075045416E+02  0.00000000000E+00 0.  1.
         14    1    3    3    0    0 -0.55701839514E+02  0.33544445893E+02 -0.25707024418E+03  0.26516605216E+03  0.00000000000E+00 0. -1.
         13    1    5    5    0    0  0.10896294242E+02  0.61311698006E+01  0.78487979753E+03  0.78497937364E+03  0.00000000000E+00 0. -1.
        -14    1    5    5    0    0 -0.36829198348E+02  0.86737523170E+02  0.10568933946E+04  0.10610859698E+04  0.00000000000E+00 0.  1.
          5    1    4    4  501    0 -0.11816878144E+02 -0.49914772337E+02 -0.82827768912E+02  0.97514280029E+02  0.41800000000E+01 0.  1.
         -5    1    4    4    0  501  0.74538715594E+02 -0.54338005360E+02  0.73313593115E+01  0.92627534666E+02  0.41800000000E+01 0.  1.
</event>
<event>
11    1  0.7105277E-009  0.1410465E+03  0.7561462E-02  0.1106395E+00
         22   -1    0    0    0    0  0.00000000000E+00  0.00000000000E+00  0.29423472193E+04  0.29423472193E+04  0.00000000000E+00 0. -1.
         22   -1    0    0    0    0 -0.00000000000E+00 -0.00000000000E+00 -0.18538060315E+03  0.18538060315E+03  0.00000000000E+00 0. -1.
        -24    2    1    2    0    0 -0.15234041319E+02  0.61743722578E+02 -0.14478743537E+03  0.17757902612E+03  0.80787039718E+02 0.  0.
         25    2    1    2    0    0  0.36503097636E+02 -0.82917156690E+02  0.22996022730E+03  0.27701559598E+03  0.12509277865E+03 0.  0.
         24    2    1    2    0    0 -0.21269056318E+02  0.21173434112E+02  0.26717938242E+04  0.26731332003E+04  0.79108662800E+02 0.  0.
        -11    1    5    5    0    0  0.19596705044E+02  0.35570535772E+02  0.11254542729E+04  0.11261867582E+04  0.00000000000E+00 0.  1.
         12    1    5    5    0    0 -0.40865761362E+02 -0.14397101659E+02  0.15463395513E+04  0.15469464422E+04  0.00000000000E+00 0. -1.
         11    1    3    3    0    0  0.56134757785E+01  0.66963092900E+02 -0.14038890384E+03  0.15564257529E+03  0.00000000000E+00 0. -1.
        -12    1    3    3    0    0 -0.20847517097E+02 -0.52193703222E+01 -0.43985315269E+01  0.21936450836E+02  0.00000000000E+00 0.  1.
          5    1    4    4  501    0 -0.43157173803E+01 -0.66481173569E+02  0.22236243664E+03  0.23216566819E+03  0.41800000000E+01 0. -1.
         -5    1    4    4    0  501  0.40818815016E+02 -0.16435983121E+02  0.75977906539E+01  0.44849927796E+02  0.41800000000E+01 0. -1.
</event>
<event>
11    1  0.7105277E-009  0.1334764E+03  0.7561462E-02  0.1115070E+00
         22   -1    0    0    0    0  0.00000000000E+00  0.00000000000E+00  0.41214908290E+03  0.41214908290E+03  0.00000000000E+00 0.  1.
         22   -1    0    0    0    0 -0.00000000000E+00 -0.00000000000E+00 -0.59450633364E+03  0.59450633364E+03  0.00000000000E+00 0.  1.
         24    2    1    2    0    0 -0.34537443291E+02 -0.24287197411E+02 -0.38508975644E+03  0.39577471475E+03  0.80998773928E+02 0.  0.
         25    2    1    2    0    0  0.63959161534E+02  0.25412519507E+02 -0.17352800900E+03  0.22471205780E+03  0.12508784322E+03 0.  0.
        -24    2    1    2    0    0 -0.29421718243E+02 -0.11253220961E+01  0.37626051470E+03  0.38616864397E+03  0.81776175101E+02 0.  0.
        -13    1    3    3    0    0  0.12422974131E+02 -0.80318953357E+01 -0.27011930009E+03  0.27052408009E+03  0.00000000000E+00 0.  1.
         14    1    3    3    0    0 -0.46960417422E+02 -0.16255302075E+02 -0.11497045634E+03  0.12525063466E+03  0.00000000000E+00 0. -1.
         11    1    5    5    0    0 -0.53907591675E+02 -0.16104910686E+02  0.20788043785E+03  0.21535940432E+03  0.00000000000E+00 0. -1.
        -12    1    5    5    0    0  0.24485873432E+02  0.14979588590E+02  0.16838007684E+03  0.17080923965E+03  0.00000000000E+00 0.  1.
          5    1    4    4  501    0  0.72514802591E+02  0.67256880159E+02 -0.10927919539E+03  0.14744931153E+03  0.41800000000E+01 0.  1.
         -5    1    4    4    0  501 -0.85556410577E+01 -0.41844360652E+02 -0.64248813610E+02  0.77262746279E+02  0.41800000000E+01 0.  1.
</event>
<event>
11    1  0.7105277E-009  0.2058605E+03  0.7561462E-02  0.1050455E+00
         22   -1    0    0    0    0  0.00000000000E+00  0.00000000000E+00  0.80781981528E+03  0.80781981528E+03  0.00000000000E+00 0.  1.
         22   -1    0    0    0    0 -0.00000000000E+00 -0.00000000000E+00 -0.23362770016E+03  0.23362770016E+03  0.00000000000E+00 0.  1.
         24    2    1    2    0    0  0.55748578221E+02 -0.16516338477E+02 -0.12327094367E+03  0.15826257816E+03  0.80440193196E+02 0.  0.
         25    2    1    2    0    0 -0.11252813679E+03 -0.13600982936E+03  0.66058658375E+02  0.22621546136E+03  0.12509369832E+03 0.  0.
        -24    2    1    2    0    0  0.56779558570E+02  0.15252616784E+03  0.63140440042E+03  0.65696947592E+03  0.80307068691E+02 0.  0.
        -13    1    3    3    0    0  0.76121658541E+02 -0.63890308228E+01 -0.98084057657E+02  0.12432139390E+03  0.00000000000E+00 0.  1.
         14    1    3    3    0    0 -0.20373080320E+02 -0.10127307654E+02 -0.25186886014E+02  0.33941184262E+02  0.00000000000E+00 0. -1.
         11    1    5    5    0    0  0.11290075204E+02  0.23999115276E+02  0.28873982659E+02  0.39206252138E+02  0.00000000000E+00 0. -1.
        -12    1    5    5    0    0  0.45489483366E+02  0.12852705256E+03  0.60253041776E+03  0.61776322379E+03  0.00000000000E+00 0.  1.
          5    1    4    4  501    0 -0.54387790912E+02  0.13089596222E+02  0.21097165086E+02  0.59932729825E+02  0.41800000000E+01 0.  1.
         -5    1    4    4    0  501 -0.58140345879E+02 -0.14909942558E+03  0.44961493289E+02  0.16628273154E+03  0.41800000000E+01 0.  1.
</event>
<event>
11    1  0.7105277E-009  0.1480941E+03  0.7561462E-02  0.1098842E+00
         22   -1    0    0    0    0  0.00000000000E+00  0.00000000000E+00  0.39335253596E+03  0.39335253596E+03  0.00000000000E+00 0.  1.
         22   -1    0    0    0    0 -0.00000000000E+00 -0.00000000000E+00 -0.29600595650E+03  0.29600595650E+03  0.00000000000E+00 0.  1.
        -24    2    1    2    0    0  0.35482375973E+02  0.34108824150E+02 -0.21366238588E+03  0.23374944440E+03  0.81023309780E+02 0.  0.
         25    2    1    2    0    0 -0.10926932854E+03 -0.26841239841E+02  0.54521513906E+02  0.17686214258E+03  0.12508950270E+03 0.  0.
         24    2    1    2    0    0  0.73786952564E+02 -0.72675843090E+01  0.25648745143E+03  0.27874690549E+03  0.80104259742E+02 0.  0.
        -11    1    5    5    0    0  0.57293323042E+02  0.28746275427E+02  0.19792532027E+03  0.20804640256E+03  0.00000000000E+00 0.  1.
         12    1    5    5    0    0  0.16493629522E+02 -0.36013859736E+02  0.58562131158E+02  0.70700502924E+02  0.00000000000E+00 0. -1.
         13    1    3    3    0    0 -0.25660568486E+02  0.16926599667E+02 -0.58329721370E+02  0.65934292643E+02  0.00000000000E+00 0. -1.
        -14    1    3    3    0    0  0.61142944458E+02  0.17182224483E+02 -0.15533266451E+03  0.16781515175E+03  0.00000000000E+00 0.  1.
          5    1    4    4  501    0 -0.12734814787E+03 -0.61118984737E+01  0.69497484911E+02  0.14526623447E+03  0.41800000000E+01 0. -1.
         -5    1    4    4    0  501  0.18078819330E+02 -0.20729341367E+02 -0.14975971005E+02  0.31595908112E+02  0.41800000000E+01 0. -1.
</event>
<event>
11    1  0.7105277E-009  0.1479157E+03  0.7561462E-02  0.1099028E+00
         22   -1    0    0    0    0  0.00000000000E+00  0.00000000000E+00  0.57490328851E+03  0.57490328851E+03  0.00000000000E+00 0. -1.
         22   -1    0    0    0    0 -0.00000000000E+00 -0.00000000000E+00 -0.15408632620E+04  0.15408632620E+04  0.00000000000E+00 0. -1.
        -24    2    1    2    0    0  0.65756664151E+02  0.10991072957E+02 -0.12667645989E+04  0.12705679254E+04  0.72149576518E+02 0.  0.
         25    2    1    2    0    0 -0.79833041466E+02 -0.88202752844E+02 -0.23848818391E+03  0.29440101455E+03  0.12506919439E+03 0.  0.
         24    2    1    2    0    0  0.14076377315E+02  0.77211679887E+02  0.53929280933E+03  0.55079761058E+03  0.79884201907E+02 0.  0.
        -13    1    5    5    0    0 -0.97853837285E+01  0.24683199434E+01  0.59515317400E+01  0.11716102940E+02  0.00000000000E+00 0.  1.
         14    1    5    5    0    0  0.23861761044E+02  0.74743359943E+02  0.53334127759E+03  0.53908150764E+03  0.00000000000E+00 0. -1.
         13    1    3    3    0    0  0.80061436922E+02 -0.99271586499E-02 -0.10074877601E+04  0.10106638514E+04  0.00000000000E+00 0. -1.
        -14    1    3    3    0    0 -0.14304772771E+02  0.11001000115E+02 -0.25927683882E+03  0.25990407399E+03  0.00000000000E+00 0.  1.
          5    1    4    4  501    0  0.83067026063E+01 -0.72917703160E+02 -0.60694068508E+02  0.95326990377E+02  0.41800000000E+01 0.  1.
         -5    1    4    4    0  501 -0.88139744072E+02 -0.15285049684E+02 -0.17779411541E+03  0.19907402418E+03  0.41800000000E+01 0.  1.
</event>
<event>
11    1  0.7105277E-009  0.1478116E+03  0.7561462E-02  0.1099136E+00
         22   -1    0    0    0    0  0.00000000000E+00  0.00000000000E+00  0.24118999074E+04  0.24118999074E+04  0.00000000000E+00 0. -1.
         22   -1    0    0    0    0 -0.00000000000E+00 -0.00000000000E+00 -0.41705407919E+03  0.41705407919E+03  0.00000000000E+00 0. -1.
        -24    2    1    2    0    0  0.33640737420E+01 -0.22568003872E+02 -0.39155264573E+03  0.40053449176E+03  0.81202049940E+02 0.  0.
         25    2    1    2    0    0  0.71912553760E+02  0.44874545708E+02  0.27246144472E+03  0.31155596111E+03  0.12508692100E+03 0.  0.
         24    2    1    2    0    0 -0.75276627502E+02 -0.22306541836E+02  0.21139370292E+04  0.21168635337E+04  0.78849885068E+02 0.  0.
        -11    1    5    5    0    0 -0.34547393985E+02  0.17583237571E+02  0.37626612581E+03  0.37825770330E+03  0.00000000000E+00 0.  1.
         12    1    5    5    0    0 -0.40729233516E+02 -0.39889779407E+02  0.17376709034E+04  0.17386058304E+04  0.00000000000E+00 0. -1.
         13    1    3    3    0    0  0.19641798399E+02 -0.10746758882E+02 -0.37134850070E+03  0.37202285151E+03  0.00000000000E+00 0. -1.
        -14    1    3    3    0    0 -0.16277724657E+02 -0.11821244991E+02 -0.20204145031E+02  0.28511640247E+02  0.00000000000E+00 0.  1.
          5    1    4    4  501    0 -0.46095115566E+01 -0.28590216624E+02  0.14607375237E+02  0.32703148085E+02  0.41800000000E+01 0. -1.
         -5    1    4    4    0  501  0.76522065316E+02  0.73464762332E+02  0.25785406948E+03  0.27885281302E+03  0.41800000000E+01 0. -1.
</event>
<event>
11    1  0.7105277E-009  0.1343449E+03  0.7561462E-02  0.1114043E+00
         22   -1    0    0    0    0  0.00000000000E+00  0.00000000000E+00  0.27106014977E+03  0.27106014977E+03  0.00000000000E+00 0.  1.
         22   -1    0    0    0    0 -0.00000000000E+00 -0.00000000000E+00 -0.29050340262E+03  0.29050340262E+03  0.00000000000E+00 0.  1.
        -24    2    1    2    0    0  0.48169039096E+02  0.68387782685E+01 -0.23265662919E+03  0.25231977054E+03  0.84670740412E+02 0.  0.
         25    2    1    2    0    0 -0.52547957416E+02 -0.19051267226E+02  0.95612585690E+02  0.16705001332E+03  0.12505879336E+03 0.  0.
         24    2    1    2    0    0  0.43789183193E+01  0.12212488958E+02  0.11760079065E+03  0.14219376853E+03  0.78872061181E+02 0.  0.
        -13    1    5    5    0    0  0.35891241250E+02 -0.12169931777E+02  0.73931228615E+02  0.83078968473E+02  0.00000000000E+00 0.  1.
         14    1    5    5    0    0 -0.31512322931E+02  0.24382420735E+02  0.43669562033E+02  0.59114800055E+02  0.00000000000E+00 0. -1.
         13    1    3    3    0    0 -0.14516338260E+02  0.15421971083E+02 -0.15804889534E+02  0.26426422416E+02  0.00000000000E+00 0. -1.
        -14    1    3    3    0    0  0.62685377356E+02 -0.85831928140E+01 -0.21685173966E+03  0.22589334812E+03  0.00000000000E+00 0.  1.
          5    1    4    4  501    0 -0.21395515789E+02  0.89521198007E+01  0.11733561696E+03  0.11967885340E+03  0.41800000000E+01 0. -1.
         -5    1    4    4    0  501 -0.31152441627E+02 -0.28003387027E+02 -0.21723031268E+02  0.47371159916E+02  0.41800000000E+01 0. -1.
</event>
<event>
11    1  0.7105277E-009  0.1472501E+03  0.7561462E-02  0.1099722E+00
         22   -1    0    0    0    0  0.00000000000E+00  0.00000000000E+00  0.78713083943E+03  0.78713083943E+03  0.00000000000E+00 0. -1.
         22   -1    0    0    0    0 -0.00000000000E+00 -0.00000000000E+00 -0.48815825588E+03  0.48815825588E+03  0.00000000000E+00 0.  1.
         24    2    1    2    0    0 -0.58643614020E+02  0.25364977083E+02 -0.43678404552E+03  0.44867657372E+03  0.80298878327E+02 0.  0.
         25    2    1    2    0    0  0.44898658691E+02 -0.99862144847E+02  0.13105184364E+03  0.21168680196E+03  0.12509348055E+03 0.  0.
        -24    2    1    2    0    0  0.13744955328E+02  0.74497167764E+02  0.60470478543E+03  0.61492571962E+03  0.82018359694E+02 0.  0.
        -13    1    3    3    0    0 -0.73531233539E+02  0.36393588688E+02 -0.38587888272E+03  0.39450455983E+03  0.00000000000E+00 0.  1.
         14    1    3    3    0    0  0.14887619519E+02 -0.11028611605E+02 -0.50905162801E+02  0.54172013888E+02  0.00000000000E+00 0. -1.
         11    1    5    5    0    0 -0.10695060842E+02  0.61585139707E+02  0.55091302634E+03  0.55444772193E+03  0.00000000000E+00 0. -1.
        -12    1    5    5    0    0  0.24440016171E+02  0.12912028057E+02  0.53791759089E+02  0.60477997692E+02  0.00000000000E+00 0.  1.
          5    1    4    4  501    0  0.73339614778E+01 -0.53016012510E+02  0.14082097591E+03  0.15070668276E+03  0.41800000000E+01 0.  1.
         -5    1    4    4    0  501  0.37564697214E+02 -0.46846132337E+02 -0.97691322718E+01  0.60980119195E+02  0.41800000000E+01 0.  1.
</event>
<event>
11    1  0.7105277E-009  0.2489051E+03  0.7561462E-02  0.1024484E+00
         22   -1    0    0    0    0  0.00000000000E+00  0.00000000000E+00  0.11922705515E+04  0.11922705515E+04  0.00000000000E+00 0.  1.
         22   -1    0    0    0    0 -0.00000000000E+00 -0.00000000000E+00 -0.28334153970E+03  0.28334153970E+03  0.00000000000E+00 0. -1.
        -24    2    1    2    0    0 -0.47213338613E+01  0.21988186743E+02 -0.18897800389E+03  0.20653102881E+03  0.80228477235E+02 0.  0.
         25    2    1    2    0    0  0.12948320879E+03 -0.19329395124E+03  0.17021797108E+03  0.31424661556E+03  0.12509326429E+03 0.  0.
         24    2    1    2    0    0 -0.12476187493E+03  0.17130576450E+03  0.92768904458E+03  0.95483444679E+03  0.78680791570E+02 0.  0.
        -13    1    5    5    0    0 -0.45670457565E+02  0.77028647840E+02  0.55959292611E+03  0.56671284283E+03  0.00000000000E+00 0.  1.
         14    1    5    5    0    0 -0.79091417361E+02  0.94277116657E+02  0.36809611847E+03  0.38812160396E+03  0.00000000000E+00 0. -1.
         11    1    3    3    0    0 -0.25957589401E+02  0.41487123694E+02 -0.15174239155E+03  0.15943880103E+03  0.00000000000E+00 0. -1.
        -12    1    3    3    0    0  0.21236255539E+02 -0.19498936951E+02 -0.37235612335E+02  0.47092227782E+02  0.00000000000E+00 0.  1.
          5    1    4    4  501    0  0.93547522690E+02 -0.45165712765E+02  0.10696797179E+03  0.14916668529E+03  0.41800000000E+01 0. -1.
         -5    1    4    4    0  501  0.35935686098E+02 -0.14812823848E+03  0.63249999283E+02  0.16507993027E+03  0.41800000000E+01 0. -1.
</event>
<event>
11    1  0.7105277E-009  0.1641700E+03  0.7561462E-02  0.1083220E+00
         22   -1    0    0    0    0  0.00000000000E+00  0.00000000000E+00  0.23761079904E+04  0.23761079904E+04  0.00000000000E+00 0.  1.
         22   -1    0    0    0    0 -0.00000000000E+00 -0.00000000000E+00 -0.37207077754E+03  0.37207077754E+03  0.00000000000E+00 0. -1.
         24    2    1    2    0    0  0.43290514767E+02  0.98418971512E+02 -0.34933977652E+03  0.37401495010E+03  0.79300320438E+02 0.  0.
         25    2    1    2    0    0 -0.47572403925E+02 -0.38038017465E+02  0.52890513134E+03  0.54689890861E+03  0.12509098243E+03 0.  0.
        -24    2    1    2    0    0  0.42818891579E+01 -0.60380954047E+02  0.18244718580E+04  0.18272649092E+04  0.80841162702E+02 0.  0.
        -13    1    3    3    0    0  0.38469748160E+02  0.57360919055E+02 -0.10161829776E+03  0.12286771340E+03  0.00000000000E+00 0.  1.
         14    1    3    3    0    0  0.48207666070E+01  0.41058052458E+02 -0.24772147876E+03  0.25114723670E+03  0.00000000000E+00 0. -1.
         11    1    5    5    0    0  0.23502404209E+02 -0.66727199095E+02  0.97986424714E+03  0.98241479270E+03  0.00000000000E+00 0. -1.
        -12    1    5    5    0    0 -0.19220515052E+02  0.63462450481E+01  0.84460761085E+03  0.84485011649E+03  0.00000000000E+00 0.  1.
          5    1    4    4  501    0  0.16542270174E+02 -0.43188888112E+02  0.40090560996E+03  0.40358605929E+03  0.41800000000E+01 0.  1.
         -5    1    4    4    0  501 -0.64114674100E+02  0.51508706471E+01  0.12799952138E+03  0.14331284931E+03  0.41800000000E+01 0.  1.
</event>
<event>
11    1  0.7105277E-009  0.1354873E+03  0.7561462E-02  0.1112705E+00
         22   -1    0    0    0    0  0.00000000000E+00  0.00000000000E+00  0.38511424085E+03  0.38511424085E+03  0.00000000000E+00 0. -1.
         22   -1    0    0    0    0 -0.00000000000E+00 -0.00000000000E+00 -0.40639511820E+03  0.40639511820E+03  0.00000000000E+00 0. -1.
        -24    2    1    2    0    0  0.64623894405E+01  0.52028122302E+02 -0.36836249236E+03  0.38061069250E+03  0.80155383339E+02 0.  0.
         25    2    1    2    0    0 -0.18542630650E+02 -0.38202744033E+02  0.16830068419E+03  0.21395332495E+03  0.12509047187E+03 0.  0.
         24    2    1    2    0    0  0.12080241209E+02 -0.13825378268E+02  0.17878093082E+03  0.19694534161E+03  0.80546713440E+02 0.  0.
        -11    1    5    5    0    0  0.29845535644E+02 -0.33886834781E+02  0.59518965409E+02  0.74709978000E+02  0.00000000000E+00 0.  1.
         12    1    5    5    0    0 -0.17765294435E+02  0.20061456513E+02  0.11926196541E+03  0.12223536361E+03  0.00000000000E+00 0. -1.
         13    1    3    3    0    0 -0.12880626867E+02  0.68697047468E+02 -0.25476239894E+03  0.26417621921E+03  0.00000000000E+00 0. -1.
        -14    1    3    3    0    0  0.19343016307E+02 -0.16668925167E+02 -0.11360009342E+03  0.11643447329E+03  0.00000000000E+00 0.  1.
          5    1    4    4  501    0  0.17301170828E+02 -0.72756427107E+02  0.13346277330E+03  0.15304447868E+03  0.41800000000E+01 0.  1.
         -5    1    4    4    0  501 -0.35843801478E+02  0.34553683074E+02  0.34837910893E+02  0.60908846268E+02  0.41800000000E+01 0.  1.
</event>
<event>
11    1  0.7105277E-009  0.1868488E+03  0.7561462E-02  0.1064234E+00
         22   -1    0    0    0    0  0.00000000000E+00  0.00000000000E+00  0.11428245213E+04  0.11428245213E+04  0.00000000000E+00 0. -1.
         22   -1    0    0    0    0 -0.00000000000E+00 -0.00000000000E+00 -0.92874059361E+02  0.92874059361E+02  0.00000000000E+00 0. -1.
        -24    2    1    2    0    0  0.39190775339E+02 -0.58347606109E+02 -0.15362344440E+02  0.10803183695E+03  0.80588560964E+02 0.  0.
         25    2    1    2    0    0 -0.64222049319E+02 -0.93919933471E+02  0.31566879930E+03  0.35810354096E+03  0.12508369069E+03 0.  0.
         24    2    1    2    0    0  0.25031273980E+02  0.15226753958E+03  0.74964400706E+03  0.76956320273E+03  0.80308264744E+02 0.  0.
        -13    1    5    5    0    0 -0.25194603768E+02  0.90785016800E+02  0.43108115097E+03  0.44125689349E+03  0.00000000000E+00 0.  1.
         14    1    5    5    0    0  0.50225877749E+02  0.61482522780E+02  0.31856285610E+03  0.32830630924E+03  0.00000000000E+00 0. -1.
         11    1    3    3    0    0  0.39390139053E+02 -0.67182499517E+02 -0.35839279145E+02  0.85729372013E+02  0.00000000000E+00 0. -1.
        -12    1    3    3    0    0 -0.19936371412E+00  0.88348934086E+01  0.20476934705E+02  0.22302464939E+02  0.00000000000E+00 0.  1.
          5    1    4    4  501    0  0.35432482380E+02 -0.63837926336E+01  0.61921437405E+02  0.71749218994E+02  0.41800000000E+01 0.  1.
         -5    1    4    4    0  501 -0.99654531699E+02 -0.87536140838E+02  0.25374736189E+03  0.28635432196E+03  0.41800000000E+01 0.  1.
</event>
<event>
11    1  0.7105277E-009  0.3020620E+03  0.7561462E-02  0.9993223E-01
         22   -1    0    0    0    0  0.00000000000E+00  0.00000000000E+00  0.11007758948E+04  0.11007758948E+04  0.00000000000E+00 0.  1.
         22   -1    0    0    0    0 -0.00000000000E+00 -0.00000000000E+00 -0.18553615374E+03  0.18553615374E+03  0.00000000000E+00 0. -1.
         24    2    1    2    0    0  0.20666465474E+02 -0.80271399793E+02 -0.59866195540E+02  0.13061043329E+03  0.81268219468E+02 0.  0.
         25    2    1    2    0    0 -0.26163113553E+03 -0.75626293557E+02  0.64077657657E+03  0.70739768781E+03  0.12508669107E+03 0.  0.
        -24    2    1    2    0    0  0.24096467006E+03  0.15589769335E+03  0.33432936001E+03  0.44830392741E+03  0.82657288644E+02 0.  0.
        -13    1    3    3    0    0 -0.19301713443E+02  0.39909670381E+01  0.14371113268E+00  0.19710520354E+02  0.00000000000E+00 0.  1.
         14    1    3    3    0    0  0.39968178917E+02 -0.84262366831E+02 -0.60009906672E+02  0.11089991293E+03  0.00000000000E+00 0. -1.
         11    1    5    5    0    0  0.50279158680E+02  0.74705614024E+02  0.12154191869E+03  0.15126586054E+03  0.00000000000E+00 0. -1.
        -12    1    5    5    0    0  0.19068551138E+03  0.81192079326E+02  0.21278744131E+03  0.29703806688E+03  0.00000000000E+00 0.  1.
          5    1    4    4  501    0 -0.18182731473E+03 -0.83510752191E+01  0.49985857865E+03  0.53198400717E+03  0.41800000000E+01 0. -1.
         -5    1    4    4    0  501 -0.79803820797E+02 -0.67275218338E+02  0.14091799792E+03  0.17541368064E+03  0.41800000000E+01 0. -1.
</event>
<event>
11    1  0.7105277E-009  0.2054070E+03  0.7561462E-02  0.1050765E+00
         22   -1    0    0    0    0  0.00000000000E+00  0.00000000000E+00  0.12032491985E+03  0.12032491985E+03  0.00000000000E+00 0.  1.
         22   -1    0    0    0    0 -0.00000000000E+00 -0.00000000000E+00 -0.33031851254E+04  0.33031851254E+04  0.00000000000E+00 0. -1.
        -24    2    1    2    0    0  0.11288641199E+03 -0.10521909475E+03 -0.25826558286E+04  0.25884967702E+04  0.79937475529E+02 0.  0.
         25    2    1    2    0    0 -0.20948193539E+03  0.14287572904E+03 -0.63837083972E+03  0.69818396664E+03  0.12508943627E+03 0.  0.
         24    2    1    2    0    0  0.96595523406E+02 -0.37656634281E+02  0.38166462827E+02  0.13682930843E+03  0.80727092804E+02 0.  0.
        -13    1    5    5    0    0  0.37195928897E+02 -0.49628503494E+02  0.43869495680E+02  0.75967480785E+02  0.00000000000E+00 0.  1.
         14    1    5    5    0    0  0.59399594509E+02  0.11971869213E+02 -0.57030328531E+01  0.60861827643E+02  0.00000000000E+00 0. -1.
         11    1    3    3    0    0  0.79121963940E+02 -0.31901241341E+02 -0.17063127557E+04  0.17084440859E+04  0.00000000000E+00 0. -1.
        -12    1    3    3    0    0  0.33764448047E+02 -0.73317853413E+02 -0.87634307292E+03  0.88005268424E+03  0.00000000000E+00 0.  1.
          5    1    4    4  501    0 -0.94808514878E+02  0.84073225000E+02 -0.46590557846E+03  0.48284825991E+03  0.41800000000E+01 0. -1.
         -5    1    4    4    0  501 -0.11467342052E+03  0.58802504035E+02 -0.17246526126E+03  0.21533570673E+03  0.41800000000E+01 0. -1.
</event>
<event>
11    1  0.7105277E-009  0.1509895E+03  0.7561462E-02  0.1095872E+00
         22   -1    0    0    0    0  0.00000000000E+00  0.00000000000E+00  0.17320719036E+04  0.17320719036E+04  0.00000000000E+00 0. -1.
         22   -1    0    0    0    0 -0.00000000000E+00 -0.00000000000E+00 -0.48998480127E+03  0.48998480127E+03  0.00000000000E+00 0. -1.
         24    2    1    2    0    0 -0.79882170921E+02 -0.36566946368E+02 -0.41041513465E+03  0.42762381323E+03  0.81873317327E+02 0.  0.
         25    2    1    2    0    0  0.61489029644E+02  0.40820947818E+01 -0.19512424123E+00  0.13944456767E+03  0.12508870898E+03 0.  0.
        -24    2    1    2    0    0  0.18393141277E+02  0.32484851587E+02  0.16526973612E+04  0.16549883240E+04  0.78639757624E+02 0.  0.
        -11    1    3    3    0    0 -0.17507729114E+02  0.24530941794E+02 -0.14885673346E+03  0.15187697252E+03  0.00000000000E+00 0.  1.
         12    1    3    3    0    0 -0.62374441807E+02 -0.61097888162E+02 -0.26155840119E+03  0.27574684071E+03  0.00000000000E+00 0. -1.
         11    1    5    5    0    0  0.43253362361E+02 -0.33492659733E+01  0.79491515012E+03  0.79609808870E+03  0.00000000000E+00 0. -1.
        -12    1    5    5    0    0 -0.24860221084E+02  0.35834117560E+02  0.85778221111E+03  0.85889023529E+03  0.00000000000E+00 0.  1.
          5    1    4    4  501    0  0.72900841932E+02 -0.14098761069E+02  0.46619917880E+02  0.87773555022E+02  0.41800000000E+01 0.  1.
         -5    1    4    4    0  501 -0.11411812288E+02  0.18180855851E+02 -0.46815042121E+02  0.51671012647E+02  0.41800000000E+01 0.  1.
</event>
<event>
11    1  0.7105277E-009  0.1350643E+03  0.7561462E-02  0.1113199E+00
         22   -1    0    0    0    0  0.00000000000E+00  0.00000000000E+00  0.70739891712E+03  0.70739891712E+03  0.00000000000E+00 0.  1.
         22   -1    0    0    0    0 -0.00000000000E+00 -0.00000000000E+00 -0.18838483580E+03  0.18838483580E+03  0.00000000000E+00 0. -1.
        -24    2    1    2    0    0  0.47778928196E+02  0.24965623912E+02 -0.15256134641E+03  0.18088890453E+03  0.80868553880E+02 0.  0.
         25    2    1    2    0    0  0.15116332860E+02 -0.24828911437E+02  0.23360517293E+03  0.26657783501E+03  0.12508951569E+03 0.  0.
         24    2    1    2    0    0 -0.62895261056E+02 -0.13671247555E+00  0.43797025480E+03  0.44831701338E+03  0.72210579838E+02 0.  0.
        -11    1    5    5    0    0 -0.60085932953E+01 -0.19092489373E+02  0.25473822478E+03  0.25552336392E+03  0.00000000000E+00 0.  1.
         12    1    5    5    0    0 -0.56886667761E+02  0.18955776898E+02  0.18323203002E+03  0.19279364946E+03  0.00000000000E+00 0. -1.
         11    1    3    3    0    0 -0.38369498894E+01  0.29428409041E+02 -0.10971666707E+03  0.11365958154E+03  0.00000000000E+00 0. -1.
        -12    1    3    3    0    0  0.51615878086E+02 -0.44627851285E+01 -0.42844679338E+02  0.67229322987E+02  0.00000000000E+00 0.  1.
          5    1    4    4  501    0  0.29927487857E+02 -0.81159514543E+01 -0.57893103804E+00  0.31294260793E+02  0.41800000000E+01 0.  1.
         -5    1    4    4    0  501 -0.14811154997E+02 -0.16712959982E+02  0.23418410397E+03  0.23528357422E+03  0.41800000000E+01 0.  1.
</event>
<event>
11    1  0.7105277E-009  0.2447074E+03  0.7561462E-02  0.1026757E+00
         22   -1    0    0    0    0  0.00000000000E+00  0.00000000000E+00  0.55228044738E+03  0.55228044738E+03  0.00000000000E+00 0.  1.
         22   -1    0    0    0    0 -0.00000000000E+00 -0.00000000000E+00 -0.51732278703E+03  0.51732278703E+03  0.00000000000E+00 0. -1.
         24    2    1    2    0    0  0.14518888748E+02  0.95804654498E+01 -0.36935744406E+03  0.37778319617E+03  0.77412133271E+02 0.  0.
         25    2    1    2    0    0  0.80104957894E+02  0.18179636826E+03  0.82796656612E+01  0.23491028409E+03  0.12509022710E+03 0.  0.
        -24    2    1    2    0    0 -0.94623846642E+02 -0.19137683371E+03  0.39603543875E+03  0.45690975415E+03  0.79647284032E+02 0.  0.
        -11    1    3    3    0    0  0.19239058676E+02  0.31734817593E+02 -0.33219454578E+03  0.33426106006E+03  0.00000000000E+00 0.  1.
         12    1    3    3    0    0 -0.47201699284E+01 -0.22154352143E+02 -0.37162898278E+02  0.43522136109E+02  0.00000000000E+00 0. -1.
         11    1    5    5    0    0 -0.10115152860E+02 -0.73343668540E+02  0.19781994261E+03  0.21122106837E+03  0.00000000000E+00 0. -1.
        -12    1    5    5    0    0 -0.84508693781E+02 -0.11803316517E+03  0.19821549614E+03  0.24568868577E+03  0.00000000000E+00 0.  1.
          5    1    4    4  501    0 -0.26022083227E+02  0.33749507650E+02 -0.25156353066E+02  0.49663795482E+02  0.41800000000E+01 0. -1.
         -5    1    4    4    0  501  0.10612704112E+03  0.14804686061E+03  0.33436018727E+02  0.18524648861E+03  0.41800000000E+01 0. -1.
</event>
<event>
11    1  0.7105277E-009  0.1805555E+03  0.7561462E-02  0.1069194E+00
         22   -1    0    0    0    0  0.00000000000E+00  0.00000000000E+00  0.11399888797E+04  0.11399888797E+04  0.00000000000E+00 0. -1.
         22   -1    0    0    0    0 -0.00000000000E+00 -0.00000000000E+00 -0.72126210849E+03  0.72126210849E+03  0.00000000000E+00 0. -1.
        -24    2    1    2    0    0  0.52905183010E+02  0.11878799580E+03 -0.65737282571E+03  0.67484244028E+03  0.79773058643E+02 0.  0.
         25    2    1    2    0    0 -0.21847080274E+02 -0.13594090166E+03  0.10940316741E+03  0.21580898117E+03  0.12508892697E+03 0.  0.
         24    2    1    2    0    0 -0.31058102736E+02  0.17152905868E+02  0.96669642955E+03  0.97059956679E+03  0.79389572503E+02 0.  0.
        -11    1    5    5    0    0 -0.41738304991E+01 -0.21866522778E+02  0.93311492115E+02  0.95930184198E+02  0.00000000000E+00 0.  1.
         12    1    5    5    0    0 -0.26884272237E+02  0.39019428647E+02  0.87338493743E+03  0.87466938259E+03  0.00000000000E+00 0. -1.
         13    1    3    3    0    0  0.59399060289E+02  0.61639527821E+02 -0.50029523723E+03  0.50756576338E+03  0.00000000000E+00 0. -1.
        -14    1    3    3    0    0 -0.64938772791E+01  0.57148467975E+02 -0.15707758848E+03  0.16727667690E+03  0.00000000000E+00 0.  1.
          5    1    4    4  501    0  0.21396271179E+02 -0.10753279363E+03  0.12024512479E+03  0.16278041824E+03  0.41800000000E+01 0.  1.
         -5    1    4    4    0  501 -0.43243351452E+02 -0.28408108030E+02 -0.10841957371E+02  0.53028562929E+02  0.41800000000E+01 0.  1.
</event>
<event>
11    1  0.7105277E-009  0.1421297E+03  0.7561462E-02  0.1105203E+00
         22   -1    0    0    0    0  0.00000000000E+00  0.00000000000E+00  0.20834094859E+03  0.20834094859E+03  0.00000000000E+00 0.  1.
         22   -1    0    0    0    0 -0.00000000000E+00 -0.00000000000E+00 -0.54446697349E+03  0.54446697349E+03  0.00000000000E+00 0. -1.
        -24    2    1    2    0    0 -0.10875895795E+02 -0.46177049088E+01 -0.45189069150E+03  0.45878220544E+03  0.78334581514E+02 0.  0.
         25    2    1    2    0    0 -0.50550246361E+02  0.36438572001E+02  0.27286687792E+01  0.13978246610E+03  0.12509434543E+03 0.  0.
         24    2    1    2    0    0  0.61426142156E+02 -0.31820867092E+02  0.11303599781E+03  0.15424325054E+03  0.78918343962E+02 0.  0.
        -13    1    5    5    0    0  0.64528441013E+02 -0.32340448400E+02  0.12364875546E+03  0.14317415629E+03  0.00000000000E+00 0.  1.
         14    1    5    5    0    0 -0.31022988567E+01  0.51958130804E+00 -0.10612757642E+02  0.11069094258E+02  0.00000000000E+00 0. -1.
         13    1    3    3    0    0  0.23756338267E+01 -0.16601773298E+02 -0.43086187676E+03  0.43118814844E+03  0.00000000000E+00 0. -1.
        -14    1    3    3    0    0 -0.13251529622E+02  0.11984068389E+02 -0.21028814740E+02  0.27594057002E+02  0.00000000000E+00 0.  1.
          5    1    4    4  501    0 -0.10144182049E+02  0.79132640445E+02  0.95466940091E+01  0.80458007555E+02  0.41800000000E+01 0. -1.
         -5    1    4    4    0  501 -0.40406064312E+02 -0.42694068443E+02 -0.68180252299E+01  0.59324458543E+02  0.41800000000E+01 0. -1.
</event>
<event>
11    1  0.7105277E-009  0.1316116E+03  0.7561462E-02  0.1117305E+00
         22   -1    0    0    0    0  0.00000000000E+00  0.00000000000E+00  0.31342404140E+04  0.31342404140E+04  0.00000000000E+00 0.  1.
         22   -1    0    0    0    0 -0.00000000000E+00 -0.00000000000E+00 -0.44505823350E+02  0.44505823350E+02  0.00000000000E+00 0.  1.
        -24    2    1    2    0    0 -0.22781838792E+02  0.25989957238E+02  0.19081430077E+02  0.90438301624E+02  0.81366426558E+02 0.  0.
         25    2    1    2    0    0  0.61291020088E+02 -0.28284084527E+02  0.62356961795E+03  0.63956411930E+03  0.12508643285E+03 0.  0.
         24    2    1    2    0    0 -0.38509181296E+02  0.22941272896E+01  0.24470835426E+04  0.24487438164E+04  0.81487384634E+02 0.  0.
        -11    1    5    5    0    0 -0.61587822378E+02  0.15527801113E+02  0.16914289214E+04  0.16926210351E+04  0.00000000000E+00 0.  1.
         12    1    5    5    0    0  0.23078641082E+02 -0.13233673824E+02  0.75565462124E+03  0.75612278130E+03  0.00000000000E+00 0. -1.
         11    1    3    3    0    0 -0.30705761006E+02  0.96996815877E+01  0.47110841936E+02  0.57064516205E+02  0.00000000000E+00 0. -1.
        -12    1    3    3    0    0  0.79239222137E+01  0.16290275650E+02 -0.28029411859E+02  0.33373785418E+02  0.00000000000E+00 0.  1.
          5    1    4    4  501    0  0.23152866786E+02  0.14814477298E+02  0.52206743976E+03  0.52280723793E+03  0.41800000000E+01 0.  1.
         -5    1    4    4    0  501  0.38138153303E+02 -0.43098561826E+02  0.10150217819E+03  0.11675688137E+03  0.41800000000E+01 0.  1.
</event>
<event>
11    1  0.7105277E-009  0.1590817E+03  0.7561462E-02  0.1087944E+00
         22   -1    0    0    0    0  0.00000000000E+00  0.00000000000E+00  0.17213779630E+04  0.17213779630E+04  0.00000000000E+00 0.  1.
         22   -1    0    0    0    0 -0.00000000000E+00 -0.00000000000E+00 -0.30474927187E+03  0.30474927187E+03  0.00000000000E+00 0.  1.
        -24    2    1    2    0    0 -0.94546150245E+02 -0.21472617843E+02 -0.27141100939E+03  0.29954892195E+03  0.81642959145E+02 0.  0.
         25    2    1    2    0    0  0.15699955900E+03  0.35293513104E+01  0.57876862062E+03  0.61260463508E+03  0.12509997948E+03 0.  0.
         24    2    1    2    0    0 -0.62453408758E+02  0.17943266533E+02  0.11092710799E+04  0.11139736778E+04  0.78947052740E+02 0.  0.
        -13    1    5    5    0    0 -0.87406110198E+01  0.27197961182E+02  0.75446005955E+03  0.75500073433E+03  0.00000000000E+00 0.  1.
         14    1    5    5    0    0 -0.53712797738E+02 -0.92546946492E+01  0.35481102031E+03  0.35897294348E+03  0.00000000000E+00 0. -1.
         13    1    3    3    0    0 -0.46052809476E+02 -0.34533250546E+01 -0.36097469932E+02  0.58615817405E+02  0.00000000000E+00 0. -1.
        -14    1    3    3    0    0 -0.48493340769E+02 -0.18019292789E+02 -0.23531353946E+03  0.24093310454E+03  0.00000000000E+00 0.  1.
          5    1    4    4  501    0  0.14846238275E+03  0.11081390489E+01  0.58321840678E+03  0.60183343997E+03  0.41800000000E+01 0.  1.
         -5    1    4    4    0  501  0.85371762549E+01  0.24212122615E+01 -0.44497861609E+01  0.10771195110E+02  0.41800000000E+01 0.  1.
</event>
<event>
11    1  0.7105277E-009  0.1601775E+03  0.7561462E-02  0.1086910E+00
         22   -1    0    0    0    0  0.00000000000E+00  0.00000000000E+00  0.38651034053E+03  0.38651034053E+03  0.00000000000E+00 0.  1.
         22   -1    0    0    0    0 -0.00000000000E+00 -0.00000000000E+00 -0.68284085244E+03  0.68284085244E+03  0.00000000000E+00 0.  1.
        -24    2    1    2    0    0 -0.87194995915E+02 -0.13418245719E+01 -0.58093209348E+03  0.59349941085E+03  0.84585374854E+02 0.  0.
         25    2    1    2    0    0  0.10610531317E+03  0.95230862147E+02  0.34425881681E+02  0.19277087228E+03  0.12509281867E+03 0.  0.
         24    2    1    2    0    0 -0.18910317259E+02 -0.93889037576E+02  0.25017569989E+03  0.28308090983E+03  0.91510486939E+02 0.  0.
        -13    1    5    5    0    0 -0.52572915240E+02 -0.76707578998E+02  0.19696043560E+03  0.21781041592E+03  0.00000000000E+00 0.  1.
         14    1    5    5    0    0  0.33662597981E+02 -0.17181458578E+02  0.53215264295E+02  0.65270493913E+02  0.00000000000E+00 0. -1.
         11    1    3    3    0    0 -0.51356513511E+01  0.11554382078E+02 -0.88876495904E+01  0.15455386609E+02  0.00000000000E+00 0. -1.
        -12    1    3    3    0    0 -0.82059344564E+02 -0.12896206650E+02 -0.57204444389E+03  0.57804402424E+03  0.00000000000E+00 0.  1.
          5    1    4    4  501    0  0.24961037516E+02 -0.17751589167E+02  0.43437110182E+02  0.53314418808E+02  0.41800000000E+01 0.  1.
         -5    1    4    4    0  501  0.81144275659E+02  0.11298245131E+03 -0.90112285010E+01  0.13945645348E+03  0.41800000000E+01 0.  1.
</event>
<event>
11    1  0.7105277E-009  0.2322624E+03  0.7561462E-02  0.1033797E+00
         22   -1    0    0    0    0  0.00000000000E+00  0.00000000000E+00  0.16659595058E+04  0.16659595058E+04  0.00000000000E+00 0. -1.
         22   -1    0    0    0    0 -0.00000000000E+00 -0.00000000000E+00 -0.83436333772E+03  0.83436333772E+03  0.00000000000E+00 0. -1.
        -24    2    1    2    0    0 -0.18161844416E+03  0.29291870891E+02 -0.54862537929E+03  0.58413793943E+03  0.79900266021E+02 0.  0.
         25    2    1    2    0    0  0.23354913804E+03 -0.71175448188E+02 -0.19512305621E+03  0.33664755836E+03  0.12508967655E+03 0.  0.
         24    2    1    2    0    0 -0.51930693877E+02  0.41883577297E+02  0.15753446036E+04  0.15795373457E+04  0.93683379049E+02 0.  0.
        -11    1    5    5    0    0 -0.71738472419E+02  0.18659583017E+02  0.75622584055E+03  0.75985005782E+03  0.00000000000E+00 0.  1.
         12    1    5    5    0    0  0.19807778542E+02  0.23223994280E+02  0.81911876301E+03  0.81968728788E+03  0.00000000000E+00 0. -1.
         13    1    3    3    0    0 -0.61043542064E+02  0.24832780020E+02 -0.30781980721E+03  0.31479519485E+03  0.00000000000E+00 0. -1.
        -14    1    3    3    0    0 -0.12057490210E+03  0.44590908710E+01 -0.24080557209E+03  0.26934274458E+03  0.00000000000E+00 0.  1.
          5    1    4    4  501    0  0.11427436937E+03  0.28868377591E+02 -0.95725214617E+02  0.15189734637E+03  0.41800000000E+01 0.  1.
         -5    1    4    4    0  501  0.11927476867E+03 -0.10004382578E+03 -0.99397841589E+02  0.18475021199E+03  0.41800000000E+01 0.  1.
</event>
<event>
11    1  0.7105277E-009  0.2108940E+03  0.7561462E-02  0.1047076E+00
         22   -1    0    0    0    0  0.00000000000E+00  0.00000000000E+00  0.38814335912E+03  0.38814335912E+03  0.00000000000E+00 0.  1.
         22   -1    0    0    0    0 -0.00000000000E+00 -0.00000000000E+00 -0.16603042800E+04  0.16603042800E+04  0.00000000000E+00 0. -1.
        -24    2    1    2    0    0  0.16634124284E+03 -0.55234469983E+02 -0.87535359019E+03  0.89628709531E+03  0.79789683562E+02 0.  0.
         25    2    1    2    0    0 -0.14895672347E+03  0.66359900185E+02 -0.75603200405E+03  0.78346885674E+03  0.12508923419E+03 0.  0.
         24    2    1    2    0    0 -0.17384519376E+02 -0.11125430203E+02  0.35922467337E+03  0.36869168706E+03  0.80406451437E+02 0.  0.
        -13    1    5    5    0    0 -0.22121337491E+02 -0.19247204539E+02  0.35801296715E+03  0.35921176637E+03  0.00000000000E+00 0.  1.
         14    1    5    5    0    0  0.47368181148E+01  0.81217743359E+01  0.12117062282E+01  0.94799206853E+01  0.00000000000E+00 0. -1.
         11    1    3    3    0    0  0.12781136165E+03 -0.72694599618E+02 -0.74039611252E+03  0.75485538510E+03  0.00000000000E+00 0. -1.
        -12    1    3    3    0    0  0.38529881197E+02  0.17460129636E+02 -0.13495747768E+03  0.14143171021E+03  0.00000000000E+00 0.  1.
          5    1    4    4  501    0  0.19881663309E+02 -0.56550997999E+01 -0.10183732091E+03  0.10399794719E+03  0.41800000000E+01 0.  1.
         -5    1    4    4    0  501 -0.16883838678E+03  0.72014999985E+02 -0.65419468314E+03  0.67947090955E+03  0.41800000000E+01 0.  1.
</event>
<event>
11    1  0.7105277E-009  0.4210964E+03  0.7561462E-02  0.9589484E-01
         22   -1    0    0    0    0  0.00000000000E+00  0.00000000000E+00  0.82783162222E+03  0.82783162222E+03  0.00000000000E+00 0.  1.
         22   -1    0    0    0    0 -0.00000000000E+00 -0.00000000000E+00 -0.65917380045E+03  0.65917380045E+03  0.00000000000E+00 0.  1.
        -24    2    1    2    0    0 -0.33390692166E+03 -0.21771829058E+03 -0.47964104216E+03  0.62822662531E+03  0.75617967761E+02 0.  0.
         25    2    1    2    0    0  0.36953702573E+03  0.21250384607E+03  0.40763832603E+03  0.60293557445E+03  0.12508718605E+03 0.  0.
         24    2    1    2    0    0 -0.35630104074E+02  0.52144445156E+01  0.24066053790E+03  0.25584322290E+03  0.79003578730E+02 0.  0.
        -11    1    5    5    0    0 -0.20505917324E+02 -0.36068325257E+02  0.94349767190E+02  0.10306937130E+03  0.00000000000E+00 0.  1.
         12    1    5    5    0    0 -0.15124186750E+02  0.41282769772E+02  0.14631077071E+03  0.15277385160E+03  0.00000000000E+00 0. -1.
         13    1    3    3    0    0 -0.37346246030E+02 -0.73437124433E-01 -0.53967256725E+02  0.65629355353E+02  0.00000000000E+00 0. -1.
        -14    1    3    3    0    0 -0.29656067563E+03 -0.21764485346E+03 -0.42567378543E+03  0.56259726996E+03  0.00000000000E+00 0.  1.
          5    1    4    4  501    0  0.23996069171E+03  0.13349137320E+03  0.33910390697E+03  0.43635995738E+03  0.41800000000E+01 0. -1.
         -5    1    4    4    0  501  0.12957633402E+03  0.79012472861E+02  0.68534419061E+02  0.16657561707E+03  0.41800000000E+01 0. -1.
</event>
<event>
11    1  0.7105277E-009  0.1362963E+03  0.7561462E-02  0.1111766E+00
         22   -1    0    0    0    0  0.00000000000E+00  0.00000000000E+00  0.51708748831E+03  0.51708748831E+03  0.00000000000E+00 0.  1.
         22   -1    0    0    0    0 -0.00000000000E+00 -0.00000000000E+00 -0.10514081264E+04  0.10514081264E+04  0.00000000000E+00 0.  1.
         24    2    1    2    0    0  0.48174563644E+02 -0.25261863904E+02 -0.10208890085E+04  0.10255580550E+04  0.81215800119E+02 0.  0.
         25    2    1    2    0    0 -0.32172193667E+02  0.84665047553E+01  0.16412385952E+03  0.20902288144E+03  0.12508873632E+03 0.  0.
        -24    2    1    2    0    0 -0.16002369977E+02  0.16795359149E+02  0.32244451092E+03  0.33391467822E+03  0.83608550811E+02 0.  0.
        -11    1    3    3    0    0  0.67743607489E+02 -0.24303899119E+02 -0.91822301640E+03  0.92103929542E+03  0.00000000000E+00 0.  1.
         12    1    3    3    0    0 -0.19569043845E+02 -0.95796478567E+00 -0.10266599210E+03  0.10451875960E+03  0.00000000000E+00 0. -1.
         11    1    5    5    0    0 -0.16506951350E+01  0.30924788905E+02  0.39209373402E+02  0.49964410592E+02  0.00000000000E+00 0. -1.
        -12    1    5    5    0    0 -0.14351674842E+02 -0.14129429756E+02  0.28323513752E+03  0.28395026762E+03  0.00000000000E+00 0.  1.
          5    1    4    4  501    0  0.78391359020E+01 -0.54020153700E+02  0.61836702227E+02  0.82588614226E+02  0.41800000000E+01 0.  1.
         -5    1    4    4    0  501 -0.40011329569E+02  0.62486658456E+02  0.10228715729E+03  0.12643426721E+03  0.41800000000E+01 0.  1.
</event>
<event>
11    1  0.7105277E-009  0.1889874E+03  0.7561462E-02  0.1062596E+00
         22   -1    0    0    0    0  0.00000000000E+00  0.00000000000E+00  0.11304068793E+04  0.11304068793E+04  0.00000000000E+00 0. -1.
         22   -1    0    0    0    0 -0.00000000000E+00 -0.00000000000E+00 -0.39284779594E+03  0.39284779594E+03  0.00000000000E+00 0.  1.
        -24    2    1    2    0    0 -0.10935314666E+03 -0.93240185444E+02 -0.28469829941E+03  0.32824362401E+03  0.77710437841E+02 0.  0.
         25    2    1    2    0    0  0.13113585878E+03  0.47165285069E+02  0.19933537267E+02  0.18832749418E+03  0.12509485035E+03 0.  0.
         24    2    1    2    0    0 -0.21782712114E+02  0.46074900376E+02  0.10023238455E+04  0.10066835571E+04  0.78494011223E+02 0.  0.
        -11    1    5    5    0    0 -0.89848494740E+01  0.54217813245E+02  0.35911380600E+03  0.36329467991E+03  0.00000000000E+00 0.  1.
         12    1    5    5    0    0 -0.12797862640E+02 -0.81429128696E+01  0.64321003952E+03  0.64338887716E+03  0.00000000000E+00 0. -1.
         13    1    3    3    0    0  0.67837190770E+01 -0.29268248822E+02 -0.65538974328E+02  0.72097200983E+02  0.00000000000E+00 0. -1.
        -14    1    3    3    0    0 -0.11613686574E+03 -0.63971936622E+02 -0.21915932508E+03  0.25614642302E+03  0.00000000000E+00 0.  1.
          5    1    4    4  501    0  0.11618302284E+03  0.86358553343E+02  0.11042562678E+02  0.14524360613E+03  0.41800000000E+01 0. -1.
         -5    1    4    4    0  501  0.14952835940E+02 -0.39193268275E+02  0.88909745888E+01  0.43083888054E+02  0.41800000000E+01 0. -1.
</event>
<event>
11    1  0.7105277E-009  0.1315452E+03  0.7561462E-02  0.1117385E+00
         22   -1    0    0    0    0  0.00000000000E+00  0.00000000000E+00  0.82321970115E+03  0.82321970115E+03  0.00000000000E+00 0. -1.
         22   -1    0    0    0    0 -0.00000000000E+00 -0.00000000000E+00 -0.32359834791E+03  0.32359834791E+03  0.00000000000E+00 0.  1.
        -24    2    1    2    0    0  0.12045423841E+02  0.22250612715E+02 -0.29858641112E+03  0.30871051511E+03  0.74216947098E+02 0.  0.
         25    2    1    2    0    0 -0.51275751478E+01  0.22642597470E+02  0.23744889141E+03  0.26938511255E+03  0.12508950231E+03 0.  0.
         24    2    1    2    0    0 -0.69178486935E+01 -0.44893210184E+02  0.56075887296E+03  0.56872242139E+03  0.83255162263E+02 0.  0.
        -13    1    5    5    0    0  0.36970269012E+02 -0.17175196495E+02  0.30821208796E+03  0.31089625171E+03  0.00000000000E+00 0.  1.
         14    1    5    5    0    0 -0.43888117705E+02 -0.27718013689E+02  0.25254678500E+03  0.25782616968E+03  0.00000000000E+00 0. -1.
         13    1    3    3    0    0  0.43454589555E+02  0.97745639033E+01 -0.16305718326E+03  0.16903102811E+03  0.00000000000E+00 0. -1.
        -14    1    3    3    0    0 -0.31409165714E+02  0.12476048811E+02 -0.13552922786E+03  0.13967948700E+03  0.00000000000E+00 0.  1.
          5    1    4    4  501    0  0.50426666964E+02 -0.22166253400E+02  0.11531015507E+03  0.12785967227E+03  0.41800000000E+01 0. -1.
         -5    1    4    4    0  501 -0.55554242112E+02  0.44808850869E+02  0.12213873633E+03  0.14152544028E+03  0.41800000000E+01 0. -1.
</event>
<event>
11    1  0.7105277E-009  0.1405454E+03  0.7561462E-02  0.1106951E+00
         22   -1    0    0    0    0  0.00000000000E+00  0.00000000000E+00  0.26503977126E+03  0.26503977126E+03  0.00000000000E+00 0.  1.
         22   -1    0    0    0    0 -0.00000000000E+00 -0.00000000000E+00 -0.10195469431E+04  0.10195469431E+04  0.00000000000E+00 0. -1.
        -24    2    1    2    0    0 -0.22237242202E+02  0.59458659029E+02 -0.92182508013E+03  0.92746646115E+03  0.80017067717E+02 0.  0.
         25    2    1    2    0    0 -0.34695986405E+01 -0.84145234310E+02 -0.18714218060E+02  0.15195706287E+03  0.12509303908E+03 0.  0.
         24    2    1    2    0    0  0.25706840842E+02  0.24686575281E+02  0.18603212636E+03  0.20516319034E+03  0.78827114412E+02 0.  0.
        -11    1    5    5    0    0  0.20625648679E+02  0.53418306886E+02  0.12710346666E+03  0.13940668610E+03  0.00000000000E+00 0.  1.
         12    1    5    5    0    0  0.50811921637E+01 -0.28731731605E+02  0.58928659703E+02  0.65756504235E+02  0.00000000000E+00 0. -1.
         11    1    3    3    0    0 -0.27547728233E+02  0.77864735292E+02 -0.77777282290E+03  0.78214599556E+03  0.00000000000E+00 0. -1.
        -12    1    3    3    0    0  0.53104860317E+01 -0.18406076263E+02 -0.14405225724E+03  0.14532046559E+03  0.00000000000E+00 0.  1.
          5    1    4    4  501    0  0.10202649241E+02  0.30916287408E+02  0.60990063292E+01  0.33385343443E+02  0.41800000000E+01 0. -1.
         -5    1    4    4    0  501 -0.13672247881E+02 -0.11506152172E+03 -0.24813224389E+02  0.11857171942E+03  0.41800000000E+01 0. -1.
</event>
<event>
11    1  0.7105277E-009  0.1281331E+03  0.7561462E-02  0.1121584E+00
         22   -1    0    0    0    0  0.00000000000E+00  0.00000000000E+00  0.53673855703E+03  0.53673855703E+03  0.00000000000E+00 0.  1.
         22   -1    0    0    0    0 -0.00000000000E+00 -0.00000000000E+00 -0.31131755471E+03  0.31131755471E+03  0.00000000000E+00 0.  1.
        -24    2    1    2    0    0  0.26599211622E+02  0.99382111781E+01 -0.26402487066E+03  0.27662722500E+03  0.77506149312E+02 0.  0.
         25    2    1    2    0    0 -0.15315208029E+02 -0.78586074892E+01  0.70323707212E+02  0.14452922149E+03  0.12508780420E+03 0.  0.
         24    2    1    2    0    0 -0.11284003593E+02 -0.20796036889E+01  0.41912216577E+03  0.42689966526E+03  0.80301188472E+02 0.  0.
        -11    1    5    5    0    0 -0.18447635031E+02 -0.31315503737E+02  0.34484591432E+03  0.34675593814E+03  0.00000000000E+00 0.  1.
         12    1    5    5    0    0  0.71636314380E+01  0.29235900048E+02  0.74276251454E+02  0.80143727122E+02  0.00000000000E+00 0. -1.
         11    1    3    3    0    0  0.21421589647E+01 -0.15204233021E+02 -0.64152966933E+01  0.16640720491E+02  0.00000000000E+00 0. -1.
        -12    1    3    3    0    0  0.24457052657E+02  0.25142444199E+02 -0.25760957397E+03  0.25998650450E+03  0.00000000000E+00 0.  1.
          5    1    4    4  501    0  0.16918286926E+02 -0.61187351497E+02  0.31496838785E+02  0.70990447732E+02  0.41800000000E+01 0. -1.
         -5    1    4    4    0  501 -0.32233494954E+02  0.53328744008E+02  0.38826868427E+02  0.73538773761E+02  0.41800000000E+01 0. -1.
</event>
<event>
11    1  0.7105277E-009  0.1381941E+03  0.7561462E-02  0.1109592E+00
         22   -1    0    0    0    0  0.00000000000E+00  0.00000000000E+00  0.12099281938E+04  0.12099281938E+04  0.00000000000E+00 0. -1.
         22   -1    0    0    0    0 -0.00000000000E+00 -0.00000000000E+00 -0.13382916173E+04  0.13382916173E+04  0.00000000000E+00 0. -1.
         24    2    1    2    0    0  0.57625622568E+02 -0.15636012641E+02 -0.12011648520E+04  0.12054120038E+04  0.81583699123E+02 0.  0.
         25    2    1    2    0    0 -0.27977649103E+02  0.52412053740E+02 -0.97067607807E+02  0.16912592274E+03  0.12510669459E+03 0.  0.
        -24    2    1    2    0    0 -0.29647973465E+02 -0.36776041099E+02  0.11698690363E+04  0.11736818845E+04  0.81878717252E+02 0.  0.
        -11    1    3    3    0    0 -0.65966375326E+01 -0.22470930771E+02 -0.65866968971E+03  0.65908589614E+03  0.00000000000E+00 0.  1.
         12    1    3    3    0    0  0.64222260101E+02  0.68349181301E+01 -0.54249516230E+03  0.54632610766E+03  0.00000000000E+00 0. -1.
         11    1    5    5    0    0 -0.56380844462E+02 -0.36241670123E+02  0.89964066988E+03  0.90213391089E+03  0.00000000000E+00 0. -1.
        -12    1    5    5    0    0  0.26732870997E+02 -0.53437097688E+00  0.27022836646E+03  0.27154797363E+03  0.00000000000E+00 0.  1.
          5    1    4    4  501    0  0.47136142334E+01 -0.37743608722E+02 -0.10048942188E+02  0.39563263233E+02  0.41800000000E+01 0.  1.
         -5    1    4    4    0  501 -0.32691263337E+02  0.90155662463E+02 -0.87018665619E+02  0.12956265951E+03  0.41800000000E+01 0.  1.
</event>
<event>
11    1  0.7105277E-009  0.1373631E+03  0.7561462E-02  0.1110539E+00
         22   -1    0    0    0    0  0.00000000000E+00  0.00000000000E+00  0.35770831228E+03  0.35770831228E+03  0.00000000000E+00 0.  1.
         22   -1    0    0    0    0 -0.00000000000E+00 -0.00000000000E+00 -0.37116741645E+03  0.37116741645E+03  0.00000000000E+00 0.  1.
        -24    2    1    2    0    0  0.33139545527E+00 -0.12750448577E+02 -0.29106426332E+03  0.30203265254E+03  0.79640655780E+02 0.  0.
         25    2    1    2    0    0  0.56384447591E+02  0.83461629731E+01  0.53846861778E+01  0.13756962949E+03  0.12509014248E+03 0.  0.
         24    2    1    2    0    0 -0.56715843046E+02  0.44042856035E+01  0.27222047298E+03  0.28927344670E+03  0.79618191846E+02 0.  0.
        -13    1    5    5    0    0 -0.21952775756E+02 -0.97157167509E+01  0.23567925676E+03  0.23689877919E+03  0.00000000000E+00 0.  1.
         14    1    5    5    0    0 -0.34763067290E+02  0.14120002354E+02  0.36541216220E+02  0.52374667510E+02  0.00000000000E+00 0. -1.
         11    1    3    3    0    0 -0.22856168218E+02 -0.37883721527E+02 -0.12828893714E+03  0.13570420839E+03  0.00000000000E+00 0. -1.
        -12    1    3    3    0    0  0.23187563673E+02  0.25133272951E+02 -0.16277532619E+03  0.16632844415E+03  0.00000000000E+00 0.  1.
          5    1    4    4  501    0  0.52244191537E+02  0.49362458684E+02 -0.34695488255E+02  0.79920943325E+02  0.41800000000E+01 0. -1.
         -5    1    4    4    0  501  0.41402560540E+01 -0.41016295711E+02  0.40080174433E+02  0.57648686165E+02  0.41800000000E+01 0. -1.
</event>
<event>
11    1  0.7105277E-009  0.1552769E+03  0.7561462E-02  0.1091606E+00
         22   -1    0    0    0    0  0.00000000000E+00  0.00000000000E+00  0.24110745761E+03  0.24110745761E+03  0.00000000000E+00 0.  1.
         22   -1    0    0    0    0 -0.00000000000E+00 -0.00000000000E+00 -0.39550632501E+04  0.39550632501E+04  0.00000000000E+00 0. -1.
         24    2    1    2    0    0 -0.19687042739E+02 -0.40619075771E+02 -0.19339320067E+04  0.19362511593E+04  0.83294997028E+02 0.  0.
         25    2    1    2    0    0  0.63266259851E+02  0.12121979713E+03 -0.19997046916E+04  0.20082742585E+04  0.12509910105E+03 0.  0.
        -24    2    1    2    0    0 -0.43579217112E+02 -0.80600721355E+02  0.21968090578E+03  0.25164528984E+03  0.81670233788E+02 0.  0.
        -11    1    3    3    0    0  0.11879819950E+02 -0.37548384936E+02 -0.38794977232E+03  0.38994363333E+03  0.00000000000E+00 0.  1.
         12    1    3    3    0    0 -0.31566862689E+02 -0.30706908345E+01 -0.15459822344E+04  0.15463075260E+04  0.00000000000E+00 0. -1.
         13    1    5    5    0    0 -0.51810301626E+02 -0.13460918336E+02  0.77450247370E+02  0.94149054667E+02  0.00000000000E+00 0. -1.
        -14    1    5    5    0    0  0.82310845139E+01 -0.67139803018E+02  0.14223065841E+03  0.15749623517E+03  0.00000000000E+00 0.  1.
          5    1    4    4  501    0 -0.54248964970E+01  0.62818193298E+02 -0.14359663365E+04  0.14373560265E+04  0.41800000000E+01 0.  1.
         -5    1    4    4    0  501  0.68691156348E+02  0.58401603827E+02 -0.56373835509E+03  0.57091823205E+03  0.41800000000E+01 0.  1.
</event>
<event>
11    1  0.7105277E-009  0.1301203E+03  0.7561462E-02  0.1119121E+00
         22   -1    0    0    0    0  0.00000000000E+00  0.00000000000E+00  0.99045260102E+03  0.99045260102E+03  0.00000000000E+00 0. -1.
         22   -1    0    0    0    0 -0.00000000000E+00 -0.00000000000E+00 -0.35192604185E+03  0.35192604185E+03  0.00000000000E+00 0. -1.
         24    2    1    2    0    0  0.12917047121E+02 -0.23088877766E+02 -0.28893681836E+03  0.30071158823E+03  0.79012833837E+02 0.  0.
         25    2    1    2    0    0  0.21331525718E+02  0.34290432526E+02  0.23639101274E+02  0.13354908069E+03  0.12508270101E+03 0.  0.
        -24    2    1    2    0    0 -0.34248572839E+02 -0.11201554760E+02  0.90382427625E+03  0.90811797396E+03  0.80507718274E+02 0.  0.
        -11    1    3    3    0    0 -0.22286577790E+02 -0.53025405252E+01 -0.25259178435E+02  0.34100360421E+02  0.00000000000E+00 0.  1.
         12    1    3    3    0    0  0.35203624911E+02 -0.17786337241E+02 -0.26367763992E+03  0.26661122781E+03  0.00000000000E+00 0. -1.
         13    1    5    5    0    0 -0.19216787540E+01 -0.77564766280E+01  0.78169337139E+03  0.78173421484E+03  0.00000000000E+00 0. -1.
        -14    1    5    5    0    0 -0.32326894085E+02 -0.34450781324E+01  0.12213090486E+03  0.12638375911E+03  0.00000000000E+00 0.  1.
          5    1    4    4  501    0  0.21343053790E+02 -0.41292118431E+02  0.33165836419E+02  0.57253908993E+02  0.41800000000E+01 0.  1.
         -5    1    4    4    0  501 -0.11528072104E-01  0.75582550957E+02 -0.95267351447E+01  0.76295171699E+02  0.41800000000E+01 0.  1.
</event>
<event>
11    1  0.7105277E-009  0.1917566E+03  0.7561462E-02  0.1060511E+00
         22   -1    0    0    0    0  0.00000000000E+00  0.00000000000E+00  0.73153537099E+03  0.73153537099E+03  0.00000000000E+00 0.  1.
         22   -1    0    0    0    0 -0.00000000000E+00 -0.00000000000E+00 -0.15933225086E+03  0.15933225086E+03  0.00000000000E+00 0. -1.
        -24    2    1    2    0    0 -0.14345350266E+03 -0.10338125321E+02 -0.19221016659E+02  0.16702572770E+03  0.82718570911E+02 0.  0.
         25    2    1    2    0    0  0.14842608195E+03  0.42862523603E+01  0.86332345513E+02  0.21248362229E+03  0.12508933648E+03 0.  0.
         24    2    1    2    0    0 -0.49725792884E+01  0.60518729603E+01  0.50509179127E+03  0.51135827185E+03  0.79424258643E+02 0.  0.
        -13    1    5    5    0    0 -0.30323752735E+02 -0.45691746048E+01  0.43485323748E+03  0.43593318925E+03  0.00000000000E+00 0.  1.
         14    1    5    5    0    0  0.25351173447E+02  0.10621047565E+02  0.70238553792E+02  0.75425082601E+02  0.00000000000E+00 0. -1.
         13    1    3    3    0    0 -0.13004606014E+03  0.18902054408E+02 -0.40873980785E+01  0.13147612803E+03  0.00000000000E+00 0. -1.
        -14    1    3    3    0    0 -0.13407442515E+02 -0.29240179729E+02 -0.15133618581E+02  0.35549599670E+02  0.00000000000E+00 0.  1.
          5    1    4    4  501    0  0.71073455269E+02  0.51154575394E+02  0.84741206888E+02  0.12192936961E+03  0.41800000000E+01 0.  1.
         -5    1    4    4    0  501  0.77352626677E+02 -0.46868323033E+02  0.15911386251E+01  0.90554252689E+02  0.41800000000E+01 0.  1.
</event>
<event>
11    1  0.7105277E-009  0.1309137E+03  0.7561462E-02  0.1118151E+00
         22   -1    0    0    0    0  0.00000000000E+00  0.00000000000E+00  0.30192408344E+03  0.30192408344E+03  0.00000000000E+00 0. -1.
         22   -1    0    0    0    0 -0.00000000000E+00 -0.00000000000E+00 -0.32125448695E+03  0.32125448695E+03  0.00000000000E+00 0.  1.
        -24    2    1    2    0    0 -0.36557326617E+02  0.17255731162E+02 -0.21713394391E+03  0.23353996260E+03  0.75891805539E+02 0.  0.
         25    2    1    2    0    0  0.22707310728E+02 -0.18200319159E+02 -0.42936194337E+02  0.13541737291E+03  0.12508986579E+03 0.  0.
         24    2    1    2    0    0  0.13850015889E+02  0.94458799663E+00  0.24073973474E+03  0.25422123487E+03  0.80499075720E+02 0.  0.
        -11    1    5    5    0    0 -0.24514649974E+02 -0.23046388753E+01  0.25061850553E+02  0.35133684362E+02  0.00000000000E+00 0.  1.
         12    1    5    5    0    0  0.38364665863E+02  0.32492268719E+01  0.21567788419E+03  0.21908755051E+03  0.00000000000E+00 0. -1.
         13    1    3    3    0    0  0.42855446690E+01  0.11201134823E+02  0.52008798942E+00  0.12004241165E+02  0.00000000000E+00 0. -1.
        -14    1    3    3    0    0 -0.40842871286E+02  0.60545963393E+01 -0.21765403190E+03  0.22153572144E+03  0.00000000000E+00 0.  1.
          5    1    4    4  501    0 -0.17129692608E-01  0.14266391071E+02  0.40397502047E+02  0.43046030935E+02  0.41800000000E+01 0. -1.
         -5    1    4    4    0  501  0.22724440421E+02 -0.32466710230E+02 -0.83333696384E+02  0.92371341977E+02  0.41800000000E+01 0. -1.
</event>
<event>
11    1  0.7105277E-009  0.1365517E+03  0.7561462E-02  0.1111471E+00
         22   -1    0    0    0    0  0.00000000000E+00  0.00000000000E+00  0.24951003893E+03  0.24951003893E+03  0.00000000000E+00 0.  1.
         22   -1    0    0    0    0 -0.00000000000E+00 -0.00000000000E+00 -0.60635797033E+03  0.60635797033E+03  0.00000000000E+00 0. -1.
         24    2    1    2    0    0 -0.22503752136E+02  0.50601150627E+02 -0.53119478146E+03  0.54055136840E+03  0.83432551946E+02 0.  0.
         25    2    1    2    0    0  0.77108862749E+00 -0.48266531549E+02  0.13996879326E+02  0.13481768876E+03  0.12509853687E+03 0.  0.
        -24    2    1    2    0    0  0.21732663508E+02 -0.23346190782E+01  0.16034997074E+03  0.18049895209E+03  0.79937472321E+02 0.  0.
        -11    1    3    3    0    0 -0.13324365300E+02 -0.18494406714E+02 -0.59184598048E+02  0.63422381195E+02  0.00000000000E+00 0.  1.
         12    1    3    3    0    0 -0.91793868358E+01  0.69095557341E+02 -0.47201018342E+03  0.47712898721E+03  0.00000000000E+00 0. -1.
         13    1    5    5    0    0 -0.28979552475E+02 -0.10170289164E+02  0.72902916451E+02  0.79108055661E+02  0.00000000000E+00 0. -1.
        -14    1    5    5    0    0  0.50712215983E+02  0.78356700854E+01  0.87447054287E+02  0.10139089643E+03  0.00000000000E+00 0.  1.
          5    1    4    4  501    0  0.18238389223E+02 -0.85826811584E+02  0.25782208857E+02  0.91548212007E+02  0.41800000000E+01 0. -1.
         -5    1    4    4    0  501 -0.17467300595E+02  0.37560280035E+02 -0.11785329530E+02  0.43269476754E+02  0.41800000000E+01 0. -1.
</event>
<event>
11    1  0.7105277E-009  0.1329123E+03  0.7561462E-02  0.1115742E+00
         22   -1    0    0    0    0  0.00000000000E+00  0.00000000000E+00  0.56248694624E+03  0.56248694624E+03  0.00000000000E+00 0. -1.
         22   -1    0    0    0    0 -0.00000000000E+00 -0.00000000000E+00 -0.43963356186E+03  0.43963356186E+03  0.00000000000E+00 0.  1.
        -24    2    1    2    0    0  0.30133411737E+02 -0.32927795779E+02 -0.36847777815E+03  0.37985092124E+03  0.80737767734E+02 0.  0.
         25    2    1    2    0    0 -0.38457060852E+02  0.30582401891E+02  0.10694806310E+02  0.13482016338E+03  0.12509144150E+03 0.  0.
         24    2    1    2    0    0  0.83236491152E+01  0.23453938886E+01  0.48063635623E+03  0.48744942347E+03  0.80751777109E+02 0.  0.
        -13    1    5    5    0    0 -0.50599429727E+01  0.37406192580E+02  0.14943442314E+03  0.15412810608E+03  0.00000000000E+00 0.  1.
         14    1    5    5    0    0  0.13383592088E+02 -0.35060798691E+02  0.33120193310E+03  0.33332131739E+03  0.00000000000E+00 0. -1.
         13    1    3    3    0    0  0.38599665556E+02 -0.42211323824E+02 -0.14288577886E+03  0.15390931044E+03  0.00000000000E+00 0. -1.
        -14    1    3    3    0    0 -0.84662538189E+01  0.92835280443E+01 -0.22559199930E+03  0.22594161080E+03  0.00000000000E+00 0.  1.
          5    1    4    4  501    0 -0.75696485622E+02 -0.52412712071E+01 -0.14204288150E+02  0.77308880869E+02  0.41800000000E+01 0. -1.
         -5    1    4    4    0  501  0.37239424770E+02  0.35823673098E+02  0.24899094460E+02  0.57511282514E+02  0.41800000000E+01 0. -1.
</event>
<event>
11    1  0.7105277E-009  0.2028696E+03  0.7561462E-02  0.1052513E+00
         22   -1    0    0    0    0  0.00000000000E+00  0.00000000000E+00  0.70114467034E+02  0.70114467034E+02  0.00000000000E+00 0.  1.
         22   -1    0    0    0    0 -0.00000000000E+00 -0.00000000000E+00 -0.14743065493E+04  0.14743065493E+04  0.00000000000E+00 0.  1.
         24    2    1    2    0    0  0.42308413883E+02  0.15989856747E+02 -0.55782591454E+03  0.56526357248E+03  0.79419632558E+02 0.  0.
         25    2    1    2    0    0  0.10770235866E+03  0.58290344606E+02 -0.74687667364E+03  0.76711771041E+03  0.12508898297E+03 0.  0.
        -24    2    1    2    0    0 -0.15001077254E+03 -0.74280201353E+02 -0.99489494089E+02  0.21203973345E+03  0.83916082694E+02 0.  0.
        -11    1    3    3    0    0  0.63804077011E+02  0.34514162504E+00 -0.42941188650E+03  0.43412630378E+03  0.00000000000E+00 0.  1.
         12    1    3    3    0    0 -0.21495663128E+02  0.15644715122E+02 -0.12841402805E+03  0.13113726871E+03  0.00000000000E+00 0. -1.
         13    1    5    5    0    0 -0.12777069828E+03 -0.23251614004E+02 -0.56126587132E+02  0.14147855907E+03  0.00000000000E+00 0. -1.
        -14    1    5    5    0    0 -0.22240074261E+02 -0.51028587349E+02 -0.43362906957E+02  0.70561174379E+02  0.00000000000E+00 0.  1.
          5    1    4    4  501    0  0.20746894912E+01 -0.18512890728E+02 -0.16771756283E+02  0.25412510076E+02  0.41800000000E+01 0. -1.
         -5    1    4    4    0  501  0.10562766917E+03  0.76803235333E+02 -0.73010491736E+03  0.74170520034E+03  0.41800000000E+01 0. -1.
</event>
<event>
11    1  0.7105277E-009  0.3738259E+03  0.7561462E-02  0.9730308E-01
         22   -1    0    0    0    0  0.00000000000E+00  0.00000000000E+00  0.19156834516E+04  0.19156834516E+04  0.00000000000E+00 0.  1.
         22   -1    0    0    0    0 -0.00000000000E+00 -0.00000000000E+00 -0.13765162104E+03  0.13765162104E+03  0.00000000000E+00 0. -1.
        -24    2    1    2    0    0 -0.24893740176E+03 -0.27930092017E+02  0.26321102478E+03  0.36848293406E+03  0.61234868289E+02 0.  0.
         25    2    1    2    0    0  0.40821865210E+03  0.21552678220E+03  0.10742318937E+04  0.11758890820E+04  0.12508680900E+03 0.  0.
         24    2    1    2    0    0 -0.15928125035E+03 -0.18759669018E+03  0.44058891200E+03  0.50896305657E+03  0.66043687765E+02 0.  0.
        -11    1    5    5    0    0 -0.23368717642E+02 -0.32527209007E+02  0.13103257229E+03  0.13701697446E+03  0.00000000000E+00 0.  1.
         12    1    5    5    0    0 -0.13591253271E+03 -0.15506948117E+03  0.30955633971E+03  0.37194608210E+03  0.00000000000E+00 0. -1.
         11    1    3    3    0    0 -0.17854976253E+03 -0.44921027649E+02  0.20529673432E+03  0.27576197262E+03  0.00000000000E+00 0. -1.
        -12    1    3    3    0    0 -0.70387639229E+02  0.16990935633E+02  0.57914290460E+02  0.92720961435E+02  0.00000000000E+00 0.  1.
          5    1    4    4  501    0  0.78567654191E+02 -0.27136621874E+01  0.24271014205E+03  0.25515862851E+03  0.41800000000E+01 0.  1.
         -5    1    4    4    0  501  0.32965099791E+03  0.21824044439E+03  0.83152175170E+03  0.92073045346E+03  0.41800000000E+01 0.  1.
</event>
<event>
11    1  0.7105277E-009  0.1415982E+03  0.7561462E-02  0.1105787E+00
         22   -1    0    0    0    0  0.00000000000E+00  0.00000000000E+00  0.15915597627E+04  0.15915597627E+04  0.00000000000E+00 0.  1.
         22   -1    0    0    0    0 -0.00000000000E+00 -0.00000000000E+00 -0.88030832646E+02  0.88030832646E+02  0.00000000000E+00 0. -1.
         24    2    1    2    0    0 -0.45748993718E+01  0.46028738367E+01 -0.53153977008E+02  0.10256619188E+03  0.87477781706E+02 0.  0.
         25    2    1    2    0    0  0.69416944585E+02 -0.21332214950E+01  0.74443876240E+03  0.75806250885E+03  0.12508570472E+03 0.  0.
        -24    2    1    2    0    0 -0.64842045213E+02 -0.24696523417E+01  0.81224414470E+03  0.81896189467E+03  0.82142828650E+02 0.  0.
        -13    1    3    3    0    0 -0.19713883530E+02 -0.35061472074E+02 -0.88136317337E+01  0.41177956872E+02  0.00000000000E+00 0.  1.
         14    1    3    3    0    0  0.15138984158E+02  0.39664345910E+02 -0.44340345274E+02  0.61388235004E+02  0.00000000000E+00 0. -1.
         11    1    5    5    0    0  0.17560037453E+01 -0.72708690462E+01  0.50826537347E+01  0.90433652380E+01  0.00000000000E+00 0. -1.
        -12    1    5    5    0    0 -0.66598048958E+02  0.48012167045E+01  0.80716149097E+03  0.80991852943E+03  0.00000000000E+00 0.  1.
          5    1    4    4  501    0  0.58694901731E+02 -0.18861754252E+02  0.13707210978E+03  0.15035655271E+03  0.41800000000E+01 0.  1.
         -5    1    4    4    0  501  0.10722042854E+02  0.16728532757E+02  0.60736665262E+03  0.60770595614E+03  0.41800000000E+01 0.  1.
</event>
<event>
11    1  0.7105277E-009  0.1590122E+03  0.7561462E-02  0.1088010E+00
         22   -1    0    0    0    0  0.00000000000E+00  0.00000000000E+00  0.42988537596E+03  0.42988537596E+03  0.00000000000E+00 0.  1.
         22   -1    0    0    0    0 -0.00000000000E+00 -0.00000000000E+00 -0.36813832805E+03  0.36813832805E+03  0.00000000000E+00 0.  1.
        -24    2    1    2    0    0 -0.34739841760E+02  0.72434938673E+02 -0.29758279126E+03  0.31884799943E+03  0.81577277107E+02 0.  0.
         25    2    1    2    0    0  0.12325081080E+03 -0.51652645032E+02  0.15031612043E+03  0.23685820612E+03  0.12509242840E+03 0.  0.
         24    2    1    2    0    0 -0.88510969037E+02 -0.20782293640E+02  0.20901371874E+03  0.24231749846E+03  0.82249255745E+02 0.  0.
        -11    1    5    5    0    0 -0.81873831015E+01  0.14580730881E+02  0.10455679018E+03  0.10588556714E+03  0.00000000000E+00 0.  1.
         12    1    5    5    0    0 -0.80323585936E+02 -0.35363024521E+02  0.10445692856E+03  0.13643193132E+03  0.00000000000E+00 0. -1.
         11    1    3    3    0    0  0.26270777387E+02  0.27825597446E+02 -0.11655199223E+03  0.12267348739E+03  0.00000000000E+00 0. -1.
        -12    1    3    3    0    0 -0.61010619146E+02  0.44609341227E+02 -0.18103079903E+03  0.19617451204E+03  0.00000000000E+00 0.  1.
          5    1    4    4  501    0 -0.19235660229E+02  0.13618607331E+02  0.34271527976E+02  0.41802955875E+02  0.41800000000E+01 0.  1.
         -5    1    4    4    0  501  0.14248647103E+03 -0.65271252363E+02  0.11604459246E+03  0.19505525025E+03  0.41800000000E+01 0.  1.
</event>
<event>
11    1  0.7105277E-009  0.1342785E+03  0.7561462E-02  0.1114121E+00
         22   -1    0    0    0    0  0.00000000000E+00  0.00000000000E+00  0.80168237665E+03  0.80168237665E+03  0.00000000000E+00 0. -1.
         22   -1    0    0    0    0 -0.00000000000E+00 -0.00000000000E+00 -0.24023463843E+04  0.24023463843E+04  0.00000000000E+00 0.  1.
        -24    2    1    2    0    0 -0.11021971191E+02 -0.47476602701E+02 -0.23423065780E+04  0.23441474348E+04  0.79066930326E+02 0.  0.
         25    2    1    2    0    0  0.58828346635E+01  0.56672309773E+02  0.26351211380E+02  0.13995576961E+03  0.12508746007E+03 0.  0.
         24    2    1    2    0    0  0.51391365274E+01 -0.91957070719E+01  0.71529135889E+03  0.71992555653E+03  0.80870928612E+02 0.  0.
        -13    1    5    5    0    0 -0.16055444787E+02  0.29987896552E+02  0.21737767368E+03  0.22002296304E+03  0.00000000000E+00 0.  1.
         14    1    5    5    0    0  0.21194581315E+02 -0.39183603623E+02  0.49791368521E+03  0.49990259350E+03  0.00000000000E+00 0. -1.
         11    1    3    3    0    0 -0.92042082375E+01  0.19726793338E+02 -0.32939089101E+03  0.33010941051E+03  0.00000000000E+00 0. -1.
        -12    1    3    3    0    0 -0.18177629534E+01 -0.67203396040E+02 -0.20129156869E+04  0.20140380243E+04  0.00000000000E+00 0.  1.
          5    1    4    4  501    0 -0.56200713431E+02  0.20533867665E+02  0.31622727826E+02  0.67805820005E+02  0.41800000000E+01 0. -1.
         -5    1    4    4    0  501  0.62083548094E+02  0.36138442108E+02 -0.52715164454E+01  0.72149949602E+02  0.41800000000E+01 0. -1.
</event>
<event>
11    1  0.7105277E-009  0.1524563E+03  0.7561462E-02  0.1094395E+00
         22   -1    0    0    0    0  0.00000000000E+00  0.00000000000E+00  0.38513259256E+03  0.38513259256E+03  0.00000000000E+00 0.  1.
         22   -1    0    0    0    0 -0.00000000000E+00 -0.00000000000E+00 -0.11349662607E+04  0.11349662607E+04  0.00000000000E+00 0. -1.
         24    2    1    2    0    0  0.30113969665E+02 -0.24941166740E+02 -0.10277816708E+04  0.10311630820E+04  0.73710418244E+02 0.  0.
         25    2    1    2    0    0 -0.12268855061E+02 -0.63688464239E+02 -0.41271652565E+02  0.14682518066E+03  0.12509012386E+03 0.  0.
        -24    2    1    2    0    0 -0.17845114604E+02  0.88629630979E+02  0.31921965525E+03  0.34211059065E+03  0.83455427245E+02 0.  0.
        -13    1    3    3    0    0 -0.23898381360E+02 -0.11799302183E+02 -0.25656267096E+03  0.25794332767E+03  0.00000000000E+00 0.  1.
         14    1    3    3    0    0  0.54012351025E+02 -0.13141864556E+02 -0.77121899987E+03  0.77321975429E+03  0.00000000000E+00 0. -1.
         13    1    5    5    0    0 -0.39775043400E+02  0.10662486000E+02  0.89151551984E+02  0.98202555498E+02  0.00000000000E+00 0. -1.
        -14    1    5    5    0    0  0.21929928796E+02  0.77967144979E+02  0.23006810326E+03  0.24390803515E+03  0.00000000000E+00 0.  1.
          5    1    4    4  501    0  0.37779740124E+01 -0.33774911080E+02 -0.84808647756E+02  0.91460356660E+02  0.41800000000E+01 0.  1.
         -5    1    4    4    0  501 -0.16046829073E+02 -0.29913553159E+02  0.43536995191E+02  0.55364823997E+02  0.41800000000E+01 0.  1.
</event>
<event>
11    1  0.7105277E-009  0.1351923E+03  0.7561462E-02  0.1113049E+00
         22   -1    0    0    0    0  0.00000000000E+00  0.00000000000E+00  0.34365409774E+03  0.34365409774E+03  0.00000000000E+00 0. -1.
         22   -1    0    0    0    0 -0.00000000000E+00 -0.00000000000E+00 -0.17988506850E+04  0.17988506850E+04  0.00000000000E+00 0. -1.
        -24    2    1    2    0    0 -0.20851261692E+02 -0.36267821422E+02 -0.13428055842E+04  0.13458188685E+04  0.79696046675E+02 0.  0.
         25    2    1    2    0    0 -0.28306857239E+02  0.51299450249E+02 -0.43731912583E+03  0.45861632902E+03  0.12509199684E+03 0.  0.
         24    2    1    2    0    0  0.49158118931E+02 -0.15031628826E+02  0.32492812285E+03  0.33806958514E+03  0.77912058497E+02 0.  0.
        -13    1    5    5    0    0  0.24199890684E+02 -0.45985498884E+02  0.15229272364E+03  0.16091418362E+03  0.00000000000E+00 0.  1.
         14    1    5    5    0    0  0.24958228248E+02  0.30953870057E+02  0.17263539921E+03  0.17715540152E+03  0.00000000000E+00 0. -1.
         11    1    3    3    0    0 -0.35533161591E+02 -0.47129522562E+02 -0.12399831577E+04  0.12413871390E+04  0.00000000000E+00 0. -1.
        -12    1    3    3    0    0  0.14681899899E+02  0.10861701139E+02 -0.10282242651E+03  0.10443172952E+03  0.00000000000E+00 0.  1.
          5    1    4    4  501    0  0.26242675114E+02  0.67834414557E+02 -0.31903911405E+03  0.32725160731E+03  0.41800000000E+01 0. -1.
         -5    1    4    4    0  501 -0.54549532353E+02 -0.16534964309E+02 -0.11828001178E+03  0.13136472171E+03  0.41800000000E+01 0. -1.
</event>
<event>
11    1  0.7105277E-009  0.1347959E+03  0.7561462E-02  0.1113513E+00
         22   -1    0    0    0    0  0.00000000000E+00  0.00000000000E+00  0.24630805868E+03  0.24630805868E+03  0.00000000000E+00 0. -1.
         22   -1    0    0    0    0 -0.00000000000E+00 -0.00000000000E+00 -0.43220494940E+03  0.43220494940E+03  0.00000000000E+00 0.  1.
         24    2    1    2    0    0  0.60070398685E+02 -0.12284379366E+02 -0.25382726830E+03  0.27345737009E+03  0.81186774487E+02 0.  0.
         25    2    1    2    0    0 -0.21452519418E+02  0.28270614918E+01 -0.13383454279E+03  0.18446738112E+03  0.12509327315E+03 0.  0.
        -24    2    1    2    0    0 -0.38617879266E+02  0.94573178745E+01  0.20176492037E+03  0.22058825686E+03  0.79807985268E+02 0.  0.
        -11    1    3    3    0    0  0.53764784187E+02 -0.42720829412E+02 -0.19785985670E+03  0.20943792440E+03  0.00000000000E+00 0.  1.
         12    1    3    3    0    0  0.63056144972E+01  0.30436450046E+02 -0.55967411604E+02  0.64019445696E+02  0.00000000000E+00 0. -1.
         11    1    5    5    0    0 -0.62114012820E+02 -0.35652459518E+01  0.13646535541E+03  0.14997884782E+03  0.00000000000E+00 0. -1.
        -12    1    5    5    0    0  0.23496133554E+02  0.13022563826E+02  0.65299564961E+02  0.70609409038E+02  0.00000000000E+00 0.  1.
          5    1    4    4  501    0 -0.13831092850E+02 -0.60032413627E+02 -0.81273021008E+02  0.10206843860E+03  0.41800000000E+01 0. -1.
         -5    1    4    4    0  501 -0.76214265689E+01  0.62859475119E+02 -0.52561521783E+02  0.82398942513E+02  0.41800000000E+01 0. -1.
</event>
<event>
11    1  0.7105277E-009  0.1418112E+03  0.7561462E-02  0.1105553E+00
         22   -1    0    0    0    0  0.00000000000E+00  0.00000000000E+00  0.68597841516E+03  0.68597841516E+03  0.00000000000E+00 0. -1.
         22   -1    0    0    0    0 -0.00000000000E+00 -0.00000000000E+00 -0.21649824511E+03  0.21649824511E+03  0.00000000000E+00 0. -1.
         24    2    1    2    0    0 -0.57596649156E+02 -0.43346466939E+01 -0.16515964801E+03  0.19254774085E+03  0.80378853052E+02 0.  0.
         25    2    1    2    0    0  0.88751226158E+02 -0.50205926075E+02  0.16982272285E+03  0.23427482387E+03  0.12509005055E+03 0.  0.
        -24    2    1    2    0    0 -0.31154577001E+02  0.54540572769E+02  0.46481709522E+03  0.47565409555E+03  0.79035465830E+02 0.  0.
        -11    1    3    3    0    0 -0.62518825329E+00  0.31068926634E+02 -0.41217013301E+02  0.51618903979E+02  0.00000000000E+00 0.  1.
         12    1    3    3    0    0 -0.56971460903E+02 -0.35403573328E+02 -0.12394263471E+03  0.14092883687E+03  0.00000000000E+00 0. -1.
         13    1    5    5    0    0 -0.56324851932E+01  0.66772326121E+02  0.38894758270E+03  0.39467770461E+03  0.00000000000E+00 0. -1.
        -14    1    5    5    0    0 -0.25522091808E+02 -0.12231753352E+02  0.75869512521E+02  0.80976390945E+02  0.00000000000E+00 0.  1.
          5    1    4    4  501    0  0.88486441751E+02 -0.80869502960E+02  0.16334751423E+03  0.20265638329E+03  0.41800000000E+01 0. -1.
         -5    1    4    4    0  501  0.26478440672E+00  0.30663576885E+02  0.64752086197E+01  0.31618440582E+02  0.41800000000E+01 0. -1.
</event>
<event>
11    1  0.7105277E-009  0.1579331E+03  0.7561462E-02  0.1089038E+00
         22   -1    0    0    0    0  0.00000000000E+00  0.00000000000E+00  0.44582307372E+03  0.44582307372E+03  0.00000000000E+00 0. -1.
         22   -1    0    0    0    0 -0.00000000000E+00 -0.00000000000E+00 -0.74911598281E+03  0.74911598281E+03  0.00000000000E+00 0. -1.
        -24    2    1    2    0    0 -0.87972568693E+02 -0.28484841228E+02 -0.44465653651E+03  0.46124373123E+03  0.80472263043E+02 0.  0.
         25    2    1    2    0    0  0.71767544368E+02  0.10943104119E+03 -0.25970594904E+03  0.31657582342E+03  0.12508932331E+03 0.  0.
         24    2    1    2    0    0  0.16205024325E+02 -0.80946199959E+02  0.40106957646E+03  0.41711950188E+03  0.79479453864E+02 0.  0.
        -11    1    5    5    0    0  0.14964780981E+01 -0.37921438988E+02  0.48272953766E+02  0.61404829182E+02  0.00000000000E+00 0.  1.
         12    1    5    5    0    0  0.14708546227E+02 -0.43024760971E+02  0.35279662270E+03  0.35571467270E+03  0.00000000000E+00 0. -1.
         11    1    3    3    0    0 -0.89187553463E+02  0.46389916117E+01 -0.33344060627E+03  0.34519353680E+03  0.00000000000E+00 0. -1.
        -12    1    3    3    0    0  0.12149847695E+01 -0.33123832839E+02 -0.11121593023E+03  0.11605019443E+03  0.00000000000E+00 0.  1.
          5    1    4    4  501    0  0.10687754504E+03  0.88288076026E+02 -0.21432197135E+03  0.25528214549E+03  0.41800000000E+01 0.  1.
         -5    1    4    4    0  501 -0.35110000674E+02  0.21142965160E+02 -0.45383977691E+02  0.61293677929E+02  0.41800000000E+01 0.  1.
</event>
<event>
11    1  0.7105277E-009  0.2036804E+03  0.7561462E-02  0.1051951E+00
         22   -1    0    0    0    0  0.00000000000E+00  0.00000000000E+00  0.21231643544E+04  0.21231643544E+04  0.00000000000E+00 0.  1.
         22   -1    0    0    0    0 -0.00000000000E+00 -0.00000000000E+00 -0.70027354213E+02  0.70027354213E+02  0.00000000000E+00 0.  1.
        -24    2    1    2    0    0 -0.19195551473E+01  0.95020226612E+02  0.34584315201E+02  0.12892494468E+03  0.79956477820E+02 0.  0.
         25    2    1    2    0    0  0.16194041456E+03 -0.61145549461E+02  0.66979961956E+03  0.70302436785E+03  0.12509298675E+03 0.  0.
         24    2    1    2    0    0 -0.16002085941E+03 -0.33874677151E+02  0.13487530655E+04  0.13612423961E+04  0.84213183171E+02 0.  0.
        -11    1    5    5    0    0 -0.45781977226E+02 -0.49286372502E+02  0.41801459446E+03  0.42339265125E+03  0.00000000000E+00 0.  1.
         12    1    5    5    0    0 -0.11423888219E+03  0.15411695351E+02  0.93073847101E+03  0.93784974488E+03  0.00000000000E+00 0. -1.
         13    1    3    3    0    0 -0.64551313866E+01  0.10068453596E+03  0.49468390401E+02  0.11236621445E+03  0.00000000000E+00 0. -1.
        -14    1    3    3    0    0  0.45355762393E+01 -0.56643093435E+01 -0.14884075199E+02  0.16558730226E+02  0.00000000000E+00 0.  1.
          5    1    4    4  501    0  0.13990769509E+03  0.61497896711E+01  0.39104281187E+03  0.41538408271E+03  0.41800000000E+01 0. -1.
         -5    1    4    4    0  501  0.22032719473E+02 -0.67295339132E+02  0.27875680770E+03  0.28764028514E+03  0.41800000000E+01 0. -1.
</event>
<event>
11    1  0.7105277E-009  0.2919018E+03  0.7561462E-02  0.1003678E+00
         22   -1    0    0    0    0  0.00000000000E+00  0.00000000000E+00  0.10049649624E+04  0.10049649624E+04  0.00000000000E+00 0.  1.
         22   -1    0    0    0    0 -0.00000000000E+00 -0.00000000000E+00 -0.38788825927E+03  0.38788825927E+03  0.00000000000E+00 0.  1.
        -24    2    1    2    0    0  0.42747738267E+02 -0.62676231077E+02 -0.32576190111E+02  0.11655105773E+03  0.82263368678E+02 0.  0.
         25    2    1    2    0    0 -0.15059299879E+03 -0.18111468115E+03 -0.22962410925E+03  0.35193160327E+03  0.12509133791E+03 0.  0.
         24    2    1    2    0    0  0.10784526052E+03  0.24379091223E+03  0.87927700244E+03  0.92437056062E+03  0.10133250819E+03 0.  0.
        -13    1    5    5    0    0  0.87091236226E+02  0.24012845546E+03  0.85440580621E+03  0.89177118155E+03  0.00000000000E+00 0.  1.
         14    1    5    5    0    0  0.20754024296E+02  0.36624567641E+01  0.24871196231E+02  0.32599379074E+02  0.00000000000E+00 0. -1.
         13    1    3    3    0    0  0.33213032070E+02 -0.37942138025E+02  0.22660484609E+02  0.55282989246E+02  0.00000000000E+00 0. -1.
        -14    1    3    3    0    0  0.95347061971E+01 -0.24734093052E+02 -0.55236674720E+02  0.61268068482E+02  0.00000000000E+00 0.  1.
          5    1    4    4  501    0 -0.57862946898E+02 -0.15412954651E+03 -0.10960935280E+03  0.19782750151E+03  0.41800000000E+01 0.  1.
         -5    1    4    4    0  501 -0.92730051892E+02 -0.26985134642E+02 -0.12001475645E+03  0.15410410177E+03  0.41800000000E+01 0.  1.
</event>
<event>
11    1  0.7105277E-009  0.1525584E+03  0.7561462E-02  0.1094293E+00
         22   -1    0    0    0    0  0.00000000000E+00  0.00000000000E+00  0.59496432868E+03  0.59496432868E+03  0.00000000000E+00 0. -1.
         22   -1    0    0    0    0 -0.00000000000E+00 -0.00000000000E+00 -0.10465374066E+04  0.10465374066E+04  0.00000000000E+00 0.  1.
        -24    2    1    2    0    0  0.23437785817E+02 -0.26872584443E+02 -0.99580596689E+03  0.99951214411E+03  0.78253031493E+02 0.  0.
         25    2    1    2    0    0 -0.94826567713E+02  0.66876578904E+02  0.13695108018E+03  0.21878944870E+03  0.12509464317E+03 0.  0.
         24    2    1    2    0    0  0.71388781896E+02 -0.40003994461E+02  0.40728180883E+03  0.42320014243E+03  0.80766397682E+02 0.  0.
        -11    1    5    5    0    0  0.30810960393E+02 -0.60094639560E+02  0.20220792259E+03  0.21318706561E+03  0.00000000000E+00 0.  1.
         12    1    5    5    0    0  0.40577821503E+02  0.20090645099E+02  0.20507388624E+03  0.21001307682E+03  0.00000000000E+00 0. -1.
         13    1    3    3    0    0  0.19015833767E+01 -0.17386079400E+02 -0.43071052823E+02  0.46486636440E+02  0.00000000000E+00 0. -1.
        -14    1    3    3    0    0  0.21536202441E+02 -0.94865050427E+01 -0.95273491406E+03  0.95302550767E+03  0.00000000000E+00 0.  1.
          5    1    4    4  501    0 -0.72942296465E+02  0.63874232065E+02  0.15965647638E+03  0.18683725267E+03  0.41800000000E+01 0. -1.
         -5    1    4    4    0  501 -0.21884271248E+02  0.30023468383E+01 -0.22705396197E+02  0.31952196029E+02  0.41800000000E+01 0. -1.
</event>
<event>
11    1  0.7105277E-009  0.1471698E+03  0.7561462E-02  0.1099806E+00
         22   -1    0    0    0    0  0.00000000000E+00  0.00000000000E+00  0.78706821858E+03  0.78706821858E+03  0.00000000000E+00 0. -1.
         22   -1    0    0    0    0 -0.00000000000E+00 -0.00000000000E+00 -0.62024363305E+03  0.62024363305E+03  0.00000000000E+00 0.  1.
        -24    2    1    2    0    0 -0.32530478884E+02  0.46670317255E+02 -0.53038899305E+03  0.53936592725E+03  0.79792035680E+02 0.  0.
         25    2    1    2    0    0  0.58764128641E+02 -0.11660890759E+03  0.19934974088E+02  0.18192734460E+03  0.12509714376E+03 0.  0.
         24    2    1    2    0    0 -0.26233649758E+02  0.69938590330E+02  0.67727860450E+03  0.68601857979E+03  0.79596312156E+02 0.  0.
        -11    1    5    5    0    0  0.47637135922E+01 -0.69457699132E+01  0.28272344117E+03  0.28284886578E+03  0.00000000000E+00 0.  1.
         12    1    5    5    0    0 -0.30997363350E+02  0.76884360243E+02  0.39455516333E+03  0.40316971401E+03  0.00000000000E+00 0. -1.
         13    1    3    3    0    0  0.93751781687E+01  0.52282407696E+02 -0.35506647950E+03  0.35901747727E+03  0.00000000000E+00 0. -1.
        -14    1    3    3    0    0 -0.41905657052E+02 -0.56120904409E+01 -0.17532251355E+03  0.18034844998E+03  0.00000000000E+00 0.  1.
          5    1    4    4  501    0  0.75371506181E+02 -0.12492858241E+03  0.42860641681E+02  0.15212666319E+03  0.41800000000E+01 0.  1.
         -5    1    4    4    0  501 -0.16607377540E+02  0.83196748231E+01 -0.22925667594E+02  0.29800681410E+02  0.41800000000E+01 0.  1.
</event>
<event>
11    1  0.7105277E-009  0.1546855E+03  0.7561462E-02  0.1092185E+00
         22   -1    0    0    0    0  0.00000000000E+00  0.00000000000E+00  0.16420856582E+03  0.16420856582E+03  0.00000000000E+00 0. -1.
         22   -1    0    0    0    0 -0.00000000000E+00 -0.00000000000E+00 -0.25114877611E+04  0.25114877611E+04  0.00000000000E+00 0.  1.
        -24    2    1    2    0    0  0.38171009477E+02  0.22064769407E+02 -0.23896295564E+04  0.23914149107E+04  0.81190998969E+02 0.  0.
         25    2    1    2    0    0  0.83443384633E+01  0.72070745164E+02 -0.13690029797E+01  0.14462990772E+03  0.12510841597E+03 0.  0.
         24    2    1    2    0    0 -0.46515347940E+02 -0.94135514572E+02  0.43719364160E+02  0.13965150843E+03  0.81030786166E+02 0.  0.
        -13    1    5    5    0    0 -0.44735464746E+02 -0.16349261387E+02 -0.49357616392E+01  0.47884464045E+02  0.00000000000E+00 0.  1.
         14    1    5    5    0    0 -0.17798831942E+01 -0.77786253184E+02  0.48655125799E+02  0.91767044385E+02  0.00000000000E+00 0. -1.
         11    1    3    3    0    0 -0.10070196002E+02 -0.86328692510E+01 -0.14424475978E+04  0.14425085815E+04  0.00000000000E+00 0. -1.
        -12    1    3    3    0    0  0.48241205478E+02  0.30697638658E+02 -0.94718195859E+03  0.94890632921E+03  0.00000000000E+00 0.  1.
          5    1    4    4  501    0 -0.47539402086E+02  0.25068677604E+02 -0.34849040652E+02  0.64190041142E+02  0.41800000000E+01 0.  1.
         -5    1    4    4    0  501  0.55883740549E+02  0.47002067561E+02  0.33480037672E+02  0.80439866579E+02  0.41800000000E+01 0.  1.
</event>
<event>
11    1  0.7105277E-009  0.1509733E+03  0.7561462E-02  0.1095888E+00
         22   -1    0    0    0    0  0.00000000000E+00  0.00000000000E+00  0.78989092708E+03  0.78989092708E+03  0.00000000000E+00 0. -1.
         22   -1    0    0    0    0 -0.00000000000E+00 -0.00000000000E+00 -0.22323935234E+03  0.22323935234E+03  0.00000000000E+00 0. -1.
        -24    2    1    2    0    0 -0.83482090562E+02 -0.20118938720E+02 -0.16132430319E+03  0.19799777237E+03  0.76181073268E+02 0.  0.
         25    2    1    2    0    0  0.75441597849E+02  0.65545128088E+01  0.89799101368E+02  0.17159764193E+03  0.12508987083E+03 0.  0.
         24    2    1    2    0    0  0.80404927124E+01  0.13564425912E+02  0.63817677656E+03  0.64353486512E+03  0.81356507515E+02 0.  0.
        -13    1    5    5    0    0 -0.32136757863E+02  0.13940086988E+02  0.43596005127E+03  0.43736513754E+03  0.00000000000E+00 0.  1.
         14    1    5    5    0    0  0.40177250576E+02 -0.37566107661E+00  0.20221672529E+03  0.20616972759E+03  0.00000000000E+00 0. -1.
         13    1    3    3    0    0 -0.85576648094E+02  0.52596834559E+01 -0.14259764991E+03  0.16638845131E+03  0.00000000000E+00 0. -1.
        -14    1    3    3    0    0  0.20945575326E+01 -0.25378622176E+02 -0.18726653273E+02  0.31609321056E+02  0.00000000000E+00 0.  1.
          5    1    4    4  501    0  0.79557914109E+02  0.43280012114E+02  0.20506111838E+02  0.92954796373E+02  0.41800000000E+01 0.  1.
         -5    1    4    4    0  501 -0.41163162601E+01 -0.36725499305E+02  0.69292989530E+02  0.78642845553E+02  0.41800000000E+01 0.  1.
</event>
<event>
11    1  0.7105277E-009  0.1915459E+03  0.7561462E-02  0.1060668E+00
         22   -1    0    0    0    0  0.00000000000E+00  0.00000000000E+00  0.15769366087E+03  0.15769366087E+03  0.00000000000E+00 0.  1.
         22   -1    0    0    0    0 -0.00000000000E+00 -0.00000000000E+00 -0.27578362787E+04  0.27578362787E+04  0.00000000000E+00 0.  1.
        -24    2    1    2    0    0 -0.48617183384E+02  0.13430757153E+03 -0.23164535990E+04  0.23222528009E+04  0.80614146857E+02 0.  0.
         25    2    1    2    0    0  0.87956796902E+02 -0.14272484050E+03 -0.39726416941E+03  0.44898012051E+03  0.12513013263E+03 0.  0.
         24    2    1    2    0    0 -0.39339613518E+02  0.84172689726E+01  0.11357515058E+03  0.14429701817E+03  0.79396845107E+02 0.  0.
        -11    1    5    5    0    0 -0.45189164523E+02 -0.96023201425E+01  0.11631591732E+03  0.12515453554E+03  0.00000000000E+00 0.  1.
         12    1    5    5    0    0  0.58495510054E+01  0.18019589115E+02 -0.27407667421E+01  0.19142482628E+02  0.00000000000E+00 0. -1.
         13    1    3    3    0    0 -0.52519427572E+02  0.64409222393E+02 -0.82969277654E+03  0.83384467477E+03  0.00000000000E+00 0. -1.
        -14    1    3    3    0    0  0.39022441880E+01  0.69898349137E+02 -0.14867608224E+04  0.14884081261E+04  0.00000000000E+00 0.  1.
          5    1    4    4  501    0  0.32179283704E-02 -0.98039734596E+02 -0.27400847606E+03  0.29104966401E+03  0.41800000000E+01 0. -1.
         -5    1    4    4    0  501  0.87953578973E+02 -0.44685105907E+02 -0.12325569335E+03  0.15793045649E+03  0.41800000000E+01 0. -1.
</event>
<event>
11    1  0.7105277E-009  0.1288766E+03  0.7561462E-02  0.1120657E+00
         22   -1    0    0    0    0  0.00000000000E+00  0.00000000000E+00  0.57786060008E+03  0.57786060008E+03  0.00000000000E+00 0. -1.
         22   -1    0    0    0    0 -0.00000000000E+00 -0.00000000000E+00 -0.36724042250E+03  0.36724042250E+03  0.00000000000E+00 0.  1.
        -24    2    1    2    0    0  0.26476142808E+01  0.24442884389E+01 -0.26308661779E+03  0.27521410365E+03  0.80717098423E+02 0.  0.
         25    2    1    2    0    0  0.14259903688E+02  0.23679595565E+02 -0.51624773719E+02  0.13812008494E+03  0.12509185626E+03 0.  0.
         24    2    1    2    0    0 -0.16907517969E+02 -0.26123884004E+02  0.52533156909E+03  0.53176683401E+03  0.76383157752E+02 0.  0.
        -11    1    5    5    0    0 -0.26553668842E+02  0.12232590947E+02  0.89713931462E+02  0.94357422117E+02  0.00000000000E+00 0.  1.
         12    1    5    5    0    0  0.96461508733E+01 -0.38356474952E+02  0.43561763763E+03  0.43740941189E+03  0.00000000000E+00 0. -1.
         13    1    3    3    0    0  0.10875760742E+02 -0.12672522184E+02 -0.62954100273E+01  0.17846769390E+02  0.00000000000E+00 0. -1.
        -14    1    3    3    0    0 -0.82281464617E+01  0.15116810623E+02 -0.25679120776E+03  0.25736733426E+03  0.00000000000E+00 0.  1.
          5    1    4    4  501    0  0.65839692785E+02  0.77987824427E+01 -0.51390176137E+02  0.83988741847E+02  0.41800000000E+01 0.  1.
         -5    1    4    4    0  501 -0.51579789097E+02  0.15880813123E+02 -0.23459758216E+00  0.54131343090E+02  0.41800000000E+01 0.  1.
</event>
<event>
11    1  0.7105277E-009  0.2609571E+03  0.7561462E-02  0.1018219E+00
         22   -1    0    0    0    0  0.00000000000E+00  0.00000000000E+00  0.18390606255E+03  0.18390606255E+03  0.00000000000E+00 0.  1.
         22   -1    0    0    0    0 -0.00000000000E+00 -0.00000000000E+00 -0.89395461752E+03  0.89395461752E+03  0.00000000000E+00 0.  1.
         24    2    1    2    0    0 -0.59196200410E+02 -0.94580248980E+02 -0.31406450452E+03  0.34280937309E+03  0.80200621195E+02 0.  0.
         25    2    1    2    0    0  0.20314456783E+03  0.24239965551E+03 -0.38357296061E+03  0.51264039664E+03  0.12508657694E+03 0.  0.
        -24    2    1    2    0    0 -0.14394836742E+03 -0.14781940653E+03 -0.12411089839E+02  0.22241091033E+03  0.82102792003E+02 0.  0.
        -11    1    3    3    0    0 -0.26671885914E+02 -0.69923963994E+01 -0.16203938720E+03  0.16436862873E+03  0.00000000000E+00 0.  1.
         12    1    3    3    0    0 -0.32524314496E+02 -0.87587852581E+02 -0.15202511732E+03  0.17844074436E+03  0.00000000000E+00 0. -1.
         11    1    5    5    0    0 -0.39431415107E+02 -0.30545632264E+02 -0.38707879889E+02  0.63136139518E+02  0.00000000000E+00 0. -1.
        -12    1    5    5    0    0 -0.10451695231E+03 -0.11727377426E+03  0.26296790050E+02  0.15927477082E+03  0.00000000000E+00 0.  1.
          5    1    4    4  501    0 -0.89434780913E+01  0.54761463432E+02 -0.47596573737E+02  0.73223697729E+02  0.41800000000E+01 0. -1.
         -5    1    4    4    0  501  0.21208804592E+03  0.18763819208E+03 -0.33597638687E+03  0.43941669891E+03  0.41800000000E+01 0. -1.
</event>
<event>
11    1  0.7105277E-009  0.1513124E+03  0.7561462E-02  0.1095545E+00
         22   -1    0    0    0    0  0.00000000000E+00  0.00000000000E+00  0.14504428790E+03  0.14504428790E+03  0.00000000000E+00 0.  1.
         22   -1    0    0    0    0 -0.00000000000E+00 -0.00000000000E+00 -0.64688017110E+03  0.64688017110E+03  0.00000000000E+00 0. -1.
        -24    2    1    2    0    0 -0.25672782044E+02 -0.83654202320E+01 -0.43813797174E+03  0.44707691121E+03  0.84757361097E+02 0.  0.
         25    2    1    2    0    0  0.75558455026E+00  0.89586972904E+02 -0.13756676450E+03  0.20639244883E+03  0.12508729598E+03 0.  0.
         24    2    1    2    0    0  0.24917197494E+02 -0.81221552672E+02  0.73868853048E+02  0.13845509895E+03  0.80594042127E+02 0.  0.
        -13    1    5    5    0    0  0.46459796778E+02 -0.80507756304E+02  0.47460900933E+02  0.10436737354E+03  0.00000000000E+00 0.  1.
         14    1    5    5    0    0 -0.21542599284E+02 -0.71379636806E+00  0.26407952115E+02  0.34087725417E+02  0.00000000000E+00 0. -1.
         13    1    3    3    0    0 -0.34233277790E+02 -0.35937012932E+02 -0.36642124257E+03  0.36976737716E+03  0.00000000000E+00 0. -1.
        -14    1    3    3    0    0  0.85604957456E+01  0.27571592700E+02 -0.71716729176E+02  0.77309534051E+02  0.00000000000E+00 0.  1.
          5    1    4    4  501    0 -0.13364974082E+02  0.26108843023E+02 -0.13808386306E+03  0.14122648425E+03  0.41800000000E+01 0. -1.
         -5    1    4    4    0  501  0.14120558633E+02  0.63478129881E+02  0.51709855173E+00  0.65165964584E+02  0.41800000000E+01 0. -1.
</event>
<event>
11    1  0.7105277E-009  0.1914732E+03  0.7561462E-02  0.1060723E+00
         22   -1    0    0    0    0  0.00000000000E+00  0.00000000000E+00  0.39627464099E+03  0.39627464099E+03  0.00000000000E+00 0. -1.
         22   -1    0    0    0    0 -0.00000000000E+00 -0.00000000000E+00 -0.12854519312E+03  0.12854519312E+03  0.00000000000E+00 0.  1.
        -24    2    1    2    0    0 -0.13068529036E+03 -0.75081787546E+02  0.79788040352E+02  0.19048497658E+03  0.84867396461E+02 0.  0.
         25    2    1    2    0    0  0.11753098284E+03  0.73697634087E+02  0.88738314200E+02  0.20680206013E+03  0.12509088884E+03 0.  0.
         24    2    1    2    0    0  0.13154307528E+02  0.13841534587E+01  0.99203093315E+02  0.12753279739E+03  0.79046878499E+02 0.  0.
        -11    1    5    5    0    0 -0.28109817822E+02 -0.15655215515E+02  0.60165196162E+02  0.68228281966E+02  0.00000000000E+00 0.  1.
         12    1    5    5    0    0  0.41264125350E+02  0.17039368974E+02  0.39037897152E+02  0.59304515427E+02  0.00000000000E+00 0. -1.
         13    1    3    3    0    0 -0.54864793792E+02 -0.79877361304E+02  0.47811814826E+02  0.10805789228E+03  0.00000000000E+00 0. -1.
        -14    1    3    3    0    0 -0.75820496571E+02  0.47955737581E+01  0.31976225526E+02  0.82427084304E+02  0.00000000000E+00 0.  1.
          5    1    4    4  501    0  0.11242001163E+02 -0.86712874609E+01  0.69309583493E+02  0.70872170705E+02  0.41800000000E+01 0. -1.
         -5    1    4    4    0  501  0.10628898167E+03  0.82368921548E+02  0.19428730707E+02  0.13592988942E+03  0.41800000000E+01 0. -1.
</event>
<event>
11    1  0.7105277E-009  0.2593566E+03  0.7561462E-02  0.1019030E+00
         22   -1    0    0    0    0  0.00000000000E+00  0.00000000000E+00  0.14101451370E+04  0.14101451370E+04  0.00000000000E+00 0.  1.
         22   -1    0    0    0    0 -0.00000000000E+00 -0.00000000000E+00 -0.32430038174E+03  0.32430038174E+03  0.00000000000E+00 0. -1.
        -24    2    1    2    0    0  0.16025317062E+03  0.15683934463E+03 -0.21706812748E+03  0.32245829402E+03  0.81124106763E+02 0.  0.
         25    2    1    2    0    0 -0.22066523632E+03 -0.12949509429E+03  0.34073355088E+03  0.44408239565E+03  0.12509074891E+03 0.  0.
         24    2    1    2    0    0  0.60412065704E+02 -0.27344250333E+02  0.96217933182E+03  0.96790482902E+03  0.81568166325E+02 0.  0.
        -11    1    5    5    0    0  0.21199366784E+02 -0.36405413655E+02  0.78845254458E+03  0.78957721747E+03  0.00000000000E+00 0.  1.
         12    1    5    5    0    0  0.39212698920E+02  0.90611633211E+01  0.17372678724E+03  0.17832761155E+03  0.00000000000E+00 0. -1.
         11    1    3    3    0    0  0.12411048683E+03  0.77729811163E+02 -0.10310403716E+03  0.17909712159E+03  0.00000000000E+00 0. -1.
        -12    1    3    3    0    0  0.36142683786E+02  0.79109533464E+02 -0.11396409032E+03  0.14336117243E+03  0.00000000000E+00 0.  1.
          5    1    4    4  501    0 -0.70445873369E+02 -0.24439976005E+02  0.24610804117E+02  0.78632675022E+02  0.41800000000E+01 0.  1.
         -5    1    4    4    0  501 -0.15021936295E+03 -0.10505511829E+03  0.31612274677E+03  0.36544972063E+03  0.41800000000E+01 0.  1.
</event>
<event>
11    1  0.7581759E-009  0.2761265E+03  0.7561462E-02  0.1010834E+00
         22   -1    0    0    0    0  0.00000000000E+00  0.00000000000E+00  0.19258871393E+04  0.19258871393E+04  0.00000000000E+00 0. -1.
         22   -1    0    0    0    0 -0.00000000000E+00 -0.00000000000E+00 -0.59855525235E+03  0.59855525235E+03  0.00000000000E+00 0.  1.
        -24    2    1    2    0    0 -0.14479737798E+02  0.10308991164E+03 -0.42743860023E+03  0.44626583279E+03  0.74914910799E+02 0.  0.
         25    2    1    2    0    0  0.18198804129E+03 -0.27663730058E+03  0.53561541375E+02  0.35800075964E+03  0.12509141438E+03 0.  0.
         24    2    1    2    0    0 -0.16750830349E+03  0.17354738893E+03  0.17012089458E+04  0.17201757992E+04  0.81946171278E+02 0.  0.
        -13    1    5    5    0    0 -0.75566555795E+02  0.10277866091E+03  0.63606646848E+03  0.64873284934E+03  0.00000000000E+00 0.  1.
         14    1    5    5    0    0 -0.91941747694E+02  0.70768728024E+02  0.10651424773E+04  0.10714429498E+04  0.00000000000E+00 0. -1.
         11    1    3    3    0    0  0.19276353514E+02  0.21511561585E+02 -0.42867874861E+02  0.51691196366E+02  0.00000000000E+00 0. -1.
        -12    1    3    3    0    0 -0.33756091312E+02  0.81578350059E+02 -0.38457072537E+03  0.39457463642E+03  0.00000000000E+00 0.  1.
          5    1    4    4  501    0  0.37617013669E+02 -0.63219676180E+02 -0.40005580899E+02  0.83843223201E+02  0.41800000000E+01 0. -1.
         -5    1    4    4    0  501  0.14437102762E+03 -0.21341762440E+03  0.93567122274E+02  0.27415753644E+03  0.41800000000E+01 0. -1.
</event>
<event>
11    1  0.7105277E-009  0.1402884E+03  0.7561462E-02  0.1107237E+00
         22   -1    0    0    0    0  0.00000000000E+00  0.00000000000E+00  0.67746023535E+03  0.67746023535E+03  0.00000000000E+00 0. -1.
         22   -1    0    0    0    0 -0.00000000000E+00 -0.00000000000E+00 -0.74871762270E+02  0.74871762270E+02  0.00000000000E+00 0. -1.
        -24    2    1    2    0    0  0.14598023578E+01  0.50944618469E+02 -0.35964083380E+01  0.96493610632E+02  0.81857177852E+02 0.  0.
         25    2    1    2    0    0 -0.43288339456E+02  0.14544260072E+02  0.26150084471E+03  0.29345442066E+03  0.12508952550E+03 0.  0.
         24    2    1    2    0    0  0.41828537098E+02 -0.65488878541E+02  0.34468403671E+03  0.36238396633E+03  0.80477538221E+02 0.  0.
        -13    1    5    5    0    0  0.22473943364E+02 -0.43239686890E+02  0.65461699599E+02  0.81608717469E+02  0.00000000000E+00 0.  1.
         14    1    5    5    0    0  0.19354593735E+02 -0.22249191651E+02  0.27922233712E+03  0.28077524886E+03  0.00000000000E+00 0. -1.
         13    1    3    3    0    0  0.87313593403E+01  0.36218650343E+02 -0.41147512618E+02  0.55508063047E+02  0.00000000000E+00 0. -1.
        -14    1    3    3    0    0 -0.72715569825E+01  0.14725968126E+02  0.37551104280E+02  0.40985547585E+02  0.00000000000E+00 0.  1.
          5    1    4    4  501    0  0.12383161217E+02  0.46677109340E+02  0.19474896374E+03  0.20069062383E+03  0.41800000000E+01 0. -1.
         -5    1    4    4    0  501 -0.55671500674E+02 -0.32132849268E+02  0.66751880972E+02  0.92763796832E+02  0.41800000000E+01 0. -1.
</event>
<event>
11    1  0.7105277E-009  0.1598037E+03  0.7561462E-02  0.1087262E+00
         22   -1    0    0    0    0  0.00000000000E+00  0.00000000000E+00  0.39154752420E+04  0.39154752420E+04  0.00000000000E+00 0.  1.
         22   -1    0    0    0    0 -0.00000000000E+00 -0.00000000000E+00 -0.10681052730E+04  0.10681052730E+04  0.00000000000E+00 0.  1.
         24    2    1    2    0    0 -0.10438290499E+03  0.23444675325E+02 -0.95633286709E+03  0.96554965939E+03  0.79171638935E+02 0.  0.
         25    2    1    2    0    0  0.29004133610E+02 -0.24825549793E+02 -0.66160194517E+02  0.14655461018E+03  0.12507411698E+03 0.  0.
        -24    2    1    2    0    0  0.75378771381E+02  0.13808744678E+01  0.38698630306E+04  0.38714762454E+04  0.82489857831E+02 0.  0.
        -13    1    3    3    0    0 -0.59690568772E+02  0.51729009008E+02 -0.63489933461E+03  0.63979373196E+03  0.00000000000E+00 0.  1.
         14    1    3    3    0    0 -0.44692336219E+02 -0.28284333682E+02 -0.32143353248E+03  0.32575592743E+03  0.00000000000E+00 0. -1.
         11    1    5    5    0    0  0.81257134654E+01 -0.12035171781E+02  0.10617017516E+03  0.10715866121E+03  0.00000000000E+00 0. -1.
        -12    1    5    5    0    0  0.67253057916E+02  0.13416046249E+02  0.37636928555E+04  0.37643175842E+04  0.00000000000E+00 0.  1.
          5    1    4    4  501    0 -0.78805849359E+01 -0.42861072386E+02  0.22159467361E+02  0.49068213119E+02  0.41800000000E+01 0. -1.
         -5    1    4    4    0  501  0.36884718546E+02  0.18035522593E+02 -0.88319661878E+02  0.97486397060E+02  0.41800000000E+01 0. -1.
</event>
<event>
11    1  0.7105277E-009  0.2148263E+03  0.7561462E-02  0.1044508E+00
         22   -1    0    0    0    0  0.00000000000E+00  0.00000000000E+00  0.95330549420E+03  0.95330549420E+03  0.00000000000E+00 0. -1.
         22   -1    0    0    0    0 -0.00000000000E+00 -0.00000000000E+00 -0.82519995274E+03  0.82519995274E+03  0.00000000000E+00 0.  1.
         24    2    1    2    0    0  0.17725596965E+03 -0.22933952086E+02 -0.75212685561E+03  0.77717702866E+03  0.79772689558E+02 0.  0.
         25    2    1    2    0    0 -0.84723645902E+02  0.14268140765E+03  0.16308343015E+03  0.26415786065E+03  0.12508832835E+03 0.  0.
        -24    2    1    2    0    0 -0.92532323746E+02 -0.11974745556E+03  0.71714896692E+03  0.73717055763E+03  0.78842287079E+02 0.  0.
        -11    1    3    3    0    0  0.16708404824E+03 -0.42446852061E+02 -0.69200251934E+03  0.71315236885E+03  0.00000000000E+00 0.  1.
         12    1    3    3    0    0  0.10171921412E+02  0.19512899975E+02 -0.60124336272E+02  0.64024659803E+02  0.00000000000E+00 0. -1.
         11    1    5    5    0    0 -0.66863020703E+02 -0.31552631956E+02  0.40876557026E+03  0.41539803027E+03  0.00000000000E+00 0. -1.
        -12    1    5    5    0    0 -0.25669303042E+02 -0.88194823606E+02  0.30838339666E+03  0.32177252736E+03  0.00000000000E+00 0.  1.
          5    1    4    4  501    0 -0.36309456299E+02  0.10756010319E+03  0.16929756918E+03  0.20387911062E+03  0.41800000000E+01 0. -1.
         -5    1    4    4    0  501 -0.48414189603E+02  0.35121304460E+02 -0.62141390300E+01  0.60278750035E+02  0.41800000000E+01 0. -1.
</event>
<event>
11    1  0.7105277E-009  0.1600179E+03  0.7561462E-02  0.1087060E+00
         22   -1    0    0    0    0  0.00000000000E+00  0.00000000000E+00  0.31900841804E+03  0.31900841804E+03  0.00000000000E+00 0. -1.
         22   -1    0    0    0    0 -0.00000000000E+00 -0.00000000000E+00 -0.29231617164E+03  0.29231617164E+03  0.00000000000E+00 0.  1.
         24    2    1    2    0    0  0.96453554203E+02 -0.26606023267E+02 -0.18845870876E+03  0.22857164387E+03  0.81958177622E+02 0.  0.
         25    2    1    2    0    0 -0.65740682023E+02  0.11020567211E+03  0.64039305369E+02  0.19030664308E+03  0.12509379812E+03 0.  0.
        -24    2    1    2    0    0 -0.30712872180E+02 -0.83599648840E+02  0.15111164979E+03  0.19244630273E+03  0.79174913504E+02 0.  0.
        -13    1    3    3    0    0  0.86407162696E+02 -0.24810274600E+02 -0.19616496911E+03  0.21578332326E+03  0.00000000000E+00 0.  1.
         14    1    3    3    0    0  0.10046391507E+02 -0.17957486668E+01  0.77062603432E+01  0.12788320611E+02  0.00000000000E+00 0. -1.
         13    1    5    5    0    0 -0.21440440606E+02 -0.98299630718E+02  0.13745858360E+03  0.17034486226E+03  0.00000000000E+00 0. -1.
        -14    1    5    5    0    0 -0.92724315737E+01  0.14699981878E+02  0.13653066190E+02  0.22101440471E+02  0.00000000000E+00 0.  1.
          5    1    4    4  501    0 -0.36854016025E+02  0.73379801984E+02 -0.28089110580E+02  0.86886617897E+02  0.41800000000E+01 0. -1.
         -5    1    4    4    0  501 -0.28886665998E+02  0.36825870122E+02  0.92128415948E+02  0.10342002518E+03  0.41800000000E+01 0. -1.
</event>
<event>
11    1  0.7105277E-009  0.1750767E+03  0.7561462E-02  0.1073696E+00
         22   -1    0    0    0    0  0.00000000000E+00  0.00000000000E+00  0.97715312542E+03  0.97715312542E+03  0.00000000000E+00 0. -1.
         22   -1    0    0    0    0 -0.00000000000E+00 -0.00000000000E+00 -0.17331800108E+03  0.17331800108E+03  0.00000000000E+00 0.  1.
        -24    2    1    2    0    0  0.12902993922E+03 -0.25060934344E+02 -0.98075873571E+02  0.18306954533E+03  0.81356043441E+02 0.  0.
         25    2    1    2    0    0 -0.22946951126E+02  0.12478782345E+03  0.38543715348E+03  0.42463241209E+03  0.12510924294E+03 0.  0.
         24    2    1    2    0    0 -0.10608298809E+03 -0.99726889111E+02  0.51647384444E+03  0.54276916908E+03  0.81572582055E+02 0.  0.
        -13    1    5    5    0    0 -0.10524588565E+03 -0.58882791952E+02  0.31722328360E+03  0.33937367502E+03  0.00000000000E+00 0.  1.
         14    1    5    5    0    0 -0.83710244254E+00 -0.40844097159E+02  0.19925056083E+03  0.20339549406E+03  0.00000000000E+00 0. -1.
         13    1    3    3    0    0 -0.70720362067E+00  0.15294214732E+02 -0.23590294299E+02  0.28123213300E+02  0.00000000000E+00 0. -1.
        -14    1    3    3    0    0  0.12973714284E+03 -0.40355149075E+02 -0.74485579272E+02  0.15494633203E+03  0.00000000000E+00 0.  1.
          5    1    4    4  501    0 -0.22110475149E+02  0.15041642454E+03  0.33445313516E+03  0.36741032362E+03  0.41800000000E+01 0. -1.
         -5    1    4    4    0  501 -0.83647597770E+00 -0.25628601082E+02  0.50984018311E+02  0.57222088468E+02  0.41800000000E+01 0. -1.
</event>
<event>
11    1  0.7679277E-009  0.1535216E+03  0.7561462E-02  0.1093334E+00
         22   -1    0    0    0    0  0.00000000000E+00  0.00000000000E+00  0.48336798621E+03  0.48336798621E+03  0.00000000000E+00 0.  1.
         22   -1    0    0    0    0 -0.00000000000E+00 -0.00000000000E+00 -0.10725889413E+04  0.10725889413E+04  0.00000000000E+00 0.  1.
         24    2    1    2    0    0  0.63652744136E+02  0.62062980498E+02 -0.71462785490E+03  0.72457824194E+03  0.80107255096E+02 0.  0.
         25    2    1    2    0    0 -0.23768712327E+02 -0.99092618625E+02 -0.32911631259E+03  0.36652088415E+03  0.12504284288E+03 0.  0.
        -24    2    1    2    0    0 -0.39884031809E+02  0.37029638127E+02  0.45452321242E+03  0.46485780138E+03  0.80867142740E+02 0.  0.
        -11    1    3    3    0    0  0.82075352298E+02  0.46186393148E+02 -0.52281466182E+03  0.53122943911E+03  0.00000000000E+00 0.  1.
         12    1    3    3    0    0 -0.18422608163E+02  0.15876587350E+02 -0.19181319308E+03  0.19334880283E+03  0.00000000000E+00 0. -1.
         13    1    5    5    0    0 -0.17286389692E+02 -0.19502578735E+02  0.56692306039E+02  0.62395411770E+02  0.00000000000E+00 0. -1.
        -14    1    5    5    0    0 -0.22597642116E+02  0.56532216862E+02  0.39783090639E+03  0.40246238961E+03  0.00000000000E+00 0.  1.
          5    1    4    4  501    0  0.34047067669E+02 -0.45874616135E+02 -0.48424437364E+02  0.75007211363E+02  0.41800000000E+01 0. -1.
         -5    1    4    4    0  501 -0.57815779996E+02 -0.53218002490E+02 -0.28069187522E+03  0.29151367278E+03  0.41800000000E+01 0. -1.
</event>
<event>
11    1  0.7105277E-009  0.1574326E+03  0.7561462E-02  0.1089517E+00
         22   -1    0    0    0    0  0.00000000000E+00  0.00000000000E+00  0.14076195163E+03  0.14076195163E+03  0.00000000000E+00 0. -1.
         22   -1    0    0    0    0 -0.00000000000E+00 -0.00000000000E+00 -0.25432225204E+04  0.25432225204E+04  0.00000000000E+00 0.  1.
        -24    2    1    2    0    0 -0.13545983810E+02  0.82924591144E+02 -0.23782025413E+04  0.23810848103E+04  0.81593900986E+02 0.  0.
         25    2    1    2    0    0 -0.69788760452E+02 -0.74038587715E+00 -0.60973973788E+02  0.15567905061E+03  0.12508845695E+03 0.  0.
         24    2    1    2    0    0  0.83334744261E+02 -0.82184205267E+02  0.36715946301E+02  0.14722061118E+03  0.81405923910E+02 0.  0.
        -11    1    5    5    0    0 -0.15161246254E+02 -0.71349257272E+01  0.12839495734E+02  0.21109789289E+02  0.00000000000E+00 0.  1.
         12    1    5    5    0    0  0.98495990515E+02 -0.75049279540E+02  0.23876450567E+02  0.12611082189E+03  0.00000000000E+00 0. -1.
         11    1    3    3    0    0 -0.35254580897E+02  0.23235497315E+02 -0.49046325551E+03  0.49227733933E+03  0.00000000000E+00 0. -1.
        -12    1    3    3    0    0  0.21708597088E+02  0.59689093829E+02 -0.18877392858E+04  0.18888074710E+04  0.00000000000E+00 0.  1.
          5    1    4    4  501    0 -0.42916521020E+02 -0.21723402135E+02  0.31082861354E+02  0.57422562175E+02  0.41800000000E+01 0.  1.
         -5    1    4    4    0  501 -0.26872239432E+02  0.20983016258E+02 -0.92056835142E+02  0.98256488436E+02  0.41800000000E+01 0.  1.
</event>
<event>
11    1  0.7105277E-009  0.1656416E+03  0.7561462E-02  0.1081888E+00
         22   -1    0    0    0    0  0.00000000000E+00  0.00000000000E+00  0.12688180449E+04  0.12688180449E+04  0.00000000000E+00 0. -1.
         22   -1    0    0    0    0 -0.00000000000E+00 -0.00000000000E+00 -0.40833466639E+03  0.40833466639E+03  0.00000000000E+00 0.  1.
         24    2    1    2    0    0  0.78462231648E+02 -0.73697941151E+02 -0.36572372262E+03  0.38991531428E+03  0.81807106673E+02 0.  0.
         25    2    1    2    0    0 -0.11840307001E+03  0.66247949161E+02  0.27280519970E+03  0.32936009609E+03  0.12508924075E+03 0.  0.
        -24    2    1    2    0    0  0.39940838364E+02  0.74499919902E+01  0.95340190145E+03  0.95787730095E+03  0.83084084141E+02 0.  0.
        -11    1    3    3    0    0  0.87057387700E+02 -0.49858938446E+02 -0.33697497960E+03  0.35159214920E+03  0.00000000000E+00 0.  1.
         12    1    3    3    0    0 -0.85951560520E+01 -0.23839002705E+02 -0.28748743012E+02  0.38323165087E+02  0.00000000000E+00 0. -1.
         11    1    5    5    0    0  0.65656490132E+02  0.17976459372E+01  0.72239438100E+03  0.72537414341E+03  0.00000000000E+00 0. -1.
        -12    1    5    5    0    0 -0.25715651768E+02  0.56523460530E+01  0.23100752045E+03  0.23250315754E+03  0.00000000000E+00 0.  1.
          5    1    4    4  501    0 -0.12710075044E+03  0.60593247778E+02  0.14898935123E+03  0.20504009759E+03  0.41800000000E+01 0.  1.
         -5    1    4    4    0  501  0.86976804330E+01  0.56547013829E+01  0.12381584847E+03  0.12431999850E+03  0.41800000000E+01 0.  1.
</event>
<event>
11    1  0.7105277E-009  0.1327885E+03  0.7561462E-02  0.1115889E+00
         22   -1    0    0    0    0  0.00000000000E+00  0.00000000000E+00  0.59976919370E+03  0.59976919370E+03  0.00000000000E+00 0. -1.
         22   -1    0    0    0    0 -0.00000000000E+00 -0.00000000000E+00 -0.26346207777E+03  0.26346207777E+03  0.00000000000E+00 0. -1.
         24    2    1    2    0    0  0.22808791067E+02  0.21793973770E+02 -0.23260147741E+03  0.24819792135E+03  0.80644544909E+02 0.  0.
         25    2    1    2    0    0 -0.54596635906E+02  0.65542141517E+01  0.28253044621E+03  0.31383804890E+03  0.12508843881E+03 0.  0.
        -24    2    1    2    0    0  0.31787844839E+02 -0.28348187922E+02  0.28637814713E+03  0.30119530123E+03  0.83018549084E+02 0.  0.
        -11    1    3    3    0    0  0.14517823308E+02  0.51955149309E+02 -0.12503862942E+03  0.13617915986E+03  0.00000000000E+00 0.  1.
         12    1    3    3    0    0  0.82909677585E+01 -0.30161175539E+02 -0.10756284800E+03  0.11201876149E+03  0.00000000000E+00 0. -1.
         13    1    5    5    0    0 -0.27638969363E+02 -0.10155504612E+02  0.12081757751E+03  0.12435406683E+03  0.00000000000E+00 0. -1.
        -14    1    5    5    0    0  0.59426814202E+02 -0.18192683309E+02  0.16556056962E+03  0.17684123440E+03  0.00000000000E+00 0.  1.
          5    1    4    4  501    0 -0.70698472006E+02 -0.36898605944E+02  0.23097899277E+03  0.24439424823E+03  0.41800000000E+01 0.  1.
         -5    1    4    4    0  501  0.16101836100E+02  0.43452820096E+02  0.51551453438E+02  0.69443800671E+02  0.41800000000E+01 0.  1.
</event>
<event>
11    1  0.7105277E-009  0.1457072E+03  0.7561462E-02  0.1101348E+00
         22   -1    0    0    0    0  0.00000000000E+00  0.00000000000E+00  0.14621830880E+04  0.14621830880E+04  0.00000000000E+00 0. -1.
         22   -1    0    0    0    0 -0.00000000000E+00 -0.00000000000E+00 -0.35809260148E+03  0.35809260148E+03  0.00000000000E+00 0. -1.
         24    2    1    2    0    0 -0.73943899545E+02 -0.15389673909E+02 -0.31816844850E+03  0.33695766733E+03  0.81269709051E+02 0.  0.
         25    2    1    2    0    0 -0.56378302320E+01 -0.51937701338E+01  0.11527841145E+03  0.17028106009E+03  0.12509103445E+03 0.  0.
        -24    2    1    2    0    0  0.79581729777E+02  0.20583444043E+02  0.13069805236E+04  0.13130369621E+04  0.95451793440E+02 0.  0.
        -11    1    3    3    0    0 -0.11851756669E+02 -0.18830910399E+02 -0.13539162428E+02  0.26045656871E+02  0.00000000000E+00 0.  1.
         12    1    3    3    0    0 -0.62092142876E+02  0.34412364902E+01 -0.30462928607E+03  0.31091201046E+03  0.00000000000E+00 0. -1.
         13    1    5    5    0    0  0.72605522105E+02  0.10689331753E+02  0.12905143099E+04  0.12925993222E+04  0.00000000000E+00 0. -1.
        -14    1    5    5    0    0  0.69762076719E+01  0.98941122900E+01  0.16466213704E+02  0.20437639913E+02  0.00000000000E+00 0.  1.
          5    1    4    4  501    0  0.41361240211E+01  0.55262955304E+02  0.85699640519E+02  0.10214207035E+03  0.41800000000E+01 0. -1.
         -5    1    4    4    0  501 -0.97739542532E+01 -0.60456725438E+02  0.29578770936E+02  0.68138989738E+02  0.41800000000E+01 0. -1.
</event>
<event>
11    1  0.7105277E-009  0.1335965E+03  0.7561462E-02  0.1114927E+00
         22   -1    0    0    0    0  0.00000000000E+00  0.00000000000E+00  0.56933661197E+03  0.56933661197E+03  0.00000000000E+00 0. -1.
         22   -1    0    0    0    0 -0.00000000000E+00 -0.00000000000E+00 -0.56169670824E+03  0.56169670824E+03  0.00000000000E+00 0.  1.
        -24    2    1    2    0    0 -0.30956342023E+02 -0.28711502786E+02 -0.50826721934E+03  0.51612300177E+03  0.79150118070E+02 0.  0.
         25    2    1    2    0    0  0.63948852515E+02 -0.41673811533E+01  0.65906926119E+02  0.15523170132E+03  0.12508531240E+03 0.  0.
         24    2    1    2    0    0 -0.32992510492E+02  0.32878883940E+02  0.45000019696E+03  0.45967861712E+03  0.81453833649E+02 0.  0.
        -11    1    5    5    0    0 -0.31952263674E+02 -0.18222725745E+02  0.11330987192E+03  0.11913077672E+03  0.00000000000E+00 0.  1.
         12    1    5    5    0    0 -0.10402468179E+01  0.51101609684E+02  0.33669032503E+03  0.34054784040E+03  0.00000000000E+00 0. -1.
         11    1    3    3    0    0 -0.29629793412E+02  0.22734027249E+02 -0.25051511809E+03  0.25328360595E+03  0.00000000000E+00 0. -1.
        -12    1    3    3    0    0 -0.13265486117E+01 -0.51445530035E+02 -0.25775210126E+03  0.26283939582E+03  0.00000000000E+00 0.  1.
          5    1    4    4  501    0 -0.32399216767E+02  0.61978622708E+00 -0.79964560258E+01  0.33637911514E+02  0.41800000000E+01 0.  1.
         -5    1    4    4    0  501  0.96348069282E+02 -0.47871673803E+01  0.73903382144E+02  0.12159378980E+03  0.41800000000E+01 0.  1.
</event>
<event>
11    1  0.7105277E-009  0.1287674E+03  0.7561462E-02  0.1120793E+00
         22   -1    0    0    0    0  0.00000000000E+00  0.00000000000E+00  0.27707135553E+04  0.27707135553E+04  0.00000000000E+00 0. -1.
         22   -1    0    0    0    0 -0.00000000000E+00 -0.00000000000E+00 -0.90873902119E+02  0.90873902119E+02  0.00000000000E+00 0. -1.
        -24    2    1    2    0    0  0.34186942130E+02  0.10791940871E+02 -0.55446954467E+02  0.10391206531E+03  0.80238018157E+02 0.  0.
         25    2    1    2    0    0 -0.30793415906E+02 -0.40533903323E+02  0.43026179510E+03  0.45095791993E+03  0.12508637595E+03 0.  0.
         24    2    1    2    0    0 -0.33935262245E+01  0.29741962452E+02  0.23050248126E+04  0.23067174722E+04  0.83126467563E+02 0.  0.
        -11    1    5    5    0    0 -0.42615672794E+02  0.12637564219E+02  0.13563394641E+04  0.13570676275E+04  0.00000000000E+00 0.  1.
         12    1    5    5    0    0  0.39222146570E+02  0.17104398232E+02  0.94868534842E+03  0.94964984470E+03  0.00000000000E+00 0. -1.
         13    1    3    3    0    0  0.22222294538E+02 -0.33586275054E+02 -0.35953745349E+02  0.53986480263E+02  0.00000000000E+00 0. -1.
        -14    1    3    3    0    0  0.11964647592E+02  0.44378215926E+02 -0.19493209118E+02  0.49925585049E+02  0.00000000000E+00 0.  1.
          5    1    4    4  501    0  0.38593191389E+01 -0.18640438185E+02  0.39839258682E+03  0.39886900846E+03  0.41800000000E+01 0.  1.
         -5    1    4    4    0  501 -0.34652735045E+02 -0.21893465138E+02  0.31869208280E+02  0.52088911471E+02  0.41800000000E+01 0.  1.
</event>
<event>
11    1  0.7105277E-009  0.1395148E+03  0.7561462E-02  0.1108101E+00
         22   -1    0    0    0    0  0.00000000000E+00  0.00000000000E+00  0.49073851483E+03  0.49073851483E+03  0.00000000000E+00 0. -1.
         22   -1    0    0    0    0 -0.00000000000E+00 -0.00000000000E+00 -0.30278116711E+03  0.30278116711E+03  0.00000000000E+00 0.  1.
        -24    2    1    2    0    0 -0.14115935726E+02  0.30648396702E+02 -0.22282678963E+03  0.24247858043E+03  0.89473459351E+02 0.  0.
         25    2    1    2    0    0 -0.45491304883E+02 -0.48262240201E+02  0.15272403032E+02  0.14240623418E+03  0.12509031374E+03 0.  0.
         24    2    1    2    0    0  0.59607240608E+02  0.17613843499E+02  0.39551173432E+03  0.40863486732E+03  0.81790293990E+02 0.  0.
        -13    1    5    5    0    0 -0.76196355370E+01 -0.58312368040E+01  0.35051008853E+01  0.10215082016E+02  0.00000000000E+00 0.  1.
         14    1    5    5    0    0  0.67226876145E+02  0.23445080303E+02  0.39200663343E+03  0.39841978530E+03  0.00000000000E+00 0. -1.
         11    1    3    3    0    0 -0.32615134512E+02  0.52767439147E+02 -0.11275837243E+03  0.12869576600E+03  0.00000000000E+00 0. -1.
        -12    1    3    3    0    0  0.18499198787E+02 -0.22119042444E+02 -0.11006841720E+03  0.11378281443E+03  0.00000000000E+00 0.  1.
          5    1    4    4  501    0  0.27639383804E+02  0.25341780942E+02  0.49008212835E+01  0.38047757458E+02  0.41800000000E+01 0. -1.
         -5    1    4    4    0  501 -0.73130688686E+02 -0.73604021143E+02  0.10371581748E+02  0.10435847672E+03  0.41800000000E+01 0. -1.
</event>
<event>
11    1  0.7105277E-009  0.1305420E+03  0.7561462E-02  0.1118605E+00
         22   -1    0    0    0    0  0.00000000000E+00  0.00000000000E+00  0.37278503077E+03  0.37278503077E+03  0.00000000000E+00 0.  1.
         22   -1    0    0    0    0 -0.00000000000E+00 -0.00000000000E+00 -0.32001450580E+03  0.32001450580E+03  0.00000000000E+00 0. -1.
        -24    2    1    2    0    0  0.34777899207E+02  0.44727874023E+00 -0.20036645651E+03  0.21902598371E+03  0.81338565983E+02 0.  0.
         25    2    1    2    0    0 -0.47676607039E+02  0.32371626182E+02 -0.59303543011E+02  0.14995002191E+03  0.12508843998E+03 0.  0.
         24    2    1    2    0    0  0.12898707832E+02 -0.32818904922E+02  0.31244052449E+03  0.32382353096E+03  0.77454119794E+02 0.  0.
        -11    1    5    5    0    0  0.76479917245E+01 -0.39872259774E+01  0.27989563006E+03  0.28002848690E+03  0.00000000000E+00 0.  1.
         12    1    5    5    0    0  0.52507161076E+01 -0.28831678945E+02  0.32544894430E+02  0.43795044056E+02  0.00000000000E+00 0. -1.
         13    1    3    3    0    0  0.49716047450E+02 -0.24150739757E+02 -0.16127759877E+03  0.17048579844E+03  0.00000000000E+00 0. -1.
        -14    1    3    3    0    0 -0.14938148244E+02  0.24598018498E+02 -0.39088857737E+02  0.48540185271E+02  0.00000000000E+00 0.  1.
          5    1    4    4  501    0  0.33907871564E+02  0.42134530962E+02 -0.13974147715E+02  0.56016173180E+02  0.41800000000E+01 0. -1.
         -5    1    4    4    0  501 -0.81584478603E+02 -0.97629047795E+01 -0.45329395297E+02  0.93933848727E+02  0.41800000000E+01 0. -1.
</event>
<event>
11    1  0.7105277E-009  0.1750704E+03  0.7561462E-02  0.1073702E+00
         22   -1    0    0    0    0  0.00000000000E+00  0.00000000000E+00  0.11348422270E+03  0.11348422270E+03  0.00000000000E+00 0. -1.
         22   -1    0    0    0    0 -0.00000000000E+00 -0.00000000000E+00 -0.13597103526E+04  0.13597103526E+04  0.00000000000E+00 0.  1.
        -24    2    1    2    0    0 -0.14437589902E+02 -0.11904440957E+03 -0.11358403233E+04  0.11449593321E+04  0.80116269598E+02 0.  0.
         25    2    1    2    0    0  0.69589114264E+01  0.16896790563E+03 -0.52912889528E+02  0.21690118263E+03  0.12509104511E+03 0.  0.
         24    2    1    2    0    0  0.74786784752E+01 -0.49923496059E+02 -0.57472917129E+02  0.11133406065E+03  0.80894071267E+02 0.  0.
        -11    1    5    5    0    0  0.76067065051E+01  0.16156786098E+02 -0.38727177168E+02  0.42646195285E+02  0.00000000000E+00 0.  1.
         12    1    5    5    0    0 -0.12802802999E+00 -0.66080282158E+02 -0.18745739961E+02  0.68687865361E+02  0.00000000000E+00 0. -1.
         11    1    3    3    0    0 -0.15148084575E+02  0.46671208154E+01 -0.61117959346E+02  0.63139935363E+02  0.00000000000E+00 0. -1.
        -12    1    3    3    0    0  0.71049467371E+00 -0.12371153038E+03 -0.10747223639E+04  0.10818193967E+04  0.00000000000E+00 0.  1.
          5    1    4    4  501    0 -0.48140247652E+02  0.75827848416E+02 -0.60441145784E+02  0.10834182269E+03  0.41800000000E+01 0. -1.
         -5    1    4    4    0  501  0.55099159078E+02  0.93140057209E+02  0.75282562563E+01  0.10855935994E+03  0.41800000000E+01 0. -1.
</event>
<event>
11    1  0.7105277E-009  0.5345246E+03  0.7561462E-02  0.9319520E-01
         22   -1    0    0    0    0  0.00000000000E+00  0.00000000000E+00  0.15984325247E+04  0.15984325247E+04  0.00000000000E+00 0. -1.
         22   -1    0    0    0    0 -0.00000000000E+00 -0.00000000000E+00 -0.10667206328E+04  0.10667206328E+04  0.00000000000E+00 0. -1.
        -24    2    1    2    0    0 -0.30887276081E+02 -0.16073486909E+02 -0.88645216946E+03  0.89086973950E+03  0.81480446721E+02 0.  0.
         25    2    1    2    0    0 -0.27165626274E+03  0.44097314278E+03  0.62056016733E+03  0.81792125794E+03  0.12508327299E+03 0.  0.
         24    2    1    2    0    0  0.30254353882E+03 -0.42489965587E+03  0.79760389408E+03  0.95636216008E+03  0.79901808122E+02 0.  0.
        -13    1    5    5    0    0  0.66889322904E+02 -0.12087881607E+03  0.27159800411E+03  0.30471518756E+03  0.00000000000E+00 0.  1.
         14    1    5    5    0    0  0.23565421592E+03 -0.30402083979E+03  0.52600588997E+03  0.65164697252E+03  0.00000000000E+00 0. -1.
         13    1    3    3    0    0  0.10342989990E+02 -0.37462987240E+02 -0.28679353196E+03  0.28941489738E+03  0.00000000000E+00 0. -1.
        -14    1    3    3    0    0 -0.41230266072E+02  0.21389500332E+02 -0.59965863751E+03  0.60145484211E+03  0.00000000000E+00 0.  1.
          5    1    4    4  501    0 -0.15040162973E+03  0.13337492418E+03  0.26040963406E+03  0.32899873942E+03  0.41800000000E+01 0.  1.
         -5    1    4    4    0  501 -0.12125463302E+03  0.30759821859E+03  0.36015053327E+03  0.48892251853E+03  0.41800000000E+01 0.  1.
</event>
<event>
11    1  0.7105277E-009  0.1532803E+03  0.7561462E-02  0.1093573E+00
         22   -1    0    0    0    0  0.00000000000E+00  0.00000000000E+00  0.81775194885E+03  0.81775194885E+03  0.00000000000E+00 0. -1.
         22   -1    0    0    0    0 -0.00000000000E+00 -0.00000000000E+00 -0.76961017329E+03  0.76961017329E+03  0.00000000000E+00 0.  1.
         24    2    1    2    0    0  0.86977478150E+02 -0.30415824831E+02 -0.68513107680E+03  0.69608054578E+03  0.81445255960E+02 0.  0.
         25    2    1    2    0    0 -0.39687100968E+02  0.34975277762E+02 -0.15350861880E+02  0.13667905586E+03  0.12508868579E+03 0.  0.
        -24    2    1    2    0    0 -0.47290377182E+02 -0.45594529312E+01  0.74862371423E+03  0.75460252049E+03  0.82038588707E+02 0.  0.
        -13    1    3    3    0    0  0.86869848191E+02 -0.15200974888E+02 -0.66512425043E+03  0.67094538427E+03  0.00000000000E+00 0.  1.
         14    1    3    3    0    0  0.10762995859E+00 -0.15214849943E+02 -0.20006826366E+02  0.25135161512E+02  0.00000000000E+00 0. -1.
         13    1    5    5    0    0 -0.15035927936E+02 -0.31824328729E+02  0.56870868164E+03  0.56979683362E+03  0.00000000000E+00 0. -1.
        -14    1    5    5    0    0 -0.32254449246E+02  0.27264875798E+02  0.17991503259E+03  0.18480568687E+03  0.00000000000E+00 0.  1.
          5    1    4    4  501    0  0.42762473275E+02  0.10747343240E+02  0.12886408790E+02  0.46126634809E+02  0.41800000000E+01 0.  1.
         -5    1    4    4    0  501 -0.82449574243E+02  0.24227934522E+02 -0.28237270670E+02  0.90552421055E+02  0.41800000000E+01 0.  1.
</event>
<event>
11    1  0.7105277E-009  0.2046850E+03  0.7561462E-02  0.1051259E+00
         22   -1    0    0    0    0  0.00000000000E+00  0.00000000000E+00  0.66880385164E+03  0.66880385164E+03  0.00000000000E+00 0.  1.
         22   -1    0    0    0    0 -0.00000000000E+00 -0.00000000000E+00 -0.20049160565E+04  0.20049160565E+04  0.00000000000E+00 0.  1.
        -24    2    1    2    0    0 -0.15496741411E+03  0.98840625229E+01 -0.16832313674E+04  0.16922703310E+04  0.79990267765E+02 0.  0.
         25    2    1    2    0    0  0.26524189682E+03 -0.25755394727E+02 -0.23911062284E+03  0.37926047356E+03  0.12509201680E+03 0.  0.
         24    2    1    2    0    0 -0.11027448271E+03  0.15871332204E+02  0.58622978533E+03  0.60218910360E+03  0.80956745050E+02 0.  0.
        -11    1    5    5    0    0 -0.11229649223E+03  0.35622648656E+02  0.50737475176E+03  0.52087293459E+03  0.00000000000E+00 0.  1.
         12    1    5    5    0    0  0.20220095166E+01 -0.19751316452E+02  0.78855033570E+02  0.81316169016E+02  0.00000000000E+00 0. -1.
         13    1    3    3    0    0 -0.12121321545E+02 -0.11473917222E+02 -0.51014256734E+02  0.53675241989E+02  0.00000000000E+00 0. -1.
        -14    1    3    3    0    0 -0.14284609256E+03  0.21357979745E+02 -0.16322171107E+04  0.16385950890E+04  0.00000000000E+00 0.  1.
          5    1    4    4  501    0  0.35491336147E+02 -0.11712202015E+02  0.11140915725E+02  0.39222481063E+02  0.41800000000E+01 0. -1.
         -5    1    4    4    0  501  0.22975056067E+03 -0.14043192712E+02 -0.25025153856E+03  0.34003799250E+03  0.41800000000E+01 0. -1.
</event>
<event>
11    1  0.7105277E-009  0.1431886E+03  0.7561462E-02  0.1104049E+00
         22   -1    0    0    0    0  0.00000000000E+00  0.00000000000E+00  0.10723915972E+04  0.10723915972E+04  0.00000000000E+00 0. -1.
         22   -1    0    0    0    0 -0.00000000000E+00 -0.00000000000E+00 -0.73668839727E+03  0.73668839727E+03  0.00000000000E+00 0.  1.
         24    2    1    2    0    0 -0.42400274866E+02 -0.13232419165E+01 -0.70742596106E+03  0.71331089685E+03  0.81002536437E+02 0.  0.
         25    2    1    2    0    0 -0.74682673367E+01 -0.52520471955E+02  0.17812472653E+03  0.22402986253E+03  0.12508711409E+03 0.  0.
        -24    2    1    2    0    0  0.49868542202E+02  0.53843713871E+02  0.86500443450E+03  0.87173923512E+03  0.79439318438E+02 0.  0.
        -13    1    3    3    0    0 -0.42966341999E+02 -0.67021745243E+01 -0.70648373047E+03  0.70782080155E+03  0.00000000000E+00 0.  1.
         14    1    3    3    0    0  0.56606713365E+00  0.53789326078E+01 -0.94223059573E+00  0.54900953083E+01  0.00000000000E+00 0. -1.
         11    1    5    5    0    0  0.43534181792E+02  0.12812434264E+02  0.70423282286E+03  0.70569345488E+03  0.00000000000E+00 0. -1.
        -12    1    5    5    0    0  0.63343604109E+01  0.41031279607E+02  0.16077161164E+03  0.16604578025E+03  0.00000000000E+00 0.  1.
          5    1    4    4  501    0 -0.24511988720E+02 -0.24252313870E+02  0.18651028180E+03  0.18971707866E+03  0.41800000000E+01 0.  1.
         -5    1    4    4    0  501  0.17043721383E+02 -0.28268158085E+02 -0.83855552634E+01  0.34312783873E+02  0.41800000000E+01 0.  1.
</event>
<event>
11    1  0.7105277E-009  0.1391419E+03  0.7561462E-02  0.1108520E+00
         22   -1    0    0    0    0  0.00000000000E+00  0.00000000000E+00  0.10873972722E+04  0.10873972722E+04  0.00000000000E+00 0. -1.
         22   -1    0    0    0    0 -0.00000000000E+00 -0.00000000000E+00 -0.14460558173E+04  0.14460558173E+04  0.00000000000E+00 0. -1.
         24    2    1    2    0    0  0.83456790821E+01  0.23209862432E+02 -0.14143232260E+04  0.14167958965E+04  0.79950465352E+02 0.  0.
         25    2    1    2    0    0 -0.48256487754E+02  0.24299083837E+02  0.13997756993E+03  0.19534610392E+03  0.12508895293E+03 0.  0.
        -24    2    1    2    0    0  0.39910808672E+02 -0.47508946269E+02  0.91568711088E+03  0.92131108906E+03  0.80506305204E+02 0.  0.
        -11    1    3    3    0    0  0.18892648404E+02 -0.16923290902E+02 -0.18031382640E+03  0.18208900551E+03  0.00000000000E+00 0.  1.
         12    1    3    3    0    0 -0.10546969322E+02  0.40133153334E+02 -0.12340093996E+04  0.12347068910E+04  0.00000000000E+00 0. -1.
         13    1    5    5    0    0  0.46432933304E+02 -0.65490734670E+02  0.80396362927E+03  0.80796198600E+03  0.00000000000E+00 0. -1.
        -14    1    5    5    0    0 -0.65221246325E+01  0.17981788401E+02  0.11172348161E+03  0.11334910307E+03  0.00000000000E+00 0.  1.
          5    1    4    4  501    0  0.50474616136E+01  0.67174219016E+02  0.75130117970E+02  0.10099435427E+03  0.41800000000E+01 0.  1.
         -5    1    4    4    0  501 -0.53303949368E+02 -0.42875135179E+02  0.64847451961E+02  0.94351749643E+02  0.41800000000E+01 0.  1.
</event>
<event>
11    1  0.1245329E-008  0.1700416E+03  0.7561462E-02  0.1077995E+00
         22   -1    0    0    0    0  0.00000000000E+00  0.00000000000E+00  0.73807233270E+03  0.73807233270E+03  0.00000000000E+00 0. -1.
         22   -1    0    0    0    0 -0.00000000000E+00 -0.00000000000E+00 -0.67444835346E+03  0.67444835346E+03  0.00000000000E+00 0. -1.
        -24    2    1    2    0    0 -0.90029254970E+02 -0.68101205015E+02 -0.55426493638E+03  0.57126149533E+03  0.79918930627E+02 0.  0.
         25    2    1    2    0    0  0.52645520481E+02  0.16462964159E+03  0.37749387482E+01  0.21339558824E+03  0.12509579209E+03 0.  0.
         24    2    1    2    0    0  0.37383734488E+02 -0.96528436578E+02  0.61411397688E+03  0.62786360259E+03  0.79758662189E+02 0.  0.
        -11    1    5    5    0    0  0.25655011703E+02 -0.97583769889E+01  0.31510546747E+03  0.31629868982E+03  0.00000000000E+00 0.  1.
         12    1    5    5    0    0  0.11728722785E+02 -0.86770059589E+02  0.29900850940E+03  0.31156491278E+03  0.00000000000E+00 0. -1.
         11    1    3    3    0    0 -0.64252345282E+02 -0.81965873741E+02 -0.48517858932E+03  0.49623082519E+03  0.00000000000E+00 0. -1.
        -12    1    3    3    0    0 -0.25776909688E+02  0.13864668727E+02 -0.69086347060E+02  0.75030670142E+02  0.00000000000E+00 0.  1.
          5    1    4    4  501    0  0.82870730589E+02  0.16002137369E+03  0.14224647762E+02  0.18081540595E+03  0.41800000000E+01 0.  1.
         -5    1    4    4    0  501 -0.30225210107E+02  0.46082679025E+01 -0.10449709014E+02  0.32580182283E+02  0.41800000000E+01 0.  1.
</event>
<event>
11    1  0.7105277E-009  0.1561087E+03  0.7561462E-02  0.1090795E+00
         22   -1    0    0    0    0  0.00000000000E+00  0.00000000000E+00  0.10974822742E+04  0.10974822742E+04  0.00000000000E+00 0. -1.
         22   -1    0    0    0    0 -0.00000000000E+00 -0.00000000000E+00 -0.44389533844E+03  0.44389533844E+03  0.00000000000E+00 0.  1.
        -24    2    1    2    0    0  0.53553916757E+01 -0.57516912909E+02 -0.37801801028E+03  0.39148747912E+03  0.83832897637E+02 0.  0.
         25    2    1    2    0    0  0.82669814488E+02  0.85672541447E+02  0.80557518935E+02  0.19056589751E+03  0.12510701359E+03 0.  0.
         24    2    1    2    0    0 -0.88025206164E+02 -0.28155628537E+02  0.95104742706E+03  0.95932423597E+03  0.85267841829E+02 0.  0.
        -11    1    5    5    0    0  0.77374910427E+01 -0.98457751933E+01  0.23159587461E+02  0.26328208221E+02  0.00000000000E+00 0.  1.
         12    1    5    5    0    0 -0.95762697207E+02 -0.18309853344E+02  0.92788783960E+03  0.93299602774E+03  0.00000000000E+00 0. -1.
         11    1    3    3    0    0  0.34072729956E+02 -0.37583060188E+02 -0.10922312471E+03  0.12042893469E+03  0.00000000000E+00 0. -1.
        -12    1    3    3    0    0 -0.28717338280E+02 -0.19933852721E+02 -0.26879488557E+03  0.27105854443E+03  0.00000000000E+00 0.  1.
          5    1    4    4  501    0  0.90267912214E+02  0.76518733080E+02  0.10806324007E+03  0.16030766901E+03  0.41800000000E+01 0.  1.
         -5    1    4    4    0  501 -0.75980977260E+01  0.91538083669E+01 -0.27505721138E+02  0.30258228500E+02  0.41800000000E+01 0.  1.
</event>
<event>
11    1  0.7105277E-009  0.1352236E+03  0.7561462E-02  0.1113012E+00
         22   -1    0    0    0    0  0.00000000000E+00  0.00000000000E+00  0.22741930943E+04  0.22741930943E+04  0.00000000000E+00 0. -1.
         22   -1    0    0    0    0 -0.00000000000E+00 -0.00000000000E+00 -0.53973255190E+03  0.53973255190E+03  0.00000000000E+00 0. -1.
        -24    2    1    2    0    0 -0.42964097279E+02 -0.27590037329E+02 -0.51267339868E+03  0.52130675108E+03  0.79495856411E+02 0.  0.
         25    2    1    2    0    0  0.80148946659E+02  0.23648516615E+01  0.23334730103E+03  0.27663720258E+03  0.12509089805E+03 0.  0.
         24    2    1    2    0    0 -0.37184849380E+02  0.25225185667E+02  0.20137866401E+04  0.20159816926E+04  0.82622817713E+02 0.  0.
        -11    1    5    5    0    0 -0.16240970721E+02  0.50152979130E+02  0.78729625544E+03  0.78905924003E+03  0.00000000000E+00 0.  1.
         12    1    5    5    0    0 -0.20943878658E+02 -0.24927793462E+02  0.12264903847E+04  0.12269224526E+04  0.00000000000E+00 0. -1.
         13    1    3    3    0    0 -0.60562537662E+02 -0.22611511984E+02 -0.47553799253E+03  0.47991195420E+03  0.00000000000E+00 0. -1.
        -14    1    3    3    0    0  0.17598440383E+02 -0.49785253454E+01 -0.37135406152E+02  0.41394796878E+02  0.00000000000E+00 0.  1.
          5    1    4    4  501    0  0.48079410996E+02  0.44328497439E+02  0.41398318734E+02  0.77510893692E+02  0.41800000000E+01 0.  1.
         -5    1    4    4    0  501  0.32069535663E+02 -0.41963645777E+02  0.19194898230E+03  0.19912630889E+03  0.41800000000E+01 0.  1.
</event>
<event>
11    1  0.7105277E-009  0.1346794E+03  0.7561462E-02  0.1113650E+00
         22   -1    0    0    0    0  0.00000000000E+00  0.00000000000E+00  0.99367153831E+02  0.99367153831E+02  0.00000000000E+00 0. -1.
         22   -1    0    0    0    0 -0.00000000000E+00 -0.00000000000E+00 -0.86737631874E+03  0.86737631874E+03  0.00000000000E+00 0.  1.
         24    2    1    2    0    0 -0.51826743262E+02  0.53493532655E+01 -0.70601023961E+03  0.71248321817E+03  0.80419219409E+02 0.  0.
         25    2    1    2    0    0  0.29399062233E+02  0.90610141581E+01 -0.98736326953E+02  0.16230279147E+03  0.12508767734E+03 0.  0.
        -24    2    1    2    0    0  0.22427681029E+02 -0.14410367424E+02  0.36737401650E+02  0.91957462928E+02  0.79974237992E+02 0.  0.
        -11    1    3    3    0    0 -0.69698164781E+02  0.20015601678E+02 -0.55373072137E+03  0.55845874536E+03  0.00000000000E+00 0.  1.
         12    1    3    3    0    0  0.17871421518E+02 -0.14666248413E+02 -0.15227951824E+03  0.15402447281E+03  0.00000000000E+00 0. -1.
         13    1    5    5    0    0  0.39976275639E+02 -0.16221064573E+02  0.52741026476E+02  0.68138399039E+02  0.00000000000E+00 0. -1.
        -14    1    5    5    0    0 -0.17548594610E+02  0.18106971498E+01 -0.16003624826E+02  0.23819063889E+02  0.00000000000E+00 0.  1.
          5    1    4    4  501    0  0.11606202602E+02 -0.14211192181E+02  0.27122757526E+02  0.33011790285E+02  0.41800000000E+01 0.  1.
         -5    1    4    4    0  501  0.17792859632E+02  0.23272206339E+02 -0.12585908448E+03  0.12929100119E+03  0.41800000000E+01 0.  1.
</event>
<event>
11    1  0.7105277E-009  0.1731121E+03  0.7561462E-02  0.1075355E+00
         22   -1    0    0    0    0  0.00000000000E+00  0.00000000000E+00  0.48887054557E+03  0.48887054557E+03  0.00000000000E+00 0.  1.
         22   -1    0    0    0    0 -0.00000000000E+00 -0.00000000000E+00 -0.55455971366E+03  0.55455971366E+03  0.00000000000E+00 0. -1.
         24    2    1    2    0    0  0.68691947871E+02  0.87003569486E+02 -0.40213341015E+03  0.42486768727E+03  0.80703576881E+02 0.  0.
         25    2    1    2    0    0 -0.17054351082E+03 -0.12983140841E+03 -0.74602738153E+01  0.24828311879E+03  0.12509023823E+03 0.  0.
        -24    2    1    2    0    0  0.10185156295E+03  0.42827838926E+02  0.34390451588E+03  0.37027945317E+03  0.81416169975E+02 0.  0.
        -13    1    3    3    0    0  0.65074787052E+00 -0.59346581306E+01  0.58712942680E+00  0.59990299950E+01  0.00000000000E+00 0.  1.
         14    1    3    3    0    0  0.68041200000E+02  0.92938227617E+02 -0.40272053958E+03  0.41886865728E+03  0.00000000000E+00 0. -1.
         13    1    5    5    0    0 -0.24475278913E+01  0.20668833466E+01 -0.38101250654E+01  0.49778963992E+01  0.00000000000E+00 0. -1.
        -14    1    5    5    0    0  0.10429909084E+03  0.40760955579E+02  0.34771464094E+03  0.36530155677E+03  0.00000000000E+00 0.  1.
          5    1    4    4  501    0 -0.17629578560E+03 -0.74453897153E+02  0.31856684671E+01  0.19144505140E+03  0.41800000000E+01 0.  1.
         -5    1    4    4    0  501  0.57522747773E+01 -0.55377511259E+02 -0.10645942282E+02  0.56838067398E+02  0.41800000000E+01 0.  1.
</event>
<event>
11    1  0.7105277E-009  0.1374820E+03  0.7561462E-02  0.1110403E+00
         22   -1    0    0    0    0  0.00000000000E+00  0.00000000000E+00  0.18060225147E+04  0.18060225147E+04  0.00000000000E+00 0.  1.
         22   -1    0    0    0    0 -0.00000000000E+00 -0.00000000000E+00 -0.66721334433E+02  0.66721334433E+02  0.00000000000E+00 0. -1.
        -24    2    1    2    0    0 -0.60098800762E+02 -0.40174859656E+01 -0.13900189672E+02  0.10003542106E+03  0.78650264764E+02 0.  0.
         25    2    1    2    0    0  0.13482687759E+02  0.37241078272E+02  0.53753445197E+03  0.55331567869E+03  0.12508506084E+03 0.  0.
         24    2    1    2    0    0  0.46616113003E+02 -0.33223592307E+02  0.12156669179E+04  0.12193927494E+04  0.76129841278E+02 0.  0.
        -11    1    5    5    0    0  0.13838526117E+02  0.18366572845E+02  0.65508225950E+03  0.65548577598E+03  0.00000000000E+00 0.  1.
         12    1    5    5    0    0  0.32777586886E+02 -0.51590165152E+02  0.56058465845E+03  0.56390697339E+03  0.00000000000E+00 0. -1.
         11    1    3    3    0    0 -0.28814770444E+02  0.56368729122E+01 -0.45748841436E+02  0.54360112442E+02  0.00000000000E+00 0. -1.
        -12    1    3    3    0    0 -0.31284030318E+02 -0.96543588777E+01  0.31848651764E+02  0.45675308619E+02  0.00000000000E+00 0.  1.
          5    1    4    4  501    0  0.13054746848E+02  0.73882107602E+02  0.47345200177E+03  0.47937799555E+03  0.41800000000E+01 0. -1.
         -5    1    4    4    0  501  0.42794091085E+00 -0.36641029330E+02  0.64082450204E+02  0.73937683139E+02  0.41800000000E+01 0. -1.
</event>
<event>
11    1  0.7105277E-009  0.1385977E+03  0.7561462E-02  0.1109134E+00
         22   -1    0    0    0    0  0.00000000000E+00  0.00000000000E+00  0.38669146419E+03  0.38669146419E+03  0.00000000000E+00 0.  1.
         22   -1    0    0    0    0 -0.00000000000E+00 -0.00000000000E+00 -0.10379723853E+04  0.10379723853E+04  0.00000000000E+00 0. -1.
        -24    2    1    2    0    0 -0.18661353996E+02  0.55017733433E+02 -0.84488285673E+03  0.85070732837E+03  0.80627041441E+02 0.  0.
         25    2    1    2    0    0  0.10630526515E+02 -0.75971844784E+02 -0.15631042763E+03  0.21439403006E+03  0.12508845289E+03 0.  0.
         24    2    1    2    0    0  0.80308274810E+01  0.20954111352E+02  0.34991236327E+03  0.35956249105E+03  0.79642664595E+02 0.  0.
        -11    1    5    5    0    0 -0.25985404511E+02  0.17935505976E+02  0.61463175942E+02  0.69098810548E+02  0.00000000000E+00 0.  1.
         12    1    5    5    0    0  0.34016231992E+02  0.30186053762E+01  0.28844918733E+03  0.29046368050E+03  0.00000000000E+00 0. -1.
         13    1    3    3    0    0 -0.46960630185E+00 -0.61626536246E+01 -0.49571752775E+03  0.49575605508E+03  0.00000000000E+00 0. -1.
        -14    1    3    3    0    0 -0.18191747694E+02  0.61180387057E+02 -0.34916532899E+03  0.35495127329E+03  0.00000000000E+00 0.  1.
          5    1    4    4  501    0 -0.39298085875E+02  0.98264830613E+01 -0.19078636070E+02  0.44970724667E+02  0.41800000000E+01 0. -1.
         -5    1    4    4    0  501  0.49928612390E+02 -0.85798327846E+02 -0.13723179156E+03  0.16942330539E+03  0.41800000000E+01 0. -1.
</event>
<event>
11    1  0.7105277E-009  0.2838854E+03  0.7561462E-02  0.1007252E+00
         22   -1    0    0    0    0  0.00000000000E+00  0.00000000000E+00  0.10118127408E+04  0.10118127408E+04  0.00000000000E+00 0.  1.
         22   -1    0    0    0    0 -0.00000000000E+00 -0.00000000000E+00 -0.15854089562E+03  0.15854089562E+03  0.00000000000E+00 0.  1.
         24    2    1    2    0    0  0.82518004382E+02 -0.96371122632E+02 -0.37044898851E+02  0.15504588628E+03  0.81057313032E+02 0.  0.
         25    2    1    2    0    0 -0.22448744552E+02 -0.17522536065E+02  0.17641065527E+02  0.12950187010E+03  0.12509413161E+03 0.  0.
        -24    2    1    2    0    0 -0.60069259830E+02  0.11389365870E+03  0.87267567855E+03  0.88580588008E+03  0.80679215400E+02 0.  0.
        -13    1    3    3    0    0  0.43633729369E+02 -0.90575128709E+01 -0.39331002122E+02  0.59437939113E+02  0.00000000000E+00 0.  1.
         14    1    3    3    0    0  0.38884275013E+02 -0.87313609761E+02  0.22861032712E+01  0.95607947164E+02  0.00000000000E+00 0. -1.
         11    1    5    5    0    0 -0.64855564137E+01  0.65081907015E+02  0.23199813621E+03  0.24104118376E+03  0.00000000000E+00 0. -1.
        -12    1    5    5    0    0 -0.53583703416E+02  0.48811751682E+02  0.64067754234E+03  0.64476469633E+03  0.00000000000E+00 0.  1.
          5    1    4    4  501    0 -0.74116724876E+02 -0.49156573548E+01  0.16168680836E+02  0.76133771965E+02  0.41800000000E+01 0. -1.
         -5    1    4    4    0  501  0.51667980324E+02 -0.12606878710E+02  0.14723846903E+01  0.53368098132E+02  0.41800000000E+01 0. -1.
</event>
<event>
11    1  0.7105277E-009  0.1386704E+03  0.7561462E-02  0.1109052E+00
         22   -1    0    0    0    0  0.00000000000E+00  0.00000000000E+00  0.12936673859E+04  0.12936673859E+04  0.00000000000E+00 0.  1.
         22   -1    0    0    0    0 -0.00000000000E+00 -0.00000000000E+00 -0.61543859530E+03  0.61543859530E+03  0.00000000000E+00 0.  1.
        -24    2    1    2    0    0  0.32786187463E+02 -0.21330874209E+01 -0.59987966307E+03  0.60603804874E+03  0.79668200725E+02 0.  0.
         25    2    1    2    0    0 -0.67563207066E+02  0.42338183769E+02  0.59894973748E+03  0.61704606568E+03  0.12509096847E+03 0.  0.
         24    2    1    2    0    0  0.34777019603E+02 -0.40205096348E+02  0.67915871615E+03  0.68602186673E+03  0.80892206398E+02 0.  0.
        -11    1    5    5    0    0  0.56438262963E+02 -0.36184608322E+02  0.36602642983E+03  0.37211550725E+03  0.00000000000E+00 0.  1.
         12    1    5    5    0    0 -0.21661243361E+02 -0.40204880258E+01  0.31313228632E+03  0.31390635948E+03  0.00000000000E+00 0. -1.
         13    1    3    3    0    0  0.35971340057E+02  0.23415030484E+02 -0.16815067649E+03  0.17354207260E+03  0.00000000000E+00 0. -1.
        -14    1    3    3    0    0 -0.31851525939E+01 -0.25548117905E+02 -0.43172898658E+03  0.43249597614E+03  0.00000000000E+00 0.  1.
          5    1    4    4  501    0 -0.56542470069E+02  0.84945683530E+02  0.46136203541E+03  0.47253065530E+03  0.41800000000E+01 0. -1.
         -5    1    4    4    0  501 -0.11020736997E+02 -0.42607499761E+02  0.13758770206E+03  0.14451541039E+03  0.41800000000E+01 0. -1.
</event>
<event>
11    1  0.7105277E-009  0.1569369E+03  0.7561462E-02  0.1089994E+00
         22   -1    0    0    0    0  0.00000000000E+00  0.00000000000E+00  0.50087716475E+03  0.50087716475E+03  0.00000000000E+00 0.  1.
         22   -1    0    0    0    0 -0.00000000000E+00 -0.00000000000E+00 -0.77818366818E+03  0.77818366818E+03  0.00000000000E+00 0. -1.
         24    2    1    2    0    0  0.25813440834E+02 -0.90876810019E+02 -0.61535572532E+03  0.62705718565E+03  0.74920738600E+02 0.  0.
         25    2    1    2    0    0 -0.11207997038E+02  0.97379798563E+02 -0.11252698992E+03  0.19472478171E+03  0.12508786025E+03 0.  0.
        -24    2    1    2    0    0 -0.14605443796E+02 -0.65029885434E+01  0.45057621181E+03  0.45727886558E+03  0.76350706646E+02 0.  0.
        -13    1    3    3    0    0  0.12502423569E+02 -0.49012386763E+02 -0.12659361737E+03  0.13632486424E+03  0.00000000000E+00 0.  1.
         14    1    3    3    0    0  0.13311017265E+02 -0.41864423256E+02 -0.48876210794E+03  0.49073232141E+03  0.00000000000E+00 0. -1.
         11    1    5    5    0    0 -0.46142064351E+01  0.25839603019E+02  0.63304334564E+02  0.68530392964E+02  0.00000000000E+00 0. -1.
        -12    1    5    5    0    0 -0.99912373613E+01 -0.32342591562E+02  0.38727187725E+03  0.38874847261E+03  0.00000000000E+00 0.  1.
          5    1    4    4  501    0 -0.36370863197E+01  0.65192005330E+01  0.26817648654E+02  0.28149370362E+02  0.41800000000E+01 0.  1.
         -5    1    4    4    0  501 -0.75709107180E+01  0.90860598030E+02 -0.13934463858E+03  0.16657541134E+03  0.41800000000E+01 0.  1.
</event>
<event>
11    1  0.7105277E-009  0.2815806E+03  0.7561462E-02  0.1008303E+00
         22   -1    0    0    0    0  0.00000000000E+00  0.00000000000E+00  0.12974511642E+04  0.12974511642E+04  0.00000000000E+00 0.  1.
         22   -1    0    0    0    0 -0.00000000000E+00 -0.00000000000E+00 -0.85963071332E+03  0.85963071332E+03  0.00000000000E+00 0. -1.
        -24    2    1    2    0    0 -0.91600265295E+01  0.25182435609E+03 -0.80648428115E+03  0.84885143388E+03  0.81439846809E+02 0.  0.
         25    2    1    2    0    0  0.12801461919E+02 -0.26129398295E+03  0.68111792872E+03  0.74027577774E+03  0.12509265094E+03 0.  0.
         24    2    1    2    0    0 -0.36414353894E+01  0.94696268678E+01  0.56318680327E+03  0.56795466588E+03  0.72733714565E+02 0.  0.
        -13    1    5    5    0    0  0.16887074408E+02  0.32465536166E+02  0.18967198825E+03  0.19316999624E+03  0.00000000000E+00 0.  1.
         14    1    5    5    0    0 -0.20528509798E+02 -0.22995909298E+02  0.37351481502E+03  0.37478466964E+03  0.00000000000E+00 0. -1.
         13    1    3    3    0    0 -0.56281466016E+01  0.25685181892E+03 -0.76680352319E+03  0.80869782744E+03  0.00000000000E+00 0. -1.
        -14    1    3    3    0    0 -0.35318799279E+01 -0.50274628306E+01 -0.39680757954E+02  0.40153606440E+02  0.00000000000E+00 0.  1.
          5    1    4    4  501    0  0.55349135415E+02 -0.14033662691E+03  0.26650317486E+03  0.30626673057E+03  0.41800000000E+01 0. -1.
         -5    1    4    4    0  501 -0.42547673496E+02 -0.12095735604E+03  0.41461475387E+03  0.43400904717E+03  0.41800000000E+01 0. -1.
</event>
<event>
11    1  0.7105277E-009  0.2108877E+03  0.7561462E-02  0.1047081E+00
         22   -1    0    0    0    0  0.00000000000E+00  0.00000000000E+00  0.76935039441E+03  0.76935039441E+03  0.00000000000E+00 0.  1.
         22   -1    0    0    0    0 -0.00000000000E+00 -0.00000000000E+00 -0.33000184930E+03  0.33000184930E+03  0.00000000000E+00 0.  1.
         24    2    1    2    0    0 -0.82640979068E+02 -0.39882513499E+02 -0.15222038161E+03  0.19691429972E+03  0.84758778612E+02 0.  0.
         25    2    1    2    0    0  0.20499929117E+03 -0.73375398623E+02 -0.30953732277E+02  0.25300125005E+03  0.12507134158E+03 0.  0.
        -24    2    1    2    0    0 -0.12235831210E+03  0.11325791212E+03  0.62252265900E+03  0.64943669394E+03  0.80216253226E+02 0.  0.
        -11    1    3    3    0    0 -0.97037452694E+02 -0.32512614735E+02 -0.10338701709E+03  0.14547237760E+03  0.00000000000E+00 0.  1.
         12    1    3    3    0    0  0.14396473626E+02 -0.73698987645E+01 -0.48833364523E+02  0.51441922119E+02  0.00000000000E+00 0. -1.
         13    1    5    5    0    0 -0.28841563678E+02  0.47257331202E+02  0.97875225172E+02  0.11244843641E+03  0.00000000000E+00 0. -1.
        -14    1    5    5    0    0 -0.93516748421E+02  0.66000580920E+02  0.52464743382E+03  0.53698825754E+03  0.00000000000E+00 0.  1.
          5    1    4    4  501    0  0.61821767083E+02 -0.84969411427E+02  0.35032035944E+01  0.10522108438E+03  0.41800000000E+01 0. -1.
         -5    1    4    4    0  501  0.14317752408E+03  0.11594012804E+02 -0.34456935871E+02  0.14778016567E+03  0.41800000000E+01 0. -1.
</event>
<event>
11    1  0.7105277E-009  0.1328006E+03  0.7561462E-02  0.1115875E+00
         22   -1    0    0    0    0  0.00000000000E+00  0.00000000000E+00  0.77841966270E+02  0.77841966270E+02  0.00000000000E+00 0. -1.
         22   -1    0    0    0    0 -0.00000000000E+00 -0.00000000000E+00 -0.16278062981E+04  0.16278062981E+04  0.00000000000E+00 0.  1.
         24    2    1    2    0    0 -0.53381002373E+01 -0.43974073589E+02 -0.13194227393E+04  0.13224980291E+04  0.78501322404E+02 0.  0.
         25    2    1    2    0    0  0.28544234163E+02  0.43673497446E+02 -0.26105192502E+03  0.29414509414E+03  0.12510428117E+03 0.  0.
        -24    2    1    2    0    0 -0.23206133925E+02  0.30057614271E+00  0.30510332427E+02  0.89005141161E+02  0.80326955442E+02 0.  0.
        -11    1    3    3    0    0 -0.27386586141E+02 -0.30683355412E+02 -0.11801139652E+04  0.11808304130E+04  0.00000000000E+00 0.  1.
         12    1    3    3    0    0  0.22048485904E+02 -0.13290718177E+02 -0.13930877405E+03  0.14166761608E+03  0.00000000000E+00 0. -1.
         11    1    5    5    0    0  0.10588340378E+02  0.14108353213E+02  0.46062093101E+02  0.49324182742E+02  0.00000000000E+00 0. -1.
        -12    1    5    5    0    0 -0.33794474303E+02 -0.13807777070E+02 -0.15551760674E+02  0.39680958419E+02  0.00000000000E+00 0.  1.
          5    1    4    4  501    0  0.40399746136E+02  0.83634780595E+02 -0.19310605562E+03  0.21432297387E+03  0.41800000000E+01 0. -1.
         -5    1    4    4    0  501 -0.11855511973E+02 -0.39961283149E+02 -0.67945869403E+02  0.79822120267E+02  0.41800000000E+01 0. -1.
</event>
<event>
11    1  0.7105277E-009  0.1798312E+03  0.7561462E-02  0.1069779E+00
         22   -1    0    0    0    0  0.00000000000E+00  0.00000000000E+00  0.30161659728E+03  0.30161659728E+03  0.00000000000E+00 0.  1.
         22   -1    0    0    0    0 -0.00000000000E+00 -0.00000000000E+00 -0.87662286127E+03  0.87662286127E+03  0.00000000000E+00 0. -1.
        -24    2    1    2    0    0 -0.11914758399E+03  0.42059823046E+02 -0.71718931429E+03  0.73255711618E+03  0.79462195114E+02 0.  0.
         25    2    1    2    0    0  0.12854488389E+03 -0.10797779268E+03 -0.60146204955E+02  0.21782649647E+03  0.12509126951E+03 0.  0.
         24    2    1    2    0    0 -0.93972998977E+01  0.65917969629E+02  0.20232925526E+03  0.22785584589E+03  0.80917680434E+02 0.  0.
        -13    1    5    5    0    0  0.35200441255E+02  0.36762881274E+02  0.11116014186E+03  0.12225856879E+03  0.00000000000E+00 0.  1.
         14    1    5    5    0    0 -0.44597741153E+02  0.29155088354E+02  0.91169113402E+02  0.10559727710E+03  0.00000000000E+00 0. -1.
         11    1    3    3    0    0 -0.29858317811E+02 -0.33589091867E+01 -0.36961828799E+03  0.37083753886E+03  0.00000000000E+00 0. -1.
        -12    1    3    3    0    0 -0.89289266184E+02  0.45418732233E+02 -0.34757102630E+03  0.36171957732E+03  0.00000000000E+00 0.  1.
          5    1    4    4  501    0  0.10963179874E+03 -0.11891355894E+03 -0.89889699872E+01  0.16204270973E+03  0.41800000000E+01 0.  1.
         -5    1    4    4    0  501  0.18913085150E+02  0.10935766264E+02 -0.51157234968E+02  0.55783786742E+02  0.41800000000E+01 0.  1.
</event>
<event>
11    1  0.7105277E-009  0.1577147E+03  0.7561462E-02  0.1089247E+00
         22   -1    0    0    0    0  0.00000000000E+00  0.00000000000E+00  0.13241948039E+04  0.13241948039E+04  0.00000000000E+00 0.  1.
         22   -1    0    0    0    0 -0.00000000000E+00 -0.00000000000E+00 -0.69540576827E+02  0.69540576827E+02  0.00000000000E+00 0. -1.
         24    2    1    2    0    0  0.82856054743E+02  0.11990670757E+02  0.45965223922E+02  0.12378003415E+03  0.78738764608E+02 0.  0.
         25    2    1    2    0    0 -0.15206706693E+03 -0.62899774591E+02  0.37684146249E+03  0.42980739156E+03  0.12507650259E+03 0.  0.
        -24    2    1    2    0    0  0.69211012182E+02  0.50909103834E+02  0.83184754070E+03  0.84014795506E+03  0.80599964974E+02 0.  0.
        -13    1    3    3    0    0  0.16689801339E+02 -0.48575800584E+01  0.52392329813E+02  0.55200559562E+02  0.00000000000E+00 0.  1.
         14    1    3    3    0    0  0.66166253404E+02  0.16848250815E+02 -0.64271058908E+01  0.68579474591E+02  0.00000000000E+00 0. -1.
         13    1    5    5    0    0  0.63283548166E+02  0.10630604050E+02  0.30219704303E+03  0.30893505794E+03  0.00000000000E+00 0. -1.
        -14    1    5    5    0    0  0.59274640161E+01  0.40278499784E+02  0.52965049768E+03  0.53121289712E+03  0.00000000000E+00 0.  1.
          5    1    4    4  501    0 -0.11869914496E+03  0.15242024688E+02  0.19121412176E+03  0.22561497976E+03  0.41800000000E+01 0. -1.
         -5    1    4    4    0  501 -0.33367921968E+02 -0.78141799279E+02  0.18562734073E+03  0.20419241180E+03  0.41800000000E+01 0. -1.
</event>
<event>
11    1  0.7105277E-009  0.1454892E+03  0.7561462E-02  0.1101579E+00
         22   -1    0    0    0    0  0.00000000000E+00  0.00000000000E+00  0.12198193237E+04  0.12198193237E+04  0.00000000000E+00 0.  1.
         22   -1    0    0    0    0 -0.00000000000E+00 -0.00000000000E+00 -0.43326372739E+02  0.43326372739E+02  0.00000000000E+00 0.  1.
         24    2    1    2    0    0  0.54705539801E+02 -0.24263194191E+02  0.72900398626E+02  0.12642697693E+03  0.84189748181E+02 0.  0.
         25    2    1    2    0    0  0.17126975653E+02  0.66428797060E+02  0.42639467609E+03  0.44962708594E+03  0.12508388481E+03 0.  0.
        -24    2    1    2    0    0 -0.71832515455E+02 -0.42165602868E+02  0.67719787626E+03  0.68709163358E+03  0.80994450352E+02 0.  0.
        -11    1    3    3    0    0  0.47952288446E+02  0.11069357769E+02  0.48472411599E+01  0.49451475160E+02  0.00000000000E+00 0.  1.
         12    1    3    3    0    0  0.67532513552E+01 -0.35332551960E+02  0.68053157467E+02  0.76975501772E+02  0.00000000000E+00 0. -1.
         13    1    5    5    0    0 -0.16879707772E+02  0.92691630094E+00  0.19972197257E+02  0.26166244889E+02  0.00000000000E+00 0. -1.
        -14    1    5    5    0    0 -0.54952807682E+02 -0.43092519169E+02  0.65722567900E+03  0.66092538869E+03  0.00000000000E+00 0.  1.
          5    1    4    4  501    0  0.65752164342E+02  0.27391727956E+02  0.30325391097E+03  0.31153500734E+03  0.41800000000E+01 0. -1.
         -5    1    4    4    0  501 -0.48625188689E+02  0.39037069103E+02  0.12314076512E+03  0.13809207860E+03  0.41800000000E+01 0. -1.
</event>
<event>
11    1  0.7105277E-009  0.2271419E+03  0.7561462E-02  0.1036834E+00
         22   -1    0    0    0    0  0.00000000000E+00  0.00000000000E+00  0.11442957012E+04  0.11442957012E+04  0.00000000000E+00 0.  1.
         22   -1    0    0    0    0 -0.00000000000E+00 -0.00000000000E+00 -0.21810044935E+03  0.21810044935E+03  0.00000000000E+00 0. -1.
        -24    2    1    2    0    0  0.14207694268E+03 -0.11801773825E+03 -0.12308470139E+03  0.23615465413E+03  0.80654403291E+02 0.  0.
         25    2    1    2    0    0 -0.19517125258E+03  0.13199558907E+03  0.48600488392E+03  0.55440374721E+03  0.12509242326E+03 0.  0.
         24    2    1    2    0    0  0.53094309905E+02 -0.13977850825E+02  0.56327506930E+03  0.57183774918E+03  0.81885417751E+02 0.  0.
        -13    1    5    5    0    0  0.53600909752E+02 -0.30424287225E+02  0.53899544362E+03  0.54250786448E+03  0.00000000000E+00 0.  1.
         14    1    5    5    0    0 -0.50659984689E+00  0.16446436400E+02  0.24279625680E+02  0.29329884705E+02  0.00000000000E+00 0. -1.
         11    1    3    3    0    0  0.13361378712E+03 -0.78963242336E+02 -0.71440815588E+02  0.17085557609E+03  0.00000000000E+00 0. -1.
        -12    1    3    3    0    0  0.84631555620E+01 -0.39054495913E+02 -0.51643885802E+02  0.65299078047E+02  0.00000000000E+00 0.  1.
          5    1    4    4  501    0 -0.21190539318E+03  0.13164114201E+03  0.45576887913E+03  0.51959217614E+03  0.41800000000E+01 0.  1.
         -5    1    4    4    0  501  0.16734140597E+02  0.35444706328E+00  0.30236004791E+02  0.34811571064E+02  0.41800000000E+01 0.  1.
</event>
<event>
11    1  0.7105277E-009  0.1402812E+03  0.7561462E-02  0.1107245E+00
         22   -1    0    0    0    0  0.00000000000E+00  0.00000000000E+00  0.31156805590E+02  0.31156805590E+02  0.00000000000E+00 0.  1.
         22   -1    0    0    0    0 -0.00000000000E+00 -0.00000000000E+00 -0.22467137643E+04  0.22467137643E+04  0.00000000000E+00 0. -1.
        -24    2    1    2    0    0  0.57586829738E+02 -0.83547599574E+01 -0.13051192357E+04  0.13088890577E+04  0.80425749401E+02 0.  0.
         25    2    1    2    0    0 -0.86119549206E+02 -0.32316517880E+02 -0.82794172876E+03  0.84237492997E+03  0.12508829819E+03 0.  0.
         24    2    1    2    0    0  0.28532719468E+02  0.40671277838E+02 -0.82495994243E+02  0.12660658214E+03  0.82191049726E+02 0.  0.
        -13    1    5    5    0    0  0.29992983058E+02  0.38863933343E+02 -0.53013821828E+01  0.49377008826E+02  0.00000000000E+00 0.  1.
         14    1    5    5    0    0 -0.14602635900E+01  0.18073444950E+01 -0.77194612060E+02  0.77229573319E+02  0.00000000000E+00 0. -1.
         11    1    3    3    0    0  0.54861178083E+02 -0.35396407763E+02 -0.11057486460E+04  0.11076744660E+04  0.00000000000E+00 0. -1.
        -12    1    3    3    0    0  0.27256516556E+01  0.27041647806E+02 -0.19937058966E+03  0.20121459170E+03  0.00000000000E+00 0.  1.
          5    1    4    4  501    0 -0.18841277021E+01 -0.62597755338E+02 -0.42342013691E+03  0.42804685918E+03  0.41800000000E+01 0.  1.
         -5    1    4    4    0  501 -0.84235421504E+02  0.30281237457E+02 -0.40452159185E+03  0.41432807080E+03  0.41800000000E+01 0.  1.
</event>
<event>
11    1  0.7105277E-009  0.1463704E+03  0.7561462E-02  0.1100646E+00
         22   -1    0    0    0    0  0.00000000000E+00  0.00000000000E+00  0.20995846332E+03  0.20995846332E+03  0.00000000000E+00 0.  1.
         22   -1    0    0    0    0 -0.00000000000E+00 -0.00000000000E+00 -0.41395261134E+03  0.41395261134E+03  0.00000000000E+00 0. -1.
        -24    2    1    2    0    0 -0.44945423782E+02  0.63675866410E+02 -0.22340455270E+03  0.25036829176E+03  0.81853407211E+02 0.  0.
         25    2    1    2    0    0  0.80744505348E+02 -0.23706841896E+02 -0.12786918389E+03  0.19768642127E+03  0.12509078091E+03 0.  0.
         24    2    1    2    0    0 -0.35799081566E+02 -0.39969024514E+02  0.14727958857E+03  0.17585636163E+03  0.79718790472E+02 0.  0.
        -13    1    5    5    0    0 -0.42836879833E+02  0.79225508546E+01  0.95542444588E+02  0.10500535131E+03  0.00000000000E+00 0.  1.
         14    1    5    5    0    0  0.70377982666E+01 -0.47891575369E+02  0.51737143981E+02  0.70851010317E+02  0.00000000000E+00 0. -1.
         13    1    3    3    0    0 -0.17157542094E+01  0.69332685897E+02 -0.14152142219E+03  0.15760164367E+03  0.00000000000E+00 0. -1.
        -14    1    3    3    0    0 -0.43229669573E+02 -0.56568194874E+01 -0.81883130502E+02  0.92766648096E+02  0.00000000000E+00 0.  1.
          5    1    4    4  501    0  0.60198675502E+02 -0.29402905195E+02  0.86523370608E+00  0.67131456080E+02  0.41800000000E+01 0. -1.
         -5    1    4    4    0  501  0.20545829846E+02  0.56960632986E+01 -0.12873441760E+03  0.13055496519E+03  0.41800000000E+01 0. -1.
</event>
<event>
11    1  0.7105277E-009  0.1462766E+03  0.7561462E-02  0.1100745E+00
         22   -1    0    0    0    0  0.00000000000E+00  0.00000000000E+00  0.11428257762E+04  0.11428257762E+04  0.00000000000E+00 0.  1.
         22   -1    0    0    0    0 -0.00000000000E+00 -0.00000000000E+00 -0.13669195961E+03  0.13669195961E+03  0.00000000000E+00 0.  1.
         24    2    1    2    0    0  0.43076632346E+02  0.28347849902E+02 -0.76684826346E+02  0.12623743993E+03  0.86000766280E+02 0.  0.
         25    2    1    2    0    0 -0.89161523276E+02 -0.81782260708E+02  0.20884308503E+03  0.27184671041E+03  0.12508830640E+03 0.  0.
        -24    2    1    2    0    0  0.46084890930E+02  0.53434410807E+02  0.87397555795E+03  0.88143358551E+03  0.90071284772E+02 0.  0.
        -13    1    3    3    0    0  0.11199187252E+02  0.45660958043E+02 -0.68066103427E+01  0.47504471673E+02  0.00000000000E+00 0.  1.
         14    1    3    3    0    0  0.31877445094E+02 -0.17313108142E+02 -0.69878216003E+02  0.78732968260E+02  0.00000000000E+00 0. -1.
         11    1    5    5    0    0  0.35228274696E+02  0.73410962973E+02  0.48447507367E+03  0.49127008644E+03  0.00000000000E+00 0. -1.
        -12    1    5    5    0    0  0.10856616234E+02 -0.19976552166E+02  0.38950048428E+03  0.39016349907E+03  0.00000000000E+00 0.  1.
          5    1    4    4  501    0 -0.72957123124E+02 -0.47855911401E+01  0.35391317439E+02  0.81336716476E+02  0.41800000000E+01 0. -1.
         -5    1    4    4    0  501 -0.16204400152E+02 -0.76996669568E+02  0.17345176759E+03  0.19050999394E+03  0.41800000000E+01 0. -1.
</event>
<event>
11    1  0.7105277E-009  0.2099331E+03  0.7561462E-02  0.1047713E+00
         22   -1    0    0    0    0  0.00000000000E+00  0.00000000000E+00  0.15122849265E+04  0.15122849265E+04  0.00000000000E+00 0. -1.
         22   -1    0    0    0    0 -0.00000000000E+00 -0.00000000000E+00 -0.21243006149E+03  0.21243006149E+03  0.00000000000E+00 0.  1.
        -24    2    1    2    0    0  0.41049264676E+02 -0.11678520625E+03 -0.14741022927E+03  0.20825242073E+03  0.79469922094E+02 0.  0.
         25    2    1    2    0    0  0.81943784137E+02  0.21077002813E+03  0.64265754698E+03  0.69267245779E+03  0.12509045758E+03 0.  0.
         24    2    1    2    0    0 -0.12299304881E+03 -0.93984821884E+02  0.80460754732E+03  0.82379010949E+03  0.85301831635E+02 0.  0.
        -11    1    5    5    0    0 -0.40634099713E+02 -0.38111630733E+02  0.50548289584E+03  0.50854359149E+03  0.00000000000E+00 0.  1.
         12    1    5    5    0    0 -0.82358949100E+02 -0.55873191151E+02  0.29912465148E+03  0.31524651800E+03  0.00000000000E+00 0. -1.
         13    1    3    3    0    0  0.17966059756E+02 -0.91504376278E+02 -0.51744263287E+02  0.10664567016E+03  0.00000000000E+00 0. -1.
        -14    1    3    3    0    0  0.23083204920E+02 -0.25280829968E+02 -0.95665965985E+02  0.10160675057E+03  0.00000000000E+00 0.  1.
          5    1    4    4  501    0  0.67073644645E+02  0.10177742926E+03  0.48688972273E+03  0.50193285748E+03  0.41800000000E+01 0. -1.
         -5    1    4    4    0  501  0.14870139492E+02  0.10899259887E+03  0.15576782425E+03  0.19073960031E+03  0.41800000000E+01 0. -1.
</event>
<event>
11    1  0.7105277E-009  0.1468766E+03  0.7561462E-02  0.1100114E+00
         22   -1    0    0    0    0  0.00000000000E+00  0.00000000000E+00  0.10129734404E+03  0.10129734404E+03  0.00000000000E+00 0.  1.
         22   -1    0    0    0    0 -0.00000000000E+00 -0.00000000000E+00 -0.20862173346E+04  0.20862173346E+04  0.00000000000E+00 0. -1.
        -24    2    1    2    0    0 -0.20452980644E+01  0.16184052276E+02 -0.15929031956E+04  0.15951357680E+04  0.82773311219E+02 0.  0.
         25    2    1    2    0    0 -0.74119168980E+02 -0.29004411120E+01 -0.44477472853E+03  0.46794707196E+03  0.12509132363E+03 0.  0.
         24    2    1    2    0    0  0.76164467045E+02 -0.13283611164E+02  0.52757933562E+02  0.12443183867E+03  0.81990258909E+02 0.  0.
        -13    1    5    5    0    0  0.70195912030E+01 -0.28855276220E+02  0.43904010616E+02  0.53004375051E+02  0.00000000000E+00 0.  1.
         14    1    5    5    0    0  0.69144875842E+02  0.15571665056E+02  0.88539229453E+01  0.71427463621E+02  0.00000000000E+00 0. -1.
         13    1    3    3    0    0 -0.17184991919E+02 -0.13505599873E+02 -0.13233048699E+04  0.13234853622E+04  0.00000000000E+00 0. -1.
        -14    1    3    3    0    0  0.15139693854E+02  0.29689652149E+02 -0.26959832565E+03  0.27165040579E+03  0.00000000000E+00 0.  1.
          5    1    4    4  501    0 -0.83984659214E+02 -0.28149904436E+02 -0.16936467719E+03  0.19117454428E+03  0.41800000000E+01 0. -1.
         -5    1    4    4    0  501  0.98654902338E+01  0.25249463324E+02 -0.27541005134E+03  0.27677252768E+03  0.41800000000E+01 0. -1.
</event>
<event>
11    1  0.7105277E-009  0.1927163E+03  0.7561462E-02  0.1059797E+00
         22   -1    0    0    0    0  0.00000000000E+00  0.00000000000E+00  0.47878656253E+03  0.47878656253E+03  0.00000000000E+00 0. -1.
         22   -1    0    0    0    0 -0.00000000000E+00 -0.00000000000E+00 -0.76423035477E+03  0.76423035477E+03  0.00000000000E+00 0.  1.
        -24    2    1    2    0    0 -0.11340414342E+03 -0.12940657501E+03 -0.50440153695E+03  0.53884048156E+03  0.79508444160E+02 0.  0.
         25    2    1    2    0    0  0.82062720036E+02  0.66589909018E+02 -0.20747142767E+03  0.26431105005E+03  0.12508969532E+03 0.  0.
         24    2    1    2    0    0  0.31341423380E+02  0.62816665993E+02  0.42642917238E+03  0.43986538569E+03  0.81923745803E+02 0.  0.
        -11    1    5    5    0    0  0.18388012950E+01 -0.18314785065E+02  0.41903759398E+02  0.45768303376E+02  0.00000000000E+00 0.  1.
         12    1    5    5    0    0  0.29502622085E+02  0.81131451058E+02  0.38452541298E+03  0.39409708231E+03  0.00000000000E+00 0. -1.
         11    1    3    3    0    0  0.97721058726E+01  0.66488467136E+00 -0.17882917034E+02  0.20389576907E+02  0.00000000000E+00 0. -1.
        -12    1    3    3    0    0 -0.12317624929E+03 -0.13007145968E+03 -0.48651861991E+03  0.51845090465E+03  0.00000000000E+00 0.  1.
          5    1    4    4  501    0  0.11053446110E+02  0.71426297543E+02 -0.40967515738E+02  0.83184760608E+02  0.41800000000E+01 0. -1.
         -5    1    4    4    0  501  0.71009273926E+02 -0.48363885254E+01 -0.16650391194E+03  0.18112628944E+03  0.41800000000E+01 0. -1.
</event>
<event>
11    1  0.7105277E-009  0.1548341E+03  0.7561462E-02  0.1092039E+00
         22   -1    0    0    0    0  0.00000000000E+00  0.00000000000E+00  0.96417159188E+03  0.96417159188E+03  0.00000000000E+00 0. -1.
         22   -1    0    0    0    0 -0.00000000000E+00 -0.00000000000E+00 -0.26598819381E+03  0.26598819381E+03  0.00000000000E+00 0.  1.
        -24    2    1    2    0    0 -0.91138734962E+02 -0.33374903848E+02 -0.21455500523E+03  0.24666555580E+03  0.73415890178E+02 0.  0.
         25    2    1    2    0    0  0.50985536478E+02 -0.59085057307E+02  0.15119351869E+03  0.21118115342E+03  0.12508968998E+03 0.  0.
         24    2    1    2    0    0  0.40153198484E+02  0.92459961155E+02  0.76154488462E+03  0.77231307647E+03  0.79722976875E+02 0.  0.
        -11    1    5    5    0    0 -0.16129326444E+02 -0.41200470288E+01  0.10869625441E+03  0.10996365618E+03  0.00000000000E+00 0.  1.
         12    1    5    5    0    0  0.56282524928E+02  0.96580008183E+02  0.65284863021E+03  0.66234942029E+03  0.00000000000E+00 0. -1.
         13    1    3    3    0    0  0.92468920222E+01  0.72419914243E+01 -0.35690404130E+02  0.37573346921E+02  0.00000000000E+00 0. -1.
        -14    1    3    3    0    0 -0.10038562698E+03 -0.40616895272E+02 -0.17886460110E+03  0.20909220888E+03  0.00000000000E+00 0.  1.
          5    1    4    4  501    0  0.82826952275E+02 -0.66023892803E+02  0.80105558940E+02  0.13286772150E+03  0.41800000000E+01 0.  1.
         -5    1    4    4    0  501 -0.31841415797E+02  0.69388354956E+01  0.71087959748E+02  0.78313431920E+02  0.41800000000E+01 0.  1.
</event>
<event>
11    1  0.7105277E-009  0.1255173E+03  0.7561462E-02  0.1124903E+00
         22   -1    0    0    0    0  0.00000000000E+00  0.00000000000E+00  0.28792967028E+03  0.28792967028E+03  0.00000000000E+00 0.  1.
         22   -1    0    0    0    0 -0.00000000000E+00 -0.00000000000E+00 -0.22655616754E+03  0.22655616754E+03  0.00000000000E+00 0. -1.
        -24    2    1    2    0    0  0.14877237696E+01 -0.12848799063E+02 -0.14869840535E+03  0.17098160563E+03  0.83403769392E+02 0.  0.
         25    2    1    2    0    0  0.13167831833E+02 -0.54105065070E+01  0.96811385479E+01  0.12627365294E+03  0.12509454668E+03 0.  0.
         24    2    1    2    0    0 -0.14655555602E+02  0.18259305570E+02  0.20039076955E+03  0.21723057925E+03  0.80526247217E+02 0.  0.
        -11    1    5    5    0    0  0.39012960015E+01  0.34433292618E+02  0.18495891673E+03  0.18817723727E+03  0.00000000000E+00 0.  1.
         12    1    5    5    0    0 -0.18556851604E+02 -0.16173987048E+02  0.15431852821E+02  0.29053341976E+02  0.00000000000E+00 0. -1.
         11    1    3    3    0    0 -0.38970336124E+01 -0.23358951199E+02 -0.15554077334E+03  0.15733327570E+03  0.00000000000E+00 0. -1.
        -12    1    3    3    0    0  0.53847573820E+01  0.10510152136E+02  0.68423679886E+01  0.13648329923E+02  0.00000000000E+00 0.  1.
          5    1    4    4  501    0  0.11634124603E+01  0.48283469478E+02 -0.31156869606E+02  0.57626989137E+02  0.41800000000E+01 0. -1.
         -5    1    4    4    0  501  0.12004419372E+02 -0.53693975985E+02  0.40838008154E+02  0.68646663805E+02  0.41800000000E+01 0. -1.
</event>
<event>
11    1  0.9539204E-009  0.1768392E+03  0.7561462E-02  0.1072229E+00
         22   -1    0    0    0    0  0.00000000000E+00  0.00000000000E+00  0.15942948740E+03  0.15942948740E+03  0.00000000000E+00 0.  1.
         22   -1    0    0    0    0 -0.00000000000E+00 -0.00000000000E+00 -0.16039239802E+04  0.16039239802E+04  0.00000000000E+00 0. -1.
         24    2    1    2    0    0 -0.43247407189E+02 -0.92658186434E+01 -0.82580249346E+03  0.83103407156E+03  0.81924820807E+02 0.  0.
         25    2    1    2    0    0  0.16426840621E+03 -0.12603379682E+02 -0.72309525032E+03  0.75210433584E+03  0.12510490192E+03 0.  0.
        -24    2    1    2    0    0 -0.12102099903E+03  0.21869198325E+02  0.10440325099E+03  0.18021506020E+03  0.80331096511E+02 0.  0.
        -11    1    3    3    0    0  0.32334122679E+01  0.21585510569E+02 -0.73665185381E+02  0.76830649864E+02  0.00000000000E+00 0.  1.
         12    1    3    3    0    0 -0.46480819457E+02 -0.30851329213E+02 -0.75213730808E+03  0.75420342169E+03  0.00000000000E+00 0. -1.
         13    1    5    5    0    0  0.18511726436E+01  0.14184113605E+02 -0.53612117445E+01  0.15276076404E+02  0.00000000000E+00 0. -1.
        -14    1    5    5    0    0 -0.12287217167E+03  0.76850847201E+01  0.10976446273E+03  0.16493898380E+03  0.00000000000E+00 0.  1.
          5    1    4    4  501    0  0.15348072863E+03  0.34712909531E+02 -0.57796848755E+03  0.59902117253E+03  0.41800000000E+01 0. -1.
         -5    1    4    4    0  501  0.10787677588E+02 -0.47316289213E+02 -0.14512676278E+03  0.15308316330E+03  0.41800000000E+01 0. -1.
</event>
<event>
11    1  0.7105277E-009  0.2436481E+03  0.7561462E-02  0.1027338E+00
         22   -1    0    0    0    0  0.00000000000E+00  0.00000000000E+00  0.19853183840E+04  0.19853183840E+04  0.00000000000E+00 0.  1.
         22   -1    0    0    0    0 -0.00000000000E+00 -0.00000000000E+00 -0.91022745188E+02  0.91022745188E+02  0.00000000000E+00 0. -1.
         24    2    1    2    0    0 -0.16033939392E+02 -0.64317373262E+01 -0.34976214438E+02  0.90144273514E+02  0.81266229231E+02 0.  0.
         25    2    1    2    0    0 -0.15788404367E+03  0.12889094986E+03  0.81038308732E+03  0.84493118526E+03  0.12509081266E+03 0.  0.
        -24    2    1    2    0    0  0.17391798306E+03 -0.12245921254E+03  0.11188887659E+04  0.11412656704E+04  0.73017370340E+02 0.  0.
        -11    1    3    3    0    0 -0.34159392937E+02 -0.31411965010E+02 -0.36800455834E+02  0.59227098707E+02  0.00000000000E+00 0.  1.
         12    1    3    3    0    0  0.18125453545E+02  0.24980227684E+02  0.18242413967E+01  0.30917174807E+02  0.00000000000E+00 0. -1.
         11    1    5    5    0    0  0.91061863426E+02 -0.73199163324E+02  0.42704392187E+03  0.44273794923E+03  0.00000000000E+00 0. -1.
        -12    1    5    5    0    0  0.82856119638E+02 -0.49260049213E+02  0.69184484404E+03  0.69852772116E+03  0.00000000000E+00 0.  1.
          5    1    4    4  501    0  0.14443949084E+02  0.30679219839E+01  0.15314119987E+03  0.15390821716E+03  0.41800000000E+01 0.  1.
         -5    1    4    4    0  501 -0.17232799276E+03  0.12582302788E+03  0.65724188745E+03  0.69102296811E+03  0.41800000000E+01 0.  1.
</event>
<event>
11    1  0.7105277E-009  0.1384700E+03  0.7561462E-02  0.1109279E+00
         22   -1    0    0    0    0  0.00000000000E+00  0.00000000000E+00  0.31546438046E+03  0.31546438046E+03  0.00000000000E+00 0.  1.
         22   -1    0    0    0    0 -0.00000000000E+00 -0.00000000000E+00 -0.28111956389E+03  0.28111956389E+03  0.00000000000E+00 0. -1.
         24    2    1    2    0    0  0.16308568468E+02  0.89086316068E+01 -0.18528282560E+03  0.20432073161E+03  0.84094606135E+02 0.  0.
         25    2    1    2    0    0  0.44801842524E+02 -0.29178652502E+01 -0.18068628755E+02  0.13412519675E+03  0.12508946410E+03 0.  0.
        -24    2    1    2    0    0 -0.61110410992E+02 -0.59907663566E+01  0.23769627093E+03  0.25813801599E+03  0.79783121465E+02 0.  0.
        -11    1    3    3    0    0  0.38786240271E+01 -0.10522765812E+02  0.52597662433E+01  0.12386987754E+02  0.00000000000E+00 0.  1.
         12    1    3    3    0    0  0.12429944441E+02  0.19431397419E+02 -0.19054259184E+03  0.19193374386E+03  0.00000000000E+00 0. -1.
         11    1    5    5    0    0  0.18347780977E+02 -0.51671939816E+01  0.27831774785E+02  0.33733494454E+02  0.00000000000E+00 0. -1.
        -12    1    5    5    0    0 -0.79458191969E+02 -0.82357237498E+00  0.20986449614E+03  0.22440452153E+03  0.00000000000E+00 0.  1.
          5    1    4    4  501    0 -0.25702126984E+02 -0.42554932063E+02 -0.18284561023E+02  0.53134914568E+02  0.41800000000E+01 0.  1.
         -5    1    4    4    0  501  0.70503969507E+02  0.39637066813E+02  0.21593226803E+00  0.80990282186E+02  0.41800000000E+01 0.  1.
</event>
<event>
11    1  0.7105277E-009  0.2307259E+03  0.7561462E-02  0.1034699E+00
         22   -1    0    0    0    0  0.00000000000E+00  0.00000000000E+00  0.45105710303E+03  0.45105710303E+03  0.00000000000E+00 0. -1.
         22   -1    0    0    0    0 -0.00000000000E+00 -0.00000000000E+00 -0.55843127604E+03  0.55843127604E+03  0.00000000000E+00 0.  1.
         24    2    1    2    0    0  0.99954682720E+02 -0.12444666721E+03 -0.18859701985E+03  0.25984138071E+03  0.80441255942E+02 0.  0.
         25    2    1    2    0    0 -0.14000191135E+03  0.21233725677E+03 -0.26027530489E+03  0.38480928726E+03  0.12508919788E+03 0.  0.
        -24    2    1    2    0    0  0.40047228632E+02 -0.87890589557E+02  0.34149815173E+03  0.36483771109E+03  0.84599240794E+02 0.  0.
        -11    1    3    3    0    0  0.10242294363E+03 -0.12283318623E+03 -0.19535276433E+03  0.25247010428E+03  0.00000000000E+00 0.  1.
         12    1    3    3    0    0 -0.24682609082E+01 -0.16134809789E+01  0.67557444832E+01  0.73712764364E+01  0.00000000000E+00 0. -1.
         13    1    5    5    0    0  0.46202979335E+02 -0.83620917740E+02  0.34393702072E+03  0.35695916769E+03  0.00000000000E+00 0. -1.
        -14    1    5    5    0    0 -0.61557507027E+01 -0.42696718166E+01 -0.24388689813E+01  0.78785433961E+01  0.00000000000E+00 0.  1.
          5    1    4    4  501    0 -0.12316429776E+03  0.22587147534E+03 -0.21836121279E+03  0.33747067912E+03  0.41800000000E+01 0. -1.
         -5    1    4    4    0  501 -0.16837613590E+02 -0.13534218567E+02 -0.41914092101E+02  0.47338608137E+02  0.41800000000E+01 0. -1.
</event>
<event>
11    1  0.7105277E-009  0.1347727E+03  0.7561462E-02  0.1113540E+00
         22   -1    0    0    0    0  0.00000000000E+00  0.00000000000E+00  0.52979638529E+03  0.52979638529E+03  0.00000000000E+00 0. -1.
         22   -1    0    0    0    0 -0.00000000000E+00 -0.00000000000E+00 -0.66890564811E+03  0.66890564811E+03  0.00000000000E+00 0. -1.
        -24    2    1    2    0    0 -0.36695248109E+02  0.33438074954E+02 -0.61292839294E+03  0.62003448892E+03  0.79353049693E+02 0.  0.
         25    2    1    2    0    0  0.30123100733E+02 -0.64244789164E+02  0.59939916180E+02  0.15580533266E+03  0.12509082301E+03 0.  0.
         24    2    1    2    0    0  0.65721473765E+01  0.30806714210E+02  0.41387921393E+03  0.42286221182E+03  0.80772518220E+02 0.  0.
        -13    1    5    5    0    0  0.65177309818E+01 -0.73103264353E+01  0.30347862519E+01  0.10253371023E+02  0.00000000000E+00 0.  1.
         14    1    5    5    0    0  0.54416394645E-01  0.38117040645E+02  0.41084442768E+03  0.41260884080E+03  0.00000000000E+00 0. -1.
         13    1    3    3    0    0 -0.35831005056E+02  0.54885919899E+02 -0.54143892988E+03  0.54539200573E+03  0.00000000000E+00 0. -1.
        -14    1    3    3    0    0 -0.86424305332E+00 -0.21447844945E+02 -0.71489463058E+02  0.74642483193E+02  0.00000000000E+00 0.  1.
          5    1    4    4  501    0 -0.82724433317E+01  0.27158192718E+02 -0.14124482878E+02  0.31983967342E+02  0.41800000000E+01 0.  1.
         -5    1    4    4    0  501  0.38395544064E+02 -0.91402981882E+02  0.74064399058E+02  0.12382136532E+03  0.41800000000E+01 0.  1.
</event>
<event>
11    1  0.7105277E-009  0.1279023E+03  0.7561462E-02  0.1121874E+00
         22   -1    0    0    0    0  0.00000000000E+00  0.00000000000E+00  0.93723021512E+02  0.93723021512E+02  0.00000000000E+00 0. -1.
         22   -1    0    0    0    0 -0.00000000000E+00 -0.00000000000E+00 -0.77239235858E+03  0.77239235858E+03  0.00000000000E+00 0. -1.
         24    2    1    2    0    0  0.12101227547E+02 -0.25049944760E+02 -0.63989622209E+03  0.64569623228E+03  0.81746620058E+02 0.  0.
         25    2    1    2    0    0 -0.17317900905E+02  0.24726276479E+01 -0.51347493165E+02  0.13634389252E+03  0.12508824243E+03 0.  0.
        -24    2    1    2    0    0  0.52166733583E+01  0.22577317112E+02  0.12574378189E+02  0.84075255297E+02  0.79834733277E+02 0.  0.
        -13    1    3    3    0    0  0.44879112901E+01  0.25208855532E+02 -0.93565704840E+02  0.97006024902E+02  0.00000000000E+00 0.  1.
         14    1    3    3    0    0  0.76133162568E+01 -0.50258800291E+02 -0.54633051725E+03  0.54869020738E+03  0.00000000000E+00 0. -1.
         13    1    5    5    0    0 -0.16797991431E+02  0.21947196704E+02  0.40175710629E+02  0.48764122917E+02  0.00000000000E+00 0. -1.
        -14    1    5    5    0    0  0.22014664789E+02  0.63012040770E+00 -0.27601332440E+02  0.35311132380E+02  0.00000000000E+00 0.  1.
          5    1    4    4  501    0  0.14729909287E+02  0.29577580892E+02  0.29926649166E+02  0.44775889152E+02  0.41800000000E+01 0. -1.
         -5    1    4    4    0  501 -0.32047810192E+02 -0.27104953244E+02 -0.81274142332E+02  0.91568003365E+02  0.41800000000E+01 0. -1.
</event>
<event>
11    1  0.7105277E-009  0.1485223E+03  0.7561462E-02  0.1098398E+00
         22   -1    0    0    0    0  0.00000000000E+00  0.00000000000E+00  0.26300181788E+03  0.26300181788E+03  0.00000000000E+00 0. -1.
         22   -1    0    0    0    0 -0.00000000000E+00 -0.00000000000E+00 -0.98533428479E+03  0.98533428479E+03  0.00000000000E+00 0. -1.
         24    2    1    2    0    0  0.58193941178E+02  0.55186455710E+02 -0.71591496564E+03  0.72481601522E+03  0.79949597978E+02 0.  0.
         25    2    1    2    0    0 -0.96558903792E+02 -0.84412427113E+01 -0.22965587510E+03  0.27889792054E+03  0.12508937860E+03 0.  0.
        -24    2    1    2    0    0  0.38364962614E+02 -0.46745212999E+02  0.22323837382E+03  0.24462216691E+03  0.79672126258E+02 0.  0.
        -13    1    3    3    0    0 -0.18729510544E+02  0.22094888889E+02 -0.15473811036E+03  0.15742573321E+03  0.00000000000E+00 0.  1.
         14    1    3    3    0    0  0.76923451721E+02  0.33091566821E+02 -0.56117685528E+03  0.56739028201E+03  0.00000000000E+00 0. -1.
         11    1    5    5    0    0 -0.13659491126E+02 -0.35225705248E+01  0.12234312376E+03  0.12315368501E+03  0.00000000000E+00 0. -1.
        -12    1    5    5    0    0  0.52024453740E+02 -0.43222642474E+02  0.10089525006E+03  0.12146848190E+03  0.00000000000E+00 0.  1.
          5    1    4    4  501    0  0.18961962807E+02  0.26357120268E+02 -0.81218144733E+02  0.87567763796E+02  0.41800000000E+01 0.  1.
         -5    1    4    4    0  501 -0.11552086660E+03 -0.34798362979E+02 -0.14843773036E+03  0.19133015675E+03  0.41800000000E+01 0.  1.
</event>
<event>
11    1  0.7105277E-009  0.1279854E+03  0.7561462E-02  0.1121769E+00
         22   -1    0    0    0    0  0.00000000000E+00  0.00000000000E+00  0.62855456700E+03  0.62855456700E+03  0.00000000000E+00 0.  1.
         22   -1    0    0    0    0 -0.00000000000E+00 -0.00000000000E+00 -0.62731949168E+03  0.62731949168E+03  0.00000000000E+00 0.  1.
        -24    2    1    2    0    0 -0.23986607832E+02  0.24629863423E+02 -0.29514343446E+03  0.30737265595E+03  0.78653132146E+02 0.  0.
         25    2    1    2    0    0  0.15068487802E+02 -0.16073798314E+01 -0.31103919538E+03  0.33559672986E+03  0.12510052373E+03 0.  0.
         24    2    1    2    0    0  0.89181200299E+01 -0.23022483591E+02  0.60741770516E+03  0.61290467285E+03  0.78014754067E+02 0.  0.
        -11    1    5    5    0    0 -0.20702535370E+02 -0.37512669247E+02  0.45206460309E+03  0.45409052037E+03  0.00000000000E+00 0.  1.
         12    1    5    5    0    0  0.29620655400E+02  0.14490185656E+02  0.15535310207E+03  0.15881415248E+03  0.00000000000E+00 0. -1.
         11    1    3    3    0    0 -0.50701041365E+02  0.25806950776E+02 -0.16565068602E+03  0.17514777784E+03  0.00000000000E+00 0. -1.
        -12    1    3    3    0    0  0.26714433533E+02 -0.11770873533E+01 -0.12949274844E+03  0.13222487811E+03  0.00000000000E+00 0.  1.
          5    1    4    4  501    0  0.33550730536E+02 -0.99057746734E+01 -0.31285338057E+03  0.31483088480E+03  0.41800000000E+01 0. -1.
         -5    1    4    4    0  501 -0.18482242733E+02  0.82983948420E+01  0.18141851858E+01  0.20765845066E+02  0.41800000000E+01 0. -1.
</event>
<event>
11    1  0.7105277E-009  0.2964573E+03  0.7561462E-02  0.1001702E+00
         22   -1    0    0    0    0  0.00000000000E+00  0.00000000000E+00  0.87586106255E+03  0.87586106255E+03  0.00000000000E+00 0. -1.
         22   -1    0    0    0    0 -0.00000000000E+00 -0.00000000000E+00 -0.38989272386E+03  0.38989272386E+03  0.00000000000E+00 0. -1.
         24    2    1    2    0    0 -0.12807055519E+02 -0.27816334797E+03 -0.28937239590E+03  0.40958141124E+03  0.80508882113E+02 0.  0.
         25    2    1    2    0    0 -0.34864417405E+01  0.19913443419E+03  0.40247429200E+03  0.46615399583E+03  0.12508922398E+03 0.  0.
        -24    2    1    2    0    0  0.16293497260E+02  0.79028913780E+02  0.37286644259E+03  0.39001837934E+03  0.81079621055E+02 0.  0.
        -11    1    3    3    0    0 -0.46250259194E+02 -0.15589339890E+03 -0.15070984923E+03  0.22170993877E+03  0.00000000000E+00 0.  1.
         12    1    3    3    0    0  0.33443203674E+02 -0.12226994907E+03 -0.13866254667E+03  0.18787147247E+03  0.00000000000E+00 0. -1.
         11    1    5    5    0    0  0.46566655625E+02  0.44501879987E+02  0.26630978696E+03  0.27398863730E+03  0.00000000000E+00 0. -1.
        -12    1    5    5    0    0 -0.30273158365E+02  0.34527033793E+02  0.10655665563E+03  0.11602974204E+03  0.00000000000E+00 0.  1.
          5    1    4    4  501    0 -0.70012103976E+01 -0.15021904237E+02  0.58305877112E+02  0.60759544598E+02  0.41800000000E+01 0. -1.
         -5    1    4    4    0  501  0.35147686571E+01  0.21415633843E+03  0.34416841489E+03  0.40539445124E+03  0.41800000000E+01 0. -1.
</event>
<event>
11    1  0.7105277E-009  0.1710051E+03  0.7561462E-02  0.1077160E+00
         22   -1    0    0    0    0  0.00000000000E+00  0.00000000000E+00  0.72312715551E+03  0.72312715551E+03  0.00000000000E+00 0.  1.
         22   -1    0    0    0    0 -0.00000000000E+00 -0.00000000000E+00 -0.70762571674E+03  0.70762571674E+03  0.00000000000E+00 0. -1.
         24    2    1    2    0    0 -0.83447747394E+02  0.80781235746E+02 -0.64978206002E+03  0.66497902923E+03  0.80568288998E+02 0.  0.
         25    2    1    2    0    0  0.12400674083E+03 -0.55183048023E+02  0.13878984558E+03  0.23093617378E+03  0.12508418991E+03 0.  0.
        -24    2    1    2    0    0 -0.40558993432E+02 -0.25598187724E+02  0.52649365322E+03  0.53483766924E+03  0.80965834749E+02 0.  0.
        -11    1    3    3    0    0 -0.85306788817E+02  0.30155884852E+02 -0.39879089733E+03  0.40892640585E+03  0.00000000000E+00 0.  1.
         12    1    3    3    0    0  0.18590414228E+01  0.50625350894E+02 -0.25099116269E+03  0.25605262338E+03  0.00000000000E+00 0. -1.
         13    1    5    5    0    0 -0.41744683384E+02  0.17192310991E+02  0.17429170359E+03  0.18004386157E+03  0.00000000000E+00 0. -1.
        -14    1    5    5    0    0  0.11856899521E+01 -0.42790498714E+02  0.35220194963E+03  0.35479380767E+03  0.00000000000E+00 0.  1.
          5    1    4    4  501    0  0.11291299716E+03 -0.89396906191E+02  0.12909014089E+03  0.19344996418E+03  0.41800000000E+01 0.  1.
         -5    1    4    4    0  501  0.11093743664E+02  0.34213858169E+02  0.96997046859E+01  0.37486209601E+02  0.41800000000E+01 0.  1.
</event>
<event>
11    1  0.7105277E-009  0.1353306E+03  0.7561462E-02  0.1112888E+00
         22   -1    0    0    0    0  0.00000000000E+00  0.00000000000E+00  0.39775605801E+02  0.39775605801E+02  0.00000000000E+00 0. -1.
         22   -1    0    0    0    0 -0.00000000000E+00 -0.00000000000E+00 -0.39429528053E+04  0.39429528053E+04  0.00000000000E+00 0.  1.
         24    2    1    2    0    0 -0.29398226521E+02 -0.45377668808E+02 -0.33356358953E+04  0.33369828189E+04  0.77872452086E+02 0.  0.
         25    2    1    2    0    0  0.27193739050E+02  0.11400560508E+02 -0.53913930172E+03  0.55424446309E+03  0.12508503504E+03 0.  0.
        -24    2    1    2    0    0  0.22044874720E+01  0.33977108300E+02 -0.28402002433E+02  0.91501129101E+02  0.80040484950E+02 0.  0.
        -11    1    3    3    0    0 -0.51692201806E+02 -0.23445377965E+02 -0.26805062577E+04  0.26811071532E+04  0.00000000000E+00 0.  1.
         12    1    3    3    0    0  0.22293975284E+02 -0.21932290844E+02 -0.65512963762E+03  0.65587566566E+03  0.00000000000E+00 0. -1.
         13    1    5    5    0    0  0.32986557567E+02 -0.78668105779E+01 -0.41250376352E+01  0.34161610388E+02  0.00000000000E+00 0. -1.
        -14    1    5    5    0    0 -0.30782070095E+02  0.41843918878E+02 -0.24276964798E+02  0.57339518713E+02  0.00000000000E+00 0.  1.
          5    1    4    4  501    0  0.27583879265E+01 -0.90627303575E+01 -0.51219722872E+03  0.51230187906E+03  0.41800000000E+01 0. -1.
         -5    1    4    4    0  501  0.24435351123E+02  0.20463290866E+02 -0.26942072998E+02  0.41942584028E+02  0.41800000000E+01 0. -1.
</event>
<event>
11    1  0.7105277E-009  0.1382646E+03  0.7561462E-02  0.1109512E+00
         22   -1    0    0    0    0  0.00000000000E+00  0.00000000000E+00  0.62631229639E+03  0.62631229639E+03  0.00000000000E+00 0. -1.
         22   -1    0    0    0    0 -0.00000000000E+00 -0.00000000000E+00 -0.21376544143E+03  0.21376544143E+03  0.00000000000E+00 0.  1.
         24    2    1    2    0    0  0.57516776553E+01 -0.99188840642E+01 -0.10289956160E+03  0.13219024975E+03  0.82185620969E+02 0.  0.
         25    2    1    2    0    0 -0.18598292445E+02 -0.47971015936E+02 -0.41941171642E+02  0.14160847339E+03  0.12508710167E+03 0.  0.
        -24    2    1    2    0    0  0.12846614789E+02  0.57889900000E+02  0.55738758820E+03  0.56627901469E+03  0.80465663216E+02 0.  0.
        -13    1    3    3    0    0  0.37629938430E+02 -0.27338514865E+02 -0.53919230128E+02  0.71208777821E+02  0.00000000000E+00 0.  1.
         14    1    3    3    0    0 -0.31878260775E+02  0.17419630801E+02 -0.48980331470E+02  0.60981471925E+02  0.00000000000E+00 0. -1.
         11    1    5    5    0    0 -0.98336312433E+01 -0.24549239005E+01  0.32380791327E+03  0.32396649773E+03  0.00000000000E+00 0. -1.
        -12    1    5    5    0    0  0.22680246032E+02  0.60344823900E+02  0.23357967493E+03  0.24231251695E+03  0.00000000000E+00 0.  1.
          5    1    4    4  501    0  0.48579355539E+02 -0.53635356791E-01  0.41834073752E+00  0.48760681602E+02  0.41800000000E+01 0.  1.
         -5    1    4    4    0  501 -0.67177647984E+02 -0.47917380579E+02 -0.42359512379E+02  0.92847791784E+02  0.41800000000E+01 0.  1.
</event>
<event>
11    1  0.7105277E-009  0.1503973E+03  0.7561462E-02  0.1096473E+00
         22   -1    0    0    0    0  0.00000000000E+00  0.00000000000E+00  0.38692841333E+03  0.38692841333E+03  0.00000000000E+00 0.  1.
         22   -1    0    0    0    0 -0.00000000000E+00 -0.00000000000E+00 -0.14670749228E+04  0.14670749228E+04  0.00000000000E+00 0. -1.
        -24    2    1    2    0    0 -0.47672177388E+02  0.70419055218E+02 -0.13949340906E+04  0.13999005447E+04  0.81541021881E+02 0.  0.
         25    2    1    2    0    0 -0.58085279085E+01 -0.49557463544E+02  0.11887317470E+02  0.13519569864E+03  0.12508751906E+03 0.  0.
         24    2    1    2    0    0  0.53480705296E+02 -0.20861591675E+02  0.30290026364E+03  0.31890709276E+03  0.81595172991E+02 0.  0.
        -11    1    5    5    0    0  0.52835145087E+02 -0.32281192937E+02  0.30101262435E+03  0.30731454244E+03  0.00000000000E+00 0.  1.
         12    1    5    5    0    0  0.64556020919E+00  0.11419601262E+02  0.18876392869E+01  0.11592550326E+02  0.00000000000E+00 0. -1.
         11    1    3    3    0    0 -0.49430214637E+02  0.77685693488E+02 -0.86018827397E+03  0.86510246779E+03  0.00000000000E+00 0. -1.
        -12    1    3    3    0    0  0.17580372487E+01 -0.72666382693E+01 -0.53474581661E+03  0.53479807695E+03  0.00000000000E+00 0.  1.
          5    1    4    4  501    0  0.55945837984E+02 -0.43963089863E+02  0.15506092816E+02  0.72942452471E+02  0.41800000000E+01 0.  1.
         -5    1    4    4    0  501 -0.61754365893E+02 -0.55943736808E+01 -0.36187753457E+01  0.62253246170E+02  0.41800000000E+01 0.  1.
</event>
<event>
11    1  0.7105277E-009  0.1348063E+03  0.7561462E-02  0.1113501E+00
         22   -1    0    0    0    0  0.00000000000E+00  0.00000000000E+00  0.67885022144E+03  0.67885022144E+03  0.00000000000E+00 0. -1.
         22   -1    0    0    0    0 -0.00000000000E+00 -0.00000000000E+00 -0.80968024383E+02  0.80968024383E+02  0.00000000000E+00 0. -1.
        -24    2    1    2    0    0  0.33463819301E+02 -0.13674590725E+02 -0.12576336504E+02  0.88928110292E+02  0.80269688716E+02 0.  0.
         25    2    1    2    0    0 -0.78069010002E+02  0.69631183785E+01  0.19004114183E+03  0.24063738078E+03  0.12508980016E+03 0.  0.
         24    2    1    2    0    0  0.44605190701E+02  0.67114723460E+01  0.42041739174E+03  0.43025275475E+03  0.79573756959E+02 0.  0.
        -13    1    5    5    0    0 -0.20379474342E+02  0.85198912113E+01  0.17430648003E+03  0.17570048521E+03  0.00000000000E+00 0.  1.
         14    1    5    5    0    0  0.64984665043E+02 -0.18084188652E+01  0.24611091171E+03  0.25455226955E+03  0.00000000000E+00 0. -1.
         11    1    3    3    0    0  0.22328085989E+02 -0.22649717335E+02 -0.44064687910E+02  0.54343811422E+02  0.00000000000E+00 0. -1.
        -12    1    3    3    0    0  0.11135733311E+02  0.89751266103E+01  0.31488351406E+02  0.34584298870E+02  0.00000000000E+00 0.  1.
          5    1    4    4  501    0 -0.64374057936E+02 -0.30947441647E+02  0.33623593561E+02  0.79055562256E+02  0.41800000000E+01 0. -1.
         -5    1    4    4    0  501 -0.13694952066E+02  0.37910560025E+02  0.15641754827E+03  0.16158181853E+03  0.41800000000E+01 0. -1.
</event>
<event>
11    1  0.7105277E-009  0.1527880E+03  0.7561462E-02  0.1094064E+00
         22   -1    0    0    0    0  0.00000000000E+00  0.00000000000E+00  0.57187913412E+03  0.57187913412E+03  0.00000000000E+00 0.  1.
         22   -1    0    0    0    0 -0.00000000000E+00 -0.00000000000E+00 -0.56500020153E+03  0.56500020153E+03  0.00000000000E+00 0. -1.
         24    2    1    2    0    0 -0.48272943866E+02 -0.17271569135E+02 -0.47843000117E+03  0.48669217630E+03  0.73112408263E+02 0.  0.
         25    2    1    2    0    0  0.12248900651E+03  0.54778174294E+02  0.37098247857E+02  0.18715839370E+03  0.12509108379E+03 0.  0.
        -24    2    1    2    0    0 -0.74216062639E+02 -0.37506605159E+02  0.44821068590E+03  0.46302876565E+03  0.81166800340E+02 0.  0.
        -11    1    3    3    0    0 -0.40013736097E+01  0.93495429951E+01 -0.67825295533E+01  0.12224060378E+02  0.00000000000E+00 0.  1.
         12    1    3    3    0    0 -0.44271570256E+02 -0.26621112130E+02 -0.47164747162E+03  0.47446811593E+03  0.00000000000E+00 0. -1.
         13    1    5    5    0    0  0.15086365262E+02 -0.85243420291E+00  0.11905072175E+03  0.12000583073E+03  0.00000000000E+00 0. -1.
        -14    1    5    5    0    0 -0.89302427901E+02 -0.36654170956E+02  0.32915996415E+03  0.34302293492E+03  0.00000000000E+00 0.  1.
          5    1    4    4  501    0  0.70081207771E+02 -0.35588120944E+02  0.20120877367E+02  0.81241689674E+02  0.41800000000E+01 0. -1.
         -5    1    4    4    0  501  0.52407798734E+02  0.90366295237E+02  0.16977370490E+02  0.10591670403E+03  0.41800000000E+01 0. -1.
</event>
<event>
11    1  0.7105277E-009  0.1744984E+03  0.7561462E-02  0.1074182E+00
         22   -1    0    0    0    0  0.00000000000E+00  0.00000000000E+00  0.85495773564E+03  0.85495773564E+03  0.00000000000E+00 0.  1.
         22   -1    0    0    0    0 -0.00000000000E+00 -0.00000000000E+00 -0.33279658790E+03  0.33279658790E+03  0.00000000000E+00 0.  1.
         24    2    1    2    0    0  0.46921279067E+02 -0.34940130059E+02 -0.26218960167E+03  0.28042723677E+03  0.80458863904E+02 0.  0.
         25    2    1    2    0    0  0.80446187557E+02  0.36593404580E+02  0.55126685030E+02  0.16277644978E+03  0.12508618968E+03 0.  0.
        -24    2    1    2    0    0 -0.12736746662E+03 -0.16532745216E+01  0.72922406438E+03  0.74455063699E+03  0.79766597621E+02 0.  0.
        -11    1    3    3    0    0 -0.15442915033E+01  0.37005517052E+01 -0.16567116809E+03  0.16571968759E+03  0.00000000000E+00 0.  1.
         12    1    3    3    0    0  0.48465570570E+02 -0.38640681764E+02 -0.96518433584E+02  0.11470754918E+03  0.00000000000E+00 0. -1.
         13    1    5    5    0    0 -0.81905890600E+01 -0.27185294769E+02  0.13316910016E+03  0.13616216523E+03  0.00000000000E+00 0. -1.
        -14    1    5    5    0    0 -0.11917687756E+03  0.25532020248E+02  0.59605496422E+03  0.60838847177E+03  0.00000000000E+00 0.  1.
          5    1    4    4  501    0  0.10787730243E+03  0.51324359196E+02  0.54447899447E+02  0.13135352443E+03  0.41800000000E+01 0. -1.
         -5    1    4    4    0  501 -0.27431114876E+02 -0.14730954616E+02  0.67878558300E+00  0.31422925343E+02  0.41800000000E+01 0. -1.
</event>
<event>
11    1  0.7105277E-009  0.1740894E+03  0.7561462E-02  0.1074527E+00
         22   -1    0    0    0    0  0.00000000000E+00  0.00000000000E+00  0.11409417699E+04  0.11409417699E+04  0.00000000000E+00 0.  1.
         22   -1    0    0    0    0 -0.00000000000E+00 -0.00000000000E+00 -0.17128914134E+03  0.17128914134E+03  0.00000000000E+00 0.  1.
        -24    2    1    2    0    0 -0.10446624633E+03 -0.44629229192E+01 -0.10215175110E+03  0.16676011020E+03  0.80254842817E+02 0.  0.
         25    2    1    2    0    0  0.16327699999E+03 -0.88653362589E+02  0.38906243669E+03  0.44892771766E+03  0.12509084145E+03 0.  0.
         24    2    1    2    0    0 -0.58810753658E+02  0.93116285508E+02  0.68274194293E+03  0.69654308335E+03  0.83104506242E+02 0.  0.
        -11    1    5    5    0    0 -0.31899562728E+02  0.96199219404E+02  0.61962804773E+03  0.62786207837E+03  0.00000000000E+00 0.  1.
         12    1    5    5    0    0 -0.26911190930E+02 -0.30829338959E+01  0.63113895201E+02  0.68681004987E+02  0.00000000000E+00 0. -1.
         11    1    3    3    0    0 -0.44923075372E+02 -0.30247466438E+02 -0.11641273450E+02  0.55394143863E+02  0.00000000000E+00 0. -1.
        -12    1    3    3    0    0 -0.59543170960E+02  0.25784543519E+02 -0.90510477651E+02  0.11136596633E+03  0.00000000000E+00 0.  1.
          5    1    4    4  501    0  0.10450363639E+02  0.21743923112E+02  0.10607892287E+03  0.10886789503E+03  0.41800000000E+01 0. -1.
         -5    1    4    4    0  501  0.15282663635E+03 -0.11039728570E+03  0.28298351383E+03  0.34005982263E+03  0.41800000000E+01 0. -1.
</event>
<event>
11    1  0.7105277E-009  0.1602992E+03  0.7561462E-02  0.1086796E+00
         22   -1    0    0    0    0  0.00000000000E+00  0.00000000000E+00  0.16745938965E+03  0.16745938965E+03  0.00000000000E+00 0.  1.
         22   -1    0    0    0    0 -0.00000000000E+00 -0.00000000000E+00 -0.44496868943E+03  0.44496868943E+03  0.00000000000E+00 0.  1.
        -24    2    1    2    0    0 -0.22718391067E+02 -0.85671665161E+02 -0.18747582930E+03  0.22322971193E+03  0.82635090685E+02 0.  0.
         25    2    1    2    0    0 -0.21240235378E+02  0.13026466275E+03 -0.17776200631E+03  0.25429300019E+03  0.12508224932E+03 0.  0.
         24    2    1    2    0    0  0.43958626446E+02 -0.44592997590E+02  0.87728535833E+02  0.13490536695E+03  0.81131163925E+02 0.  0.
        -13    1    5    5    0    0  0.64128793095E+02 -0.15191224797E+02  0.65338262445E+02  0.92802822985E+02  0.00000000000E+00 0.  1.
         14    1    5    5    0    0 -0.20170166649E+02 -0.29401772794E+02  0.22390273388E+02  0.42102543967E+02  0.00000000000E+00 0. -1.
         13    1    3    3    0    0  0.15801839827E+02  0.37071010861E+01 -0.60027098801E+01  0.17305295903E+02  0.00000000000E+00 0. -1.
        -14    1    3    3    0    0 -0.38520230895E+02 -0.89378766247E+02 -0.18147311942E+03  0.20592441603E+03  0.00000000000E+00 0.  1.
          5    1    4    4  501    0 -0.43877429580E+02  0.11700675358E+02 -0.85477669839E+01  0.46396889452E+02  0.41800000000E+01 0.  1.
         -5    1    4    4    0  501  0.22637194202E+02  0.11856398739E+03 -0.16921423933E+03  0.20789611074E+03  0.41800000000E+01 0.  1.
</event>
<event>
11    1  0.7105277E-009  0.1446020E+03  0.7561462E-02  0.1102526E+00
         22   -1    0    0    0    0  0.00000000000E+00  0.00000000000E+00  0.91719757572E+03  0.91719757572E+03  0.00000000000E+00 0. -1.
         22   -1    0    0    0    0 -0.00000000000E+00 -0.00000000000E+00 -0.12446355332E+04  0.12446355332E+04  0.00000000000E+00 0. -1.
         24    2    1    2    0    0  0.50242926728E+02 -0.52564324659E+02 -0.12095103395E+04  0.12142441220E+04  0.78652186445E+02 0.  0.
         25    2    1    2    0    0 -0.71703852704E+02  0.13878242623E+02  0.14480989474E+03  0.20482063371E+03  0.12509012059E+03 0.  0.
        -24    2    1    2    0    0  0.21460925976E+02  0.38686082036E+02  0.73726248731E+03  0.74276835322E+03  0.78687146733E+02 0.  0.
        -13    1    3    3    0    0  0.33167723355E+02 -0.48462944805E+02 -0.37682397343E+03  0.38137260237E+03  0.00000000000E+00 0.  1.
         14    1    3    3    0    0  0.17075203374E+02 -0.41013798540E+01 -0.83268636607E+03  0.83287151958E+03  0.00000000000E+00 0. -1.
         11    1    5    5    0    0  0.34544097542E+02 -0.12864390089E+02  0.32788339668E+03  0.32994894912E+03  0.00000000000E+00 0. -1.
        -12    1    5    5    0    0 -0.13083171566E+02  0.51550472125E+02  0.40937909064E+03  0.41281940410E+03  0.00000000000E+00 0.  1.
          5    1    4    4  501    0 -0.54041436129E+01 -0.21447112128E+02 -0.15772885009E+02  0.27485263112E+02  0.41800000000E+01 0. -1.
         -5    1    4    4    0  501 -0.66299709091E+02  0.35325354751E+02  0.16058277975E+03  0.17733537060E+03  0.41800000000E+01 0. -1.
</event>
<event>
11    1  0.7105277E-009  0.1558135E+03  0.7561462E-02  0.1091082E+00
         22   -1    0    0    0    0  0.00000000000E+00  0.00000000000E+00  0.17025775304E+03  0.17025775304E+03  0.00000000000E+00 0.  1.
         22   -1    0    0    0    0 -0.00000000000E+00 -0.00000000000E+00 -0.13670348410E+04  0.13670348410E+04  0.00000000000E+00 0. -1.
         24    2    1    2    0    0 -0.57092377917E+02 -0.73786589966E+02 -0.96039208342E+03  0.96811275331E+03  0.78646988174E+02 0.  0.
         25    2    1    2    0    0  0.83954701303E+02  0.48637974018E+02 -0.37384028221E+03  0.40597832522E+03  0.12509116499E+03 0.  0.
        -24    2    1    2    0    0 -0.26862323386E+02  0.25148615948E+02  0.13745527769E+03  0.16320151548E+03  0.79917106997E+02 0.  0.
        -13    1    3    3    0    0 -0.39965043082E+01  0.41040360869E+01 -0.38556578533E+03  0.38560833754E+03  0.00000000000E+00 0.  1.
         14    1    3    3    0    0 -0.53095873609E+02 -0.77890626053E+02 -0.57482629809E+03  0.58250441578E+03  0.00000000000E+00 0. -1.
         11    1    5    5    0    0 -0.14742869846E+02  0.66569063344E+01 -0.65917433567E+01  0.17467618433E+02  0.00000000000E+00 0. -1.
        -12    1    5    5    0    0 -0.12119453540E+02  0.18491709614E+02  0.14404702104E+03  0.14573389705E+03  0.00000000000E+00 0.  1.
          5    1    4    4  501    0  0.70720665390E+02  0.71156291078E+02 -0.36425915431E+03  0.37784498696E+03  0.41800000000E+01 0. -1.
         -5    1    4    4    0  501  0.13234035913E+02 -0.22518317060E+02 -0.95811278980E+01  0.28133338258E+02  0.41800000000E+01 0. -1.
</event>
<event>
11    1  0.7105277E-009  0.1602565E+03  0.7561462E-02  0.1086836E+00
         22   -1    0    0    0    0  0.00000000000E+00  0.00000000000E+00  0.76494611254E+03  0.76494611254E+03  0.00000000000E+00 0.  1.
         22   -1    0    0    0    0 -0.00000000000E+00 -0.00000000000E+00 -0.11752777326E+04  0.11752777326E+04  0.00000000000E+00 0. -1.
        -24    2    1    2    0    0 -0.12642851011E+02  0.28488805518E+02 -0.10201740299E+04  0.10236806008E+04  0.78711291565E+02 0.  0.
         25    2    1    2    0    0  0.22467344685E+02 -0.12696001956E+03 -0.92210599186E+02  0.20192522208E+03  0.12508945825E+03 0.  0.
         24    2    1    2    0    0 -0.98244936744E+01  0.98471214045E+02  0.70205300906E+03  0.71461802224E+03  0.89484018171E+02 0.  0.
        -11    1    5    5    0    0 -0.18595101103E+02  0.71153206543E+02  0.65766732780E+03  0.66176647742E+03  0.00000000000E+00 0.  1.
         12    1    5    5    0    0  0.87706074285E+01  0.27318007503E+02  0.44385681264E+02  0.52851544820E+02  0.00000000000E+00 0. -1.
         13    1    3    3    0    0 -0.75739253798E+01 -0.33244303208E+00 -0.89867989936E+03  0.89871187618E+03  0.00000000000E+00 0. -1.
        -14    1    3    3    0    0 -0.50689256308E+01  0.28821248550E+02 -0.12149413054E+03  0.12496872461E+03  0.00000000000E+00 0.  1.
          5    1    4    4  501    0  0.49153604189E+02 -0.51123269589E+02 -0.98194553777E+02  0.12119945664E+03  0.41800000000E+01 0.  1.
         -5    1    4    4    0  501 -0.26686259504E+02 -0.75836749975E+02  0.59839545909E+01  0.80725765438E+02  0.41800000000E+01 0.  1.
</event>
<event>
11    1  0.7105277E-009  0.1486147E+03  0.7561462E-02  0.1098303E+00
         22   -1    0    0    0    0  0.00000000000E+00  0.00000000000E+00  0.15727840858E+03  0.15727840858E+03  0.00000000000E+00 0.  1.
         22   -1    0    0    0    0 -0.00000000000E+00 -0.00000000000E+00 -0.11675034335E+04  0.11675034335E+04  0.00000000000E+00 0. -1.
        -24    2    1    2    0    0  0.58924831911E+02  0.17197072956E+01 -0.78135632850E+03  0.78781802025E+03  0.81635946347E+02 0.  0.
         25    2    1    2    0    0 -0.38542002656E+01 -0.63130061627E+02 -0.34623916875E+03  0.37353606442E+03  0.12508944762E+03 0.  0.
         24    2    1    2    0    0 -0.55070631645E+02  0.61410354332E+02  0.11737047230E+03  0.16342775745E+03  0.78286640298E+02 0.  0.
        -11    1    5    5    0    0 -0.41425860952E+01  0.56027015867E+02  0.87964103798E+02  0.10437370878E+03  0.00000000000E+00 0.  1.
         12    1    5    5    0    0 -0.50928045550E+02  0.53833384645E+01  0.29406368497E+02  0.59054048674E+02  0.00000000000E+00 0. -1.
         13    1    3    3    0    0  0.30819568388E+02  0.41422657650E+02 -0.43818425404E+03  0.44121550613E+03  0.00000000000E+00 0. -1.
        -14    1    3    3    0    0  0.28105263523E+02 -0.39702950354E+02 -0.34317207446E+03  0.34660251412E+03  0.00000000000E+00 0.  1.
          5    1    4    4  501    0  0.19386962790E+02 -0.42870039829E+02 -0.30409415035E+02  0.56177393709E+02  0.41800000000E+01 0.  1.
         -5    1    4    4    0  501 -0.23241163055E+02 -0.20260021799E+02 -0.31582975372E+03  0.31735867072E+03  0.41800000000E+01 0.  1.
</event>
<event>
11    1  0.7105277E-009  0.2174735E+03  0.7561462E-02  0.1042812E+00
         22   -1    0    0    0    0  0.00000000000E+00  0.00000000000E+00  0.74226448633E+03  0.74226448633E+03  0.00000000000E+00 0. -1.
         22   -1    0    0    0    0 -0.00000000000E+00 -0.00000000000E+00 -0.27585824458E+03  0.27585824458E+03  0.00000000000E+00 0.  1.
         24    2    1    2    0    0 -0.16530365247E+03  0.54895528988E+02 -0.19175833224E+03  0.27182426899E+03  0.82330787732E+02 0.  0.
         25    2    1    2    0    0  0.21429501668E+03 -0.59693085982E+02  0.44517743971E+03  0.51314772214E+03  0.12510800622E+03 0.  0.
        -24    2    1    2    0    0 -0.48991364207E+02  0.47975569937E+01  0.21298713428E+03  0.23315073977E+03  0.81071436198E+02 0.  0.
        -13    1    3    3    0    0 -0.12369872945E+03  0.68912102930E+02 -0.17432435996E+03  0.22458681189E+03  0.00000000000E+00 0.  1.
         14    1    3    3    0    0 -0.41604923017E+02 -0.14016573941E+02 -0.17433972274E+02  0.47237457103E+02  0.00000000000E+00 0. -1.
         13    1    5    5    0    0 -0.60357876115E+02  0.67941875503E+01  0.21312317997E+03  0.22160939518E+03  0.00000000000E+00 0. -1.
        -14    1    5    5    0    0  0.11366511907E+02 -0.19966305565E+01 -0.13604568682E+00  0.11541344590E+02  0.00000000000E+00 0.  1.
          5    1    4    4  501    0  0.47935326000E+02 -0.29053418324E+02  0.27660611629E+02  0.62645657717E+02  0.41800000000E+01 0.  1.
         -5    1    4    4    0  501  0.16635969068E+03 -0.30639667658E+02  0.41751682808E+03  0.45050206442E+03  0.41800000000E+01 0.  1.
</event>
<event>
11    1  0.7105277E-009  0.1292712E+03  0.7561462E-02  0.1120168E+00
         22   -1    0    0    0    0  0.00000000000E+00  0.00000000000E+00  0.80814194631E+03  0.80814194631E+03  0.00000000000E+00 0.  1.
         22   -1    0    0    0    0 -0.00000000000E+00 -0.00000000000E+00 -0.90239635141E+02  0.90239635141E+02  0.00000000000E+00 0. -1.
         24    2    1    2    0    0 -0.18786907835E+02 -0.27417818823E+02 -0.15402468036E+02  0.89683396768E+02  0.81860802215E+02 0.  0.
         25    2    1    2    0    0  0.76306738680E+01  0.31287807164E+02  0.83868368299E+02  0.15400903397E+03  0.12509086811E+03 0.  0.
        -24    2    1    2    0    0  0.11156233967E+02 -0.38699883415E+01  0.64943641091E+03  0.65468915071E+03  0.81919435295E+02 0.  0.
        -13    1    3    3    0    0 -0.15753790045E+02  0.26227624573E+02 -0.18689161056E+02  0.35851846989E+02  0.00000000000E+00 0.  1.
         14    1    3    3    0    0 -0.30331177899E+01 -0.53645443396E+02  0.32866930204E+01  0.53831549779E+02  0.00000000000E+00 0. -1.
         13    1    5    5    0    0 -0.21219387685E+02 -0.63377693915E+01  0.53952601949E+02  0.58320776672E+02  0.00000000000E+00 0. -1.
        -14    1    5    5    0    0  0.32375621653E+02  0.24677810501E+01  0.59548380896E+03  0.59636837404E+03  0.00000000000E+00 0.  1.
          5    1    4    4  501    0 -0.13417598490E+02  0.76214107124E+02  0.38004814988E+02  0.86316049702E+02  0.41800000000E+01 0. -1.
         -5    1    4    4    0  501  0.21048272358E+02 -0.44926299960E+02  0.45863553312E+02  0.67692984273E+02  0.41800000000E+01 0. -1.
</event>
<event>
11    1  0.7105277E-009  0.1344999E+03  0.7561462E-02  0.1113860E+00
         22   -1    0    0    0    0  0.00000000000E+00  0.00000000000E+00  0.23914127557E+03  0.23914127557E+03  0.00000000000E+00 0. -1.
         22   -1    0    0    0    0 -0.00000000000E+00 -0.00000000000E+00 -0.82648937842E+03  0.82648937842E+03  0.00000000000E+00 0. -1.
         24    2    1    2    0    0  0.49077613350E+02 -0.13462838899E+02 -0.71544674055E+03  0.72152741538E+03  0.78408624598E+02 0.  0.
         25    2    1    2    0    0 -0.13642732076E+02 -0.27504883899E+02 -0.52235079956E+02  0.13899211324E+03  0.12509061191E+03 0.  0.
        -24    2    1    2    0    0 -0.35434881274E+02  0.40967722798E+02  0.18033371766E+03  0.20511112538E+03  0.81340880918E+02 0.  0.
        -13    1    3    3    0    0 -0.39570393167E+00 -0.26977575002E+02 -0.89376589739E+02  0.93360167780E+02  0.00000000000E+00 0.  1.
         14    1    3    3    0    0  0.49473317282E+02  0.13514736103E+02 -0.62607015081E+03  0.62816724760E+03  0.00000000000E+00 0. -1.
         11    1    5    5    0    0 -0.28200804968E+02  0.41975832645E+02  0.18790518751E+03  0.19459089244E+03  0.00000000000E+00 0. -1.
        -12    1    5    5    0    0 -0.72340763067E+01 -0.10081098476E+01 -0.75714698508E+01  0.10520232943E+02  0.00000000000E+00 0.  1.
          5    1    4    4  501    0  0.47115319160E+02  0.19452651291E+02 -0.28293991628E+02  0.58448963242E+02  0.41800000000E+01 0.  1.
         -5    1    4    4    0  501 -0.60758051237E+02 -0.46957535190E+02 -0.23941088329E+02  0.80543149998E+02  0.41800000000E+01 0.  1.
</event>
<event>
11    1  0.7105277E-009  0.1506183E+03  0.7561462E-02  0.1096249E+00
         22   -1    0    0    0    0  0.00000000000E+00  0.00000000000E+00  0.55347117166E+02  0.55347117166E+02  0.00000000000E+00 0. -1.
         22   -1    0    0    0    0 -0.00000000000E+00 -0.00000000000E+00 -0.15303210334E+04  0.15303210334E+04  0.00000000000E+00 0.  1.
        -24    2    1    2    0    0  0.75520373075E+02 -0.45343021700E+02 -0.10775951645E+04  0.10840608143E+04  0.78849186156E+02 0.  0.
         25    2    1    2    0    0 -0.73843438322E+02  0.34403889667E+01 -0.38390047953E+03  0.41048326085E+03  0.12510891094E+03 0.  0.
         24    2    1    2    0    0 -0.16769347533E+01  0.41902632733E+02 -0.13478272193E+02  0.91124075415E+02  0.79770236046E+02 0.  0.
        -11    1    5    5    0    0 -0.12491776969E+01 -0.23349966471E+02 -0.10952312195E+02  0.25821202945E+02  0.00000000000E+00 0.  1.
         12    1    5    5    0    0 -0.42775705631E+00  0.65252599204E+02 -0.25259599984E+01  0.65302872470E+02  0.00000000000E+00 0. -1.
         13    1    3    3    0    0 -0.10796653325E+02 -0.27539997907E+02 -0.22949487186E+03  0.23139342129E+03  0.00000000000E+00 0. -1.
        -14    1    3    3    0    0  0.86317026400E+02 -0.17803023793E+02 -0.84810029266E+03  0.85266739302E+03  0.00000000000E+00 0.  1.
          5    1    4    4  501    0 -0.31481491362E+02  0.62671288305E+02 -0.15355301949E+03  0.16886318981E+03  0.41800000000E+01 0. -1.
         -5    1    4    4    0  501 -0.42361946959E+02 -0.59230899338E+02 -0.23034746003E+03  0.24162007104E+03  0.41800000000E+01 0. -1.
</event>
<event>
11    1  0.7105277E-009  0.4171128E+03  0.7561462E-02  0.9600573E-01
         22   -1    0    0    0    0  0.00000000000E+00  0.00000000000E+00  0.25691086658E+04  0.25691086658E+04  0.00000000000E+00 0.  1.
         22   -1    0    0    0    0 -0.00000000000E+00 -0.00000000000E+00 -0.30136894663E+03  0.30136894663E+03  0.00000000000E+00 0. -1.
         24    2    1    2    0    0 -0.18977028745E+02 -0.40654383435E+02 -0.10193683091E+03  0.13227426321E+03  0.71361451081E+02 0.  0.
         25    2    1    2    0    0 -0.20414563290E+03 -0.29403271296E+03  0.49899201718E+02  0.38245065434E+03  0.12509155427E+03 0.  0.
        -24    2    1    2    0    0  0.22312266165E+03  0.33468709640E+03  0.23197773484E+04  0.23557526949E+04  0.80028987172E+02 0.  0.
        -13    1    3    3    0    0  0.16956417387E+02 -0.44997418134E+02 -0.57047595440E+02  0.74610427387E+02  0.00000000000E+00 0.  1.
         14    1    3    3    0    0 -0.35933446132E+02  0.43430346986E+01 -0.44889235466E+02  0.57663835825E+02  0.00000000000E+00 0. -1.
         13    1    5    5    0    0  0.94071837804E+02  0.85957257952E+02  0.61032519627E+03  0.62348617151E+03  0.00000000000E+00 0. -1.
        -14    1    5    5    0    0  0.12905082384E+03  0.24872983845E+03  0.17094521521E+04  0.17322665234E+04  0.00000000000E+00 0.  1.
          5    1    4    4  501    0 -0.80900825441E+02 -0.45093410220E+02  0.48512225790E+02  0.10463874834E+03  0.41800000000E+01 0. -1.
         -5    1    4    4    0  501 -0.12324480746E+03 -0.24893930274E+03  0.13869759280E+01  0.27781190601E+03  0.41800000000E+01 0. -1.
</event>
<event>
11    1  0.7105277E-009  0.1495303E+03  0.7561462E-02  0.1097360E+00
         22   -1    0    0    0    0  0.00000000000E+00  0.00000000000E+00  0.11949234125E+04  0.11949234125E+04  0.00000000000E+00 0.  1.
         22   -1    0    0    0    0 -0.00000000000E+00 -0.00000000000E+00 -0.16590910639E+03  0.16590910639E+03  0.00000000000E+00 0. -1.
         24    2    1    2    0    0  0.52469803527E+01 -0.67218988356E+02 -0.68303053389E+02  0.12419742226E+03  0.78827465997E+02 0.  0.
         25    2    1    2    0    0 -0.73950316324E+02  0.10857775739E+03  0.56821013524E+02  0.19008857864E+03  0.12508901416E+03 0.  0.
        -24    2    1    2    0    0  0.68703335971E+02 -0.41358769039E+02  0.10404963460E+04  0.10465465180E+04  0.78716403541E+02 0.  0.
        -11    1    3    3    0    0  0.28581820229E+02 -0.31060522820E+02  0.14529781808E+01  0.42234910572E+02  0.00000000000E+00 0.  1.
         12    1    3    3    0    0 -0.23334839876E+02 -0.36158465536E+02 -0.69756031570E+02  0.81962511689E+02  0.00000000000E+00 0. -1.
         11    1    5    5    0    0 -0.72584553120E+01  0.32879861451E+01  0.12784606264E+02  0.15064600351E+02  0.00000000000E+00 0. -1.
        -12    1    5    5    0    0  0.75961791283E+02 -0.44646755184E+02  0.10277117397E+04  0.10314819176E+04  0.00000000000E+00 0.  1.
          5    1    4    4  501    0  0.30854033039E+02  0.20772017190E+01  0.16346814537E+02  0.35227501575E+02  0.41800000000E+01 0. -1.
         -5    1    4    4    0  501 -0.10480434936E+03  0.10650055568E+03  0.40474198987E+02  0.15486107706E+03  0.41800000000E+01 0. -1.
</event>
<event>
11    1  0.7105277E-009  0.1840990E+03  0.7561462E-02  0.1066375E+00
         22   -1    0    0    0    0  0.00000000000E+00  0.00000000000E+00  0.81461699600E+03  0.81461699600E+03  0.00000000000E+00 0.  1.
         22   -1    0    0    0    0 -0.00000000000E+00 -0.00000000000E+00 -0.57395804889E+03  0.57395804889E+03  0.00000000000E+00 0. -1.
        -24    2    1    2    0    0  0.11922270728E+03  0.61780323991E+02 -0.51979317924E+03  0.54276687768E+03  0.79875352613E+02 0.  0.
         25    2    1    2    0    0 -0.10141698385E+03 -0.14708252791E+03  0.30466007929E+03  0.37467852650E+03  0.12509020616E+03 0.  0.
         24    2    1    2    0    0 -0.17805723430E+02  0.85302203921E+02  0.45579204706E+03  0.47112964072E+03  0.81383280917E+02 0.  0.
        -13    1    5    5    0    0 -0.14912612360E+02  0.95028357411E+02  0.44833243515E+03  0.45853543716E+03  0.00000000000E+00 0.  1.
         14    1    5    5    0    0 -0.28931110699E+01 -0.97261534897E+01  0.74596119109E+01  0.12594203557E+02  0.00000000000E+00 0. -1.
         13    1    3    3    0    0  0.59918096023E+02  0.74440508976E+02 -0.31199134074E+03  0.32629766212E+03  0.00000000000E+00 0. -1.
        -14    1    3    3    0    0  0.59304611260E+02 -0.12660184985E+02 -0.20780183849E+03  0.21646921555E+03  0.00000000000E+00 0.  1.
          5    1    4    4  501    0 -0.10775606389E+02 -0.84163466267E+02  0.21909188659E+03  0.23498580790E+03  0.41800000000E+01 0. -1.
         -5    1    4    4    0  501 -0.90641377464E+02 -0.62919061645E+02  0.85568192704E+02  0.13969271860E+03  0.41800000000E+01 0. -1.
</event>
<event>
11    1  0.7105277E-009  0.2509751E+03  0.7561462E-02  0.1023381E+00
         22   -1    0    0    0    0  0.00000000000E+00  0.00000000000E+00  0.18932084775E+04  0.18932084775E+04  0.00000000000E+00 0.  1.
         22   -1    0    0    0    0 -0.00000000000E+00 -0.00000000000E+00 -0.26220483828E+03  0.26220483828E+03  0.00000000000E+00 0.  1.
         24    2    1    2    0    0  0.23950786975E+02 -0.29029882026E+01 -0.19787123574E+03  0.22832321757E+03  0.11133911359E+03 0.  0.
         25    2    1    2    0    0  0.18937976354E+03 -0.58529816603E+02  0.30339110244E+03  0.38338395852E+03  0.12508662733E+03 0.  0.
        -24    2    1    2    0    0 -0.21333055052E+03  0.61432804806E+02  0.15254837725E+04  0.15437061396E+04  0.81510687831E+02 0.  0.
        -11    1    3    3    0    0 -0.61216878368E+01 -0.47520283510E+02 -0.14570572021E+03  0.15338125475E+03  0.00000000000E+00 0.  1.
         12    1    3    3    0    0  0.30072474812E+02  0.44617295308E+02 -0.52165515527E+02  0.74941962825E+02  0.00000000000E+00 0. -1.
         11    1    5    5    0    0 -0.40338942234E+02 -0.52263999011E+01  0.13732567744E+03  0.14322320762E+03  0.00000000000E+00 0. -1.
        -12    1    5    5    0    0 -0.17299160829E+03  0.66659204707E+02  0.13881580950E+04  0.14004829320E+04  0.00000000000E+00 0.  1.
          5    1    4    4  501    0  0.17176237073E+03 -0.91607196743E+02  0.23404446546E+03  0.30444781935E+03  0.41800000000E+01 0.  1.
         -5    1    4    4    0  501  0.17617392815E+02  0.33077380139E+02  0.69346636988E+02  0.78936139176E+02  0.41800000000E+01 0.  1.
</event>
<event>
11    1  0.7105277E-009  0.1662244E+03  0.7561462E-02  0.1081365E+00
         22   -1    0    0    0    0  0.00000000000E+00  0.00000000000E+00  0.69137704796E+03  0.69137704796E+03  0.00000000000E+00 0.  1.
         22   -1    0    0    0    0 -0.00000000000E+00 -0.00000000000E+00 -0.59163933035E+03  0.59163933035E+03  0.00000000000E+00 0.  1.
         24    2    1    2    0    0 -0.51299854438E+02  0.51875696579E+02 -0.55128148607E+03  0.56178590244E+03  0.79808272390E+02 0.  0.
         25    2    1    2    0    0 -0.50574754527E+02  0.48924346165E+02  0.25483956412E+03  0.29247551988E+03  0.12508928348E+03 0.  0.
        -24    2    1    2    0    0  0.10187460896E+03 -0.10080004274E+03  0.39617963956E+03  0.42875495599E+03  0.79582792860E+02 0.  0.
        -11    1    3    3    0    0 -0.47485444407E+02  0.70429963550E+02 -0.49901295265E+03  0.50619084752E+03  0.00000000000E+00 0.  1.
         12    1    3    3    0    0 -0.38144100314E+01 -0.18554266971E+02 -0.52268533416E+02  0.55595054925E+02  0.00000000000E+00 0. -1.
         11    1    5    5    0    0  0.46984998054E+02 -0.15956204458E+02  0.60777002625E+02  0.78460401165E+02  0.00000000000E+00 0. -1.
        -12    1    5    5    0    0  0.54889610911E+02 -0.84843838285E+02  0.33540263693E+03  0.35029455483E+03  0.00000000000E+00 0.  1.
          5    1    4    4  501    0 -0.41029367656E+02 -0.36036923512E+02  0.13044040978E+03  0.14147169953E+03  0.41800000000E+01 0.  1.
         -5    1    4    4    0  501 -0.95453868711E+01  0.84961269676E+02  0.12439915435E+03  0.15100382034E+03  0.41800000000E+01 0.  1.
</event>
<event>
11    1  0.7105277E-009  0.1731716E+03  0.7561462E-02  0.1075304E+00
         22   -1    0    0    0    0  0.00000000000E+00  0.00000000000E+00  0.43734009999E+03  0.43734009999E+03  0.00000000000E+00 0. -1.
         22   -1    0    0    0    0 -0.00000000000E+00 -0.00000000000E+00 -0.12651223364E+04  0.12651223364E+04  0.00000000000E+00 0. -1.
         24    2    1    2    0    0  0.10740667243E+03 -0.53914079663E+02 -0.11615064269E+04  0.11704745795E+04  0.80440289073E+02 0.  0.
         25    2    1    2    0    0 -0.94536077619E+02  0.64718889048E+02 -0.18646956408E+02  0.17060793269E+03  0.12503500766E+03 0.  0.
        -24    2    1    2    0    0 -0.12870594810E+02 -0.10804809385E+02  0.35237114692E+03  0.36137992425E+03  0.78406813147E+02 0.  0.
        -11    1    3    3    0    0  0.97829911176E+02 -0.29573340575E+02 -0.62251149467E+03  0.63084533366E+03  0.00000000000E+00 0.  1.
         12    1    3    3    0    0  0.95767612526E+01 -0.24340739088E+02 -0.53899493227E+03  0.53962924582E+03  0.00000000000E+00 0. -1.
         13    1    5    5    0    0 -0.33672932715E+02  0.20785158216E+02  0.22714467383E+03  0.23056580850E+03  0.00000000000E+00 0. -1.
        -14    1    5    5    0    0  0.20802337905E+02 -0.31589967601E+02  0.12522647309E+03  0.13081411575E+03  0.00000000000E+00 0.  1.
          5    1    4    4  501    0 -0.12209017575E+03  0.34157863594E+02 -0.46117807930E+01  0.12693112929E+03  0.41800000000E+01 0.  1.
         -5    1    4    4    0  501  0.27554098131E+02  0.30561025454E+02 -0.14035175615E+02  0.43676803400E+02  0.41800000000E+01 0.  1.
</event>
<event>
11    1  0.7105277E-009  0.1272588E+03  0.7561462E-02  0.1122684E+00
         22   -1    0    0    0    0  0.00000000000E+00  0.00000000000E+00  0.59773879961E+03  0.59773879961E+03  0.00000000000E+00 0.  1.
         22   -1    0    0    0    0 -0.00000000000E+00 -0.00000000000E+00 -0.15160101269E+03  0.15160101269E+03  0.00000000000E+00 0.  1.
        -24    2    1    2    0    0  0.23226578428E+02 -0.27675212500E+01 -0.11774782754E+03  0.14351938312E+03  0.78651950535E+02 0.  0.
         25    2    1    2    0    0 -0.23196439959E+02  0.34356260689E+01  0.23379611337E+03  0.26619174811E+03  0.12509015061E+03 0.  0.
         24    2    1    2    0    0 -0.30138468959E-01 -0.66810481896E+00  0.33008950109E+03  0.33962868107E+03  0.79925684262E+02 0.  0.
        -11    1    5    5    0    0  0.11445600478E+02 -0.25705132117E+02  0.28773082388E+03  0.28910341160E+03  0.00000000000E+00 0.  1.
         12    1    5    5    0    0 -0.11475738947E+02  0.25037027298E+02  0.42358677205E+02  0.50525269468E+02  0.00000000000E+00 0. -1.
         13    1    3    3    0    0  0.30329051989E+02  0.14309743935E+02 -0.11167110828E+02  0.35345785184E+02  0.00000000000E+00 0. -1.
        -14    1    3    3    0    0 -0.71024735615E+01 -0.17077265185E+02 -0.10658071671E+03  0.10817359794E+03  0.00000000000E+00 0.  1.
          5    1    4    4  501    0 -0.12350284127E+02  0.46744762026E+02  0.20978711262E+03  0.21532697768E+03  0.41800000000E+01 0. -1.
         -5    1    4    4    0  501 -0.10846155832E+02 -0.43309135957E+02  0.24009000752E+02  0.50864770429E+02  0.41800000000E+01 0. -1.
</event>
<event>
11    1  0.7105277E-009  0.1565124E+03  0.7561462E-02  0.1090404E+00
         22   -1    0    0    0    0  0.00000000000E+00  0.00000000000E+00  0.71146715036E+03  0.71146715036E+03  0.00000000000E+00 0. -1.
         22   -1    0    0    0    0 -0.00000000000E+00 -0.00000000000E+00 -0.87871565209E+02  0.87871565209E+02  0.00000000000E+00 0.  1.
         24    2    1    2    0    0  0.69583003461E+02 -0.33376383042E+02  0.11163477312E+02  0.11166997101E+03  0.79936111259E+02 0.  0.
         25    2    1    2    0    0 -0.72483082685E+02  0.11642483610E+03  0.28128773910E+03  0.33701547915E+03  0.12509237101E+03 0.  0.
        -24    2    1    2    0    0  0.29000792240E+01 -0.83048453059E+02  0.33114436874E+03  0.35065326541E+03  0.79972892779E+02 0.  0.
        -13    1    3    3    0    0  0.77443187161E+02 -0.28545924358E+01 -0.19812212721E+01  0.77521101472E+02  0.00000000000E+00 0.  1.
         14    1    3    3    0    0 -0.78601837002E+01 -0.30521790606E+02  0.13144698584E+02  0.34148869534E+02  0.00000000000E+00 0. -1.
         13    1    5    5    0    0  0.21719385156E+02 -0.36546638593E+02  0.26086452100E+03  0.26430604760E+03  0.00000000000E+00 0. -1.
        -14    1    5    5    0    0 -0.18819305932E+02 -0.46501814467E+02  0.70279847743E+02  0.86347217808E+02  0.00000000000E+00 0.  1.
          5    1    4    4  501    0 -0.10629996544E+03  0.98704355376E+02  0.24125861756E+03  0.28154116106E+03  0.41800000000E+01 0.  1.
         -5    1    4    4    0  501  0.33816882759E+02  0.17720480726E+02  0.40029121539E+02  0.55474318093E+02  0.41800000000E+01 0.  1.
</event>
<event>
11    1  0.7105277E-009  0.1285492E+03  0.7561462E-02  0.1121065E+00
         22   -1    0    0    0    0  0.00000000000E+00  0.00000000000E+00  0.30402952227E+04  0.30402952227E+04  0.00000000000E+00 0. -1.
         22   -1    0    0    0    0 -0.00000000000E+00 -0.00000000000E+00 -0.12160072940E+03  0.12160072940E+03  0.00000000000E+00 0.  1.
        -24    2    1    2    0    0  0.13993812895E+02 -0.26146960160E+02 -0.10203547983E+03  0.13190329302E+03  0.78152090434E+02 0.  0.
         25    2    1    2    0    0 -0.11156419583E+01  0.29314304164E+02  0.10883206796E+04  0.10958788576E+04  0.12509194950E+03 0.  0.
         24    2    1    2    0    0 -0.12878170937E+02 -0.31673440041E+01  0.19324092936E+04  0.19341138015E+04  0.80091447469E+02 0.  0.
        -13    1    5    5    0    0 -0.38894604992E+02 -0.14833297095E+02  0.62051464457E+03  0.62190935121E+03  0.00000000000E+00 0.  1.
         14    1    5    5    0    0  0.26016434055E+02  0.11665953091E+02  0.13118946490E+04  0.13122044503E+04  0.00000000000E+00 0. -1.
         13    1    3    3    0    0 -0.44328527803E+01  0.13362231949E+02  0.60756722384E+01  0.15333402088E+02  0.00000000000E+00 0. -1.
        -14    1    3    3    0    0  0.18426665676E+02 -0.39509192109E+02 -0.10811115207E+03  0.11656989093E+03  0.00000000000E+00 0.  1.
          5    1    4    4  501    0 -0.48277668193E+02 -0.22014805165E+02  0.32051541374E+03  0.32490458251E+03  0.41800000000E+01 0. -1.
         -5    1    4    4    0  501  0.47162026235E+02  0.51329109329E+02  0.76780526584E+03  0.77097427508E+03  0.41800000000E+01 0. -1.
</event>
<event>
11    1  0.7105277E-009  0.2012155E+03  0.7561462E-02  0.1053667E+00
         22   -1    0    0    0    0  0.00000000000E+00  0.00000000000E+00  0.10764267734E+04  0.10764267734E+04  0.00000000000E+00 0. -1.
         22   -1    0    0    0    0 -0.00000000000E+00 -0.00000000000E+00 -0.21390918252E+04  0.21390918252E+04  0.00000000000E+00 0. -1.
         24    2    1    2    0    0  0.18225646348E+02  0.15662745070E+03 -0.21148428219E+04  0.21222291006E+04  0.80198887367E+02 0.  0.
         25    2    1    2    0    0 -0.35675652906E+01 -0.14722003060E+03  0.51637219981E+03  0.55133835108E+03  0.12508902311E+03 0.  0.
        -24    2    1    2    0    0 -0.14658081058E+02 -0.94074200968E+01  0.53580557023E+03  0.54195114690E+03  0.79498916045E+02 0.  0.
        -11    1    3    3    0    0 -0.10638202510E+02  0.18621276179E+02 -0.91491137257E+02  0.93971014019E+02  0.00000000000E+00 0.  1.
         12    1    3    3    0    0  0.28863848858E+02  0.13800617452E+03 -0.20233516847E+04  0.20282580866E+04  0.00000000000E+00 0. -1.
         13    1    5    5    0    0 -0.34556776261E+02  0.10954808760E+01  0.48680843240E+03  0.48803465115E+03  0.00000000000E+00 0. -1.
        -14    1    5    5    0    0  0.19898695203E+02 -0.10502900973E+02  0.48997137826E+02  0.53916495758E+02  0.00000000000E+00 0.  1.
          5    1    4    4  501    0 -0.10144983827E+02 -0.11191444444E+03  0.49846405128E+03  0.51099084766E+03  0.41800000000E+01 0.  1.
         -5    1    4    4    0  501  0.65774185360E+01 -0.35305586160E+02  0.17908148530E+02  0.40347503423E+02  0.41800000000E+01 0.  1.
</event>
<event>
11    1  0.7105277E-009  0.3095956E+03  0.7561462E-02  0.9962100E-01
         22   -1    0    0    0    0  0.00000000000E+00  0.00000000000E+00  0.17413584318E+04  0.17413584318E+04  0.00000000000E+00 0. -1.
         22   -1    0    0    0    0 -0.00000000000E+00 -0.00000000000E+00 -0.45300795838E+03  0.45300795838E+03  0.00000000000E+00 0.  1.
         24    2    1    2    0    0  0.39496029528E+02  0.77119377785E+02 -0.24893406582E+03  0.27593988731E+03  0.81653643573E+02 0.  0.
         25    2    1    2    0    0  0.23355004797E+03  0.13152323174E+02 -0.77509769469E+02  0.27635838074E+03  0.12509029430E+03 0.  0.
        -24    2    1    2    0    0 -0.27304607750E+03 -0.90271700959E+02  0.16147943087E+04  0.16420681222E+04  0.78255465427E+02 0.  0.
        -11    1    3    3    0    0  0.32337237633E+02  0.55814510166E+02 -0.24471243404E+03  0.25307139675E+03  0.00000000000E+00 0.  1.
         12    1    3    3    0    0  0.71587918941E+01  0.21304867619E+02 -0.42216317800E+01  0.22868490560E+02  0.00000000000E+00 0. -1.
         13    1    5    5    0    0 -0.25893487848E+03 -0.98895079137E+02  0.15708165923E+04  0.15950837829E+04  0.00000000000E+00 0. -1.
        -14    1    5    5    0    0 -0.14111199019E+02  0.86233781778E+01  0.43977716456E+02  0.46984339238E+02  0.00000000000E+00 0.  1.
          5    1    4    4  501    0  0.22727575411E+03  0.45327401261E+02 -0.72954604158E+02  0.24299935880E+03  0.41800000000E+01 0.  1.
         -5    1    4    4    0  501  0.62742938661E+01 -0.32175078087E+02 -0.45551653107E+01  0.33359021935E+02  0.41800000000E+01 0.  1.
</event>
<event>
11    1  0.7105277E-009  0.1461594E+03  0.7561462E-02  0.1100869E+00
         22   -1    0    0    0    0  0.00000000000E+00  0.00000000000E+00  0.18416240460E+03  0.18416240460E+03  0.00000000000E+00 0.  1.
         22   -1    0    0    0    0 -0.00000000000E+00 -0.00000000000E+00 -0.10927383760E+04  0.10927383760E+04  0.00000000000E+00 0.  1.
        -24    2    1    2    0    0  0.72907533204E+02 -0.23942160636E+02 -0.97338620194E+03  0.97960878819E+03  0.79145083996E+02 0.  0.
         25    2    1    2    0    0 -0.57899006981E+02  0.13391690733E+02 -0.57406644753E+02  0.14989814275E+03  0.12506917265E+03 0.  0.
         24    2    1    2    0    0 -0.15008526223E+02  0.10550469902E+02  0.12221687529E+03  0.14739384966E+03  0.80320694941E+02 0.  0.
        -11    1    5    5    0    0  0.95679630420E+01  0.21707366905E+01  0.12100255111E+03  0.12139965152E+03  0.00000000000E+00 0.  1.
         12    1    5    5    0    0 -0.24576489265E+02  0.83797332117E+01  0.12143241789E+01  0.25994198131E+02  0.00000000000E+00 0. -1.
         11    1    3    3    0    0  0.70304798991E+02  0.10865508917E+02 -0.51418194982E+03  0.51907986049E+03  0.00000000000E+00 0. -1.
        -12    1    3    3    0    0  0.26027342130E+01 -0.34807669552E+02 -0.45920425212E+03  0.46052892770E+03  0.00000000000E+00 0.  1.
          5    1    4    4  501    0 -0.45963774238E+02  0.47243932773E+02 -0.82664454911E+02  0.10580898937E+03  0.41800000000E+01 0.  1.
         -5    1    4    4    0  501 -0.11935232743E+02 -0.33852242039E+02  0.25257810158E+02  0.44089153379E+02  0.41800000000E+01 0.  1.
</event>
<event>
11    1  0.7105277E-009  0.2083735E+03  0.7561462E-02  0.1048755E+00
         22   -1    0    0    0    0  0.00000000000E+00  0.00000000000E+00  0.12916118473E+03  0.12916118473E+03  0.00000000000E+00 0.  1.
         22   -1    0    0    0    0 -0.00000000000E+00 -0.00000000000E+00 -0.38684940296E+04  0.38684940296E+04  0.00000000000E+00 0.  1.
        -24    2    1    2    0    0  0.43658105701E+02  0.35866353409E+02 -0.30964527157E+04  0.30979932023E+04  0.79687110484E+02 0.  0.
         25    2    1    2    0    0  0.57284984355E+02 -0.16809509501E+03 -0.67792690274E+03  0.71187794537E+03  0.12509113975E+03 0.  0.
         24    2    1    2    0    0 -0.10094309006E+03  0.13222874160E+03  0.35046773545E+02  0.18778406666E+03  0.79753569329E+02 0.  0.
        -11    1    5    5    0    0 -0.46126769603E+02  0.95151136500E+02  0.54289967858E+02  0.11886470570E+03  0.00000000000E+00 0.  1.
         12    1    5    5    0    0 -0.54816320453E+02  0.37077605104E+02 -0.19243194313E+02  0.68919360963E+02  0.00000000000E+00 0. -1.
         13    1    3    3    0    0 -0.41835086289E+01  0.16262978982E+02 -0.12878889203E+03  0.12987903965E+03  0.00000000000E+00 0. -1.
        -14    1    3    3    0    0  0.47841614330E+02  0.19603374427E+02 -0.29676638236E+04  0.29681141626E+04  0.00000000000E+00 0.  1.
          5    1    4    4  501    0 -0.97170674594E+01 -0.18896118359E+02 -0.29071954489E+03  0.29152497469E+03  0.41800000000E+01 0. -1.
         -5    1    4    4    0  501  0.67002051814E+02 -0.14919897665E+03 -0.38720735785E+03  0.42035297067E+03  0.41800000000E+01 0. -1.
</event>
<event>
11    1  0.7105277E-009  0.1471693E+03  0.7561462E-02  0.1099807E+00
         22   -1    0    0    0    0  0.00000000000E+00  0.00000000000E+00  0.70845713313E+03  0.70845713313E+03  0.00000000000E+00 0.  1.
         22   -1    0    0    0    0 -0.00000000000E+00 -0.00000000000E+00 -0.26229395192E+04  0.26229395192E+04  0.00000000000E+00 0. -1.
         24    2    1    2    0    0 -0.25189656461E+02 -0.41800324457E+02 -0.24244440091E+04  0.24263338823E+04  0.82374564718E+02 0.  0.
         25    2    1    2    0    0  0.20817524609E+02 -0.36893502159E+02 -0.16891000777E+03  0.21441230856E+03  0.12509015751E+03 0.  0.
        -24    2    1    2    0    0  0.43721318523E+01  0.78693826616E+02  0.67887163078E+03  0.69065046155E+03  0.99596862804E+02 0.  0.
        -11    1    3    3    0    0 -0.81503890638E+01 -0.39639179516E+01 -0.26061986476E+02  0.27592908990E+02  0.00000000000E+00 0.  1.
         12    1    3    3    0    0 -0.17039267397E+02 -0.37836406505E+02 -0.23983820226E+04  0.23987409733E+04  0.00000000000E+00 0. -1.
         11    1    5    5    0    0 -0.32480255638E+01  0.20423458987E+02  0.18739223957E+02  0.27907451721E+02  0.00000000000E+00 0. -1.
        -12    1    5    5    0    0  0.76201574162E+01  0.58270367629E+02  0.66013240682E+03  0.66274300983E+03  0.00000000000E+00 0.  1.
          5    1    4    4  501    0 -0.64855519739E+01 -0.72913132200E+02 -0.54590346187E+02  0.91410970504E+02  0.41800000000E+01 0. -1.
         -5    1    4    4    0  501  0.27303076582E+02  0.36019630041E+02 -0.11431966158E+03  0.12300133806E+03  0.41800000000E+01 0. -1.
</event>
<event>
11    1  0.7105277E-009  0.2542538E+03  0.7561462E-02  0.1021657E+00
         22   -1    0    0    0    0  0.00000000000E+00  0.00000000000E+00  0.84157019168E+03  0.84157019168E+03  0.00000000000E+00 0. -1.
         22   -1    0    0    0    0 -0.00000000000E+00 -0.00000000000E+00 -0.51941203346E+03  0.51941203346E+03  0.00000000000E+00 0.  1.
        -24    2    1    2    0    0 -0.49870303342E+02  0.32782243173E+02 -0.17789815002E+03  0.20300837183E+03  0.77478543040E+02 0.  0.
         25    2    1    2    0    0  0.26594770308E+03  0.25868325650E+01 -0.24161737973E+03  0.38047415265E+03  0.12508697041E+03 0.  0.
         24    2    1    2    0    0 -0.21607739974E+03 -0.35369075738E+02  0.74167368797E+03  0.77749970065E+03  0.80532669706E+02 0.  0.
        -11    1    5    5    0    0 -0.23039983204E+02 -0.27558479181E+01  0.23129377497E+02  0.32762839120E+02  0.00000000000E+00 0.  1.
         12    1    5    5    0    0 -0.19303741654E+03 -0.32613227820E+02  0.71854431047E+03  0.74473686153E+03  0.00000000000E+00 0. -1.
         11    1    3    3    0    0 -0.21548296364E+02  0.74304182338E+01 -0.18109789016E+01  0.22865253900E+02  0.00000000000E+00 0. -1.
        -12    1    3    3    0    0 -0.28322006978E+02  0.25351824940E+02 -0.17608717112E+03  0.18014311794E+03  0.00000000000E+00 0.  1.
          5    1    4    4  501    0  0.20827681003E+03 -0.30430219479E+02 -0.23185695841E+03  0.31317782396E+03  0.41800000000E+01 0. -1.
         -5    1    4    4    0  501  0.57670893053E+02  0.33017052044E+02 -0.97604213206E+01  0.67296328693E+02  0.41800000000E+01 0. -1.
</event>
<event>
11    1  0.7105277E-009  0.1510129E+03  0.7561462E-02  0.1095848E+00
         22   -1    0    0    0    0  0.00000000000E+00  0.00000000000E+00  0.11740322311E+04  0.11740322311E+04  0.00000000000E+00 0.  1.
         22   -1    0    0    0    0 -0.00000000000E+00 -0.00000000000E+00 -0.65728225461E+03  0.65728225461E+03  0.00000000000E+00 0. -1.
         24    2    1    2    0    0 -0.69282888718E+02 -0.13850287586E+02 -0.16805393966E+03  0.19906938005E+03  0.79965882131E+02 0.  0.
         25    2    1    2    0    0  0.13702583889E+03  0.63852638264E+02 -0.45030810136E+03  0.49120111449E+03  0.12509160162E+03 0.  0.
        -24    2    1    2    0    0 -0.67742950169E+02 -0.50002350677E+02  0.11351120175E+04  0.11410439912E+04  0.80079679913E+02 0.  0.
        -11    1    3    3    0    0 -0.25992381579E+02  0.25916836453E+02 -0.25004742832E+02  0.44413100274E+02  0.00000000000E+00 0.  1.
         12    1    3    3    0    0 -0.43290507139E+02 -0.39767124039E+02 -0.14304919682E+03  0.15465627978E+03  0.00000000000E+00 0. -1.
         13    1    5    5    0    0 -0.65408164524E+02  0.72400004111E+00  0.63312669971E+03  0.63649679500E+03  0.00000000000E+00 0. -1.
        -14    1    5    5    0    0 -0.23347856452E+01 -0.50726350719E+02  0.50198531778E+03  0.50454719616E+03  0.00000000000E+00 0.  1.
          5    1    4    4  501    0  0.99435277392E+02 -0.22418845020E+02 -0.23524160804E+03  0.25640995604E+03  0.41800000000E+01 0. -1.
         -5    1    4    4    0  501  0.37590561495E+02  0.86271483283E+02 -0.21506649332E+03  0.23479115846E+03  0.41800000000E+01 0. -1.
</event>
<event>
11    1  0.7105277E-009  0.1545148E+03  0.7561462E-02  0.1092353E+00
         22   -1    0    0    0    0  0.00000000000E+00  0.00000000000E+00  0.10195715735E+04  0.10195715735E+04  0.00000000000E+00 0. -1.
         22   -1    0    0    0    0 -0.00000000000E+00 -0.00000000000E+00 -0.22656521308E+04  0.22656521308E+04  0.00000000000E+00 0. -1.
         24    2    1    2    0    0 -0.77078974127E+02  0.47903630783E+02 -0.22460617429E+04  0.22493312425E+04  0.80385071472E+02 0.  0.
         25    2    1    2    0    0  0.84274358883E+02 -0.15595087466E+02  0.37170335441E+03  0.40144240254E+03  0.12508894659E+03 0.  0.
        -24    2    1    2    0    0 -0.71953847562E+01 -0.32308543317E+02  0.62827783114E+03  0.63445005920E+03  0.81842708792E+02 0.  0.
        -13    1    3    3    0    0  0.16458283155E+02  0.12036016281E+02 -0.29935251548E+03  0.30004611195E+03  0.00000000000E+00 0.  1.
         14    1    3    3    0    0 -0.93537257283E+02  0.35867614502E+02 -0.19467092274E+04  0.19492851306E+04  0.00000000000E+00 0. -1.
         13    1    5    5    0    0 -0.35218246525E+02  0.10776909671E+02  0.25123097143E+03  0.25391626115E+03  0.00000000000E+00 0. -1.
        -14    1    5    5    0    0  0.28022861769E+02 -0.43085452988E+02  0.37704685970E+03  0.38053379804E+03  0.00000000000E+00 0.  1.
          5    1    4    4  501    0  0.20312542508E+02 -0.46862461519E+02  0.28310759234E+03  0.28770830875E+03  0.41800000000E+01 0.  1.
         -5    1    4    4    0  501  0.63961816375E+02  0.31267374053E+02  0.88595762075E+02  0.11373409380E+03  0.41800000000E+01 0.  1.
</event>
<event>
11    1  0.7105277E-009  0.2163795E+03  0.7561462E-02  0.1043509E+00
         22   -1    0    0    0    0  0.00000000000E+00  0.00000000000E+00  0.97880932661E+02  0.97880932661E+02  0.00000000000E+00 0. -1.
         22   -1    0    0    0    0 -0.00000000000E+00 -0.00000000000E+00 -0.15501967733E+04  0.15501967733E+04  0.00000000000E+00 0. -1.
        -24    2    1    2    0    0 -0.34247425096E+02 -0.17912485067E+03 -0.12513199227E+04  0.12671826042E+04  0.81802232060E+02 0.  0.
         25    2    1    2    0    0 -0.35229737369E+02  0.15135186143E+03 -0.17808262457E+03  0.26742093608E+03  0.12510801545E+03 0.  0.
         24    2    1    2    0    0  0.69477162465E+02  0.27772989239E+02 -0.22913293392E+02  0.11347416571E+03  0.82176348379E+02 0.  0.
        -13    1    5    5    0    0  0.36548367217E+02  0.51740503571E+02 -0.33125844728E+02  0.71485554100E+02  0.00000000000E+00 0.  1.
         14    1    5    5    0    0  0.32928795247E+02 -0.23967514332E+02  0.10212551337E+02  0.41988611605E+02  0.00000000000E+00 0. -1.
         13    1    3    3    0    0  0.22380210482E+02 -0.71318961479E+02 -0.59326555603E+03  0.59795592485E+03  0.00000000000E+00 0. -1.
        -14    1    3    3    0    0 -0.56627635578E+02 -0.10780588919E+03 -0.65805436666E+03  0.66922667934E+03  0.00000000000E+00 0.  1.
          5    1    4    4  501    0  0.40599666088E+02  0.15179627742E+02 -0.41022847996E+02  0.59825583512E+02  0.41800000000E+01 0.  1.
         -5    1    4    4    0  501 -0.75829403457E+02  0.13617223369E+03 -0.13705977657E+03  0.20759535257E+03  0.41800000000E+01 0.  1.
</event>
<event>
11    1  0.7105277E-009  0.1679911E+03  0.7561462E-02  0.1079793E+00
         22   -1    0    0    0    0  0.00000000000E+00  0.00000000000E+00  0.11898496188E+04  0.11898496188E+04  0.00000000000E+00 0. -1.
         22   -1    0    0    0    0 -0.00000000000E+00 -0.00000000000E+00 -0.54353305408E+03  0.54353305408E+03  0.00000000000E+00 0. -1.
        -24    2    1    2    0    0 -0.27774194604E+02 -0.10681023601E+03 -0.48284542278E+03  0.50131198907E+03  0.77422061989E+02 0.  0.
         25    2    1    2    0    0  0.79197188429E+01  0.15284002932E+03  0.14922749358E+03  0.24766855459E+03  0.12509225229E+03 0.  0.
         24    2    1    2    0    0  0.19854475762E+02 -0.46029793312E+02  0.97993449388E+03  0.98440212920E+03  0.79139102774E+02 0.  0.
        -11    1    5    5    0    0  0.23989091174E+02  0.13230256479E+02  0.16084766203E+03  0.16316398672E+03  0.00000000000E+00 0.  1.
         12    1    5    5    0    0 -0.41346154127E+01 -0.59260049791E+02  0.81908683185E+03  0.82123814248E+03  0.00000000000E+00 0. -1.
         13    1    3    3    0    0  0.16363402041E+02 -0.82384584181E+02 -0.28332203692E+03  0.29551033357E+03  0.00000000000E+00 0. -1.
        -14    1    3    3    0    0 -0.44137596645E+02 -0.24425651830E+02 -0.19952338585E+03  0.20580165550E+03  0.00000000000E+00 0.  1.
          5    1    4    4  501    0 -0.68726360393E+00  0.16421095111E+03  0.16000277341E+03  0.22931216430E+03  0.41800000000E+01 0. -1.
         -5    1    4    4    0  501  0.86069824469E+01 -0.11370921790E+02 -0.10775279827E+02  0.18356390292E+02  0.41800000000E+01 0. -1.
</event>
<event>
11    1  0.7105277E-009  0.1331679E+03  0.7561462E-02  0.1115437E+00
         22   -1    0    0    0    0  0.00000000000E+00  0.00000000000E+00  0.15937329732E+04  0.15937329732E+04  0.00000000000E+00 0. -1.
         22   -1    0    0    0    0 -0.00000000000E+00 -0.00000000000E+00 -0.81959984243E+03  0.81959984243E+03  0.00000000000E+00 0. -1.
         24    2    1    2    0    0 -0.18023989938E+01 -0.42395666672E+02 -0.77544960741E+03  0.77995478431E+03  0.72157679767E+02 0.  0.
         25    2    1    2    0    0  0.46739022588E+02  0.33028328941E+02  0.76731269904E+02  0.15751239408E+03  0.12508820793E+03 0.  0.
        -24    2    1    2    0    0 -0.44936623594E+02  0.93673377311E+01  0.14728514683E+04  0.14758656373E+04  0.82346125805E+02 0.  0.
        -13    1    3    3    0    0  0.28119956815E+02 -0.40911397397E+02 -0.35714941192E+03  0.36058310671E+03  0.00000000000E+00 0.  1.
         14    1    3    3    0    0 -0.29922355809E+02 -0.14842692757E+01 -0.41830019548E+03  0.41937167760E+03  0.00000000000E+00 0. -1.
         13    1    5    5    0    0  0.13906887880E+01 -0.20101015518E+02  0.93538512300E+03  0.93560211264E+03  0.00000000000E+00 0. -1.
        -14    1    5    5    0    0 -0.46327312382E+02  0.29468353249E+02  0.53746634530E+03  0.54026352463E+03  0.00000000000E+00 0.  1.
          5    1    4    4  501    0  0.25130806017E+02  0.70638147254E+02  0.71755266786E+01  0.75433850768E+02  0.41800000000E+01 0.  1.
         -5    1    4    4    0  501  0.21608216571E+02 -0.37609818313E+02  0.69555743225E+02  0.82078543314E+02  0.41800000000E+01 0.  1.
</event>
<event>
11    1  0.7105277E-009  0.1518078E+03  0.7561462E-02  0.1095046E+00
         22   -1    0    0    0    0  0.00000000000E+00  0.00000000000E+00  0.85801765197E+03  0.85801765197E+03  0.00000000000E+00 0. -1.
         22   -1    0    0    0    0 -0.00000000000E+00 -0.00000000000E+00 -0.38784899911E+03  0.38784899911E+03  0.00000000000E+00 0. -1.
        -24    2    1    2    0    0 -0.83650226666E+02  0.19626297006E+02 -0.33636764154E+03  0.35634796903E+03  0.80362508674E+02 0.  0.
         25    2    1    2    0    0  0.94981867978E+02  0.24533287559E+02  0.12665321924E+03  0.20325223453E+03  0.12508795088E+03 0.  0.
         24    2    1    2    0    0 -0.11331641312E+02 -0.44159584566E+02  0.67988307516E+03  0.68626644752E+03  0.81499485294E+02 0.  0.
        -13    1    5    5    0    0  0.27251264867E+02 -0.40368764868E+02  0.25438068932E+03  0.25900155156E+03  0.00000000000E+00 0.  1.
         14    1    5    5    0    0 -0.38582906179E+02 -0.37908196977E+01  0.42550238584E+03  0.42726489596E+03  0.00000000000E+00 0. -1.
         13    1    3    3    0    0 -0.70340545385E+02 -0.13341030793E+02 -0.14507163987E+03  0.16177625327E+03  0.00000000000E+00 0. -1.
        -14    1    3    3    0    0 -0.13309681280E+02  0.32967327799E+02 -0.19129600167E+03  0.19457171576E+03  0.00000000000E+00 0.  1.
          5    1    4    4  501    0  0.93019901233E+02  0.49112088419E+00  0.21872453525E+02  0.95649463398E+02  0.41800000000E+01 0.  1.
         -5    1    4    4    0  501  0.19619667446E+01  0.24042166675E+02  0.10478076571E+03  0.10760277113E+03  0.41800000000E+01 0.  1.
</event>
<event>
11    1  0.7105277E-009  0.1498833E+03  0.7561462E-02  0.1096998E+00
         22   -1    0    0    0    0  0.00000000000E+00  0.00000000000E+00  0.11295602463E+04  0.11295602463E+04  0.00000000000E+00 0. -1.
         22   -1    0    0    0    0 -0.00000000000E+00 -0.00000000000E+00 -0.30060917493E+03  0.30060917493E+03  0.00000000000E+00 0.  1.
         24    2    1    2    0    0 -0.36717425250E+02 -0.71451367481E+02 -0.25772321205E+03  0.28187126184E+03  0.81096775467E+02 0.  0.
         25    2    1    2    0    0  0.95007097009E+02  0.11975772010E+03  0.33871502078E+03  0.39210214036E+03  0.12509181894E+03 0.  0.
        -24    2    1    2    0    0 -0.58289671759E+02 -0.48306352615E+02  0.74795926268E+03  0.75619601907E+03  0.81597616960E+02 0.  0.
        -11    1    3    3    0    0 -0.24377458807E+02 -0.52295175863E+02 -0.25180187284E+03  0.25832775515E+03  0.00000000000E+00 0.  1.
         12    1    3    3    0    0 -0.12339966443E+02 -0.19156191618E+02 -0.59213392075E+01  0.23543506687E+02  0.00000000000E+00 0. -1.
         11    1    5    5    0    0 -0.68043101917E+02 -0.56828400992E+02  0.49296705439E+03  0.50087508183E+03  0.00000000000E+00 0. -1.
        -12    1    5    5    0    0  0.97534301583E+01  0.85220483767E+01  0.25499220829E+03  0.25532093725E+03  0.00000000000E+00 0.  1.
          5    1    4    4  501    0  0.88359606064E+02  0.12514037272E+02  0.13792383670E+03  0.16433039354E+03  0.41800000000E+01 0. -1.
         -5    1    4    4    0  501  0.66474909446E+01  0.10724368282E+03  0.20079118409E+03  0.22777174682E+03  0.41800000000E+01 0. -1.
</event>
<event>
11    1  0.7105277E-009  0.1365394E+03  0.7561462E-02  0.1111485E+00
         22   -1    0    0    0    0  0.00000000000E+00  0.00000000000E+00  0.34347326178E+03  0.34347326178E+03  0.00000000000E+00 0. -1.
         22   -1    0    0    0    0 -0.00000000000E+00 -0.00000000000E+00 -0.17578217839E+03  0.17578217839E+03  0.00000000000E+00 0.  1.
        -24    2    1    2    0    0  0.77026609118E+01 -0.56265338346E+01 -0.72653500154E+02  0.10857979930E+03  0.80125232380E+02 0.  0.
         25    2    1    2    0    0 -0.11974051903E+02 -0.49475720498E+02 -0.15673635772E+02  0.13596010006E+03  0.12509300984E+03 0.  0.
         24    2    1    2    0    0  0.42713909915E+01  0.55102254332E+02  0.25601821932E+03  0.27471554080E+03  0.82878202941E+02 0.  0.
        -11    1    5    5    0    0  0.29573487874E+02  0.24258685620E+01  0.33962736426E+02  0.45099262620E+02  0.00000000000E+00 0.  1.
         12    1    5    5    0    0 -0.25302096883E+02  0.52676385770E+02  0.22205548289E+03  0.22961627818E+03  0.00000000000E+00 0. -1.
         13    1    3    3    0    0  0.19088087514E+02  0.28820327656E+02 -0.96712043920E+01  0.35895662210E+02  0.00000000000E+00 0. -1.
        -14    1    3    3    0    0 -0.11385426602E+02 -0.34446861490E+02 -0.62982295762E+02  0.72684137092E+02  0.00000000000E+00 0.  1.
          5    1    4    4  501    0 -0.15185149510E+02 -0.48074914615E+02 -0.67218003829E+02  0.84127989514E+02  0.41800000000E+01 0. -1.
         -5    1    4    4    0  501  0.32110976068E+01 -0.14008058826E+01  0.51544368057E+02  0.51832110543E+02  0.41800000000E+01 0. -1.
</event>
<event>
11    1  0.7105277E-009  0.1337356E+03  0.7561462E-02  0.1114762E+00
         22   -1    0    0    0    0  0.00000000000E+00  0.00000000000E+00  0.79078555643E+03  0.79078555643E+03  0.00000000000E+00 0. -1.
         22   -1    0    0    0    0 -0.00000000000E+00 -0.00000000000E+00 -0.32985256242E+03  0.32985256242E+03  0.00000000000E+00 0. -1.
        -24    2    1    2    0    0  0.30580158440E+02  0.38037885023E+02 -0.24960323158E+03  0.26733465799E+03  0.82365158673E+02 0.  0.
         25    2    1    2    0    0 -0.45303039471E+02 -0.86816570633E+01 -0.40103138410E+01  0.13338657928E+03  0.12509260713E+03 0.  0.
         24    2    1    2    0    0  0.14722881031E+02 -0.29356227960E+02  0.71454653943E+03  0.71991688159E+03  0.81394152413E+02 0.  0.
        -11    1    5    5    0    0  0.13094462038E+02 -0.44485004966E+02  0.20650700056E+03  0.21164952606E+03  0.00000000000E+00 0.  1.
         12    1    5    5    0    0  0.16284189935E+01  0.15128777006E+02  0.50803953887E+03  0.50826735553E+03  0.00000000000E+00 0. -1.
         11    1    3    3    0    0  0.46051539872E+02  0.17623779170E+02 -0.22959981811E+03  0.23483487474E+03  0.00000000000E+00 0. -1.
        -12    1    3    3    0    0 -0.15471381432E+02  0.20414105853E+02 -0.20003413462E+02  0.32499783251E+02  0.00000000000E+00 0.  1.
          5    1    4    4  501    0 -0.68846383744E+02 -0.30590514787E+02 -0.39619996085E+02  0.85222183963E+02  0.41800000000E+01 0. -1.
         -5    1    4    4    0  501  0.23543344273E+02  0.21908857723E+02  0.35609682244E+02  0.48164395313E+02  0.41800000000E+01 0. -1.
</event>
<event>
11    1  0.7105277E-009  0.2163830E+03  0.7561462E-02  0.1043507E+00
         22   -1    0    0    0    0  0.00000000000E+00  0.00000000000E+00  0.23680107471E+04  0.23680107471E+04  0.00000000000E+00 0. -1.
         22   -1    0    0    0    0 -0.00000000000E+00 -0.00000000000E+00 -0.16511109318E+03  0.16511109318E+03  0.00000000000E+00 0.  1.
        -24    2    1    2    0    0 -0.77184496519E+02 -0.15661759440E+03 -0.16549433061E+02  0.18603991144E+03  0.62051974480E+02 0.  0.
         25    2    1    2    0    0  0.57220512757E+02  0.17303574158E+03  0.13123864547E+03  0.25707256442E+03  0.12508863406E+03 0.  0.
         24    2    1    2    0    0  0.19963983763E+02 -0.16418147175E+02  0.20882104415E+04  0.20900093644E+04  0.82753725555E+02 0.  0.
        -11    1    5    5    0    0 -0.11821911833E+02 -0.30891064559E+02  0.37856123104E+03  0.38000344882E+03  0.00000000000E+00 0.  1.
         12    1    5    5    0    0  0.31785895596E+02  0.14472917384E+02  0.17096492105E+04  0.17100059156E+04  0.00000000000E+00 0. -1.
         13    1    3    3    0    0 -0.71154059957E+01 -0.18282470256E+02 -0.23749152266E+02  0.30804219751E+02  0.00000000000E+00 0. -1.
        -14    1    3    3    0    0 -0.70069090524E+02 -0.13833512414E+03  0.71997192047E+01  0.15523569169E+03  0.00000000000E+00 0.  1.
          5    1    4    4  501    0  0.41763453576E+02  0.18570205781E+03  0.13846676680E+03  0.23541443931E+03  0.41800000000E+01 0. -1.
         -5    1    4    4    0  501  0.15457059181E+02 -0.12666316232E+02 -0.72281213288E+01  0.21658125112E+02  0.41800000000E+01 0. -1.
</event>
<event>
11    1  0.1221577E-008  0.1611302E+03  0.7561462E-02  0.1086019E+00
         22   -1    0    0    0    0  0.00000000000E+00  0.00000000000E+00  0.46158159991E+03  0.46158159991E+03  0.00000000000E+00 0. -1.
         22   -1    0    0    0    0 -0.00000000000E+00 -0.00000000000E+00 -0.69204077174E+03  0.69204077174E+03  0.00000000000E+00 0. -1.
        -24    2    1    2    0    0 -0.12357817718E+02 -0.10432886310E+03 -0.61089037157E+03  0.62501675243E+03  0.80135306859E+02 0.  0.
         25    2    1    2    0    0 -0.18637971090E+02 -0.12227584922E+02  0.62220775077E+01  0.12721311649E+03  0.12509026724E+03 0.  0.
         24    2    1    2    0    0  0.30995788807E+02  0.11655644802E+03  0.37420912223E+03  0.40139250274E+03  0.80853754391E+02 0.  0.
        -11    1    5    5    0    0  0.17217438283E+02  0.12202622743E+03  0.27857105218E+03  0.30461232981E+03  0.00000000000E+00 0.  1.
         12    1    5    5    0    0  0.13778350524E+02 -0.54697794018E+01  0.95638070048E+02  0.96780172930E+02  0.00000000000E+00 0. -1.
         13    1    3    3    0    0 -0.31421884363E+02 -0.10745138286E+03 -0.49276335474E+03  0.50532055002E+03  0.00000000000E+00 0. -1.
        -14    1    3    3    0    0  0.19064066645E+02  0.31225197565E+01 -0.11812701683E+03  0.11969620241E+03  0.00000000000E+00 0.  1.
          5    1    4    4  501    0  0.19562222590E+01 -0.65364270579E+02 -0.13235007923E+02  0.66850224446E+02  0.41800000000E+01 0.  1.
         -5    1    4    4    0  501 -0.20594193349E+02  0.53136685657E+02  0.19457085430E+02  0.60362892042E+02  0.41800000000E+01 0.  1.
</event>
<event>
11    1  0.7105277E-009  0.2040035E+03  0.7561462E-02  0.1051728E+00
         22   -1    0    0    0    0  0.00000000000E+00  0.00000000000E+00  0.15421212668E+04  0.15421212668E+04  0.00000000000E+00 0. -1.
         22   -1    0    0    0    0 -0.00000000000E+00 -0.00000000000E+00 -0.25632731598E+03  0.25632731598E+03  0.00000000000E+00 0. -1.
        -24    2    1    2    0    0  0.65084735183E+01 -0.41765494193E+02 -0.20930858469E+03  0.22803541451E+03  0.80020934216E+02 0.  0.
         25    2    1    2    0    0 -0.10111138837E+03  0.16370947093E+03  0.39729349720E+03  0.45881791147E+03  0.12508976473E+03 0.  0.
         24    2    1    2    0    0  0.94602914853E+02 -0.12194397674E+03  0.10978090383E+04  0.11115952568E+04  0.81481810263E+02 0.  0.
        -11    1    5    5    0    0 -0.13243869951E+02 -0.34506659051E+01  0.64304572843E+02  0.65744849798E+02  0.00000000000E+00 0.  1.
         12    1    5    5    0    0  0.10784678480E+03 -0.11849331083E+03  0.10335044655E+04  0.10458504070E+04  0.00000000000E+00 0. -1.
         13    1    3    3    0    0  0.28496945087E+02 -0.20218827145E+01 -0.15322754737E+03  0.15586803765E+03  0.00000000000E+00 0. -1.
        -14    1    3    3    0    0 -0.21988471569E+02 -0.39743611479E+02 -0.56081037318E+02  0.72167376854E+02  0.00000000000E+00 0.  1.
          5    1    4    4  501    0 -0.69091466831E+02  0.11724387771E+02  0.86970633227E+02  0.11176965376E+03  0.41800000000E+01 0.  1.
         -5    1    4    4    0  501 -0.32019921540E+02  0.15198508316E+03  0.31032286397E+03  0.34704825771E+03  0.41800000000E+01 0.  1.
</event>
<event>
11    1  0.7105277E-009  0.1589677E+03  0.7561462E-02  0.1088052E+00
         22   -1    0    0    0    0  0.00000000000E+00  0.00000000000E+00  0.14377371221E+03  0.14377371221E+03  0.00000000000E+00 0.  1.
         22   -1    0    0    0    0 -0.00000000000E+00 -0.00000000000E+00 -0.33651151106E+04  0.33651151106E+04  0.00000000000E+00 0. -1.
        -24    2    1    2    0    0 -0.92422154512E+02  0.25662342699E+02 -0.28904700936E+04  0.28933090889E+04  0.84968883319E+02 0.  0.
         25    2    1    2    0    0  0.12143202435E+03 -0.27138069865E+02 -0.43926379411E+03  0.47337340212E+03  0.12508991023E+03 0.  0.
         24    2    1    2    0    0 -0.29009869839E+02  0.14757271657E+01  0.10839248931E+03  0.14220633186E+03  0.87349635158E+02 0.  0.
        -13    1    5    5    0    0 -0.45918197368E+02 -0.15189790113E+02  0.10814124860E+03  0.11846408832E+03  0.00000000000E+00 0.  1.
         14    1    5    5    0    0  0.16908327529E+02  0.16665517278E+02  0.25124070737E+00  0.23742243531E+02  0.00000000000E+00 0. -1.
         13    1    3    3    0    0 -0.92520837873E+02 -0.93559430602E+01 -0.21565127423E+04  0.21585168164E+04  0.00000000000E+00 0. -1.
        -14    1    3    3    0    0  0.98683360716E-01  0.35018285759E+02 -0.73395735132E+03  0.73479227243E+03  0.00000000000E+00 0.  1.
          5    1    4    4  501    0  0.70362877905E+02 -0.77370051628E+02 -0.26383907849E+03  0.28384078498E+03  0.41800000000E+01 0.  1.
         -5    1    4    4    0  501  0.51069146446E+02  0.50231981763E+02 -0.17542471562E+03  0.18953261714E+03  0.41800000000E+01 0.  1.
</event>
<event>
11    1  0.7105277E-009  0.1366519E+03  0.7561462E-02  0.1111356E+00
         22   -1    0    0    0    0  0.00000000000E+00  0.00000000000E+00  0.11053656041E+04  0.11053656041E+04  0.00000000000E+00 0.  1.
         22   -1    0    0    0    0 -0.00000000000E+00 -0.00000000000E+00 -0.11198402664E+04  0.11198402664E+04  0.00000000000E+00 0.  1.
         24    2    1    2    0    0  0.34287343422E+02  0.21629638500E+02 -0.10302973029E+04  0.10343369125E+04  0.81834302210E+02 0.  0.
         25    2    1    2    0    0 -0.10694656715E+02 -0.71097923451E+02 -0.22314674026E+02  0.14599561310E+03  0.12508990354E+03 0.  0.
        -24    2    1    2    0    0 -0.23592686707E+02  0.49468284951E+02  0.10381373146E+04  0.10448733448E+04  0.10501188842E+03 0.  0.
        -13    1    3    3    0    0  0.46382270617E+02  0.15534719721E+02 -0.99946220480E+03  0.10006584539E+04  0.00000000000E+00 0.  1.
         14    1    3    3    0    0 -0.12094927195E+02  0.60949187792E+01 -0.30835098120E+02  0.33678458617E+02  0.00000000000E+00 0. -1.
         13    1    5    5    0    0  0.16441985385E+02 -0.51136987045E+01  0.30977702871E+02  0.35441598060E+02  0.00000000000E+00 0. -1.
        -14    1    5    5    0    0 -0.40034672092E+02  0.54581983656E+02  0.10071596117E+04  0.10094317468E+04  0.00000000000E+00 0.  1.
          5    1    4    4  501    0 -0.76711446297E+01 -0.72506932947E+02 -0.68125791329E+02  0.99873408020E+02  0.41800000000E+01 0. -1.
         -5    1    4    4    0  501 -0.30235120857E+01  0.14090094965E+01  0.45811117302E+02  0.46122205082E+02  0.41800000000E+01 0. -1.
</event>
<event>
11    1  0.7105277E-009  0.1394926E+03  0.7561462E-02  0.1108126E+00
         22   -1    0    0    0    0  0.00000000000E+00  0.00000000000E+00  0.10456900257E+03  0.10456900257E+03  0.00000000000E+00 0.  1.
         22   -1    0    0    0    0 -0.00000000000E+00 -0.00000000000E+00 -0.12183888038E+04  0.12183888038E+04  0.00000000000E+00 0. -1.
        -24    2    1    2    0    0 -0.17227616552E+02  0.58219059086E+02 -0.98715757559E+03  0.99224864127E+03  0.79943964452E+02 0.  0.
         25    2    1    2    0    0  0.31035991943E+02 -0.65721171512E+02 -0.18159365800E+03  0.23217499946E+03  0.12508584480E+03 0.  0.
         24    2    1    2    0    0 -0.13808375392E+02  0.75021124265E+01  0.54931432334E+02  0.98534165657E+02  0.80278058159E+02 0.  0.
        -11    1    5    5    0    0 -0.47557136059E+02  0.32086780853E+01  0.29457946032E+02  0.56033448846E+02  0.00000000000E+00 0.  1.
         12    1    5    5    0    0  0.33748760668E+02  0.42934343412E+01  0.25473486302E+02  0.42500716811E+02  0.00000000000E+00 0. -1.
         11    1    3    3    0    0 -0.47354003581E+02  0.25769184970E+02 -0.64262452015E+03  0.64488194769E+03  0.00000000000E+00 0. -1.
        -12    1    3    3    0    0  0.30126387030E+02  0.32449874115E+02 -0.34453305543E+03  0.34736669358E+03  0.00000000000E+00 0.  1.
          5    1    4    4  501    0  0.45610990073E+02  0.18077307905E+02 -0.11146495179E+03  0.12185671649E+03  0.41800000000E+01 0.  1.
         -5    1    4    4    0  501 -0.14574998130E+02 -0.83798479417E+02 -0.70128706212E+02  0.11031828297E+03  0.41800000000E+01 0.  1.
</event>
<event>
11    1  0.7105277E-009  0.1740790E+03  0.7561462E-02  0.1074536E+00
         22   -1    0    0    0    0  0.00000000000E+00  0.00000000000E+00  0.10117955625E+04  0.10117955625E+04  0.00000000000E+00 0. -1.
         22   -1    0    0    0    0 -0.00000000000E+00 -0.00000000000E+00 -0.29581689221E+03  0.29581689221E+03  0.00000000000E+00 0.  1.
        -24    2    1    2    0    0  0.15719026478E+01  0.34201950448E+02 -0.19359357220E+03  0.21183233687E+03  0.78881071561E+02 0.  0.
         25    2    1    2    0    0  0.45422348123E+02 -0.14369853226E+03  0.22412427864E+02  0.19713715659E+03  0.12509310014E+03 0.  0.
         24    2    1    2    0    0 -0.46994250771E+02  0.10949658181E+03  0.88715981461E+03  0.89864296122E+03  0.79427162059E+02 0.  0.
        -11    1    5    5    0    0 -0.59432894051E+02  0.56327608358E+02  0.65758333252E+03  0.66266198591E+03  0.00000000000E+00 0.  1.
         12    1    5    5    0    0  0.12438643280E+02  0.53168973452E+02  0.22957648209E+03  0.23598097532E+03  0.00000000000E+00 0. -1.
         11    1    3    3    0    0 -0.68773441340E+01 -0.25127855043E+02 -0.57134941706E+02  0.62794175886E+02  0.00000000000E+00 0. -1.
        -12    1    3    3    0    0  0.84492467818E+01  0.59329805491E+02 -0.13645863050E+03  0.14903816098E+03  0.00000000000E+00 0.  1.
          5    1    4    4  501    0  0.62206920059E+02 -0.15983001914E+03  0.24888599155E+02  0.17335584989E+03  0.41800000000E+01 0. -1.
         -5    1    4    4    0  501 -0.16784571936E+02  0.16131486883E+02 -0.24761712911E+01  0.23781306701E+02  0.41800000000E+01 0. -1.
</event>
<event>
11    1  0.7105277E-009  0.1796820E+03  0.7561462E-02  0.1069900E+00
         22   -1    0    0    0    0  0.00000000000E+00  0.00000000000E+00  0.24307636933E+04  0.24307636933E+04  0.00000000000E+00 0.  1.
         22   -1    0    0    0    0 -0.00000000000E+00 -0.00000000000E+00 -0.55797858951E+03  0.55797858951E+03  0.00000000000E+00 0.  1.
         24    2    1    2    0    0  0.10462679344E+02 -0.28965452685E+02 -0.51721931449E+03  0.52333023601E+03  0.73554412054E+02 0.  0.
         25    2    1    2    0    0  0.12231619431E+01  0.15542117679E+03  0.24922138716E+03  0.31924270951E+03  0.12508944574E+03 0.  0.
        -24    2    1    2    0    0 -0.11685841287E+02 -0.12645572411E+03  0.21407830311E+04  0.21461693373E+04  0.83445964001E+02 0.  0.
        -13    1    3    3    0    0 -0.14476911848E+02 -0.39672623986E+02 -0.42788514535E+03  0.42996417953E+03  0.00000000000E+00 0.  1.
         14    1    3    3    0    0  0.24939591192E+02  0.10707171301E+02 -0.89334169140E+02  0.93366056477E+02  0.00000000000E+00 0. -1.
         11    1    5    5    0    0 -0.20520471559E+02 -0.42434638272E+02  0.32269041298E+03  0.32611484313E+03  0.00000000000E+00 0. -1.
        -12    1    5    5    0    0  0.88346302723E+01 -0.84021085838E+02  0.18180926181E+04  0.18200544941E+04  0.00000000000E+00 0.  1.
          5    1    4    4  501    0 -0.43557511721E+02  0.14718321354E+03  0.19842484454E+03  0.25089847848E+03  0.41800000000E+01 0.  1.
         -5    1    4    4    0  501  0.44780673665E+02  0.82379632564E+01  0.50796542618E+02  0.68344231025E+02  0.41800000000E+01 0.  1.
</event>
<event>
11    1  0.7105277E-009  0.1677525E+03  0.7561462E-02  0.1080004E+00
         22   -1    0    0    0    0  0.00000000000E+00  0.00000000000E+00  0.32695782067E+03  0.32695782067E+03  0.00000000000E+00 0. -1.
         22   -1    0    0    0    0 -0.00000000000E+00 -0.00000000000E+00 -0.56478060740E+03  0.56478060740E+03  0.00000000000E+00 0. -1.
        -24    2    1    2    0    0  0.68154786564E+02 -0.82928789312E+02 -0.41016535985E+03  0.43158421339E+03  0.80666299028E+02 0.  0.
         25    2    1    2    0    0 -0.82969424337E+02  0.11009210273E+03 -0.73118537376E+02  0.20001744255E+03  0.12512577815E+03 0.  0.
         24    2    1    2    0    0  0.14814637773E+02 -0.27163313423E+02  0.24546111049E+03  0.26013677213E+03  0.80390698229E+02 0.  0.
        -11    1    5    5    0    0  0.23487816165E+02  0.24011939150E+02  0.81307581366E+02  0.87972572530E+02  0.00000000000E+00 0.  1.
         12    1    5    5    0    0 -0.86731783913E+01 -0.51175252573E+02  0.16415352913E+03  0.17216419960E+03  0.00000000000E+00 0. -1.
         13    1    3    3    0    0  0.37742730116E+02 -0.91184832434E+02 -0.35024177210E+03  0.36387976897E+03  0.00000000000E+00 0. -1.
        -14    1    3    3    0    0  0.30412056447E+02  0.82560431219E+01 -0.59923587754E+02  0.67704444424E+02  0.00000000000E+00 0.  1.
          5    1    4    4  501    0  0.22672671344E+01  0.34231386401E+02  0.30300294222E+02  0.45962033736E+02  0.41800000000E+01 0.  1.
         -5    1    4    4    0  501 -0.85236691471E+02  0.75860716334E+02 -0.10341883160E+03  0.15405540881E+03  0.41800000000E+01 0.  1.
</event>
<event>
11    1  0.7105277E-009  0.1316267E+03  0.7561462E-02  0.1117286E+00
         22   -1    0    0    0    0  0.00000000000E+00  0.00000000000E+00  0.71426131035E+03  0.71426131035E+03  0.00000000000E+00 0.  1.
         22   -1    0    0    0    0 -0.00000000000E+00 -0.00000000000E+00 -0.42503000960E+03  0.42503000960E+03  0.00000000000E+00 0. -1.
        -24    2    1    2    0    0 -0.28949543294E+02  0.81997152159E+01 -0.37693479692E+03  0.38665578203E+03  0.80731290434E+02 0.  0.
         25    2    1    2    0    0  0.38564376710E+02 -0.46769998299E+02  0.81297184003E+02  0.16103177301E+03  0.12508939164E+03 0.  0.
         24    2    1    2    0    0 -0.96148334160E+01  0.38570283083E+02  0.58486891368E+03  0.59160376491E+03  0.79644564893E+02 0.  0.
        -13    1    5    5    0    0 -0.44899579523E+02  0.22186224874E+02  0.32175299689E+03  0.32562738187E+03  0.00000000000E+00 0.  1.
         14    1    5    5    0    0  0.35284746107E+02  0.16384058210E+02  0.26311591679E+03  0.26597638304E+03  0.00000000000E+00 0. -1.
         13    1    3    3    0    0  0.63370535741E+01 -0.29774516007E+02 -0.19930980931E+03  0.20162113019E+03  0.00000000000E+00 0. -1.
        -14    1    3    3    0    0 -0.35286596868E+02  0.37974231223E+02 -0.17762498762E+03  0.18503465184E+03  0.00000000000E+00 0.  1.
          5    1    4    4  501    0  0.83040072300E+02 -0.31647082067E+02  0.37077311597E+02  0.96381486014E+02  0.41800000000E+01 0.  1.
         -5    1    4    4    0  501 -0.44475695590E+02 -0.15122916232E+02  0.44219872406E+02  0.64650287000E+02  0.41800000000E+01 0.  1.
</event>
<event>
11    1  0.7105277E-009  0.1554249E+03  0.7561462E-02  0.1091461E+00
         22   -1    0    0    0    0  0.00000000000E+00  0.00000000000E+00  0.24263017267E+03  0.24263017267E+03  0.00000000000E+00 0.  1.
         22   -1    0    0    0    0 -0.00000000000E+00 -0.00000000000E+00 -0.30235123303E+03  0.30235123303E+03  0.00000000000E+00 0. -1.
         24    2    1    2    0    0 -0.28425705714E+02  0.17609276327E+02 -0.16749783668E+03  0.18835183291E+03  0.79390051702E+02 0.  0.
         25    2    1    2    0    0 -0.90654541604E+01  0.71924152692E+02 -0.50895542574E+02  0.15327589050E+03  0.12509147116E+03 0.  0.
        -24    2    1    2    0    0  0.37491159874E+02 -0.89533429019E+02  0.15867231889E+03  0.20335368228E+03  0.82182682699E+02 0.  0.
        -13    1    3    3    0    0 -0.16349889863E+02  0.40105657488E+01  0.28170824972E+01  0.17068669835E+02  0.00000000000E+00 0.  1.
         14    1    3    3    0    0 -0.12075815851E+02  0.13598710578E+02 -0.17031491918E+03  0.17128316307E+03  0.00000000000E+00 0. -1.
         11    1    5    5    0    0  0.17746363553E+02  0.12995579379E+02  0.19700560967E+02  0.29528471094E+02  0.00000000000E+00 0. -1.
        -12    1    5    5    0    0  0.19744796321E+02 -0.10252900840E+03  0.13897175792E+03  0.17382521119E+03  0.00000000000E+00 0.  1.
          5    1    4    4  501    0 -0.78445676343E+01  0.51311796456E+02  0.36359754372E+02  0.63513320137E+02  0.41800000000E+01 0. -1.
         -5    1    4    4    0  501 -0.12208865261E+01  0.20612356236E+02 -0.87255296946E+02  0.89762570366E+02  0.41800000000E+01 0. -1.
</event>
<event>
11    1  0.7105277E-009  0.1513593E+03  0.7561462E-02  0.1095498E+00
         22   -1    0    0    0    0  0.00000000000E+00  0.00000000000E+00  0.11029037381E+04  0.11029037381E+04  0.00000000000E+00 0.  1.
         22   -1    0    0    0    0 -0.00000000000E+00 -0.00000000000E+00 -0.15050355183E+04  0.15050355183E+04  0.00000000000E+00 0.  1.
        -24    2    1    2    0    0  0.24558107588E+01  0.52264731242E+02 -0.10218937868E+04  0.10261868559E+04  0.77813357938E+02 0.  0.
         25    2    1    2    0    0  0.20689467601E+02  0.30109792892E+02 -0.46892537517E+03  0.48669466497E+03  0.12508411462E+03 0.  0.
         24    2    1    2    0    0 -0.23145278359E+02 -0.82374524134E+02  0.10886873818E+04  0.10950577355E+04  0.81178585134E+02 0.  0.
        -11    1    5    5    0    0  0.10013853861E+01 -0.73221146628E+02  0.45589451291E+03  0.46173817904E+03  0.00000000000E+00 0.  1.
         12    1    5    5    0    0 -0.24146663746E+02 -0.91533775055E+01  0.63279286885E+03  0.63331955643E+03  0.00000000000E+00 0. -1.
         13    1    3    3    0    0  0.61950448346E+01  0.72305917731E+02 -0.73690138999E+03  0.74046619295E+03  0.00000000000E+00 0. -1.
        -14    1    3    3    0    0 -0.37392340758E+01 -0.20041186490E+02 -0.28499239677E+03  0.28572066297E+03  0.00000000000E+00 0.  1.
          5    1    4    4  501    0  0.44911827271E+02  0.70106177325E+02 -0.30090809694E+03  0.31224205920E+03  0.41800000000E+01 0. -1.
         -5    1    4    4    0  501 -0.24222359670E+02 -0.39996384432E+02 -0.16801727823E+03  0.17445260577E+03  0.41800000000E+01 0. -1.
</event>
<event>
11    1  0.7105277E-009  0.1696761E+03  0.7561462E-02  0.1078314E+00
         22   -1    0    0    0    0  0.00000000000E+00  0.00000000000E+00  0.44281197463E+03  0.44281197463E+03  0.00000000000E+00 0.  1.
         22   -1    0    0    0    0 -0.00000000000E+00 -0.00000000000E+00 -0.23390997198E+04  0.23390997198E+04  0.00000000000E+00 0.  1.
        -24    2    1    2    0    0  0.27259630544E+02  0.11373695017E+03 -0.19166629563E+04  0.19219154865E+04  0.80517501407E+02 0.  0.
         25    2    1    2    0    0  0.19093211181E+02 -0.10654158214E+03 -0.39827263612E+03  0.43125177470E+03  0.12506534716E+03 0.  0.
         24    2    1    2    0    0 -0.46352841725E+02 -0.71953680279E+01  0.41864784729E+03  0.42874443315E+03  0.79720823243E+02 0.  0.
        -13    1    5    5    0    0 -0.54284582053E+02 -0.28874430335E+02  0.36777124398E+03  0.37287563138E+03  0.00000000000E+00 0.  1.
         14    1    5    5    0    0  0.79317403278E+01  0.21679062307E+02  0.50876603313E+02  0.55868801775E+02  0.00000000000E+00 0. -1.
         13    1    3    3    0    0 -0.11729030177E+02 -0.79671555865E+01 -0.20079925020E+03  0.20129924142E+03  0.00000000000E+00 0. -1.
        -14    1    3    3    0    0  0.38988660721E+02  0.12170410576E+03 -0.17158637061E+04  0.17206162451E+04  0.00000000000E+00 0.  1.
          5    1    4    4  501    0 -0.49992831547E+02 -0.72751074722E+02 -0.21489366185E+03  0.23235481571E+03  0.41800000000E+01 0.  1.
         -5    1    4    4    0  501  0.69086042728E+02 -0.33790507422E+02 -0.18337897427E+03  0.19889695900E+03  0.41800000000E+01 0.  1.
</event>
<event>
11    1  0.7105277E-009  0.1800690E+03  0.7561462E-02  0.1069587E+00
         22   -1    0    0    0    0  0.00000000000E+00  0.00000000000E+00  0.75675720695E+03  0.75675720695E+03  0.00000000000E+00 0.  1.
         22   -1    0    0    0    0 -0.00000000000E+00 -0.00000000000E+00 -0.13821129509E+03  0.13821129509E+03  0.00000000000E+00 0.  1.
         24    2    1    2    0    0  0.91433145679E+02 -0.72044785971E+02 -0.24822433032E+02  0.14227700829E+03  0.77949487440E+02 0.  0.
         25    2    1    2    0    0 -0.18827393960E+03  0.95887658490E+02  0.30949126936E+03  0.39506506188E+03  0.12510011160E+03 0.  0.
        -24    2    1    2    0    0  0.96840793926E+02 -0.23842872519E+02  0.33387707553E+03  0.35762643187E+03  0.80474475872E+02 0.  0.
        -13    1    3    3    0    0 -0.23777851494E+01 -0.33318021089E+02 -0.23387936442E+02  0.40776708579E+02  0.00000000000E+00 0.  1.
         14    1    3    3    0    0  0.93810930828E+02 -0.38726764882E+02 -0.14344965907E+01  0.10150029971E+03  0.00000000000E+00 0. -1.
         13    1    5    5    0    0 -0.28859971428E+01  0.19202428727E+02  0.56233549669E+02  0.59491800754E+02  0.00000000000E+00 0. -1.
        -14    1    5    5    0    0  0.99726791069E+02 -0.43045301246E+02  0.27764352586E+03  0.29813463111E+03  0.00000000000E+00 0.  1.
          5    1    4    4  501    0 -0.14599899470E+03  0.12069197270E+03  0.20257049134E+03  0.27737075385E+03  0.41800000000E+01 0.  1.
         -5    1    4    4    0  501 -0.42274944905E+02 -0.24804314213E+02  0.10692077802E+03  0.11769430803E+03  0.41800000000E+01 0.  1.
</event>
<event>
11    1  0.7105277E-009  0.1449975E+03  0.7561462E-02  0.1102103E+00
         22   -1    0    0    0    0  0.00000000000E+00  0.00000000000E+00  0.87794364153E+03  0.87794364153E+03  0.00000000000E+00 0. -1.
         22   -1    0    0    0    0 -0.00000000000E+00 -0.00000000000E+00 -0.97001887749E+02  0.97001887749E+02  0.00000000000E+00 0.  1.
        -24    2    1    2    0    0 -0.67835004323E+02 -0.18299524259E+02  0.87142809356E+01  0.10777776766E+03  0.81262833506E+02 0.  0.
         25    2    1    2    0    0  0.12657890617E+02  0.71421785472E+02  0.79045044208E+02  0.16479500703E+03  0.12509189299E+03 0.  0.
         24    2    1    2    0    0  0.55177113705E+02 -0.53122261214E+02  0.69318242864E+03  0.70237275459E+03  0.83421331267E+02 0.  0.
        -13    1    5    5    0    0  0.34332472926E+02 -0.41548242482E+02  0.16351337745E+03  0.17216735972E+03  0.00000000000E+00 0.  1.
         14    1    5    5    0    0  0.20844640779E+02 -0.11574018732E+02  0.52966905119E+03  0.53020539487E+03  0.00000000000E+00 0. -1.
         13    1    3    3    0    0  0.17699486355E+02  0.50901099249E+01 -0.16919950009E+01  0.18494428441E+02  0.00000000000E+00 0. -1.
        -14    1    3    3    0    0 -0.85534490678E+02 -0.23389634184E+02  0.10406275936E+02  0.89283339216E+02  0.00000000000E+00 0.  1.
          5    1    4    4  501    0 -0.14531083930E+02  0.31621253144E+01  0.89178497829E+02  0.90506509775E+02  0.41800000000E+01 0.  1.
         -5    1    4    4    0  501  0.27188974548E+02  0.68259660158E+02 -0.10133453621E+02  0.74288497253E+02  0.41800000000E+01 0.  1.
</event>
<event>
11    1  0.7105277E-009  0.1936486E+03  0.7561462E-02  0.1059108E+00
         22   -1    0    0    0    0  0.00000000000E+00  0.00000000000E+00  0.10988870503E+03  0.10988870503E+03  0.00000000000E+00 0. -1.
         22   -1    0    0    0    0 -0.00000000000E+00 -0.00000000000E+00 -0.37174031878E+04  0.37174031878E+04  0.00000000000E+00 0.  1.
         24    2    1    2    0    0  0.14390525677E+03 -0.30135950509E+02 -0.32233302138E+04  0.32277221413E+04  0.81949104832E+02 0.  0.
         25    2    1    2    0    0 -0.14421531087E+03  0.69376789761E+02 -0.44660410573E+03  0.49062611680E+03  0.12509022499E+03 0.  0.
        -24    2    1    2    0    0  0.31005409538E+00 -0.39240839251E+02  0.62419836780E+02  0.10894363470E+03  0.80203116645E+02 0.  0.
        -13    1    3    3    0    0  0.11551795761E+03 -0.33869920313E+02 -0.30186107805E+04  0.30210101976E+04  0.00000000000E+00 0.  1.
         14    1    3    3    0    0  0.28387299158E+02  0.37339698033E+01 -0.20471943332E+03  0.20671194369E+03  0.00000000000E+00 0. -1.
         11    1    5    5    0    0 -0.28266982576E+02 -0.50843656049E+02  0.44785958383E+02  0.73415813914E+02  0.00000000000E+00 0. -1.
        -12    1    5    5    0    0  0.28577036671E+02  0.11602816798E+02  0.17633878398E+02  0.35527820787E+02  0.00000000000E+00 0.  1.
          5    1    4    4  501    0 -0.10795164231E+02  0.35570858320E+02 -0.23636115348E+03  0.23930292269E+03  0.41800000000E+01 0. -1.
         -5    1    4    4    0  501 -0.13342014664E+03  0.33805931441E+02 -0.21024295225E+03  0.25132319411E+03  0.41800000000E+01 0. -1.
</event>
<event>
11    1  0.7105277E-009  0.1606637E+03  0.7561462E-02  0.1086455E+00
         22   -1    0    0    0    0  0.00000000000E+00  0.00000000000E+00  0.10991721678E+04  0.10991721678E+04  0.00000000000E+00 0. -1.
         22   -1    0    0    0    0 -0.00000000000E+00 -0.00000000000E+00 -0.23671537074E+03  0.23671537074E+03  0.00000000000E+00 0.  1.
         24    2    1    2    0    0 -0.18167901149E+02 -0.42041653177E+02 -0.20154233684E+03  0.22182059382E+03  0.80544950637E+02 0.  0.
         25    2    1    2    0    0 -0.34549767012E+02 -0.54716320912E+02  0.22937115164E+03  0.26915761766E+03  0.12508851174E+03 0.  0.
        -24    2    1    2    0    0  0.52717668160E+02  0.96757974088E+02  0.83462798228E+03  0.84490932707E+03  0.71600587190E+02 0.  0.
        -11    1    3    3    0    0  0.25648819658E+02 -0.37968152848E+02 -0.12988198073E+03  0.13772716326E+03  0.00000000000E+00 0.  1.
         12    1    3    3    0    0 -0.43816720807E+02 -0.40735003288E+01 -0.71660356102E+02  0.84093430563E+02  0.00000000000E+00 0. -1.
         11    1    5    5    0    0  0.37392943960E+02  0.73149025537E+02  0.77061450914E+03  0.77498111841E+03  0.00000000000E+00 0. -1.
        -12    1    5    5    0    0  0.15324724200E+02  0.23608948551E+02  0.64013473140E+02  0.69928208664E+02  0.00000000000E+00 0.  1.
          5    1    4    4  501    0 -0.15987542800E+02 -0.91315780122E+02  0.11623049656E+03  0.14873188614E+03  0.41800000000E+01 0. -1.
         -5    1    4    4    0  501 -0.18562224212E+02  0.36599459210E+02  0.11314065508E+03  0.12042573153E+03  0.41800000000E+01 0. -1.
</event>
<event>
11    1  0.7105277E-009  0.1338241E+03  0.7561462E-02  0.1114658E+00
         22   -1    0    0    0    0  0.00000000000E+00  0.00000000000E+00  0.11579419464E+04  0.11579419464E+04  0.00000000000E+00 0. -1.
         22   -1    0    0    0    0 -0.00000000000E+00 -0.00000000000E+00 -0.31669817592E+02  0.31669817592E+02  0.00000000000E+00 0.  1.
        -24    2    1    2    0    0 -0.92292148646E+02  0.16759105470E+02  0.41969943047E+03  0.43750832952E+03  0.80419016050E+02 0.  0.
         25    2    1    2    0    0  0.19434588346E+02  0.34859399840E+02  0.31169208898E+03  0.33821873733E+03  0.12508826870E+03 0.  0.
         24    2    1    2    0    0  0.72857560299E+02 -0.51618505310E+02  0.39488060938E+03  0.41388469717E+03  0.86006701489E+02 0.  0.
        -13    1    5    5    0    0  0.66146280760E+02 -0.15344269019E+02  0.13212692392E+03  0.14855403419E+03  0.00000000000E+00 0.  1.
         14    1    5    5    0    0  0.67112795392E+01 -0.36274236291E+02  0.26275368547E+03  0.26533066298E+03  0.00000000000E+00 0. -1.
         13    1    3    3    0    0 -0.31937443637E+02 -0.93215758580E+01  0.29188005221E+03  0.29377007499E+03  0.00000000000E+00 0. -1.
        -14    1    3    3    0    0 -0.60354705009E+02  0.26080681328E+02  0.12781937826E+03  0.14373825452E+03  0.00000000000E+00 0.  1.
          5    1    4    4  501    0 -0.28893021968E+02  0.53240822317E+02  0.25164952502E+03  0.25887129567E+03  0.41800000000E+01 0. -1.
         -5    1    4    4    0  501  0.48327610315E+02 -0.18381422476E+02  0.60042563956E+02  0.79347441656E+02  0.41800000000E+01 0. -1.
</event>
<event>
11    1  0.7105277E-009  0.1633365E+03  0.7561462E-02  0.1083981E+00
         22   -1    0    0    0    0  0.00000000000E+00  0.00000000000E+00  0.26397387868E+04  0.26397387868E+04  0.00000000000E+00 0.  1.
         22   -1    0    0    0    0 -0.00000000000E+00 -0.00000000000E+00 -0.27006759438E+03  0.27006759438E+03  0.00000000000E+00 0.  1.
        -24    2    1    2    0    0  0.10226082370E+03  0.19001803603E+02 -0.22789191795E+03  0.26571654419E+03  0.88612702151E+02 0.  0.
         25    2    1    2    0    0 -0.11993087255E+03 -0.26221094250E+02  0.31879974165E+03  0.36381252896E+03  0.12512122512E+03 0.  0.
         24    2    1    2    0    0  0.17670048849E+02  0.72192906469E+01  0.22787633687E+04  0.22802773080E+04  0.80856429387E+02 0.  0.
        -13    1    5    5    0    0  0.44040777842E+02  0.11959874542E+02  0.19086008579E+04  0.19091463704E+04  0.00000000000E+00 0.  1.
         14    1    5    5    0    0 -0.26370728993E+02 -0.47405838947E+01  0.37016251081E+03  0.37113093767E+03  0.00000000000E+00 0. -1.
         13    1    3    3    0    0  0.78255357427E+02 -0.28594295361E+02 -0.13690917203E+03  0.16026745171E+03  0.00000000000E+00 0. -1.
        -14    1    3    3    0    0  0.24005466276E+02  0.47596098964E+02 -0.90982745923E+02  0.10544909247E+03  0.00000000000E+00 0.  1.
          5    1    4    4  501    0 -0.85741610727E+02 -0.65560506396E+02  0.13596653080E+03  0.17364957157E+03  0.41800000000E+01 0.  1.
         -5    1    4    4    0  501 -0.34189261825E+02  0.39339412146E+02  0.18283321085E+03  0.19016295739E+03  0.41800000000E+01 0.  1.
</event>
<event>
11    1  0.7105277E-009  0.1700180E+03  0.7561462E-02  0.1078016E+00
         22   -1    0    0    0    0  0.00000000000E+00  0.00000000000E+00  0.11071530148E+04  0.11071530148E+04  0.00000000000E+00 0.  1.
         22   -1    0    0    0    0 -0.00000000000E+00 -0.00000000000E+00 -0.21906296346E+04  0.21906296346E+04  0.00000000000E+00 0.  1.
         24    2    1    2    0    0  0.40541527494E+02 -0.10819251948E+03 -0.21545222370E+04  0.21591998804E+04  0.82636656555E+02 0.  0.
         25    2    1    2    0    0 -0.30497898930E+02  0.78775052274E+02  0.14805373680E+03  0.21143431999E+03  0.12509569133E+03 0.  0.
        -24    2    1    2    0    0 -0.10043628563E+02  0.29417467204E+02  0.92299188040E+03  0.92714844908E+03  0.81999838478E+02 0.  0.
        -11    1    3    3    0    0  0.24275781901E+01 -0.97953586818E+02 -0.17550058093E+04  0.17577389422E+04  0.00000000000E+00 0.  1.
         12    1    3    3    0    0  0.38113949304E+02 -0.10238932660E+02 -0.39951642766E+03  0.40146093813E+03  0.00000000000E+00 0. -1.
         13    1    5    5    0    0  0.37967511964E+01 -0.97287798212E+01  0.15398837421E+02  0.18606146038E+02  0.00000000000E+00 0. -1.
        -14    1    5    5    0    0 -0.13840379760E+02  0.39146247026E+02  0.90759304298E+03  0.90854230305E+03  0.00000000000E+00 0.  1.
          5    1    4    4  501    0  0.39918984035E+02  0.40106704746E+02  0.19909474850E+02  0.60132625428E+02  0.41800000000E+01 0.  1.
         -5    1    4    4    0  501 -0.70416882965E+02  0.38668347527E+02  0.12814426195E+03  0.15130169456E+03  0.41800000000E+01 0.  1.
</event>
<event>
11    1  0.7105277E-009  0.1386629E+03  0.7561462E-02  0.1109061E+00
         22   -1    0    0    0    0  0.00000000000E+00  0.00000000000E+00  0.99979883075E+03  0.99979883075E+03  0.00000000000E+00 0. -1.
         22   -1    0    0    0    0 -0.00000000000E+00 -0.00000000000E+00 -0.19385416395E+04  0.19385416395E+04  0.00000000000E+00 0. -1.
         24    2    1    2    0    0  0.14294377350E+02 -0.44829386774E+02 -0.11942065397E+04  0.11978775362E+04  0.81039059433E+02 0.  0.
         25    2    1    2    0    0  0.45590683569E+02  0.44971300203E+02 -0.73323275819E+03  0.74657770065E+03  0.12508819748E+03 0.  0.
        -24    2    1    2    0    0 -0.59885060918E+02 -0.14191342873E+00  0.98869648913E+03  0.99388523341E+03  0.81858835217E+02 0.  0.
        -11    1    3    3    0    0  0.11152789150E+02  0.16088026933E+02 -0.64446020102E+03  0.64475744278E+03  0.00000000000E+00 0.  1.
         12    1    3    3    0    0  0.31415882001E+01 -0.60917413707E+02 -0.54974633868E+03  0.55312009343E+03  0.00000000000E+00 0. -1.
         13    1    5    5    0    0 -0.59978379085E+02 -0.32245322520E+02  0.59566750202E+03  0.59954727899E+03  0.00000000000E+00 0. -1.
        -14    1    5    5    0    0  0.93318166961E-01  0.32103409092E+02  0.39302898711E+03  0.39433795442E+03  0.00000000000E+00 0.  1.
          5    1    4    4  501    0 -0.30848993303E+02 -0.19868124362E+02 -0.13359337584E+03  0.13860398703E+03  0.41800000000E+01 0. -1.
         -5    1    4    4    0  501  0.76439676872E+02  0.64839424565E+02 -0.59963938236E+03  0.60797371362E+03  0.41800000000E+01 0. -1.
</event>
<event>
11    1  0.7105277E-009  0.1433846E+03  0.7561462E-02  0.1103837E+00
         22   -1    0    0    0    0  0.00000000000E+00  0.00000000000E+00  0.21153054580E+04  0.21153054580E+04  0.00000000000E+00 0.  1.
         22   -1    0    0    0    0 -0.00000000000E+00 -0.00000000000E+00 -0.42904437369E+03  0.42904437369E+03  0.00000000000E+00 0.  1.
        -24    2    1    2    0    0  0.53041925436E+02 -0.53663025399E+02 -0.40393548190E+03  0.41825356459E+03  0.77967971710E+02 0.  0.
         25    2    1    2    0    0 -0.43557461211E+01 -0.60035329373E+01  0.22462629291E+03  0.25721459418E+03  0.12508941226E+03 0.  0.
         24    2    1    2    0    0 -0.48686179315E+02  0.59666558336E+02  0.18655702733E+04  0.18688816729E+04  0.80223566074E+02 0.  0.
        -11    1    5    5    0    0  0.69139174847E+01 -0.15873415812E+02  0.31968608832E+03  0.32015459180E+03  0.00000000000E+00 0.  1.
         12    1    5    5    0    0 -0.55600096800E+02  0.75539974148E+02  0.15458841850E+04  0.15487270811E+04  0.00000000000E+00 0. -1.
         11    1    3    3    0    0  0.42596129063E+02 -0.77758093493E+01 -0.80447231106E+02  0.91360004459E+02  0.00000000000E+00 0. -1.
        -12    1    3    3    0    0  0.10445796373E+02 -0.45887216049E+02 -0.32348825079E+03  0.32689356014E+03  0.00000000000E+00 0.  1.
          5    1    4    4  501    0 -0.58486184628E+02 -0.18472458169E+02  0.16266539796E+03  0.17389470837E+03  0.41800000000E+01 0.  1.
         -5    1    4    4    0  501  0.54130438507E+02  0.12468925232E+02  0.61960894952E+02  0.83319885817E+02  0.41800000000E+01 0.  1.
</event>
<event>
11    1  0.7105277E-009  0.2014641E+03  0.7561462E-02  0.1053493E+00
         22   -1    0    0    0    0  0.00000000000E+00  0.00000000000E+00  0.12668968682E+04  0.12668968682E+04  0.00000000000E+00 0.  1.
         22   -1    0    0    0    0 -0.00000000000E+00 -0.00000000000E+00 -0.14832462690E+04  0.14832462690E+04  0.00000000000E+00 0.  1.
         24    2    1    2    0    0  0.21823031592E+02  0.30848583307E+02 -0.14126609742E+04  0.14154457020E+04  0.80297119288E+02 0.  0.
         25    2    1    2    0    0  0.13593334057E+03 -0.35944901112E+00  0.75086388812E+02  0.19940741190E+03  0.12508935947E+03 0.  0.
        -24    2    1    2    0    0 -0.15775637216E+03 -0.30489134296E+02  0.11212251846E+04  0.11352900233E+04  0.76947139536E+02 0.  0.
        -11    1    3    3    0    0 -0.27884360094E+02  0.12746107786E+01 -0.64768057245E+03  0.64828179528E+03  0.00000000000E+00 0.  1.
         12    1    3    3    0    0  0.49707391687E+02  0.29573972529E+02 -0.76498040180E+03  0.76716390672E+03  0.00000000000E+00 0. -1.
         11    1    5    5    0    0  0.40424566684E+01  0.92865096161E+01  0.38039621059E+02  0.39364876313E+02  0.00000000000E+00 0. -1.
        -12    1    5    5    0    0 -0.16179882883E+03 -0.39775643912E+02  0.10831855635E+04  0.10959251470E+04  0.00000000000E+00 0.  1.
          5    1    4    4  501    0  0.10491858470E+03 -0.39608964155E+02  0.38874913008E+01  0.11229142641E+03  0.41800000000E+01 0.  1.
         -5    1    4    4    0  501  0.31014755871E+02  0.39249515144E+02  0.71198897511E+02  0.87115985488E+02  0.41800000000E+01 0.  1.
</event>
<event>
11    1  0.7105277E-009  0.1573195E+03  0.7561462E-02  0.1089626E+00
         22   -1    0    0    0    0  0.00000000000E+00  0.00000000000E+00  0.43764442039E+03  0.43764442039E+03  0.00000000000E+00 0.  1.
         22   -1    0    0    0    0 -0.00000000000E+00 -0.00000000000E+00 -0.41264304871E+03  0.41264304871E+03  0.00000000000E+00 0. -1.
         24    2    1    2    0    0  0.79299102248E+02 -0.54319699397E+02 -0.31018879233E+03  0.33404902073E+03  0.78311455116E+02 0.  0.
         25    2    1    2    0    0 -0.88235255236E+02  0.31622982355E+02 -0.14209867115E+02  0.15695791698E+03  0.12509354140E+03 0.  0.
        -24    2    1    2    0    0  0.89361529887E+01  0.22696717041E+02  0.34940003113E+03  0.35928053139E+03  0.80044504411E+02 0.  0.
        -13    1    3    3    0    0  0.61765468010E+02 -0.35761127682E+02 -0.10310482934E+03  0.12539711769E+03  0.00000000000E+00 0.  1.
         14    1    3    3    0    0  0.17533634238E+02 -0.18558571715E+02 -0.20708396300E+03  0.20865190305E+03  0.00000000000E+00 0. -1.
         13    1    5    5    0    0 -0.34826598586E+02  0.77145424667E+01  0.11679359224E+03  0.12211940600E+03  0.00000000000E+00 0. -1.
        -14    1    5    5    0    0  0.43762751574E+02  0.14982174575E+02  0.23260643889E+03  0.23716112538E+03  0.00000000000E+00 0.  1.
          5    1    4    4  501    0 -0.25556999037E+02  0.51111764655E+01  0.54253579638E+02  0.60334133193E+02  0.41800000000E+01 0.  1.
         -5    1    4    4    0  501 -0.62678256199E+02  0.26511805890E+02 -0.68463446752E+02  0.96623783785E+02  0.41800000000E+01 0.  1.
</event>
<event>
11    1  0.7105277E-009  0.1467327E+03  0.7561462E-02  0.1100265E+00
         22   -1    0    0    0    0  0.00000000000E+00  0.00000000000E+00  0.25523562375E+04  0.25523562375E+04  0.00000000000E+00 0. -1.
         22   -1    0    0    0    0 -0.00000000000E+00 -0.00000000000E+00 -0.26331743602E+03  0.26331743602E+03  0.00000000000E+00 0. -1.
         24    2    1    2    0    0 -0.30241041012E+02  0.11223140529E+02 -0.11425314871E+03  0.14449435948E+03  0.82367217313E+02 0.  0.
         25    2    1    2    0    0  0.29143333243E+02 -0.87800145719E+02 -0.87117668714E+02  0.17831914957E+03  0.12510008569E+03 0.  0.
        -24    2    1    2    0    0  0.10977077694E+01  0.76577005190E+02  0.24904096189E+04  0.24928601645E+04  0.79664841857E+02 0.  0.
        -11    1    3    3    0    0 -0.32531315076E+02 -0.14966809851E+02 -0.10289384061E+02  0.37258063316E+02  0.00000000000E+00 0.  1.
         12    1    3    3    0    0  0.22902740644E+01  0.26189950380E+02 -0.10396376464E+03  0.10723629617E+03  0.00000000000E+00 0. -1.
         11    1    5    5    0    0 -0.37312523459E+02  0.43713831386E+02  0.15837078786E+04  0.15847503804E+04  0.00000000000E+00 0. -1.
        -12    1    5    5    0    0  0.38410231229E+02  0.32863173804E+02  0.90670174026E+03  0.90810978402E+03  0.00000000000E+00 0.  1.
          5    1    4    4  501    0  0.23373792828E+01  0.29712445855E+02 -0.97720410834E+00  0.30111793512E+02  0.41800000000E+01 0.  1.
         -5    1    4    4    0  501  0.26805953960E+02 -0.11751259157E+03 -0.86140464606E+02  0.14820735606E+03  0.41800000000E+01 0.  1.
</event>
<event>
11    1  0.7105277E-009  0.1413388E+03  0.7561462E-02  0.1106073E+00
         22   -1    0    0    0    0  0.00000000000E+00  0.00000000000E+00  0.40861100914E+03  0.40861100914E+03  0.00000000000E+00 0. -1.
         22   -1    0    0    0    0 -0.00000000000E+00 -0.00000000000E+00 -0.31550593385E+03  0.31550593385E+03  0.00000000000E+00 0.  1.
         24    2    1    2    0    0 -0.30356862998E+02  0.35027651454E+02 -0.25985093122E+03  0.27579591801E+03  0.79952526153E+02 0.  0.
         25    2    1    2    0    0 -0.15327023951E+02 -0.80295177618E+02  0.11314602615E+03  0.18743514750E+03  0.12509067940E+03 0.  0.
        -24    2    1    2    0    0  0.45683886948E+02  0.45267526163E+02  0.23980998037E+03  0.26088587748E+03  0.80102733623E+02 0.  0.
        -11    1    3    3    0    0 -0.32383602035E+02  0.57124691361E+02 -0.22578837195E+03  0.23514318393E+03  0.00000000000E+00 0.  1.
         12    1    3    3    0    0  0.20267390373E+01 -0.22097039907E+02 -0.34062559272E+02  0.40652734077E+02  0.00000000000E+00 0. -1.
         11    1    5    5    0    0 -0.16396958191E+02  0.33612979279E+02  0.11622968043E+03  0.12209844891E+03  0.00000000000E+00 0. -1.
        -12    1    5    5    0    0  0.62080845140E+02  0.11654546884E+02  0.12358029994E+03  0.13878742857E+03  0.00000000000E+00 0.  1.
          5    1    4    4  501    0 -0.11590752870E+01  0.15007494631E+02  0.85774468791E+02  0.87185435980E+02  0.41800000000E+01 0.  1.
         -5    1    4    4    0  501 -0.14167948664E+02 -0.95302672248E+02  0.27371557357E+02  0.10024971152E+03  0.41800000000E+01 0.  1.
</event>
<event>
11    1  0.7105277E-009  0.2788000E+03  0.7561462E-02  0.1009585E+00
         22   -1    0    0    0    0  0.00000000000E+00  0.00000000000E+00  0.23405194720E+04  0.23405194720E+04  0.00000000000E+00 0. -1.
         22   -1    0    0    0    0 -0.00000000000E+00 -0.00000000000E+00 -0.19040750817E+03  0.19040750817E+03  0.00000000000E+00 0. -1.
        -24    2    1    2    0    0  0.23254273113E+03  0.11174037296E+03 -0.45535738333E+02  0.27466733155E+03  0.82502162405E+02 0.  0.
         25    2    1    2    0    0 -0.18230980658E+03 -0.10481929323E+03  0.48091547524E+03  0.53958499662E+03  0.12509326296E+03 0.  0.
         24    2    1    2    0    0 -0.50232924558E+02 -0.69210797340E+01  0.17147322269E+04  0.17166746520E+04  0.63984394734E+02 0.  0.
        -13    1    5    5    0    0 -0.63941724342E+02 -0.82902508527E+01  0.11759379875E+04  0.11777043019E+04  0.00000000000E+00 0.  1.
         14    1    5    5    0    0  0.13708799784E+02  0.13691711187E+01  0.53879423940E+03  0.53897035005E+03  0.00000000000E+00 0. -1.
         13    1    3    3    0    0  0.20402775119E+03  0.11116443202E+03 -0.63616660150E+02  0.24089818109E+03  0.00000000000E+00 0. -1.
        -14    1    3    3    0    0  0.28514979945E+02  0.57594094183E+00  0.18080921817E+02  0.33769150463E+02  0.00000000000E+00 0.  1.
          5    1    4    4  501    0 -0.80681631151E+02 -0.11634440086E+03  0.25912356295E+03  0.29531007178E+03  0.41800000000E+01 0. -1.
         -5    1    4    4    0  501 -0.10162817542E+03  0.11525107634E+02  0.22179191229E+03  0.24427492484E+03  0.41800000000E+01 0. -1.
</event>
<event>
11    1  0.7105277E-009  0.1643505E+03  0.7561462E-02  0.1083055E+00
         22   -1    0    0    0    0  0.00000000000E+00  0.00000000000E+00  0.20439889352E+03  0.20439889352E+03  0.00000000000E+00 0. -1.
         22   -1    0    0    0    0 -0.00000000000E+00 -0.00000000000E+00 -0.24148826044E+04  0.24148826044E+04  0.00000000000E+00 0.  1.
        -24    2    1    2    0    0  0.49911659703E+01 -0.78517568422E+02 -0.22578365969E+04  0.22606130306E+04  0.79719855140E+02 0.  0.
         25    2    1    2    0    0  0.15804999746E+02  0.16674299463E+03 -0.33986289557E+02  0.21179171532E+03  0.12509052133E+03 0.  0.
         24    2    1    2    0    0 -0.20796165716E+02 -0.88225426206E+02  0.81339175645E+02  0.14687675198E+03  0.82100623862E+02 0.  0.
        -13    1    5    5    0    0 -0.39261256217E+02 -0.44929250118E+02  0.86666058379E+01  0.60292568470E+02  0.00000000000E+00 0.  1.
         14    1    5    5    0    0  0.18465090500E+02 -0.43296176088E+02  0.72672569807E+02  0.86584183506E+02  0.00000000000E+00 0. -1.
         13    1    3    3    0    0  0.35403899166E+02 -0.11066994063E+02 -0.62344218502E+03  0.62454469215E+03  0.00000000000E+00 0. -1.
        -14    1    3    3    0    0 -0.30412733195E+02 -0.67450574359E+02 -0.16343944119E+04  0.16360683384E+04  0.00000000000E+00 0.  1.
          5    1    4    4  501    0 -0.37935816770E+02  0.85272660848E+01  0.69176161793E+01  0.39713552781E+02  0.41800000000E+01 0. -1.
         -5    1    4    4    0  501  0.53740816516E+02  0.15821572854E+03 -0.40903905736E+02  0.17207816254E+03  0.41800000000E+01 0. -1.
</event>
<event>
11    1  0.7105277E-009  0.1486707E+03  0.7561462E-02  0.1098245E+00
         22   -1    0    0    0    0  0.00000000000E+00  0.00000000000E+00  0.11104678264E+04  0.11104678264E+04  0.00000000000E+00 0. -1.
         22   -1    0    0    0    0 -0.00000000000E+00 -0.00000000000E+00 -0.80603023798E+03  0.80603023798E+03  0.00000000000E+00 0. -1.
        -24    2    1    2    0    0 -0.37958974767E+02  0.51515431339E+02 -0.78453108870E+03  0.79135904591E+03  0.81641821233E+02 0.  0.
         25    2    1    2    0    0 -0.53240674940E+02 -0.43449476792E+02  0.38627504863E+03  0.41179978070E+03  0.12509284428E+03 0.  0.
         24    2    1    2    0    0  0.91199649707E+02 -0.80659545463E+01  0.70269362850E+03  0.71333923776E+03  0.81805237410E+02 0.  0.
        -11    1    5    5    0    0  0.20344469768E+02  0.14650567452E+02  0.45525910376E+02  0.51972541715E+02  0.00000000000E+00 0.  1.
         12    1    5    5    0    0  0.70855179939E+02 -0.22716521998E+02  0.65716771812E+03  0.66136669604E+03  0.00000000000E+00 0. -1.
         11    1    3    3    0    0 -0.21217570427E+02  0.68434469137E+02 -0.69620818195E+03  0.69988520092E+03  0.00000000000E+00 0. -1.
        -12    1    3    3    0    0 -0.16741404341E+02 -0.16919037798E+02 -0.88322906756E+02  0.91473844990E+02  0.00000000000E+00 0.  1.
          5    1    4    4  501    0 -0.53245300484E+02 -0.39317471054E+02  0.73611653707E+02  0.99081146114E+02  0.41800000000E+01 0. -1.
         -5    1    4    4    0  501  0.46255446817E-02 -0.41320057385E+01  0.31266339492E+03  0.31271863458E+03  0.41800000000E+01 0. -1.
</event>
<event>
11    1  0.7105277E-009  0.1625541E+03  0.7561462E-02  0.1084699E+00
         22   -1    0    0    0    0  0.00000000000E+00  0.00000000000E+00  0.37352484542E+03  0.37352484542E+03  0.00000000000E+00 0.  1.
         22   -1    0    0    0    0 -0.00000000000E+00 -0.00000000000E+00 -0.17393745617E+04  0.17393745617E+04  0.00000000000E+00 0.  1.
         24    2    1    2    0    0 -0.86589401117E+02  0.63088249593E+02 -0.15557456585E+04  0.15615040911E+04  0.80452600887E+02 0.  0.
         25    2    1    2    0    0  0.64940347810E+02 -0.29112875201E+02 -0.14566494771E+03  0.20476749163E+03  0.12508653149E+03 0.  0.
        -24    2    1    2    0    0  0.21649053308E+02 -0.33975374393E+02  0.33556088990E+03  0.34662782440E+03  0.76985259929E+02 0.  0.
        -13    1    3    3    0    0 -0.81332655403E+02  0.12374261509E+02 -0.87964130973E+03  0.88348002636E+03  0.00000000000E+00 0.  1.
         14    1    3    3    0    0 -0.52567457142E+01  0.50713988084E+02 -0.67610434874E+03  0.67802406473E+03  0.00000000000E+00 0. -1.
         11    1    5    5    0    0  0.74421097030E+01 -0.18937646234E+02  0.14703066955E+02  0.25103776999E+02  0.00000000000E+00 0. -1.
        -12    1    5    5    0    0  0.14206943605E+02 -0.15037728158E+02  0.32085782294E+03  0.32152404740E+03  0.00000000000E+00 0.  1.
          5    1    4    4  501    0 -0.35375452351E+01  0.11178220707E+02 -0.12075866631E+03  0.12139849560E+03  0.41800000000E+01 0. -1.
         -5    1    4    4    0  501  0.68477893045E+02 -0.40291095908E+02 -0.24906281396E+02  0.83368996025E+02  0.41800000000E+01 0. -1.
</event>
<event>
11    1  0.7105277E-009  0.2130627E+03  0.7561462E-02  0.1045652E+00
         22   -1    0    0    0    0  0.00000000000E+00  0.00000000000E+00  0.43543572985E+03  0.43543572985E+03  0.00000000000E+00 0. -1.
         22   -1    0    0    0    0 -0.00000000000E+00 -0.00000000000E+00 -0.25136375098E+03  0.25136375098E+03  0.00000000000E+00 0. -1.
         24    2    1    2    0    0 -0.32108106571E+02  0.24051519224E+02 -0.13374449508E+03  0.16129907368E+03  0.80748963592E+02 0.  0.
         25    2    1    2    0    0  0.14221689716E+03 -0.13800717475E+03  0.13739465662E+03  0.27165394248E+03  0.12508775592E+03 0.  0.
        -24    2    1    2    0    0 -0.11010879059E+03  0.11395565552E+03  0.18042181733E+03  0.25384646467E+03  0.82317423833E+02 0.  0.
        -11    1    3    3    0    0  0.14588347662E+02 -0.10956236304E+02 -0.35008285098E+01  0.18577265722E+02  0.00000000000E+00 0.  1.
         12    1    3    3    0    0 -0.46696454233E+02  0.35007755529E+02 -0.13024366657E+03  0.14272180796E+03  0.00000000000E+00 0. -1.
         13    1    5    5    0    0 -0.87799738501E+02  0.10506232065E+03  0.18422198429E+03  0.22953131550E+03  0.00000000000E+00 0. -1.
        -14    1    5    5    0    0 -0.22309052085E+02  0.88933348693E+01 -0.38001669581E+01  0.24315149165E+02  0.00000000000E+00 0.  1.
          5    1    4    4  501    0  0.11678444597E+03 -0.16154348603E+03  0.11464115851E+03  0.22998907001E+03  0.41800000000E+01 0.  1.
         -5    1    4    4    0  501  0.25432451182E+02  0.23536311284E+02  0.22753498111E+02  0.41664872474E+02  0.41800000000E+01 0.  1.
</event>
<event>
11    1  0.7105277E-009  0.1552022E+03  0.7561462E-02  0.1091679E+00
         22   -1    0    0    0    0  0.00000000000E+00  0.00000000000E+00  0.12630449685E+03  0.12630449685E+03  0.00000000000E+00 0. -1.
         22   -1    0    0    0    0 -0.00000000000E+00 -0.00000000000E+00 -0.64512695425E+03  0.64512695425E+03  0.00000000000E+00 0. -1.
        -24    2    1    2    0    0  0.76664475725E+02 -0.80577785139E+01 -0.29649276407E+03  0.31687162565E+03  0.80977147185E+02 0.  0.
         25    2    1    2    0    0 -0.13120378558E+03 -0.96821441451E+01 -0.28458978391E+03  0.33756044727E+03  0.12509010029E+03 0.  0.
         24    2    1    2    0    0  0.54539309851E+02  0.17739922659E+02  0.62260090578E+02  0.11699937817E+03  0.80766914262E+02 0.  0.
        -13    1    5    5    0    0  0.15940368033E+01  0.47093186477E+01 -0.18722631367E+02  0.19371514157E+02  0.00000000000E+00 0.  1.
         14    1    5    5    0    0  0.52945273048E+02  0.13030604011E+02  0.80982721944E+02  0.97627864017E+02  0.00000000000E+00 0. -1.
         11    1    3    3    0    0  0.45674328007E+02  0.24892493599E+02 -0.23408466525E+03  0.23979451824E+03  0.00000000000E+00 0. -1.
        -12    1    3    3    0    0  0.30990147718E+02 -0.32950272113E+02 -0.62408098819E+02  0.77077107406E+02  0.00000000000E+00 0.  1.
          5    1    4    4  501    0 -0.74967833490E+01  0.41857277549E+02 -0.10563309667E+03  0.11394760619E+03  0.41800000000E+01 0.  1.
         -5    1    4    4    0  501 -0.12370700223E+03 -0.51539421694E+02 -0.17895668724E+03  0.22361284108E+03  0.41800000000E+01 0.  1.
</event>
<event>
11    1  0.7105277E-009  0.1451792E+03  0.7561462E-02  0.1101909E+00
         22   -1    0    0    0    0  0.00000000000E+00  0.00000000000E+00  0.11731314570E+03  0.11731314570E+03  0.00000000000E+00 0. -1.
         22   -1    0    0    0    0 -0.00000000000E+00 -0.00000000000E+00 -0.95197331065E+03  0.95197331065E+03  0.00000000000E+00 0.  1.
        -24    2    1    2    0    0  0.34650094950E+02 -0.79452330775E+02 -0.54471651859E+03  0.55737022764E+03  0.80200892053E+02 0.  0.
         25    2    1    2    0    0 -0.43831249068E+02  0.31756514734E+02 -0.36477643244E+03  0.38940936379E+03  0.12509257503E+03 0.  0.
         24    2    1    2    0    0  0.91811541176E+01  0.47695816041E+02  0.74832786073E+02  0.12250686491E+03  0.83957141571E+02 0.  0.
        -11    1    5    5    0    0  0.10842540143E+02 -0.23390395849E+02  0.17397624218E+02  0.31102228589E+02  0.00000000000E+00 0.  1.
         12    1    5    5    0    0 -0.16613860256E+01  0.71086211890E+02  0.57435161855E+02  0.91404636326E+02  0.00000000000E+00 0. -1.
         13    1    3    3    0    0  0.42258847752E+02 -0.11028538970E+02 -0.13439869384E+03  0.14131683478E+03  0.00000000000E+00 0. -1.
        -14    1    3    3    0    0 -0.76087528017E+01 -0.68423791805E+02 -0.41031782475E+03  0.41605339286E+03  0.00000000000E+00 0.  1.
          5    1    4    4  501    0  0.10097889893E+02 -0.40494730674E+02 -0.75359667209E+02  0.86245825607E+02  0.41800000000E+01 0. -1.
         -5    1    4    4    0  501 -0.53929138960E+02  0.72251245407E+02 -0.28941676523E+03  0.30316353819E+03  0.41800000000E+01 0. -1.
</event>
<event>
11    1  0.7105277E-009  0.1421595E+03  0.7561462E-02  0.1105171E+00
         22   -1    0    0    0    0  0.00000000000E+00  0.00000000000E+00  0.15908091442E+04  0.15908091442E+04  0.00000000000E+00 0.  1.
         22   -1    0    0    0    0 -0.00000000000E+00 -0.00000000000E+00 -0.27805235694E+03  0.27805235694E+03  0.00000000000E+00 0.  1.
        -24    2    1    2    0    0 -0.66728709890E+02  0.14900334343E+02 -0.21781423884E+03  0.24273630639E+03  0.82481095492E+02 0.  0.
         25    2    1    2    0    0  0.62448888942E+02  0.19479555336E+01  0.58246867816E+02  0.15146460407E+03  0.12508065564E+03 0.  0.
         24    2    1    2    0    0  0.42798209476E+01 -0.16848289877E+02  0.14723241583E+04  0.14746605907E+04  0.81137222660E+02 0.  0.
        -11    1    5    5    0    0  0.22851442014E+02  0.13872445778E+02  0.11554999698E+04  0.11558091596E+04  0.00000000000E+00 0.  1.
         12    1    5    5    0    0 -0.18571621067E+02 -0.30720735654E+02  0.31682418842E+03  0.31885143104E+03  0.00000000000E+00 0. -1.
         13    1    3    3    0    0 -0.19863950995E+02 -0.59925178752E+01 -0.19296186706E+01  0.20837712155E+02  0.00000000000E+00 0. -1.
        -14    1    3    3    0    0 -0.46864758895E+02  0.20892852218E+02 -0.21588462017E+03  0.22189859424E+03  0.00000000000E+00 0.  1.
          5    1    4    4  501    0 -0.17086013341E+02  0.13804575253E+02  0.66843906447E+02  0.70484596749E+02  0.41800000000E+01 0.  1.
         -5    1    4    4    0  501  0.79534902283E+02 -0.11856619719E+02 -0.85970386309E+01  0.80980007320E+02  0.41800000000E+01 0.  1.
</event>
<event>
11    1  0.7105277E-009  0.1319092E+03  0.7561462E-02  0.1116945E+00
         22   -1    0    0    0    0  0.00000000000E+00  0.00000000000E+00  0.12559207580E+03  0.12559207580E+03  0.00000000000E+00 0.  1.
         22   -1    0    0    0    0 -0.00000000000E+00 -0.00000000000E+00 -0.36810886544E+03  0.36810886544E+03  0.00000000000E+00 0.  1.
         24    2    1    2    0    0  0.44749897885E+02  0.38356294641E+02 -0.11014740567E+03  0.14869131694E+03  0.80640548471E+02 0.  0.
         25    2    1    2    0    0 -0.20131555136E+02 -0.15173071794E+02 -0.19799277586E+03  0.23555503438E+03  0.12509809474E+03 0.  0.
        -24    2    1    2    0    0 -0.24618342749E+02 -0.23183222847E+02  0.65623391898E+02  0.10945458993E+03  0.80810599987E+02 0.  0.
        -13    1    3    3    0    0  0.48497580622E+02  0.12622210232E+02 -0.11191823227E+03  0.12262555293E+03  0.00000000000E+00 0.  1.
         14    1    3    3    0    0 -0.37476827375E+01  0.25734084409E+02  0.17708266029E+01  0.26065764004E+02  0.00000000000E+00 0. -1.
         13    1    5    5    0    0 -0.25519659054E+02 -0.22211319394E+02 -0.88493260146E+01  0.34970076899E+02  0.00000000000E+00 0. -1.
        -14    1    5    5    0    0  0.90131630447E+00 -0.97190345277E+00  0.74472717913E+02  0.74484513026E+02  0.00000000000E+00 0.  1.
          5    1    4    4  501    0  0.37339834967E+02 -0.48093225202E+02 -0.10175132375E+03  0.11865085702E+03  0.41800000000E+01 0. -1.
         -5    1    4    4    0  501 -0.57471390102E+02  0.32920153408E+02 -0.96241452111E+02  0.11690417736E+03  0.41800000000E+01 0. -1.
</event>
<event>
11    1  0.7105277E-009  0.1303503E+03  0.7561462E-02  0.1118839E+00
         22   -1    0    0    0    0  0.00000000000E+00  0.00000000000E+00  0.26775645991E+03  0.26775645991E+03  0.00000000000E+00 0.  1.
         22   -1    0    0    0    0 -0.00000000000E+00 -0.00000000000E+00 -0.38110313795E+03  0.38110313795E+03  0.00000000000E+00 0. -1.
         24    2    1    2    0    0  0.33754129274E+02 -0.18305619285E+02 -0.29195131637E+03  0.30520464542E+03  0.80248785134E+02 0.  0.
         25    2    1    2    0    0 -0.23638273537E+02  0.27176229173E+01 -0.18903771001E+02  0.12872933965E+03  0.12509091445E+03 0.  0.
        -24    2    1    2    0    0 -0.10115855737E+02  0.15587996367E+02  0.19750840933E+03  0.21492561279E+03  0.82692993111E+02 0.  0.
        -13    1    3    3    0    0  0.21100640084E+02  0.19891682458E+02 -0.36566803133E+02  0.46669552541E+02  0.00000000000E+00 0.  1.
         14    1    3    3    0    0  0.12653489190E+02 -0.38197301743E+02 -0.25538451324E+03  0.25853509288E+03  0.00000000000E+00 0. -1.
         13    1    5    5    0    0 -0.34440777648E+02  0.28350352660E+02  0.60369160705E+02  0.75062275646E+02  0.00000000000E+00 0. -1.
        -14    1    5    5    0    0  0.24324921911E+02 -0.12762356292E+02  0.13713924862E+03  0.13986333714E+03  0.00000000000E+00 0.  1.
          5    1    4    4  501    0  0.33591975171E+02 -0.14708069423E+02 -0.49228702697E+02  0.61527925947E+02  0.41800000000E+01 0. -1.
         -5    1    4    4    0  501 -0.57230248708E+02  0.17425692340E+02  0.30324931696E+02  0.67201413698E+02  0.41800000000E+01 0. -1.
</event>
<event>
11    1  0.7105277E-009  0.1627311E+03  0.7561462E-02  0.1084536E+00
         22   -1    0    0    0    0  0.00000000000E+00  0.00000000000E+00  0.27788847675E+03  0.27788847675E+03  0.00000000000E+00 0. -1.
         22   -1    0    0    0    0 -0.00000000000E+00 -0.00000000000E+00 -0.30721403712E+03  0.30721403712E+03  0.00000000000E+00 0. -1.
        -24    2    1    2    0    0 -0.32545033048E+02 -0.94542831553E+02 -0.20670755824E+03  0.24667781516E+03  0.90135474074E+02 0.  0.
         25    2    1    2    0    0  0.39187138830E+02  0.12563084313E+03  0.70972753079E+02  0.19493040821E+03  0.12506794861E+03 0.  0.
         24    2    1    2    0    0 -0.66421057825E+01 -0.31088011576E+02  0.10640924479E+03  0.14349429049E+03  0.90868597398E+02 0.  0.
        -11    1    5    5    0    0  0.22935390390E+02 -0.12643212041E+02 -0.50847494895E+01  0.26678411131E+02  0.00000000000E+00 0.  1.
         12    1    5    5    0    0 -0.29577496173E+02 -0.18444799535E+02  0.11149399428E+03  0.11681587936E+03  0.00000000000E+00 0. -1.
         13    1    3    3    0    0 -0.24346146512E+02 -0.70893840519E+02 -0.20851885084E+03  0.22158245109E+03  0.00000000000E+00 0. -1.
        -14    1    3    3    0    0 -0.81988865352E+01 -0.23648991034E+02  0.18112926001E+01  0.25095364078E+02  0.00000000000E+00 0.  1.
          5    1    4    4  501    0  0.74538591744E+01  0.12844312549E+03  0.90477368933E+02  0.15734301126E+03  0.41800000000E+01 0.  1.
         -5    1    4    4    0  501  0.31733279656E+02 -0.28122823646E+01 -0.19504615854E+02  0.37587396949E+02  0.41800000000E+01 0.  1.
</event>
<event>
11    1  0.7105277E-009  0.1635931E+03  0.7561462E-02  0.1083746E+00
         22   -1    0    0    0    0  0.00000000000E+00  0.00000000000E+00  0.26276300735E+03  0.26276300735E+03  0.00000000000E+00 0. -1.
         22   -1    0    0    0    0 -0.00000000000E+00 -0.00000000000E+00 -0.16650361940E+04  0.16650361940E+04  0.00000000000E+00 0.  1.
         24    2    1    2    0    0 -0.46183454139E+02  0.94665090767E+02 -0.14875632706E+04  0.14933538268E+04  0.78528830657E+02 0.  0.
         25    2    1    2    0    0 -0.38586539251E+02 -0.13605196610E+03 -0.99232620645E+02  0.21329186347E+03  0.12508895847E+03 0.  0.
        -24    2    1    2    0    0  0.84769993391E+02  0.41386875334E+02  0.18452270456E+03  0.22115351107E+03  0.77210243688E+02 0.  0.
        -13    1    3    3    0    0 -0.49437074017E+02  0.73145285944E+02 -0.14109429647E+04  0.14137023403E+04  0.00000000000E+00 0.  1.
         14    1    3    3    0    0  0.32536198779E+01  0.21519804822E+02 -0.76620305876E+02  0.79651486580E+02  0.00000000000E+00 0. -1.
         13    1    5    5    0    0  0.99346700808E+02  0.33666973551E+02  0.16585473203E+03  0.19624225897E+03  0.00000000000E+00 0. -1.
        -14    1    5    5    0    0 -0.14576707417E+02  0.77199017833E+01  0.18667972534E+02  0.24911252100E+02  0.00000000000E+00 0.  1.
          5    1    4    4  501    0 -0.23362368885E+02 -0.70269248624E+02  0.19454819774E+02  0.76678093316E+02  0.41800000000E+01 0.  1.
         -5    1    4    4    0  501 -0.15224170366E+02 -0.65782717477E+02 -0.11868744042E+03  0.13661377015E+03  0.41800000000E+01 0.  1.
</event>
<event>
11    1  0.7105277E-009  0.1490308E+03  0.7561462E-02  0.1097873E+00
         22   -1    0    0    0    0  0.00000000000E+00  0.00000000000E+00  0.69545288490E+03  0.69545288490E+03  0.00000000000E+00 0. -1.
         22   -1    0    0    0    0 -0.00000000000E+00 -0.00000000000E+00 -0.34063798176E+04  0.34063798176E+04  0.00000000000E+00 0. -1.
         24    2    1    2    0    0 -0.47112456845E+02  0.65098157792E+02 -0.32894252834E+04  0.32912952413E+04  0.76474285642E+02 0.  0.
         25    2    1    2    0    0  0.51144764776E+02 -0.13139905418E+03 -0.32141912814E+02  0.19121224491E+03  0.12509005412E+03 0.  0.
        -24    2    1    2    0    0 -0.40323079304E+01  0.66300896392E+02  0.61064026353E+03  0.61932521630E+03  0.79184112828E+02 0.  0.
        -11    1    3    3    0    0  0.37445714528E+01  0.58295443355E+02 -0.15074795857E+04  0.15086109776E+04  0.00000000000E+00 0.  1.
         12    1    3    3    0    0 -0.50857028298E+02  0.68027144374E+01 -0.17819456977E+04  0.17826842636E+04  0.00000000000E+00 0. -1.
         13    1    5    5    0    0 -0.15974875600E+02  0.60842225170E+02  0.59731206758E+03  0.60061525047E+03  0.00000000000E+00 0. -1.
        -14    1    5    5    0    0  0.11942567670E+02  0.54586712226E+01  0.13328195950E+02  0.18709965829E+02  0.00000000000E+00 0.  1.
          5    1    4    4  501    0 -0.14608350617E+02 -0.71061076869E+02  0.33827909373E+02  0.80155351700E+02  0.41800000000E+01 0. -1.
         -5    1    4    4    0  501  0.65753115393E+02 -0.60337977316E+02 -0.65969822187E+02  0.11105689321E+03  0.41800000000E+01 0. -1.
</event>
<event>
11    1  0.7105277E-009  0.1632290E+03  0.7561462E-02  0.1084079E+00
         22   -1    0    0    0    0  0.00000000000E+00  0.00000000000E+00  0.59379745660E+03  0.59379745660E+03  0.00000000000E+00 0.  1.
         22   -1    0    0    0    0 -0.00000000000E+00 -0.00000000000E+00 -0.73462342587E+03  0.73462342587E+03  0.00000000000E+00 0. -1.
        -24    2    1    2    0    0 -0.21889662754E+01  0.25083391401E+02 -0.63507187692E+03  0.64043902697E+03  0.78815546117E+02 0.  0.
         25    2    1    2    0    0  0.11790592380E+02 -0.12730301722E+03  0.20173997149E+01  0.17887592275E+03  0.12508976608E+03 0.  0.
         24    2    1    2    0    0 -0.96016261043E+01  0.10221962582E+03  0.49222850794E+03  0.50910593275E+03  0.79742733821E+02 0.  0.
        -13    1    5    5    0    0 -0.17038306786E+02  0.36293161828E+02  0.34856218604E+03  0.35086050652E+03  0.00000000000E+00 0.  1.
         14    1    5    5    0    0  0.74366806819E+01  0.65926463991E+02  0.14366632190E+03  0.15824542623E+03  0.00000000000E+00 0. -1.
         11    1    3    3    0    0 -0.17070323300E+02 -0.10807022510E+02 -0.48495414432E+03  0.48537481369E+03  0.00000000000E+00 0. -1.
        -12    1    3    3    0    0  0.14881357025E+02  0.35890413912E+02 -0.15011773261E+03  0.15506421328E+03  0.00000000000E+00 0.  1.
          5    1    4    4  501    0 -0.35390615405E+02 -0.74232000384E+02  0.46902982490E+02  0.94764168894E+02  0.41800000000E+01 0. -1.
         -5    1    4    4    0  501  0.47181207785E+02 -0.53071016836E+02 -0.44885582775E+02  0.84111753858E+02  0.41800000000E+01 0. -1.
</event>
<event>
11    1  0.7105277E-009  0.1524212E+03  0.7561462E-02  0.1094430E+00
         22   -1    0    0    0    0  0.00000000000E+00  0.00000000000E+00  0.42774687629E+03  0.42774687629E+03  0.00000000000E+00 0. -1.
         22   -1    0    0    0    0 -0.00000000000E+00 -0.00000000000E+00 -0.37000974807E+03  0.37000974807E+03  0.00000000000E+00 0. -1.
        -24    2    1    2    0    0 -0.35174591818E+02  0.18972939731E+02 -0.13367762270E+03  0.16149719978E+03  0.81329049992E+02 0.  0.
         25    2    1    2    0    0  0.12045363317E+03 -0.17478462602E+02 -0.17489452095E+03  0.24708387772E+03  0.12509106591E+03 0.  0.
         24    2    1    2    0    0 -0.85279041356E+02 -0.14944771290E+01  0.36630927188E+03  0.38917554686E+03  0.10000187626E+03 0.  0.
        -13    1    5    5    0    0 -0.35088899711E+02 -0.27532773630E+02  0.46599080864E+02  0.64503944407E+02  0.00000000000E+00 0.  1.
         14    1    5    5    0    0 -0.50190141644E+02  0.26038296501E+02  0.31971019101E+03  0.32467160246E+03  0.00000000000E+00 0. -1.
         13    1    3    3    0    0 -0.59009914985E+02 -0.12016436867E+01 -0.80329983535E+02  0.99682096029E+02  0.00000000000E+00 0. -1.
        -14    1    3    3    0    0  0.23835323166E+02  0.20174583418E+02 -0.53347639169E+02  0.61815103748E+02  0.00000000000E+00 0.  1.
          5    1    4    4  501    0  0.11278948477E+03  0.20763107984E+02 -0.17326588172E+03  0.20782471627E+03  0.41800000000E+01 0.  1.
         -5    1    4    4    0  501  0.76641484072E+01 -0.38241570586E+02 -0.16286392330E+01  0.39259161446E+02  0.41800000000E+01 0.  1.
</event>
<event>
11    1  0.7105277E-009  0.1586955E+03  0.7561462E-02  0.1088311E+00
         22   -1    0    0    0    0  0.00000000000E+00  0.00000000000E+00  0.12315074865E+04  0.12315074865E+04  0.00000000000E+00 0.  1.
         22   -1    0    0    0    0 -0.00000000000E+00 -0.00000000000E+00 -0.66162820635E+03  0.66162820635E+03  0.00000000000E+00 0.  1.
         24    2    1    2    0    0 -0.97446015933E+02 -0.11464085943E+02 -0.63637543537E+03  0.64901855609E+03  0.81389434933E+02 0.  0.
         25    2    1    2    0    0  0.72257116058E+02  0.23406977607E+02  0.29990284063E+03  0.33370376068E+03  0.12509000219E+03 0.  0.
        -24    2    1    2    0    0  0.25188899875E+02 -0.11942891665E+02  0.90635187486E+03  0.91041337605E+03  0.81250728598E+02 0.  0.
        -13    1    3    3    0    0 -0.11173539906E+03 -0.54681489770E+01 -0.56755098031E+03  0.57847110153E+03  0.00000000000E+00 0.  1.
         14    1    3    3    0    0  0.14289383129E+02 -0.59959369655E+01 -0.68824455060E+02  0.70547454558E+02  0.00000000000E+00 0. -1.
         13    1    5    5    0    0  0.54761234594E+02 -0.12784006935E+02  0.57473420128E+03  0.57747867993E+03  0.00000000000E+00 0. -1.
        -14    1    5    5    0    0 -0.29572334719E+02  0.84111526974E+00  0.33161767358E+03  0.33293469613E+03  0.00000000000E+00 0.  1.
          5    1    4    4  501    0  0.61720684950E+02 -0.44670718475E+02  0.13768720877E+03  0.15741713979E+03  0.41800000000E+01 0. -1.
         -5    1    4    4    0  501  0.10536431108E+02  0.68077696083E+02  0.16221563186E+03  0.17628662089E+03  0.41800000000E+01 0. -1.
</event>
<event>
11    1  0.7105277E-009  0.1388405E+03  0.7561462E-02  0.1108860E+00
         22   -1    0    0    0    0  0.00000000000E+00  0.00000000000E+00  0.13909637267E+04  0.13909637267E+04  0.00000000000E+00 0.  1.
         22   -1    0    0    0    0 -0.00000000000E+00 -0.00000000000E+00 -0.73314460561E+03  0.73314460561E+03  0.00000000000E+00 0.  1.
        -24    2    1    2    0    0  0.17107669057E+02  0.24424906441E+02 -0.62548041678E+03  0.63138409611E+03  0.80813839500E+02 0.  0.
         25    2    1    2    0    0  0.41665706263E+02 -0.38517265531E+02 -0.56881114984E+02  0.14867075800E+03  0.12509165528E+03 0.  0.
         24    2    1    2    0    0 -0.58773375320E+02  0.14092359090E+02  0.13401806529E+04  0.13440534782E+04  0.82113736560E+02 0.  0.
        -13    1    5    5    0    0 -0.57182001295E+02 -0.22900140468E+02  0.99173609313E+03  0.99364715877E+03  0.00000000000E+00 0.  1.
         14    1    5    5    0    0 -0.15913740243E+01  0.36992499558E+02  0.34844455975E+03  0.35040631946E+03  0.00000000000E+00 0. -1.
         13    1    3    3    0    0  0.95900861966E+00 -0.27047331414E+02 -0.11899951682E+03  0.12203836625E+03  0.00000000000E+00 0. -1.
        -14    1    3    3    0    0  0.16148660437E+02  0.51472237854E+02 -0.50648089996E+03  0.50934572986E+03  0.00000000000E+00 0.  1.
          5    1    4    4  501    0  0.48600850952E+02 -0.67390002840E+02  0.13158506771E+01  0.83202518346E+02  0.41800000000E+01 0. -1.
         -5    1    4    4    0  501 -0.69351446897E+01  0.28872737309E+02 -0.58196965661E+02  0.65468239656E+02  0.41800000000E+01 0. -1.
</event>
<event>
11    1  0.7105277E-009  0.1481328E+03  0.7561462E-02  0.1098802E+00
         22   -1    0    0    0    0  0.00000000000E+00  0.00000000000E+00  0.45560628820E+03  0.45560628820E+03  0.00000000000E+00 0. -1.
         22   -1    0    0    0    0 -0.00000000000E+00 -0.00000000000E+00 -0.88701076231E+03  0.88701076231E+03  0.00000000000E+00 0. -1.
         24    2    1    2    0    0  0.48289388275E+02  0.17845819954E+02 -0.70212191164E+03  0.70851511260E+03  0.79800674585E+02 0.  0.
         25    2    1    2    0    0 -0.92572866563E+02  0.47322329356E+02 -0.13579840855E+03  0.21188804574E+03  0.12508476199E+03 0.  0.
        -24    2    1    2    0    0  0.44283478288E+02 -0.65168149310E+02  0.40651584609E+03  0.42221389217E+03  0.82471349499E+02 0.  0.
        -11    1    3    3    0    0  0.23282911014E+02 -0.31105511406E+02 -0.34620664090E+03  0.34838008696E+03  0.00000000000E+00 0.  1.
         12    1    3    3    0    0  0.25006477261E+02  0.48951331360E+02 -0.35591527074E+03  0.36013502564E+03  0.00000000000E+00 0. -1.
         11    1    5    5    0    0  0.60060344511E+02 -0.40711218380E+02  0.36077370288E+03  0.36799770784E+03  0.00000000000E+00 0. -1.
        -12    1    5    5    0    0 -0.15776866223E+02 -0.24456930930E+02  0.45742143207E+02  0.54216184332E+02  0.00000000000E+00 0.  1.
          5    1    4    4  501    0 -0.10817029299E+03 -0.44643075955E+01 -0.93234582227E+02  0.14293670645E+03  0.41800000000E+01 0.  1.
         -5    1    4    4    0  501  0.15597426430E+02  0.51786636952E+02 -0.42563826325E+02  0.68951339287E+02  0.41800000000E+01 0.  1.
</event>
<event>
11    1  0.7105277E-009  0.1835999E+03  0.7561462E-02  0.1066768E+00
         22   -1    0    0    0    0  0.00000000000E+00  0.00000000000E+00  0.63971695827E+03  0.63971695827E+03  0.00000000000E+00 0.  1.
         22   -1    0    0    0    0 -0.00000000000E+00 -0.00000000000E+00 -0.12758154448E+04  0.12758154448E+04  0.00000000000E+00 0.  1.
        -24    2    1    2    0    0 -0.24418106597E+02 -0.18809257633E+02 -0.11710582850E+04  0.11740474149E+04  0.77844674524E+02 0.  0.
         25    2    1    2    0    0 -0.94271847049E+02  0.84568131458E+02 -0.58432969767E+01  0.17810755118E+03  0.12509678518E+03 0.  0.
         24    2    1    2    0    0  0.11868995365E+03 -0.65758873825E+02  0.54080309544E+03  0.56337743705E+03  0.80713158520E+02 0.  0.
        -13    1    5    5    0    0  0.12697225366E+03 -0.55591600939E+02  0.52422339059E+03  0.54223845542E+03  0.00000000000E+00 0.  1.
         14    1    5    5    0    0 -0.82823000171E+01 -0.10167272886E+02  0.16579704852E+02  0.21138981633E+02  0.00000000000E+00 0. -1.
         11    1    3    3    0    0 -0.13087723120E+02  0.29723413296E+02 -0.36122333498E+03  0.36268039308E+03  0.00000000000E+00 0. -1.
        -12    1    3    3    0    0 -0.11330383477E+02 -0.48532670929E+02 -0.80983495005E+03  0.81136702179E+03  0.00000000000E+00 0.  1.
          5    1    4    4  501    0 -0.12408539441E+03  0.60592052146E+02  0.46032349743E+01  0.13822895522E+03  0.41800000000E+01 0.  1.
         -5    1    4    4    0  501  0.29813547365E+02  0.23976079312E+02 -0.10446531951E+02  0.39878595956E+02  0.41800000000E+01 0.  1.
</event>
<event>
11    1  0.7105277E-009  0.1555670E+03  0.7561462E-02  0.1091322E+00
         22   -1    0    0    0    0  0.00000000000E+00  0.00000000000E+00  0.37980821368E+03  0.37980821368E+03  0.00000000000E+00 0.  1.
         22   -1    0    0    0    0 -0.00000000000E+00 -0.00000000000E+00 -0.14933171764E+04  0.14933171764E+04  0.00000000000E+00 0. -1.
        -24    2    1    2    0    0  0.87645132089E+02 -0.29698357248E+02 -0.13215591130E+04  0.13271695401E+04  0.79352614560E+02 0.  0.
         25    2    1    2    0    0 -0.10971086590E+03 -0.43868579025E+02 -0.11345332759E+03  0.20610541777E+03  0.12508740693E+03 0.  0.
         24    2    1    2    0    0  0.22065733808E+02  0.73566936273E+02  0.32150347792E+03  0.33985043215E+03  0.78960997949E+02 0.  0.
        -13    1    5    5    0    0  0.29483296717E+02  0.68895596205E+02  0.14582735236E+03  0.16395573994E+03  0.00000000000E+00 0.  1.
         14    1    5    5    0    0 -0.74175629085E+01  0.46713400682E+01  0.17567612555E+03  0.17589469221E+03  0.00000000000E+00 0. -1.
         11    1    3    3    0    0  0.84967459836E+02 -0.23988367204E+02 -0.13153821770E+04  0.13183418307E+04  0.00000000000E+00 0. -1.
        -12    1    3    3    0    0  0.26776722529E+01 -0.57099900440E+01 -0.61769359726E+01  0.88277093862E+01  0.00000000000E+00 0.  1.
          5    1    4    4  501    0 -0.53499315302E+02 -0.58684629697E+02 -0.10919572765E+01  0.79528153953E+02  0.41800000000E+01 0.  1.
         -5    1    4    4    0  501 -0.56211550595E+02  0.14816050672E+02 -0.11236137031E+03  0.12657726382E+03  0.41800000000E+01 0.  1.
</event>
<event>
11    1  0.7105277E-009  0.2040470E+03  0.7561462E-02  0.1051698E+00
         22   -1    0    0    0    0  0.00000000000E+00  0.00000000000E+00  0.17271077026E+04  0.17271077026E+04  0.00000000000E+00 0. -1.
         22   -1    0    0    0    0 -0.00000000000E+00 -0.00000000000E+00 -0.83960249709E+02  0.83960249709E+02  0.00000000000E+00 0.  1.
        -24    2    1    2    0    0 -0.49355484040E+02 -0.18387669754E+02 -0.16473742310E+01  0.97902465255E+02  0.82511263821E+02 0.  0.
         25    2    1    2    0    0 -0.10892476277E+03  0.76300486185E+02  0.27179681267E+03  0.32742502025E+03  0.12508904180E+03 0.  0.
         24    2    1    2    0    0  0.15828024681E+03 -0.57912816432E+02  0.13729980144E+04  0.13857404668E+04  0.82137462752E+02 0.  0.
        -11    1    5    5    0    0  0.93939214263E+01  0.18013793799E+02  0.15871455657E+03  0.16000954032E+03  0.00000000000E+00 0.  1.
         12    1    5    5    0    0  0.14888632538E+03 -0.75926610231E+02  0.12142834579E+04  0.12257309265E+04  0.00000000000E+00 0. -1.
         11    1    3    3    0    0 -0.21078234291E+02  0.29814743426E+02  0.15174893380E+02  0.39540969582E+02  0.00000000000E+00 0. -1.
        -12    1    3    3    0    0 -0.28277249749E+02 -0.48202413179E+02 -0.16822267611E+02  0.58361495673E+02  0.00000000000E+00 0.  1.
          5    1    4    4  501    0 -0.32657789168E+02  0.67132411082E+02  0.43476091689E+02  0.86492397120E+02  0.41800000000E+01 0. -1.
         -5    1    4    4    0  501 -0.76266973598E+02  0.91680751032E+01  0.22832072098E+03  0.24093262313E+03  0.41800000000E+01 0. -1.
</event>
<event>
11    1  0.7105277E-009  0.3501003E+03  0.7561462E-02  0.9809671E-01
         22   -1    0    0    0    0  0.00000000000E+00  0.00000000000E+00  0.19145334954E+04  0.19145334954E+04  0.00000000000E+00 0.  1.
         22   -1    0    0    0    0 -0.00000000000E+00 -0.00000000000E+00 -0.40843405801E+03  0.40843405801E+03  0.00000000000E+00 0. -1.
        -24    2    1    2    0    0 -0.30051418183E+02 -0.41345474139E+02 -0.20162356845E+03  0.22317835417E+03  0.80894860477E+02 0.  0.
         25    2    1    2    0    0 -0.27054953100E+03 -0.96545531647E+02 -0.42906989966E+02  0.31624377835E+03  0.12510407327E+03 0.  0.
         24    2    1    2    0    0  0.30060094919E+03  0.13789100579E+03  0.17506299958E+04  0.17835454209E+04  0.83390803139E+02 0.  0.
        -13    1    5    5    0    0  0.27927919805E+03  0.13397949698E+03  0.17064317980E+04  0.17343174038E+04  0.00000000000E+00 0.  1.
         14    1    5    5    0    0  0.21321751134E+02  0.39115088018E+01  0.44198197792E+02  0.49228017029E+02  0.00000000000E+00 0. -1.
         13    1    3    3    0    0  0.24950173433E+02 -0.97080307438E+01 -0.30041891340E+02  0.40240182039E+02  0.00000000000E+00 0. -1.
        -14    1    3    3    0    0 -0.55001591616E+02 -0.31637443395E+02 -0.17158167711E+03  0.18293817213E+03  0.00000000000E+00 0.  1.
          5    1    4    4  501    0 -0.28333753780E+03 -0.93213623650E+02 -0.35174675388E+02  0.30037255226E+03  0.41800000000E+01 0.  1.
         -5    1    4    4    0  501  0.12788006799E+02 -0.33319079965E+01 -0.77323145780E+01  0.15871226087E+02  0.41800000000E+01 0.  1.
</event>
<event>
11    1  0.7105277E-009  0.1918218E+03  0.7561462E-02  0.1060462E+00
         22   -1    0    0    0    0  0.00000000000E+00  0.00000000000E+00  0.31779332994E+03  0.31779332994E+03  0.00000000000E+00 0.  1.
         22   -1    0    0    0    0 -0.00000000000E+00 -0.00000000000E+00 -0.82994504212E+03  0.82994504212E+03  0.00000000000E+00 0. -1.
         24    2    1    2    0    0  0.12184743874E+03 -0.48131806486E+02 -0.45637399419E+03  0.48303782863E+03  0.88796690200E+02 0.  0.
         25    2    1    2    0    0 -0.14229726970E+03  0.13881660864E+03 -0.30671680380E+03  0.38631705495E+03  0.12508839041E+03 0.  0.
        -24    2    1    2    0    0  0.20449830959E+02 -0.90684802156E+02  0.25093908581E+03  0.27838348849E+03  0.76713838054E+02 0.  0.
        -13    1    3    3    0    0  0.90090610301E+02  0.10956819596E+02 -0.27982485413E+03  0.29417396035E+03  0.00000000000E+00 0.  1.
         14    1    3    3    0    0  0.31756828439E+02 -0.59088626082E+02 -0.17654914006E+03  0.18886386828E+03  0.00000000000E+00 0. -1.
         11    1    5    5    0    0 -0.71127782095E+01  0.85711080477E+01  0.59706090549E+01  0.12637392117E+02  0.00000000000E+00 0. -1.
        -12    1    5    5    0    0  0.27562609168E+02 -0.99255910204E+02  0.24496847675E+03  0.26574609637E+03  0.00000000000E+00 0.  1.
          5    1    4    4  501    0 -0.13222640980E+03  0.16089972569E+03 -0.25684306743E+03  0.33069378413E+03  0.41800000000E+01 0.  1.
         -5    1    4    4    0  501 -0.10070859896E+02 -0.22083117043E+02 -0.49873736374E+02  0.55623270825E+02  0.41800000000E+01 0.  1.
</event>
<event>
11    1  0.7105277E-009  0.1707657E+03  0.7561462E-02  0.1077367E+00
         22   -1    0    0    0    0  0.00000000000E+00  0.00000000000E+00  0.23703103559E+04  0.23703103559E+04  0.00000000000E+00 0.  1.
         22   -1    0    0    0    0 -0.00000000000E+00 -0.00000000000E+00 -0.24164394862E+03  0.24164394862E+03  0.00000000000E+00 0. -1.
         24    2    1    2    0    0 -0.54358151803E+02 -0.25011059801E+02 -0.16260632438E+03  0.19328757267E+03  0.85667422287E+02 0.  0.
         25    2    1    2    0    0 -0.63242837226E+02  0.35776557602E+02  0.23743385767E+02  0.14659610177E+03  0.12508816951E+03 0.  0.
        -24    2    1    2    0    0  0.11760098903E+03 -0.10765497802E+02  0.22675293459E+04  0.22720706300E+04  0.81668384367E+02 0.  0.
        -11    1    3    3    0    0 -0.25874653358E+02 -0.39316121254E+02 -0.27583623212E+02  0.54553747317E+02  0.00000000000E+00 0.  1.
         12    1    3    3    0    0 -0.28483498446E+02  0.14305061453E+02 -0.13502270117E+03  0.13873382536E+03  0.00000000000E+00 0. -1.
         13    1    5    5    0    0  0.16693207855E+02 -0.19823091330E+02  0.15812077301E+03  0.16023044965E+03  0.00000000000E+00 0. -1.
        -14    1    5    5    0    0  0.10090778117E+03  0.90575935285E+01  0.21094085729E+04  0.21118401804E+04  0.00000000000E+00 0.  1.
          5    1    4    4  501    0 -0.74558018706E+02  0.61647912746E+02  0.48960203426E+02  0.10850777492E+03  0.41800000000E+01 0. -1.
         -5    1    4    4    0  501  0.11315181481E+02 -0.25871355144E+02 -0.25216817659E+02  0.38088326844E+02  0.41800000000E+01 0. -1.
</event>
<event>
11    1  0.7105277E-009  0.1768539E+03  0.7561462E-02  0.1072216E+00
         22   -1    0    0    0    0  0.00000000000E+00  0.00000000000E+00  0.79898044286E+03  0.79898044286E+03  0.00000000000E+00 0.  1.
         22   -1    0    0    0    0 -0.00000000000E+00 -0.00000000000E+00 -0.36456117767E+03  0.36456117767E+03  0.00000000000E+00 0.  1.
         24    2    1    2    0    0  0.41925349049E+02  0.74827934297E+02 -0.24594498059E+03  0.27296065953E+03  0.81618830717E+02 0.  0.
         25    2    1    2    0    0 -0.10606804864E+03 -0.17435997915E+03  0.50690944755E+02  0.24468155251E+03  0.12509059511E+03 0.  0.
        -24    2    1    2    0    0  0.64142699594E+02  0.99532044856E+02  0.62967330103E+03  0.64589940849E+03  0.81710868281E+02 0.  0.
        -11    1    3    3    0    0  0.65333751746E+02  0.42993924428E+02 -0.17668825518E+03  0.19322452270E+03  0.00000000000E+00 0.  1.
         12    1    3    3    0    0 -0.23408402697E+02  0.31834009869E+02 -0.69256725412E+02  0.79736136826E+02  0.00000000000E+00 0. -1.
         11    1    5    5    0    0  0.10069626160E+02  0.79494163119E+02  0.27023464631E+03  0.28186429963E+03  0.00000000000E+00 0. -1.
        -12    1    5    5    0    0  0.54073073434E+02  0.20037881737E+02  0.35943865472E+03  0.36403510886E+03  0.00000000000E+00 0.  1.
          5    1    4    4  501    0 -0.68144889106E+02 -0.18589394390E+03  0.52186137510E+02  0.20479538481E+03  0.41800000000E+01 0.  1.
         -5    1    4    4    0  501 -0.37923159536E+02  0.11533964752E+02 -0.14951927555E+01  0.39886167696E+02  0.41800000000E+01 0.  1.
</event>
<event>
11    1  0.7105277E-009  0.1353458E+03  0.7561462E-02  0.1112870E+00
         22   -1    0    0    0    0  0.00000000000E+00  0.00000000000E+00  0.72946544087E+03  0.72946544087E+03  0.00000000000E+00 0.  1.
         22   -1    0    0    0    0 -0.00000000000E+00 -0.00000000000E+00 -0.46766888077E+03  0.46766888077E+03  0.00000000000E+00 0. -1.
         24    2    1    2    0    0  0.41203809304E+02  0.31048959155E+02 -0.42136022766E+03  0.43186559158E+03  0.79382970322E+02 0.  0.
         25    2    1    2    0    0 -0.31469196196E+02 -0.47371104786E+02  0.85794476610E+02  0.16199544026E+03  0.12508996190E+03 0.  0.
        -24    2    1    2    0    0 -0.97346131083E+01  0.16322145631E+02  0.59736231114E+03  0.60327328980E+03  0.82071653360E+02 0.  0.
        -11    1    3    3    0    0 -0.45120308529E+01 -0.22829424361E+02 -0.12945416888E+03  0.13152917121E+03  0.00000000000E+00 0.  1.
         12    1    3    3    0    0  0.45715840157E+02  0.53878383516E+02 -0.29190605877E+03  0.30033642037E+03  0.00000000000E+00 0. -1.
         11    1    5    5    0    0 -0.12306678957E+02 -0.10814921211E+02  0.22859973843E+02  0.28124638163E+02  0.00000000000E+00 0. -1.
        -12    1    5    5    0    0  0.25720658483E+01  0.27137066841E+02  0.57450233730E+03  0.57514865164E+03  0.00000000000E+00 0.  1.
          5    1    4    4  501    0  0.43501553124E+01  0.39849605679E+02  0.11592874750E+02  0.41937835769E+02  0.41800000000E+01 0. -1.
         -5    1    4    4    0  501 -0.35819351508E+02 -0.87220710465E+02  0.74201601860E+02  0.12005760449E+03  0.41800000000E+01 0. -1.
</event>
<event>
11    1  0.7105277E-009  0.1539087E+03  0.7561462E-02  0.1092950E+00
         22   -1    0    0    0    0  0.00000000000E+00  0.00000000000E+00  0.20995544755E+03  0.20995544755E+03  0.00000000000E+00 0. -1.
         22   -1    0    0    0    0 -0.00000000000E+00 -0.00000000000E+00 -0.92876576689E+03  0.92876576689E+03  0.00000000000E+00 0. -1.
        -24    2    1    2    0    0 -0.78090713437E+02  0.35692603521E+02 -0.56158797343E+03  0.57412378942E+03  0.82855007105E+02 0.  0.
         25    2    1    2    0    0  0.73314951798E+02 -0.78219310269E+02 -0.33033267851E+03  0.36913472291E+03  0.12508965789E+03 0.  0.
         24    2    1    2    0    0  0.47757616390E+01  0.42526706748E+02  0.17311033261E+03  0.19546270211E+03  0.80044687362E+02 0.  0.
        -11    1    5    5    0    0  0.36247510373E+02  0.43767660173E+02  0.88443100798E+02  0.10512693358E+03  0.00000000000E+00 0.  1.
         12    1    5    5    0    0 -0.31471748734E+02 -0.12409534247E+01  0.84667231809E+02  0.90335768531E+02  0.00000000000E+00 0. -1.
         13    1    3    3    0    0 -0.33861064505E+01  0.42984314672E+02 -0.16816727650E+03  0.17360688324E+03  0.00000000000E+00 0. -1.
        -14    1    3    3    0    0 -0.74704606987E+02 -0.72917111514E+01 -0.39342069694E+03  0.40051690618E+03  0.00000000000E+00 0.  1.
          5    1    4    4  501    0  0.39074041991E+02 -0.10722602498E+03 -0.18934145094E+03  0.22111503485E+03  0.41800000000E+01 0. -1.
         -5    1    4    4    0  501  0.34240909807E+02  0.29006714714E+02 -0.14099122757E+03  0.14801968807E+03  0.41800000000E+01 0. -1.
</event>
<event>
11    1  0.7105277E-009  0.1424544E+03  0.7561462E-02  0.1104848E+00
         22   -1    0    0    0    0  0.00000000000E+00  0.00000000000E+00  0.10571533686E+03  0.10571533686E+03  0.00000000000E+00 0. -1.
         22   -1    0    0    0    0 -0.00000000000E+00 -0.00000000000E+00 -0.11905079843E+04  0.11905079843E+04  0.00000000000E+00 0. -1.
        -24    2    1    2    0    0  0.65451050493E+02 -0.21538323636E+02 -0.10100499962E+04  0.10156609336E+04  0.81353535399E+02 0.  0.
         25    2    1    2    0    0 -0.45582822410E+02  0.48871567234E+02 -0.11438621383E+03  0.18220328648E+03  0.12509039895E+03 0.  0.
         24    2    1    2    0    0 -0.19868228083E+02 -0.27333243598E+02  0.39643562655E+02  0.98359101060E+02  0.83432895242E+02 0.  0.
        -11    1    5    5    0    0 -0.20036685105E+02 -0.42659423518E+02 -0.84501264576E+01  0.47882144919E+02  0.00000000000E+00 0.  1.
         12    1    5    5    0    0  0.16845702214E+00  0.15326179920E+02  0.48093689113E+02  0.50476956140E+02  0.00000000000E+00 0. -1.
         11    1    3    3    0    0  0.84666413701E+02 -0.19684573818E+02 -0.85743900949E+03  0.86183382334E+03  0.00000000000E+00 0. -1.
        -12    1    3    3    0    0 -0.19215363208E+02 -0.18537498179E+01 -0.15261098674E+03  0.15382711024E+03  0.00000000000E+00 0.  1.
          5    1    4    4  501    0  0.19526932329E+02  0.76930260778E+01 -0.10180790249E+03  0.10403271190E+03  0.41800000000E+01 0.  1.
         -5    1    4    4    0  501 -0.65109754739E+02  0.41178541156E+02 -0.12578311337E+02  0.78170574579E+02  0.41800000000E+01 0.  1.
</event>
<event>
11    1  0.7105277E-009  0.1351257E+03  0.7561462E-02  0.1113127E+00
         22   -1    0    0    0    0  0.00000000000E+00  0.00000000000E+00  0.33948167167E+03  0.33948167167E+03  0.00000000000E+00 0.  1.
         22   -1    0    0    0    0 -0.00000000000E+00 -0.00000000000E+00 -0.11239646772E+04  0.11239646772E+04  0.00000000000E+00 0.  1.
         24    2    1    2    0    0  0.12723878717E+02 -0.33943602562E+02 -0.10064795143E+04  0.10104047543E+04  0.81256934893E+02 0.  0.
         25    2    1    2    0    0 -0.61375184650E+02  0.18993844358E+02 -0.61970032606E+02  0.15367417478E+03  0.12509111735E+03 0.  0.
        -24    2    1    2    0    0  0.48651305933E+02  0.14949758203E+02  0.28396654138E+03  0.29936741982E+03  0.79958805533E+02 0.  0.
        -13    1    3    3    0    0  0.47399575349E+02 -0.17703945716E+02 -0.59504855040E+03  0.59719588643E+03  0.00000000000E+00 0.  1.
         14    1    3    3    0    0 -0.34675696633E+02 -0.16239656846E+02 -0.41143096392E+03  0.41320886785E+03  0.00000000000E+00 0. -1.
         11    1    5    5    0    0 -0.79171831906E+01  0.14670123502E+02  0.96145172490E+01  0.19244044668E+02  0.00000000000E+00 0. -1.
        -12    1    5    5    0    0  0.56568489124E+02  0.27963470134E+00  0.27435202414E+03  0.28012337515E+03  0.00000000000E+00 0.  1.
          5    1    4    4  501    0 -0.30642774537E+02  0.37473324327E+02 -0.93739537347E+02  0.10558315647E+03  0.41800000000E+01 0.  1.
         -5    1    4    4    0  501 -0.30732410113E+02 -0.18479479969E+02  0.31769504741E+02  0.48091018317E+02  0.41800000000E+01 0.  1.
</event>
<event>
11    1  0.7105277E-009  0.1452192E+03  0.7561462E-02  0.1101866E+00
         22   -1    0    0    0    0  0.00000000000E+00  0.00000000000E+00  0.17556751578E+04  0.17556751578E+04  0.00000000000E+00 0. -1.
         22   -1    0    0    0    0 -0.00000000000E+00 -0.00000000000E+00 -0.15868935666E+03  0.15868935666E+03  0.00000000000E+00 0. -1.
        -24    2    1    2    0    0 -0.70962762254E+02 -0.15716067494E+02 -0.12341606678E+03  0.16421555752E+03  0.80327550605E+02 0.  0.
         25    2    1    2    0    0  0.10254830025E+03 -0.19628404604E+01  0.47876630262E+03  0.50535598667E+03  0.12508994411E+03 0.  0.
         24    2    1    2    0    0 -0.31585537991E+02  0.17678907954E+02  0.12416355653E+04  0.12447929702E+04  0.80873183411E+02 0.  0.
        -11    1    5    5    0    0 -0.46847599795E+02  0.16907328712E+02  0.40957598163E+03  0.41259306841E+03  0.00000000000E+00 0.  1.
         12    1    5    5    0    0  0.15262061803E+02  0.77157924153E+00  0.83205958364E+03  0.83219990182E+03  0.00000000000E+00 0. -1.
         13    1    3    3    0    0 -0.82078345619E+02 -0.14473948814E+01 -0.12063313339E+03  0.14591539550E+03  0.00000000000E+00 0. -1.
        -14    1    3    3    0    0  0.11115583365E+02 -0.14268672612E+02 -0.27829333912E+01  0.18300162019E+02  0.00000000000E+00 0.  1.
          5    1    4    4  501    0  0.11072352145E+03  0.14288578411E+01  0.21931326966E+03  0.24571838043E+03  0.41800000000E+01 0. -1.
         -5    1    4    4    0  501 -0.81752212023E+01 -0.33916983015E+01  0.25945303296E+03  0.25963760624E+03  0.41800000000E+01 0. -1.
</event>
<event>
11    1  0.7105277E-009  0.1794695E+03  0.7561462E-02  0.1070073E+00
         22   -1    0    0    0    0  0.00000000000E+00  0.00000000000E+00  0.10806671324E+03  0.10806671324E+03  0.00000000000E+00 0.  1.
         22   -1    0    0    0    0 -0.00000000000E+00 -0.00000000000E+00 -0.80806273771E+03  0.80806273771E+03  0.00000000000E+00 0. -1.
        -24    2    1    2    0    0 -0.33567343741E+02 -0.24754312707E+02 -0.26068660431E+03  0.27606031513E+03  0.80698509048E+02 0.  0.
         25    2    1    2    0    0  0.15729755367E+03  0.34210403312E+02 -0.44781752638E+03  0.49203741299E+03  0.12508959495E+03 0.  0.
         24    2    1    2    0    0 -0.12373020993E+03 -0.94560906052E+01  0.85081062229E+01  0.14803172283E+03  0.80264690837E+02 0.  0.
        -11    1    5    5    0    0 -0.12831562797E+03  0.12665005962E+01 -0.71349150972E+01  0.12852008177E+03  0.00000000000E+00 0.  1.
         12    1    5    5    0    0  0.45854180471E+01 -0.10722591201E+02  0.15643021320E+02  0.19511641058E+02  0.00000000000E+00 0. -1.
         13    1    3    3    0    0 -0.26993798632E+02  0.79503540856E+01 -0.22669295732E+03  0.22843285708E+03  0.00000000000E+00 0. -1.
        -14    1    3    3    0    0 -0.65735451099E+01 -0.32704666792E+02 -0.33993646992E+02  0.47627458058E+02  0.00000000000E+00 0.  1.
          5    1    4    4  501    0  0.34331262594E+02  0.45789168855E+02 -0.26651605718E+03  0.27262348525E+03  0.41800000000E+01 0. -1.
         -5    1    4    4    0  501  0.12296629107E+03 -0.11578765543E+02 -0.18130146920E+03  0.21941392773E+03  0.41800000000E+01 0. -1.
</event>
<event>
11    1  0.7105277E-009  0.1498049E+03  0.7561462E-02  0.1097078E+00
         22   -1    0    0    0    0  0.00000000000E+00  0.00000000000E+00  0.11383547921E+04  0.11383547921E+04  0.00000000000E+00 0. -1.
         22   -1    0    0    0    0 -0.00000000000E+00 -0.00000000000E+00 -0.87805597539E+03  0.87805597539E+03  0.00000000000E+00 0.  1.
         24    2    1    2    0    0  0.43655168841E+01 -0.33333687074E+02 -0.85944281782E+03  0.86338097585E+03  0.75196807959E+02 0.  0.
         25    2    1    2    0    0 -0.15745751006E+02  0.10236309681E+03  0.61927047077E+03  0.64021052050E+03  0.12508981704E+03 0.  0.
        -24    2    1    2    0    0  0.11380234122E+02 -0.69029409732E+02  0.50047116376E+03  0.51281927114E+03  0.87279149629E+02 0.  0.
        -13    1    3    3    0    0 -0.24689979644E+02 -0.40006881154E+02 -0.66569809311E+03  0.66735604950E+03  0.00000000000E+00 0.  1.
         14    1    3    3    0    0  0.29055496528E+02  0.66731940802E+01 -0.19374472471E+03  0.19602492635E+03  0.00000000000E+00 0. -1.
         11    1    5    5    0    0  0.28914702984E+02 -0.22702240077E+02  0.39026571524E+03  0.39199334209E+03  0.00000000000E+00 0. -1.
        -12    1    5    5    0    0 -0.17534468861E+02 -0.46327169655E+02  0.11020544852E+03  0.12082592905E+03  0.00000000000E+00 0.  1.
          5    1    4    4  501    0 -0.53913164402E+02  0.10256960991E+03  0.53763303635E+03  0.54999446210E+03  0.41800000000E+01 0. -1.
         -5    1    4    4    0  501  0.38167413395E+02 -0.20651310902E+00  0.81637434419E+02  0.90216058391E+02  0.41800000000E+01 0. -1.
</event>
<event>
11    1  0.7105277E-009  0.1270464E+03  0.7561462E-02  0.1122952E+00
         22   -1    0    0    0    0  0.00000000000E+00  0.00000000000E+00  0.31577881151E+03  0.31577881151E+03  0.00000000000E+00 0. -1.
         22   -1    0    0    0    0 -0.00000000000E+00 -0.00000000000E+00 -0.38912685110E+03  0.38912685110E+03  0.00000000000E+00 0.  1.
        -24    2    1    2    0    0 -0.10286760782E+02 -0.53517209127E+01 -0.33463795278E+03  0.34475602933E+03  0.82095687818E+02 0.  0.
         25    2    1    2    0    0  0.22477335300E+02  0.21383014241E+02  0.59544626252E+02  0.14201941256E+03  0.12514586341E+03 0.  0.
         24    2    1    2    0    0 -0.12190574518E+02 -0.16031293328E+02  0.20174528694E+03  0.21813022072E+03  0.80461294531E+02 0.  0.
        -11    1    5    5    0    0  0.16482741040E+02  0.29880163929E+01  0.37480795026E+01  0.17165578758E+02  0.00000000000E+00 0.  1.
         12    1    5    5    0    0 -0.28673315558E+02 -0.19019309721E+02  0.19799720743E+03  0.20096464196E+03  0.00000000000E+00 0. -1.
         13    1    3    3    0    0 -0.41290640904E+02 -0.31636738938E+01 -0.10254423318E+03  0.11059044090E+03  0.00000000000E+00 0. -1.
        -14    1    3    3    0    0  0.31003880122E+02 -0.21880470189E+01 -0.23209371960E+03  0.23416558844E+03  0.00000000000E+00 0.  1.
          5    1    4    4  501    0  0.31470536119E+02  0.17056143435E+02 -0.32987720125E+02  0.48856614205E+02  0.41800000000E+01 0.  1.
         -5    1    4    4    0  501 -0.89932008192E+01  0.43268708054E+01  0.92532346378E+02  0.93162798359E+02  0.41800000000E+01 0.  1.
</event>
<event>
11    1  0.7105277E-009  0.1266729E+03  0.7561462E-02  0.1123426E+00
         22   -1    0    0    0    0  0.00000000000E+00  0.00000000000E+00  0.40283501669E+03  0.40283501669E+03  0.00000000000E+00 0.  1.
         22   -1    0    0    0    0 -0.00000000000E+00 -0.00000000000E+00 -0.14873712079E+04  0.14873712079E+04  0.00000000000E+00 0.  1.
         24    2    1    2    0    0  0.22926099757E+01  0.18651463126E+02 -0.12916026357E+04  0.12941017557E+04  0.78159148392E+02 0.  0.
         25    2    1    2    0    0 -0.12366278379E+02 -0.10190678253E+01 -0.16921194876E+03  0.21079444748E+03  0.12509057577E+03 0.  0.
        -24    2    1    2    0    0  0.10073668404E+02 -0.17632395300E+02  0.37627839325E+03  0.38531002139E+03  0.80411461828E+02 0.  0.
        -11    1    3    3    0    0 -0.28677636803E+02  0.89666373168E+01 -0.22401375567E+03  0.22601984463E+03  0.00000000000E+00 0.  1.
         12    1    3    3    0    0  0.30970246779E+02  0.96848258090E+01 -0.10675888800E+04  0.10680819111E+04  0.00000000000E+00 0. -1.
         11    1    5    5    0    0  0.12141455096E+01  0.16832156839E+02  0.15923721364E+02  0.23202598028E+02  0.00000000000E+00 0. -1.
        -12    1    5    5    0    0  0.88595228941E+01 -0.34464552139E+02  0.36035467189E+03  0.36210742336E+03  0.00000000000E+00 0.  1.
          5    1    4    4  501    0  0.30167386121E+01 -0.44579666578E+02 -0.15634362123E+03  0.16265684026E+03  0.41800000000E+01 0. -1.
         -5    1    4    4    0  501 -0.15383016991E+02  0.43560598753E+02 -0.12868327529E+02  0.48137607220E+02  0.41800000000E+01 0. -1.
</event>
<event>
11    1  0.7105277E-009  0.1335895E+03  0.7561462E-02  0.1114936E+00
         22   -1    0    0    0    0  0.00000000000E+00  0.00000000000E+00  0.10776355619E+04  0.10776355619E+04  0.00000000000E+00 0. -1.
         22   -1    0    0    0    0 -0.00000000000E+00 -0.00000000000E+00 -0.49640138703E+03  0.49640138703E+03  0.00000000000E+00 0.  1.
        -24    2    1    2    0    0 -0.33523008180E+02 -0.13919328259E+02 -0.45249988766E+03  0.46091464159E+03  0.79803626014E+02 0.  0.
         25    2    1    2    0    0  0.17749801283E+02  0.57878531452E+02  0.93452371444E+02  0.16746938368E+03  0.12509064271E+03 0.  0.
         24    2    1    2    0    0  0.15773206897E+02 -0.43959203193E+02  0.94028169108E+03  0.94565292364E+03  0.89154852905E+02 0.  0.
        -13    1    5    5    0    0  0.56324043621E+01  0.12070128150E+02  0.22795972976E+02  0.26402052124E+02  0.00000000000E+00 0.  1.
         14    1    5    5    0    0  0.10140802535E+02 -0.56029331343E+02  0.91748571811E+03  0.91925087151E+03  0.00000000000E+00 0. -1.
         11    1    3    3    0    0  0.24612562925E+02 -0.10493612343E+02 -0.94734712430E+02  0.98440641470E+02  0.00000000000E+00 0. -1.
        -12    1    3    3    0    0 -0.58135571106E+02 -0.34257159163E+01 -0.35776517523E+03  0.36247400012E+03  0.00000000000E+00 0.  1.
          5    1    4    4  501    0  0.15825815194E+02  0.36216179563E+02 -0.25007980644E+02  0.46956784223E+02  0.41800000000E+01 0. -1.
         -5    1    4    4    0  501  0.19239860889E+01  0.21662351889E+02  0.11846035209E+03  0.12051259946E+03  0.41800000000E+01 0. -1.
</event>
<event>
11    1  0.7105277E-009  0.1349062E+03  0.7561462E-02  0.1113384E+00
         22   -1    0    0    0    0  0.00000000000E+00  0.00000000000E+00  0.17127262011E+04  0.17127262011E+04  0.00000000000E+00 0.  1.
         22   -1    0    0    0    0 -0.00000000000E+00 -0.00000000000E+00 -0.91976554016E+02  0.91976554016E+02  0.00000000000E+00 0.  1.
        -24    2    1    2    0    0 -0.23204849468E+02  0.80047853749E+01 -0.55332395738E+02  0.10229290571E+03  0.82459826050E+02 0.  0.
         25    2    1    2    0    0 -0.23965229919E+02  0.17825306760E+02  0.35170894446E+03  0.37448482894E+03  0.12509049401E+03 0.  0.
         24    2    1    2    0    0  0.47170079388E+02 -0.25830092135E+02  0.13243730984E+04  0.13279250205E+04  0.80799419870E+02 0.  0.
        -11    1    5    5    0    0  0.60812066482E+02 -0.96497548435E+01  0.12128261361E+04  0.12143881017E+04  0.00000000000E+00 0.  1.
         12    1    5    5    0    0 -0.13641987094E+02 -0.16180337292E+02  0.11154696230E+03  0.11353691877E+03  0.00000000000E+00 0. -1.
         11    1    3    3    0    0  0.27733860339E+02  0.10184267922E+02 -0.37779316065E+01  0.29785215957E+02  0.00000000000E+00 0. -1.
        -12    1    3    3    0    0 -0.50938709807E+02 -0.21794825475E+01 -0.51554464131E+02  0.72507689750E+02  0.00000000000E+00 0.  1.
          5    1    4    4  501    0 -0.18742628804E+01  0.64540186832E+02  0.27055868456E+03  0.27818774734E+03  0.41800000000E+01 0. -1.
         -5    1    4    4    0  501 -0.22090967039E+02 -0.46714880071E+02  0.81150259892E+02  0.96297081604E+02  0.41800000000E+01 0. -1.
</event>
<event>
11    1  0.7105277E-009  0.2214134E+03  0.7561462E-02  0.1040336E+00
         22   -1    0    0    0    0  0.00000000000E+00  0.00000000000E+00  0.27999943407E+04  0.27999943407E+04  0.00000000000E+00 0. -1.
         22   -1    0    0    0    0 -0.00000000000E+00 -0.00000000000E+00 -0.64453243470E+02  0.64453243470E+02  0.00000000000E+00 0. -1.
         24    2    1    2    0    0 -0.62278491162E+02 -0.24204371634E+02  0.15475455998E+02  0.10807381973E+03  0.83522444320E+02 0.  0.
         25    2    1    2    0    0 -0.45712926488E+02  0.17660447096E+03  0.99035291128E+03  0.10147538186E+04  0.12509041840E+03 0.  0.
        -24    2    1    2    0    0  0.10799141765E+03 -0.15240009933E+03  0.17297127300E+04  0.17416199458E+04  0.80286803695E+02 0.  0.
        -13    1    3    3    0    0 -0.61617264114E+02 -0.27447398893E+02  0.43233076652E+02  0.80119572264E+02  0.00000000000E+00 0.  1.
         14    1    3    3    0    0 -0.66122704740E+00  0.32430272590E+01 -0.27757620654E+02  0.27954247466E+02  0.00000000000E+00 0. -1.
         13    1    5    5    0    0  0.14799991044E+02 -0.27058835426E+02  0.64312077539E+03  0.64385988542E+03  0.00000000000E+00 0. -1.
        -14    1    5    5    0    0  0.93191426606E+02 -0.12534126390E+03  0.10865919546E+04  0.10977600604E+04  0.00000000000E+00 0.  1.
          5    1    4    4  501    0  0.29373764125E+02  0.12556385205E+03  0.52628539610E+03  0.54186980863E+03  0.41800000000E+01 0.  1.
         -5    1    4    4    0  501 -0.75086690613E+02  0.51040618914E+02  0.46406751518E+03  0.47288401001E+03  0.41800000000E+01 0.  1.
</event>
<event>
11    1  0.7105277E-009  0.1466240E+03  0.7561462E-02  0.1100379E+00
         22   -1    0    0    0    0  0.00000000000E+00  0.00000000000E+00  0.51457253524E+03  0.51457253524E+03  0.00000000000E+00 0. -1.
         22   -1    0    0    0    0 -0.00000000000E+00 -0.00000000000E+00 -0.36344662954E+03  0.36344662954E+03  0.00000000000E+00 0.  1.
        -24    2    1    2    0    0  0.28743780987E+02 -0.70512693508E+02 -0.31951443649E+03  0.33923460347E+03  0.84807995921E+02 0.  0.
         25    2    1    2    0    0 -0.11724812619E+02  0.85651993857E+02  0.18313661160E+03  0.23803430734E+03  0.12509027812E+03 0.  0.
         24    2    1    2    0    0 -0.17018968368E+02 -0.15139300349E+02  0.28750373059E+03  0.30075025398E+03  0.85284678972E+02 0.  0.
        -11    1    5    5    0    0 -0.47483500143E+02 -0.27619487288E+02  0.19361966540E+03  0.20126125731E+03  0.00000000000E+00 0.  1.
         12    1    5    5    0    0  0.30464531776E+02  0.12480186939E+02  0.93884065196E+02  0.99488996678E+02  0.00000000000E+00 0. -1.
         13    1    3    3    0    0 -0.40815234484E-01  0.14477585227E+02 -0.11720005681E+02  0.18626880389E+02  0.00000000000E+00 0. -1.
        -14    1    3    3    0    0  0.28784596221E+02 -0.84990278735E+02 -0.30779443081E+03  0.32060772308E+03  0.00000000000E+00 0.  1.
          5    1    4    4  501    0  0.38771872329E+02 -0.10250899502E+02  0.29467645711E+02  0.49941501461E+02  0.41800000000E+01 0.  1.
         -5    1    4    4    0  501 -0.50496684948E+02  0.95902893359E+02  0.15366896589E+03  0.18809280588E+03  0.41800000000E+01 0.  1.
</event>
<event>
11    1  0.7105277E-009  0.1655978E+03  0.7561462E-02  0.1081927E+00
         22   -1    0    0    0    0  0.00000000000E+00  0.00000000000E+00  0.19441649500E+04  0.19441649500E+04  0.00000000000E+00 0.  1.
         22   -1    0    0    0    0 -0.00000000000E+00 -0.00000000000E+00 -0.12546032571E+04  0.12546032571E+04  0.00000000000E+00 0.  1.
        -24    2    1    2    0    0  0.85487513542E+02  0.25625527647E+02 -0.50809388451E+03  0.52319113238E+03  0.87205406296E+02 0.  0.
         25    2    1    2    0    0 -0.19357124108E+03 -0.31220152270E+02 -0.71821338866E+03  0.75493279013E+03  0.12509405533E+03 0.  0.
         24    2    1    2    0    0  0.10808372753E+03  0.55946246229E+01  0.19158689661E+04  0.19206442846E+04  0.81284566033E+02 0.  0.
        -11    1    5    5    0    0  0.94765713203E+02 -0.88601386233E+01  0.18332691958E+04  0.18357382675E+04  0.00000000000E+00 0.  1.
         12    1    5    5    0    0  0.13318014331E+02  0.14454763246E+02  0.82599770341E+02  0.84906017140E+02  0.00000000000E+00 0. -1.
         11    1    3    3    0    0  0.72104888433E+01 -0.23510916184E+02 -0.20078837428E+03  0.20228871835E+03  0.00000000000E+00 0. -1.
        -12    1    3    3    0    0  0.78277024699E+02  0.49136443831E+02 -0.30730551023E+03  0.32090241403E+03  0.00000000000E+00 0.  1.
          5    1    4    4  501    0 -0.56580004955E+02 -0.69872007077E+02 -0.26407071011E+03  0.27898782531E+03  0.41800000000E+01 0. -1.
         -5    1    4    4    0  501 -0.13699123612E+03  0.38651854807E+02 -0.45414267855E+03  0.47594496481E+03  0.41800000000E+01 0. -1.
</event>
<event>
11    1  0.7105277E-009  0.2315733E+03  0.7561462E-02  0.1034201E+00
         22   -1    0    0    0    0  0.00000000000E+00  0.00000000000E+00  0.10458652526E+04  0.10458652526E+04  0.00000000000E+00 0. -1.
         22   -1    0    0    0    0 -0.00000000000E+00 -0.00000000000E+00 -0.44040373526E+03  0.44040373526E+03  0.00000000000E+00 0.  1.
        -24    2    1    2    0    0  0.31850903702E+02  0.69402877732E+02 -0.38276282702E+03  0.39870135667E+03  0.81388884722E+02 0.  0.
         25    2    1    2    0    0 -0.20198365023E+03  0.25685361862E+02  0.44983148518E+03  0.50936680058E+03  0.12509612184E+03 0.  0.
         24    2    1    2    0    0  0.17013274653E+03 -0.95088239594E+02  0.53839285921E+03  0.57820083065E+03  0.80389084863E+02 0.  0.
        -11    1    5    5    0    0  0.50433403598E+02 -0.16885362544E+02  0.66670406437E+02  0.85285325591E+02  0.00000000000E+00 0.  1.
         12    1    5    5    0    0  0.11969934293E+03 -0.78202877050E+02  0.47172245277E+03  0.49291550506E+03  0.00000000000E+00 0. -1.
         11    1    3    3    0    0  0.27458304435E+02 -0.11578682561E+02 -0.12380894198E+03  0.12734472304E+03  0.00000000000E+00 0. -1.
        -12    1    3    3    0    0  0.43925992664E+01  0.80981560292E+02 -0.25895388504E+03  0.27135663363E+03  0.00000000000E+00 0.  1.
          5    1    4    4  501    0 -0.15577701263E+03  0.20191537753E+02  0.19570887466E+03  0.25098528220E+03  0.41800000000E+01 0. -1.
         -5    1    4    4    0  501 -0.46206637601E+02  0.54938241093E+01  0.25412261052E+03  0.25838151838E+03  0.41800000000E+01 0. -1.
</event>
<event>
11    1  0.7105277E-009  0.3734214E+03  0.7561462E-02  0.9731607E-01
         22   -1    0    0    0    0  0.00000000000E+00  0.00000000000E+00  0.49562638512E+03  0.49562638512E+03  0.00000000000E+00 0. -1.
         22   -1    0    0    0    0 -0.00000000000E+00 -0.00000000000E+00 -0.54845246023E+03  0.54845246023E+03  0.00000000000E+00 0.  1.
        -24    2    1    2    0    0 -0.78993528277E+02 -0.16920426366E+02 -0.25400744278E+03  0.27848533494E+03  0.80672315284E+02 0.  0.
         25    2    1    2    0    0 -0.18808776443E+03 -0.25791693532E+03  0.51466770924E+02  0.34669571064E+03  0.12510369546E+03 0.  0.
         24    2    1    2    0    0  0.26708129270E+03  0.27483736168E+03  0.14971459675E+03  0.41889779976E+03  0.78695068932E+02 0.  0.
        -13    1    5    5    0    0  0.82372363655E+02  0.13446953633E+03  0.78948127099E+02  0.17635211728E+03  0.00000000000E+00 0.  1.
         14    1    5    5    0    0  0.18470892905E+03  0.14036782535E+03  0.70766469650E+02  0.24254568248E+03  0.00000000000E+00 0. -1.
         11    1    3    3    0    0 -0.48631338993E+02 -0.19854424469E+02 -0.51049483638E+02  0.73247901560E+02  0.00000000000E+00 0. -1.
        -12    1    3    3    0    0 -0.30362189284E+02  0.29339981028E+01 -0.20295795914E+03  0.20523743338E+03  0.00000000000E+00 0.  1.
          5    1    4    4  501    0 -0.11878125449E+03 -0.86999957320E+02 -0.20420671950E+02  0.14870257306E+03  0.41800000000E+01 0.  1.
         -5    1    4    4    0  501 -0.69306509943E+02 -0.17091697800E+03  0.71887442874E+02  0.19799313759E+03  0.41800000000E+01 0.  1.
</event>
<event>
11    1  0.7105277E-009  0.2262481E+03  0.7561462E-02  0.1037373E+00
         22   -1    0    0    0    0  0.00000000000E+00  0.00000000000E+00  0.51350079779E+03  0.51350079779E+03  0.00000000000E+00 0.  1.
         22   -1    0    0    0    0 -0.00000000000E+00 -0.00000000000E+00 -0.22572350588E+03  0.22572350588E+03  0.00000000000E+00 0. -1.
         24    2    1    2    0    0  0.82666276321E+02  0.18474767089E+02 -0.87473402023E+02  0.14631022645E+03  0.81117544596E+02 0.  0.
         25    2    1    2    0    0  0.13213126801E+03 -0.33374116057E+02  0.44999454777E+02  0.19038079100E+03  0.12508953212E+03 0.  0.
        -24    2    1    2    0    0 -0.21479754433E+03  0.14899348968E+02  0.33025123915E+03  0.40253328622E+03  0.81284622824E+02 0.  0.
        -13    1    3    3    0    0  0.23315693113E+02  0.42415562993E+02 -0.58867114664E+02  0.76210489556E+02  0.00000000000E+00 0.  1.
         14    1    3    3    0    0  0.59350583208E+02 -0.23940795904E+02 -0.28606287359E+02  0.70099736890E+02  0.00000000000E+00 0. -1.
         13    1    5    5    0    0 -0.16559712636E+03 -0.55439006505E+01  0.18779440521E+03  0.25043937734E+03  0.00000000000E+00 0. -1.
        -14    1    5    5    0    0 -0.49200417966E+02  0.20443249619E+02  0.14245683394E+03  0.15209390889E+03  0.00000000000E+00 0.  1.
          5    1    4    4  501    0  0.14385552907E+03 -0.90033547108E+01  0.80780396700E+01  0.14442368492E+03  0.41800000000E+01 0.  1.
         -5    1    4    4    0  501 -0.11724261065E+02 -0.24370761346E+02  0.36921415107E+02  0.45957106084E+02  0.41800000000E+01 0.  1.
</event>
<event>
11    1  0.7105277E-009  0.1360453E+03  0.7561462E-02  0.1112057E+00
         22   -1    0    0    0    0  0.00000000000E+00  0.00000000000E+00  0.14887281553E+04  0.14887281553E+04  0.00000000000E+00 0.  1.
         22   -1    0    0    0    0 -0.00000000000E+00 -0.00000000000E+00 -0.45968840120E+02  0.45968840120E+02  0.00000000000E+00 0. -1.
         24    2    1    2    0    0 -0.36057739169E+02  0.35565014699E+02  0.38591551526E+02  0.10146995974E+03  0.79005152089E+02 0.  0.
         25    2    1    2    0    0  0.38276324427E+02 -0.60556159658E+02  0.39409990667E+03  0.41963323144E+03  0.12508072194E+03 0.  0.
        -24    2    1    2    0    0 -0.22185852580E+01  0.24991144959E+02  0.10100678570E+04  0.10135938042E+04  0.80658817512E+02 0.  0.
        -13    1    3    3    0    0  0.19650843439E+02  0.11518446358E+02  0.33593469704E+02  0.40587577669E+02  0.00000000000E+00 0.  1.
         14    1    3    3    0    0 -0.55708582607E+02  0.24046568341E+02  0.49980818225E+01  0.60882382074E+02  0.00000000000E+00 0. -1.
         11    1    5    5    0    0 -0.14774027391E+02 -0.39126520294E+01  0.37219749644E+02  0.40235438295E+02  0.00000000000E+00 0. -1.
        -12    1    5    5    0    0  0.12555442133E+02  0.28903796989E+02  0.97284810731E+03  0.97335836592E+03  0.00000000000E+00 0.  1.
          5    1    4    4  501    0 -0.11219808498E+02  0.33877596730E+02  0.12771936772E+03  0.13267737168E+03  0.41800000000E+01 0.  1.
         -5    1    4    4    0  501  0.49496132924E+02 -0.94433756388E+02  0.26638053895E+03  0.28695585976E+03  0.41800000000E+01 0.  1.
</event>
<event>
11    1  0.7105277E-009  0.1596999E+03  0.7561462E-02  0.1087360E+00
         22   -1    0    0    0    0  0.00000000000E+00  0.00000000000E+00  0.33140488050E+04  0.33140488050E+04  0.00000000000E+00 0. -1.
         22   -1    0    0    0    0 -0.00000000000E+00 -0.00000000000E+00 -0.10373794126E+04  0.10373794126E+04  0.00000000000E+00 0.  1.
         24    2    1    2    0    0  0.18334814740E+02 -0.34164690728E+02 -0.96083909297E+03  0.96492690001E+03  0.79804563002E+02 0.  0.
         25    2    1    2    0    0 -0.18722416031E+02  0.13287539151E+03  0.41597434762E+02  0.18810561212E+03  0.12508787391E+03 0.  0.
        -24    2    1    2    0    0  0.38760129160E+00 -0.98710700783E+02  0.31959110506E+04  0.31983957054E+04  0.78381707633E+02 0.  0.
        -13    1    3    3    0    0  0.43584333875E+02  0.34555722442E+00 -0.59572560130E+03  0.59731792675E+03  0.00000000000E+00 0.  1.
         14    1    3    3    0    0 -0.25249519135E+02 -0.34510247952E+02 -0.36511349166E+03  0.36760897326E+03  0.00000000000E+00 0. -1.
         11    1    5    5    0    0 -0.18323795452E+02 -0.10071600863E+03  0.29455808535E+04  0.29473591637E+04  0.00000000000E+00 0. -1.
        -12    1    5    5    0    0  0.18711396743E+02  0.20053078438E+01  0.25033019715E+03  0.25103654163E+03  0.00000000000E+00 0.  1.
          5    1    4    4  501    0 -0.55420526384E+02  0.96166238320E+02  0.67469841298E+02  0.12995780862E+03  0.41800000000E+01 0.  1.
         -5    1    4    4    0  501  0.36698110353E+02  0.36709153191E+02 -0.25872406536E+02  0.58147803496E+02  0.41800000000E+01 0.  1.
</event>
<event>
11    1  0.7105277E-009  0.1446756E+03  0.7561462E-02  0.1102447E+00
         22   -1    0    0    0    0  0.00000000000E+00  0.00000000000E+00  0.32727628575E+03  0.32727628575E+03  0.00000000000E+00 0. -1.
         22   -1    0    0    0    0 -0.00000000000E+00 -0.00000000000E+00 -0.81591292721E+03  0.81591292721E+03  0.00000000000E+00 0.  1.
        -24    2    1    2    0    0  0.48410951969E+02 -0.53399189852E+02 -0.68658583039E+03  0.69510498039E+03  0.81090921317E+02 0.  0.
         25    2    1    2    0    0 -0.57666115486E+02  0.54572735615E+02 -0.73135116048E+02  0.16523051491E+03  0.12509521777E+03 0.  0.
         24    2    1    2    0    0  0.92551635164E+01 -0.11735457630E+01  0.27108430499E+03  0.28285371766E+03  0.80202804960E+02 0.  0.
        -13    1    5    5    0    0  0.34533663136E+02  0.15306626764E+02  0.70219284302E+02  0.79734651190E+02  0.00000000000E+00 0.  1.
         14    1    5    5    0    0 -0.25278499620E+02 -0.16480172527E+02  0.20086502068E+03  0.20311906647E+03  0.00000000000E+00 0. -1.
         13    1    3    3    0    0 -0.16191563261E+02  0.91040248196E+01 -0.12368965086E+03  0.12507669535E+03  0.00000000000E+00 0. -1.
        -14    1    3    3    0    0  0.64602515231E+02 -0.62503214671E+02 -0.56289617953E+03  0.57002828505E+03  0.00000000000E+00 0.  1.
          5    1    4    4  501    0  0.10105859119E+02 -0.34434080091E+02 -0.20264400871E+02  0.41424058262E+02  0.41800000000E+01 0. -1.
         -5    1    4    4    0  501 -0.67771974604E+02  0.89006815706E+02 -0.52870715177E+02  0.12380645665E+03  0.41800000000E+01 0. -1.
</event>
<event>
11    1  0.7105277E-009  0.1531084E+03  0.7561462E-02  0.1093744E+00
         22   -1    0    0    0    0  0.00000000000E+00  0.00000000000E+00  0.25735617525E+03  0.25735617525E+03  0.00000000000E+00 0.  1.
         22   -1    0    0    0    0 -0.00000000000E+00 -0.00000000000E+00 -0.23351289337E+04  0.23351289337E+04  0.00000000000E+00 0.  1.
         24    2    1    2    0    0  0.41405738411E+02  0.77551909932E+02 -0.15436948936E+04  0.15482699909E+04  0.80108090946E+02 0.  0.
         25    2    1    2    0    0 -0.72233618329E+01 -0.95552213852E+02 -0.77270280704E+03  0.78860614020E+03  0.12509042259E+03 0.  0.
        -24    2    1    2    0    0 -0.34182376578E+02  0.18000303920E+02  0.23862494218E+03  0.25560897787E+03  0.83076114091E+02 0.  0.
        -11    1    3    3    0    0 -0.20991510453E+02  0.39744151295E+02 -0.49274211851E+03  0.49478787013E+03  0.00000000000E+00 0.  1.
         12    1    3    3    0    0  0.62397248863E+02  0.37807758637E+02 -0.10509527751E+04  0.10534821208E+04  0.00000000000E+00 0. -1.
         11    1    5    5    0    0 -0.56608899327E+02  0.87437731623E+00  0.10766261360E+03  0.12164115416E+03  0.00000000000E+00 0. -1.
        -12    1    5    5    0    0  0.22426522749E+02  0.17125926603E+02  0.13096232857E+03  0.13396782371E+03  0.00000000000E+00 0.  1.
          5    1    4    4  501    0  0.48766927652E+02 -0.28906621833E+02 -0.47565553063E+03  0.47904014679E+03  0.41800000000E+01 0.  1.
         -5    1    4    4    0  501 -0.55990289485E+02 -0.66645592019E+02 -0.29704727641E+03  0.30956599341E+03  0.41800000000E+01 0.  1.
</event>
<event>
11    1  0.7105277E-009  0.2035939E+03  0.7561462E-02  0.1052011E+00
         22   -1    0    0    0    0  0.00000000000E+00  0.00000000000E+00  0.24415767679E+03  0.24415767679E+03  0.00000000000E+00 0. -1.
         22   -1    0    0    0    0 -0.00000000000E+00 -0.00000000000E+00 -0.17062677557E+04  0.17062677557E+04  0.00000000000E+00 0. -1.
        -24    2    1    2    0    0  0.10872775790E+03 -0.12069702858E+03 -0.15609731710E+04  0.15714709715E+04  0.80587069929E+02 0.  0.
         25    2    1    2    0    0 -0.50336906943E+02  0.13600168270E+03 -0.52060482304E+02  0.19846310674E+03  0.12508816499E+03 0.  0.
         24    2    1    2    0    0 -0.58390850953E+02 -0.15304654128E+02  0.15092357435E+03  0.18049135424E+03  0.78456865537E+02 0.  0.
        -13    1    5    5    0    0  0.79942627267E+01  0.17988038261E+02  0.12253878614E+02  0.23186963970E+02  0.00000000000E+00 0.  1.
         14    1    5    5    0    0 -0.66385113679E+02 -0.33292692389E+02  0.13866969573E+03  0.15730439027E+03  0.00000000000E+00 0. -1.
         11    1    3    3    0    0  0.79202003166E+02 -0.32780154335E+02 -0.89008093139E+03  0.89419883709E+03  0.00000000000E+00 0. -1.
        -12    1    3    3    0    0  0.29525754730E+02 -0.87916874242E+02 -0.67089223956E+03  0.67727213443E+03  0.00000000000E+00 0.  1.
          5    1    4    4  501    0  0.37257660095E+02  0.12165402871E+02 -0.58984593331E+01  0.39854667045E+02  0.41800000000E+01 0. -1.
         -5    1    4    4    0  501 -0.87594567039E+02  0.12383627983E+03 -0.46162022971E+02  0.15860843969E+03  0.41800000000E+01 0. -1.
</event>
<event>
11    1  0.7105277E-009  0.2403722E+03  0.7561462E-02  0.1029157E+00
         22   -1    0    0    0    0  0.00000000000E+00  0.00000000000E+00  0.10312890208E+04  0.10312890208E+04  0.00000000000E+00 0. -1.
         22   -1    0    0    0    0 -0.00000000000E+00 -0.00000000000E+00 -0.37480303252E+03  0.37480303252E+03  0.00000000000E+00 0. -1.
        -24    2    1    2    0    0 -0.19425085330E+03 -0.62321886825E+02 -0.29426960574E+03  0.36711302869E+03  0.80993600901E+02 0.  0.
         25    2    1    2    0    0  0.22244997231E+03  0.22980623931E+02  0.36515485548E+03  0.44609081152E+03  0.12508734701E+03 0.  0.
         24    2    1    2    0    0 -0.28199119011E+02  0.39341262894E+02  0.58560073858E+03  0.59288821315E+03  0.79027102894E+02 0.  0.
        -11    1    5    5    0    0  0.25102541557E+02  0.14182817497E+02  0.11274586878E+03  0.11637405566E+03  0.00000000000E+00 0.  1.
         12    1    5    5    0    0 -0.53301660568E+02  0.25158445397E+02  0.47285486980E+03  0.47651415749E+03  0.00000000000E+00 0. -1.
         13    1    3    3    0    0 -0.18810608612E+03 -0.35780314332E+02 -0.24664290655E+03  0.31224486206E+03  0.00000000000E+00 0. -1.
        -14    1    3    3    0    0 -0.61447671795E+01 -0.26541572493E+02 -0.47626699190E+02  0.54868166635E+02  0.00000000000E+00 0.  1.
          5    1    4    4  501    0  0.65251402867E+02 -0.41018365343E+02  0.63541779796E+02  0.99976407472E+02  0.41800000000E+01 0. -1.
         -5    1    4    4    0  501  0.15719856944E+03  0.63998989274E+02  0.30161307569E+03  0.34611440404E+03  0.41800000000E+01 0. -1.
</event>
<event>
11    1  0.8526459E-009  0.1569228E+03  0.7561462E-02  0.1090008E+00
         22   -1    0    0    0    0  0.00000000000E+00  0.00000000000E+00  0.62921219402E+03  0.62921219402E+03  0.00000000000E+00 0. -1.
         22   -1    0    0    0    0 -0.00000000000E+00 -0.00000000000E+00 -0.60765861313E+03  0.60765861313E+03  0.00000000000E+00 0. -1.
        -24    2    1    2    0    0 -0.97170636430E+01 -0.60941342201E+01 -0.45051023129E+03  0.45789389298E+03  0.81091238311E+02 0.  0.
         25    2    1    2    0    0 -0.85454599579E+02  0.87134221369E+01 -0.10671947214E+03  0.18551111955E+03  0.12508763899E+03 0.  0.
         24    2    1    2    0    0  0.95171663222E+02 -0.26192879168E+01  0.57878328432E+03  0.59346579463E+03  0.90261027187E+02 0.  0.
        -11    1    5    5    0    0  0.36629426363E+01 -0.31146417826E+02  0.88286372703E+02  0.93690981941E+02  0.00000000000E+00 0.  1.
         12    1    5    5    0    0  0.91508720586E+02  0.28527129909E+02  0.49049691162E+03  0.49977481268E+03  0.00000000000E+00 0. -1.
         11    1    3    3    0    0  0.17963153611E+01  0.51649046094E+00 -0.44225800524E+03  0.44226195485E+03  0.00000000000E+00 0. -1.
        -12    1    3    3    0    0 -0.11513379004E+02 -0.66106246810E+01 -0.82522260520E+01  0.15631938126E+02  0.00000000000E+00 0.  1.
          5    1    4    4  501    0  0.21109403154E+02  0.53523597578E+01  0.12550256746E+02  0.25480109908E+02  0.41800000000E+01 0. -1.
         -5    1    4    4    0  501 -0.10656400273E+03  0.33610623791E+01 -0.11926972888E+03  0.16003100964E+03  0.41800000000E+01 0. -1.
</event>
<event>
11    1  0.7105277E-009  0.1396759E+03  0.7561462E-02  0.1107921E+00
         22   -1    0    0    0    0  0.00000000000E+00  0.00000000000E+00  0.21931570243E+03  0.21931570243E+03  0.00000000000E+00 0. -1.
         22   -1    0    0    0    0 -0.00000000000E+00 -0.00000000000E+00 -0.35951338000E+03  0.35951338000E+03  0.00000000000E+00 0.  1.
        -24    2    1    2    0    0 -0.20178510308E+02  0.45362617705E+02 -0.23398165576E+03  0.25219464541E+03  0.79936128131E+02 0.  0.
         25    2    1    2    0    0 -0.30025016449E+01 -0.97733620061E+02 -0.37207438371E+02  0.16307224139E+03  0.12508911598E+03 0.  0.
         24    2    1    2    0    0  0.23181011953E+02  0.52371002356E+02  0.13099141656E+03  0.16356219562E+03  0.79459168269E+02 0.  0.
        -13    1    5    5    0    0  0.29520803864E+02  0.68189417490E+01  0.10795149437E+03  0.11212270494E+03  0.00000000000E+00 0.  1.
         14    1    5    5    0    0 -0.63397919114E+01  0.45552060607E+02  0.23039922194E+02  0.51439490683E+02  0.00000000000E+00 0. -1.
         11    1    3    3    0    0  0.25874056904E+02  0.27510597632E+02 -0.15077244324E+03  0.15543046498E+03  0.00000000000E+00 0. -1.
        -12    1    3    3    0    0 -0.46052567212E+02  0.17852020073E+02 -0.83209212519E+02  0.96764180436E+02  0.00000000000E+00 0.  1.
          5    1    4    4  501    0  0.51283715879E+00  0.24495643376E+02 -0.32122225431E+02  0.40615382714E+02  0.41800000000E+01 0. -1.
         -5    1    4    4    0  501 -0.35153388037E+01 -0.12222926344E+03 -0.50852129403E+01  0.12245685868E+03  0.41800000000E+01 0. -1.
</event>
<event>
11    1  0.7105277E-009  0.1496085E+03  0.7561462E-02  0.1097279E+00
         22   -1    0    0    0    0  0.00000000000E+00  0.00000000000E+00  0.52998340656E+03  0.52998340656E+03  0.00000000000E+00 0.  1.
         22   -1    0    0    0    0 -0.00000000000E+00 -0.00000000000E+00 -0.12516124819E+04  0.12516124819E+04  0.00000000000E+00 0.  1.
         24    2    1    2    0    0 -0.13656469235E+02  0.72930617377E+02 -0.11473661837E+04  0.11526548848E+04  0.81601163638E+02 0.  0.
         25    2    1    2    0    0  0.94438592810E+02 -0.60571419304E+02 -0.19515516864E+02  0.16916152195E+03  0.12508885027E+03 0.  0.
        -24    2    1    2    0    0 -0.80782123575E+02 -0.12359198072E+02  0.44525262521E+03  0.45977948170E+03  0.80428665746E+02 0.  0.
        -11    1    3    3    0    0  0.33066239847E+02  0.45015328129E+02 -0.58868450800E+03  0.59132834022E+03  0.00000000000E+00 0.  1.
         12    1    3    3    0    0 -0.46722709082E+02  0.27915289247E+02 -0.55868167566E+03  0.56132654456E+03  0.00000000000E+00 0. -1.
         13    1    5    5    0    0  0.89578290109E+01 -0.11004145276E+02  0.16627921048E+02  0.21859132467E+02  0.00000000000E+00 0. -1.
        -14    1    5    5    0    0 -0.89739952586E+02 -0.13550527968E+01  0.42862470416E+03  0.43792034924E+03  0.00000000000E+00 0.  1.
          5    1    4    4  501    0  0.65664348292E+02 -0.76616824422E+02  0.33671900156E+02  0.10645756752E+03  0.41800000000E+01 0. -1.
         -5    1    4    4    0  501  0.28774244518E+02  0.16045405118E+02 -0.53187417019E+02  0.62703954438E+02  0.41800000000E+01 0. -1.
</event>
<event>
11    1  0.7105277E-009  0.1386905E+03  0.7561462E-02  0.1109030E+00
         22   -1    0    0    0    0  0.00000000000E+00  0.00000000000E+00  0.77151536110E+03  0.77151536110E+03  0.00000000000E+00 0. -1.
         22   -1    0    0    0    0 -0.00000000000E+00 -0.00000000000E+00 -0.61098606654E+03  0.61098606654E+03  0.00000000000E+00 0. -1.
         24    2    1    2    0    0  0.47647444285E+02 -0.38638248750E+02 -0.48294149040E+03  0.49337554969E+03  0.80148341671E+02 0.  0.
         25    2    1    2    0    0 -0.48065402424E+02  0.18588085811E+02 -0.82399561216E+02  0.15840989086E+03  0.12509278952E+03 0.  0.
        -24    2    1    2    0    0  0.41795813888E+00  0.20050162938E+02  0.72587034617E+03  0.73071598709E+03  0.81583764378E+02 0.  0.
        -11    1    3    3    0    0  0.48262199575E+02 -0.32561738764E+02 -0.15813554401E+03  0.16851218656E+03  0.00000000000E+00 0.  1.
         12    1    3    3    0    0 -0.61475529008E+00 -0.60765099854E+01 -0.32480594639E+03  0.32486336313E+03  0.00000000000E+00 0. -1.
         11    1    5    5    0    0  0.29656820172E+02 -0.18715819561E+02  0.33953547230E+03  0.34134168488E+03  0.00000000000E+00 0. -1.
        -12    1    5    5    0    0 -0.29238862033E+02  0.38765982499E+02  0.38633487387E+03  0.38937430221E+03  0.00000000000E+00 0.  1.
          5    1    4    4  501    0 -0.70249504862E+02  0.54430065641E+02 -0.72850551771E+02  0.11498826145E+03  0.41800000000E+01 0.  1.
         -5    1    4    4    0  501  0.22184102438E+02 -0.35841979829E+02 -0.95490094456E+01  0.43421629408E+02  0.41800000000E+01 0.  1.
</event>
<event>
11    1  0.7105277E-009  0.1300716E+03  0.7561462E-02  0.1119181E+00
         22   -1    0    0    0    0  0.00000000000E+00  0.00000000000E+00  0.46402827795E+04  0.46402827795E+04  0.00000000000E+00 0.  1.
         22   -1    0    0    0    0 -0.00000000000E+00 -0.00000000000E+00 -0.19705614783E+02  0.19705614783E+02  0.00000000000E+00 0. -1.
        -24    2    1    2    0    0  0.15475950962E+01  0.14445738029E+02  0.95776117077E+02  0.12593332764E+03  0.80467782434E+02 0.  0.
         25    2    1    2    0    0 -0.34177978034E+02 -0.25884290661E+02  0.11203446206E+04  0.11281218983E+04  0.12509523476E+03 0.  0.
         24    2    1    2    0    0  0.32630382938E+02  0.11438552632E+02  0.34044564270E+04  0.34059331683E+04  0.94136079506E+02 0.  0.
        -13    1    5    5    0    0  0.60728234424E+02  0.21241726833E+02  0.28058443801E+04  0.28065818738E+04  0.00000000000E+00 0.  1.
         14    1    5    5    0    0 -0.28097851486E+02 -0.98031742015E+01  0.59861204694E+03  0.59935129450E+03  0.00000000000E+00 0. -1.
         11    1    3    3    0    0  0.25897252427E+02  0.33774928902E+02  0.26855401743E+02  0.50325203511E+02  0.00000000000E+00 0. -1.
        -12    1    3    3    0    0 -0.24349657331E+02 -0.19329190873E+02  0.68920715334E+02  0.75608124127E+02  0.00000000000E+00 0.  1.
          5    1    4    4  501    0 -0.79361240396E+02 -0.68719134660E+00  0.73906686830E+03  0.74332764440E+03  0.41800000000E+01 0.  1.
         -5    1    4    4    0  501  0.45183262362E+02 -0.25197099314E+02  0.38127775233E+03  0.38479425390E+03  0.41800000000E+01 0.  1.
</event>
<event>
11    1  0.7105277E-009  0.2124214E+03  0.7561462E-02  0.1046072E+00
         22   -1    0    0    0    0  0.00000000000E+00  0.00000000000E+00  0.20047235858E+03  0.20047235858E+03  0.00000000000E+00 0. -1.
         22   -1    0    0    0    0 -0.00000000000E+00 -0.00000000000E+00 -0.20416787038E+04  0.20416787038E+04  0.00000000000E+00 0.  1.
         24    2    1    2    0    0  0.28557828971E+02 -0.17811340043E+03 -0.18057558882E+04  0.18165860316E+04  0.81795778085E+02 0.  0.
         25    2    1    2    0    0 -0.24039694375E+02  0.11428202225E+03 -0.17964167011E+03  0.24810644890E+03  0.12508953925E+03 0.  0.
        -24    2    1    2    0    0 -0.45181345963E+01  0.63831378179E+02  0.14419121312E+03  0.17745858189E+03  0.81274743723E+02 0.  0.
        -13    1    3    3    0    0 -0.19334235700E+02 -0.12506680602E+03 -0.11349119167E+04  0.11419459607E+04  0.00000000000E+00 0.  1.
         14    1    3    3    0    0  0.47892064671E+02 -0.53046594413E+02 -0.67084397154E+03  0.67464007084E+03  0.00000000000E+00 0. -1.
         13    1    5    5    0    0 -0.21090604834E+01  0.29629406105E+02  0.13976578399E+03  0.14288745297E+03  0.00000000000E+00 0. -1.
        -14    1    5    5    0    0 -0.24090741130E+01  0.34201972074E+02  0.44254291233E+01  0.34571128919E+02  0.00000000000E+00 0.  1.
          5    1    4    4  501    0  0.48155735630E+02  0.29243183921E+02 -0.83306134005E+02  0.10065546703E+03  0.41800000000E+01 0.  1.
         -5    1    4    4    0  501 -0.72195430005E+02  0.85038838331E+02 -0.96335536103E+02  0.14745098187E+03  0.41800000000E+01 0.  1.
</event>
<event>
11    1  0.7105277E-009  0.1405604E+03  0.7561462E-02  0.1106934E+00
         22   -1    0    0    0    0  0.00000000000E+00  0.00000000000E+00  0.90130510455E+03  0.90130510455E+03  0.00000000000E+00 0.  1.
         22   -1    0    0    0    0 -0.00000000000E+00 -0.00000000000E+00 -0.71334799751E+03  0.71334799751E+03  0.00000000000E+00 0.  1.
         24    2    1    2    0    0 -0.58396868177E+02 -0.27246138025E+02 -0.65753206715E+03  0.66552554375E+03  0.80145391681E+02 0.  0.
         25    2    1    2    0    0  0.67754266334E+02 -0.15134679234E+02  0.54693841402E+02  0.15316095198E+03  0.12508861580E+03 0.  0.
        -24    2    1    2    0    0 -0.93573981572E+01  0.42380817259E+02  0.79079533278E+03  0.79596660633E+03  0.79510285304E+02 0.  0.
        -11    1    3    3    0    0 -0.70224142993E+02  0.20810652771E+01 -0.49319028714E+03  0.49816906811E+03  0.00000000000E+00 0.  1.
         12    1    3    3    0    0  0.11827274816E+02 -0.29327203303E+02 -0.16434178000E+03  0.16735647564E+03  0.00000000000E+00 0. -1.
         13    1    5    5    0    0  0.23492306084E+02  0.32851720495E+02  0.19233201025E+03  0.19652665506E+03  0.00000000000E+00 0. -1.
        -14    1    5    5    0    0 -0.32849704241E+02  0.95290967644E+01  0.59846332253E+03  0.59943995127E+03  0.00000000000E+00 0.  1.
          5    1    4    4  501    0  0.90308546736E+02 -0.15788751743E+02  0.78008154118E+02  0.12044775965E+03  0.41800000000E+01 0. -1.
         -5    1    4    4    0  501 -0.22554280402E+02  0.65407250910E+00 -0.23314312715E+02  0.32713192334E+02  0.41800000000E+01 0. -1.
</event>
<event>
11    1  0.7105277E-009  0.1334380E+03  0.7561462E-02  0.1115115E+00
         22   -1    0    0    0    0  0.00000000000E+00  0.00000000000E+00  0.78173589376E+03  0.78173589376E+03  0.00000000000E+00 0. -1.
         22   -1    0    0    0    0 -0.00000000000E+00 -0.00000000000E+00 -0.30006270392E+03  0.30006270392E+03  0.00000000000E+00 0. -1.
         24    2    1    2    0    0  0.74298472573E+01  0.11990408737E+01 -0.24289972005E+03  0.25591077091E+03  0.80208530330E+02 0.  0.
         25    2    1    2    0    0 -0.18293153196E+02 -0.46162273381E+02  0.47818210163E+02  0.14283282948E+03  0.12509612710E+03 0.  0.
        -24    2    1    2    0    0  0.10863305939E+02  0.44963232507E+02  0.67675469973E+03  0.68305499729E+03  0.80171703397E+02 0.  0.
        -11    1    3    3    0    0 -0.13516904557E+02 -0.93139097558E+01 -0.54337993451E+01  0.17291090164E+02  0.00000000000E+00 0.  1.
         12    1    3    3    0    0  0.20946751815E+02  0.10512950630E+02 -0.23746592071E+03  0.23861968075E+03  0.00000000000E+00 0. -1.
         13    1    5    5    0    0  0.33396583617E+02  0.23518050433E+02  0.57969620768E+03  0.58113348182E+03  0.00000000000E+00 0. -1.
        -14    1    5    5    0    0 -0.22533277678E+02  0.21445182074E+02  0.97058492048E+02  0.10192151547E+03  0.00000000000E+00 0.  1.
          5    1    4    4  501    0  0.39253666804E+02 -0.55946181736E+02  0.19865408567E+01  0.68499958780E+02  0.41800000000E+01 0.  1.
         -5    1    4    4    0  501 -0.57546820000E+02  0.97839083550E+01  0.45831669307E+02  0.74332870699E+02  0.41800000000E+01 0.  1.
</event>
<event>
11    1  0.7105277E-009  0.1431054E+03  0.7561462E-02  0.1104139E+00
         22   -1    0    0    0    0  0.00000000000E+00  0.00000000000E+00  0.30135106108E+03  0.30135106108E+03  0.00000000000E+00 0. -1.
         22   -1    0    0    0    0 -0.00000000000E+00 -0.00000000000E+00 -0.57522217810E+03  0.57522217810E+03  0.00000000000E+00 0.  1.
         24    2    1    2    0    0 -0.76569854072E+02  0.38110022961E+01 -0.49357169082E+03  0.50624830824E+03  0.82443127834E+02 0.  0.
         25    2    1    2    0    0  0.13324605752E+02 -0.56107047352E+02  0.26009083755E+02  0.14017750846E+03  0.12509082923E+03 0.  0.
        -24    2    1    2    0    0  0.63245248321E+02  0.52296045056E+02  0.19369149004E+03  0.23014742248E+03  0.93362760227E+02 0.  0.
        -11    1    3    3    0    0 -0.43124509407E+02 -0.34851185834E+02 -0.33731737966E+03  0.34184403328E+03  0.00000000000E+00 0.  1.
         12    1    3    3    0    0 -0.33445344665E+02  0.38662188130E+02 -0.15625431115E+03  0.16440427496E+03  0.00000000000E+00 0. -1.
         11    1    5    5    0    0  0.29049998071E+02  0.69296920321E+02  0.77951396779E+02  0.10826996728E+03  0.00000000000E+00 0. -1.
        -12    1    5    5    0    0  0.34195250249E+02 -0.17000875266E+02  0.11574009326E+03  0.12187745521E+03  0.00000000000E+00 0.  1.
          5    1    4    4  501    0 -0.55876361963E+02 -0.22385329568E+02  0.67507394914E+01  0.60715036768E+02  0.41800000000E+01 0. -1.
         -5    1    4    4    0  501  0.69200967714E+02 -0.33721717784E+02  0.19258344264E+02  0.79462471687E+02  0.41800000000E+01 0. -1.
</event>
<event>
11    1  0.7105277E-009  0.1384288E+03  0.7561462E-02  0.1109326E+00
         22   -1    0    0    0    0  0.00000000000E+00  0.00000000000E+00  0.52077281934E+03  0.52077281934E+03  0.00000000000E+00 0. -1.
         22   -1    0    0    0    0 -0.00000000000E+00 -0.00000000000E+00 -0.12188761131E+03  0.12188761131E+03  0.00000000000E+00 0.  1.
        -24    2    1    2    0    0  0.59661260533E+02 -0.10818981912E+02 -0.30382350042E+02  0.10128817452E+03  0.75230916016E+02 0.  0.
         25    2    1    2    0    0 -0.42596234294E+02  0.52301784055E+02  0.49252921435E+02  0.15040610118E+03  0.12508488802E+03 0.  0.
         24    2    1    2    0    0 -0.17065026239E+02 -0.41482802143E+02  0.38001463664E+03  0.39096615495E+03  0.80195836946E+02 0.  0.
        -11    1    5    5    0    0 -0.40065619987E+02 -0.49705335399E+02  0.21923111806E+03  0.22833781421E+03  0.00000000000E+00 0.  1.
         12    1    5    5    0    0  0.23000593748E+02  0.82225332562E+01  0.16078351857E+03  0.16262834074E+03  0.00000000000E+00 0. -1.
         11    1    3    3    0    0 -0.27603656869E+01  0.21121630152E+02  0.62200141940E+01  0.22190796641E+02  0.00000000000E+00 0. -1.
        -12    1    3    3    0    0  0.62421626220E+02 -0.31940612064E+02 -0.36602364236E+02  0.79097377875E+02  0.00000000000E+00 0.  1.
          5    1    4    4  501    0  0.41697515450E+02  0.34936135030E+02  0.89780553408E+01  0.55292804263E+02  0.41800000000E+01 0.  1.
         -5    1    4    4    0  501 -0.84293749744E+02  0.17365649025E+02  0.40274866094E+02  0.95113296919E+02  0.41800000000E+01 0.  1.
</event>
<event>
11    1  0.7105277E-009  0.1683576E+03  0.7561462E-02  0.1079470E+00
         22   -1    0    0    0    0  0.00000000000E+00  0.00000000000E+00  0.22151289789E+04  0.22151289789E+04  0.00000000000E+00 0. -1.
         22   -1    0    0    0    0 -0.00000000000E+00 -0.00000000000E+00 -0.83951400798E+03  0.83951400798E+03  0.00000000000E+00 0. -1.
        -24    2    1    2    0    0 -0.45694628255E+02  0.27621915517E+02 -0.79647440537E+03  0.80305227551E+03  0.87581445108E+02 0.  0.
         25    2    1    2    0    0 -0.58752431599E+02 -0.74473003442E+02  0.12759232635E+03  0.20230366617E+03  0.12509554404E+03 0.  0.
         24    2    1    2    0    0  0.10444705985E+03  0.46851087925E+02  0.20444970500E+04  0.20492870452E+04  0.80653541081E+02 0.  0.
        -11    1    5    5    0    0  0.81886285006E+02  0.11638232073E+02  0.83949636693E+03  0.84356088234E+03  0.00000000000E+00 0.  1.
         12    1    5    5    0    0  0.22560774848E+02  0.35212855852E+02  0.12050006830E+04  0.12057261629E+04  0.00000000000E+00 0. -1.
         11    1    3    3    0    0 -0.32039312217E+02  0.27891072083E+02 -0.78199421128E+03  0.78314709724E+03  0.00000000000E+00 0. -1.
        -12    1    3    3    0    0 -0.13655316038E+02 -0.26915656637E+00 -0.14480194084E+02  0.19905178273E+02  0.00000000000E+00 0.  1.
          5    1    4    4  501    0 -0.23689941320E+02  0.14566115387E+02  0.98144292286E+02  0.10209387614E+03  0.41800000000E+01 0.  1.
         -5    1    4    4    0  501 -0.35062490279E+02 -0.89039118829E+02  0.29448034065E+02  0.10020979002E+03  0.41800000000E+01 0.  1.
</event>
<event>
11    1  0.7105277E-009  0.1611890E+03  0.7561462E-02  0.1085964E+00
         22   -1    0    0    0    0  0.00000000000E+00  0.00000000000E+00  0.83913991052E+03  0.83913991052E+03  0.00000000000E+00 0. -1.
         22   -1    0    0    0    0 -0.00000000000E+00 -0.00000000000E+00 -0.15190686351E+04  0.15190686351E+04  0.00000000000E+00 0. -1.
        -24    2    1    2    0    0  0.34751168829E+02  0.42715853430E+02 -0.14805096595E+04  0.14838388526E+04  0.82683739891E+02 0.  0.
         25    2    1    2    0    0  0.69699394896E+02 -0.61977418455E+02  0.17317185198E+03  0.23310115517E+03  0.12509377353E+03 0.  0.
         24    2    1    2    0    0 -0.10445056373E+03  0.19261565025E+02  0.62740908286E+03  0.64126853789E+03  0.79386726101E+02 0.  0.
        -13    1    5    5    0    0 -0.26496204533E+02  0.13778776830E+02  0.47435667132E+02  0.56053956701E+02  0.00000000000E+00 0.  1.
         14    1    5    5    0    0 -0.77954359192E+02  0.54827881959E+01  0.57997341573E+03  0.58521458119E+03  0.00000000000E+00 0. -1.
         11    1    3    3    0    0  0.21382588248E+02  0.43823390435E+02 -0.14458773581E+04  0.14466993604E+04  0.00000000000E+00 0. -1.
        -12    1    3    3    0    0  0.13368580581E+02 -0.11075370047E+01 -0.34632301330E+02  0.37139492194E+02  0.00000000000E+00 0.  1.
          5    1    4    4  501    0  0.75181145824E+02  0.14276925082E+02  0.10873532951E+03  0.13302961911E+03  0.41800000000E+01 0. -1.
         -5    1    4    4    0  501 -0.54817509282E+01 -0.76254343538E+02  0.64436522477E+02  0.10007153607E+03  0.41800000000E+01 0. -1.
</event>
<event>
11    1  0.7105277E-009  0.1426804E+03  0.7561462E-02  0.1104602E+00
         22   -1    0    0    0    0  0.00000000000E+00  0.00000000000E+00  0.18565346051E+04  0.18565346051E+04  0.00000000000E+00 0.  1.
         22   -1    0    0    0    0 -0.00000000000E+00 -0.00000000000E+00 -0.13403150339E+03  0.13403150339E+03  0.00000000000E+00 0. -1.
         24    2    1    2    0    0 -0.35444559637E+02  0.23596621893E+02 -0.10684611436E+03  0.14049302090E+03  0.80678865864E+02 0.  0.
         25    2    1    2    0    0  0.10161669394E+02 -0.84601426937E+02  0.71154760671E+03  0.72746693032E+03  0.12508987623E+03 0.  0.
        -24    2    1    2    0    0  0.25282890243E+02  0.61004805044E+02  0.11178016093E+04  0.11226061572E+04  0.80020845090E+02 0.  0.
        -13    1    3    3    0    0 -0.18484534348E+02  0.97943104716E+01  0.88751895289E+01  0.22723897484E+02  0.00000000000E+00 0.  1.
         14    1    3    3    0    0 -0.16960025289E+02  0.13802311422E+02 -0.11572130388E+03  0.11776912342E+03  0.00000000000E+00 0. -1.
         13    1    5    5    0    0  0.54580164831E+02  0.40304732815E+02  0.71843255420E+03  0.72162926826E+03  0.00000000000E+00 0. -1.
        -14    1    5    5    0    0 -0.29297274588E+02  0.20700072229E+02  0.39936905512E+03  0.40097688895E+03  0.00000000000E+00 0.  1.
          5    1    4    4  501    0  0.50103928364E+02 -0.84770556851E+02  0.61580659079E+03  0.62364387322E+03  0.41800000000E+01 0.  1.
         -5    1    4    4    0  501 -0.39942258970E+02  0.16912991321E+00  0.95741015914E+02  0.10382305710E+03  0.41800000000E+01 0.  1.
</event>
<event>
11    1  0.7105277E-009  0.1302584E+03  0.7561462E-02  0.1118952E+00
         22   -1    0    0    0    0  0.00000000000E+00  0.00000000000E+00  0.11821231699E+03  0.11821231699E+03  0.00000000000E+00 0.  1.
         22   -1    0    0    0    0 -0.00000000000E+00 -0.00000000000E+00 -0.38950091454E+03  0.38950091454E+03  0.00000000000E+00 0.  1.
         24    2    1    2    0    0  0.82141468050E+01  0.46937417394E+01 -0.27541082570E+03  0.28663138493E+03  0.78847476150E+02 0.  0.
         25    2    1    2    0    0 -0.39651665479E+02 -0.98310338338E+01  0.24690415718E+02  0.13389743170E+03  0.12509996717E+03 0.  0.
        -24    2    1    2    0    0  0.31437518674E+02  0.51372920944E+01 -0.20568187564E+02  0.87184414907E+02  0.78507085748E+02 0.  0.
        -11    1    3    3    0    0  0.30256492466E+02 -0.15486263982E+02 -0.22847256412E+03  0.23098699587E+03  0.00000000000E+00 0.  1.
         12    1    3    3    0    0 -0.22042345661E+02  0.20180005721E+02 -0.46938261584E+02  0.55644389058E+02  0.00000000000E+00 0. -1.
         11    1    5    5    0    0 -0.62450052284E+01  0.31346192613E+02 -0.25679094337E+02  0.40999997166E+02  0.00000000000E+00 0. -1.
        -12    1    5    5    0    0  0.37682523902E+02 -0.26208900519E+02  0.51109067731E+01  0.46184417741E+02  0.00000000000E+00 0.  1.
          5    1    4    4  501    0 -0.81644893465E+02  0.14279657698E+02  0.16325216883E+02  0.84580035228E+02  0.41800000000E+01 0. -1.
         -5    1    4    4    0  501  0.41993227986E+02 -0.24110691532E+02  0.83651988347E+01  0.49317396468E+02  0.41800000000E+01 0. -1.
</event>
<event>
11    1  0.7105277E-009  0.1493291E+03  0.7561462E-02  0.1097566E+00
         22   -1    0    0    0    0  0.00000000000E+00  0.00000000000E+00  0.56057165909E+03  0.56057165909E+03  0.00000000000E+00 0. -1.
         22   -1    0    0    0    0 -0.00000000000E+00 -0.00000000000E+00 -0.10128901234E+04  0.10128901234E+04  0.00000000000E+00 0. -1.
         24    2    1    2    0    0 -0.21273099329E+02 -0.72756812050E+02 -0.68342379706E+03  0.69213247926E+03  0.78950516187E+02 0.  0.
         25    2    1    2    0    0  0.11000946897E+02  0.11172294307E+03 -0.29943556549E+03  0.34337698295E+03  0.12507220994E+03 0.  0.
        -24    2    1    2    0    0  0.10272152432E+02 -0.38966131021E+02  0.53054089822E+03  0.53795232031E+03  0.79342156302E+02 0.  0.
        -13    1    3    3    0    0 -0.37822131199E+01  0.16424384636E+02 -0.15917266503E+03  0.16006249667E+03  0.00000000000E+00 0.  1.
         14    1    3    3    0    0 -0.17490886209E+02 -0.89181196686E+02 -0.52425113203E+03  0.53206998260E+03  0.00000000000E+00 0. -1.
         13    1    5    5    0    0 -0.11040298327E+02 -0.49984607966E+02  0.47078552307E+03  0.47356030022E+03  0.00000000000E+00 0. -1.
        -14    1    5    5    0    0  0.21312450759E+02  0.11018476945E+02  0.59755375150E+02  0.64392020087E+02  0.00000000000E+00 0.  1.
          5    1    4    4  501    0  0.16450308206E+02  0.15150637931E+02  0.55287392254E+01  0.23413539399E+02  0.41800000000E+01 0. -1.
         -5    1    4    4    0  501 -0.54493613084E+01  0.96572305140E+02 -0.30496430471E+03  0.31996344355E+03  0.41800000000E+01 0. -1.
</event>
<event>
11    1  0.7105277E-009  0.1533522E+03  0.7561462E-02  0.1093502E+00
         22   -1    0    0    0    0  0.00000000000E+00  0.00000000000E+00  0.84509622870E+03  0.84509622870E+03  0.00000000000E+00 0. -1.
         22   -1    0    0    0    0 -0.00000000000E+00 -0.00000000000E+00 -0.40982932351E+03  0.40982932351E+03  0.00000000000E+00 0.  1.
         24    2    1    2    0    0 -0.77961538412E+02  0.55883921101E+02 -0.35684717868E+03  0.37753956505E+03  0.77428677778E+02 0.  0.
         25    2    1    2    0    0  0.22020319245E+02  0.54222164451E+01  0.68180236403E+02  0.14424598353E+03  0.12507623370E+03 0.  0.
        -24    2    1    2    0    0  0.55941219167E+02 -0.61306137546E+02  0.72393384746E+03  0.73314000363E+03  0.80784818547E+02 0.  0.
        -11    1    3    3    0    0 -0.71533710391E+02  0.64026432701E+02 -0.35399342805E+03  0.36678031969E+03  0.00000000000E+00 0.  1.
         12    1    3    3    0    0 -0.64278280213E+01 -0.81425115993E+01 -0.28537506249E+01  0.10759245366E+02  0.00000000000E+00 0. -1.
         13    1    5    5    0    0  0.26115085441E+02 -0.61782665062E+02  0.64945501608E+03  0.65290957513E+03  0.00000000000E+00 0. -1.
        -14    1    5    5    0    0  0.29826133726E+02  0.47652751557E+00  0.74478831389E+02  0.80230428496E+02  0.00000000000E+00 0.  1.
          5    1    4    4  501    0 -0.46908385990E+02 -0.33957453909E+01  0.59628799900E+00  0.47220289308E+02  0.41800000000E+01 0.  1.
         -5    1    4    4    0  501  0.68928705235E+02  0.88179618360E+01  0.67583948404E+02  0.97025694217E+02  0.41800000000E+01 0.  1.
</event>
<event>
11    1  0.7105277E-009  0.3062036E+03  0.7561462E-02  0.9975994E-01
         22   -1    0    0    0    0  0.00000000000E+00  0.00000000000E+00  0.72751640953E+03  0.72751640953E+03  0.00000000000E+00 0.  1.
         22   -1    0    0    0    0 -0.00000000000E+00 -0.00000000000E+00 -0.17298238777E+04  0.17298238777E+04  0.00000000000E+00 0.  1.
         24    2    1    2    0    0  0.27770802674E+03 -0.13148811717E+03 -0.15621298141E+04  0.15938664194E+04  0.75826998770E+02 0.  0.
         25    2    1    2    0    0 -0.45288846575E+01  0.18680575819E+03 -0.90418570406E+01  0.22504852201E+03  0.12509268560E+03 0.  0.
        -24    2    1    2    0    0 -0.27317914208E+03 -0.55317641027E+02  0.56886420304E+03  0.63842534573E+03  0.79331932391E+02 0.  0.
        -11    1    3    3    0    0  0.20762173899E+03 -0.12475168071E+03 -0.13040487016E+04  0.13263531900E+04  0.00000000000E+00 0.  1.
         12    1    3    3    0    0  0.70086287748E+02 -0.67364364574E+01 -0.25808111252E+03  0.26751322948E+03  0.00000000000E+00 0. -1.
         11    1    5    5    0    0 -0.90116657788E+02 -0.31307301604E+02  0.12163456565E+03  0.15458372070E+03  0.00000000000E+00 0. -1.
        -12    1    5    5    0    0 -0.18306248429E+03 -0.24010339423E+02  0.44722963739E+03  0.48384162503E+03  0.00000000000E+00 0.  1.
          5    1    4    4  501    0 -0.50669689592E+02  0.16256423309E+03  0.66413793128E+01  0.17045858043E+03  0.41800000000E+01 0. -1.
         -5    1    4    4    0  501  0.46140804934E+02  0.24241525108E+02 -0.15683236353E+02  0.54589941583E+02  0.41800000000E+01 0. -1.
</event>
<event>
11    1  0.7105277E-009  0.1767311E+03  0.7561462E-02  0.1072318E+00
         22   -1    0    0    0    0  0.00000000000E+00  0.00000000000E+00  0.26783401335E+04  0.26783401335E+04  0.00000000000E+00 0.  1.
         22   -1    0    0    0    0 -0.00000000000E+00 -0.00000000000E+00 -0.95407870294E+02  0.95407870294E+02  0.00000000000E+00 0. -1.
        -24    2    1    2    0    0  0.79249264596E+01  0.10527106161E+03 -0.19596668903E+02  0.13541583176E+03  0.82514345335E+02 0.  0.
         25    2    1    2    0    0 -0.12316098273E+03 -0.43777969814E+02  0.52738653086E+03  0.55755602022E+03  0.12508806673E+03 0.  0.
         24    2    1    2    0    0  0.11523605627E+03 -0.61493091798E+02  0.20751424012E+04  0.20807761518E+04  0.79703572776E+02 0.  0.
        -13    1    5    5    0    0  0.46033326184E+02 -0.16541557234E+02  0.13615204971E+04  0.13623988969E+04  0.00000000000E+00 0.  1.
         14    1    5    5    0    0  0.69202730088E+02 -0.44951534564E+02  0.71362190406E+03  0.71837725484E+03  0.00000000000E+00 0. -1.
         11    1    3    3    0    0  0.37212057124E+02  0.84466311287E+02  0.40809827704E+01  0.92390201635E+02  0.00000000000E+00 0. -1.
        -12    1    3    3    0    0 -0.29287130665E+02  0.20804750325E+02 -0.23677651673E+02  0.43025630122E+02  0.00000000000E+00 0.  1.
          5    1    4    4  501    0 -0.40380891058E+02 -0.32738817515E+02  0.47831504691E+02  0.70765611535E+02  0.41800000000E+01 0.  1.
         -5    1    4    4    0  501 -0.82780091674E+02 -0.11039152299E+02  0.47955502617E+03  0.48679040868E+03  0.41800000000E+01 0.  1.
</event>
<event>
11    1  0.7105277E-009  0.1384380E+03  0.7561462E-02  0.1109315E+00
         22   -1    0    0    0    0  0.00000000000E+00  0.00000000000E+00  0.93639232535E+03  0.93639232535E+03  0.00000000000E+00 0. -1.
         22   -1    0    0    0    0 -0.00000000000E+00 -0.00000000000E+00 -0.46229292919E+03  0.46229292919E+03  0.00000000000E+00 0. -1.
        -24    2    1    2    0    0  0.22213607784E+02 -0.24313264609E+02 -0.29362633726E+03  0.30519995143E+03  0.76459173511E+02 0.  0.
         25    2    1    2    0    0 -0.79173731042E+02  0.87096615333E+01 -0.12579453298E+03  0.19446209889E+03  0.12508759126E+03 0.  0.
         24    2    1    2    0    0  0.56960123259E+02  0.15603603075E+02  0.89352026641E+03  0.89902320421E+03  0.79851907717E+02 0.  0.
        -11    1    5    5    0    0 -0.12769114208E+02  0.11800823649E+02  0.42217867331E+03  0.42253655689E+03  0.00000000000E+00 0.  1.
         12    1    5    5    0    0  0.69729237467E+02  0.38027794260E+01  0.47134159310E+03  0.47648664732E+03  0.00000000000E+00 0. -1.
         13    1    3    3    0    0  0.19090186540E+02 -0.22787416841E+02 -0.29807528852E+03  0.29955396711E+03  0.00000000000E+00 0. -1.
        -14    1    3    3    0    0  0.31234212438E+01 -0.15258477683E+01  0.44489512548E+01  0.56459843204E+01  0.00000000000E+00 0.  1.
          5    1    4    4  501    0 -0.31633862976E+02 -0.28762281540E+02 -0.12669378939E+03  0.13377876810E+03  0.41800000000E+01 0.  1.
         -5    1    4    4    0  501 -0.47539868066E+02  0.37471943074E+02  0.89925640818E+00  0.60683330788E+02  0.41800000000E+01 0.  1.
</event>
<event>
11    1  0.7105277E-009  0.1455554E+03  0.7561462E-02  0.1101509E+00
         22   -1    0    0    0    0  0.00000000000E+00  0.00000000000E+00  0.62036990624E+03  0.62036990624E+03  0.00000000000E+00 0.  1.
         22   -1    0    0    0    0 -0.00000000000E+00 -0.00000000000E+00 -0.45869695478E+03  0.45869695478E+03  0.00000000000E+00 0. -1.
         24    2    1    2    0    0 -0.39996209042E+02 -0.68561497901E+01 -0.41626941622E+03  0.42565601355E+03  0.79095584361E+02 0.  0.
         25    2    1    2    0    0 -0.18788368830E+02 -0.48122766097E+02  0.11748003602E+03  0.17921209722E+03  0.12508642415E+03 0.  0.
        -24    2    1    2    0    0  0.58784577872E+02  0.54978915887E+02  0.46046233165E+03  0.47419875026E+03  0.79753295142E+02 0.  0.
        -13    1    3    3    0    0 -0.35982094133E+02  0.23940962685E+02 -0.11608642745E+03  0.12387065606E+03  0.00000000000E+00 0.  1.
         14    1    3    3    0    0 -0.40141149094E+01 -0.30797112475E+02 -0.30018298876E+03  0.30178535749E+03  0.00000000000E+00 0. -1.
         11    1    5    5    0    0  0.44322114850E+02  0.28664171548E+02  0.10548890352E+03  0.11795759137E+03  0.00000000000E+00 0. -1.
        -12    1    5    5    0    0  0.14462463022E+02  0.26314744339E+02  0.35497342814E+03  0.35624115889E+03  0.00000000000E+00 0.  1.
          5    1    4    4  501    0 -0.25916752989E+02  0.39397487367E+02  0.44126875186E+02  0.64718572373E+02  0.41800000000E+01 0. -1.
         -5    1    4    4    0  501  0.71283841588E+01 -0.87520253464E+02  0.73353160836E+02  0.11449352485E+03  0.41800000000E+01 0. -1.
</event>
<event>
11    1  0.7105277E-009  0.1868705E+03  0.7561462E-02  0.1064217E+00
         22   -1    0    0    0    0  0.00000000000E+00  0.00000000000E+00  0.21879320069E+04  0.21879320069E+04  0.00000000000E+00 0.  1.
         22   -1    0    0    0    0 -0.00000000000E+00 -0.00000000000E+00 -0.48189025813E+03  0.48189025813E+03  0.00000000000E+00 0. -1.
         24    2    1    2    0    0  0.42279111350E+02 -0.25939068740E+02 -0.38942746638E+03  0.40068026050E+03  0.80190779023E+02 0.  0.
         25    2    1    2    0    0 -0.17222569122E+03 -0.19541181626E+02  0.52880756576E+02  0.22019725924E+03  0.12508761757E+03 0.  0.
        -24    2    1    2    0    0  0.12994657987E+03  0.45480250366E+02  0.20425884586E+04  0.20489447453E+04  0.83978516777E+02 0.  0.
        -13    1    3    3    0    0  0.97048417012E+01 -0.77848373034E+01 -0.34573531480E+01  0.12912820570E+02  0.00000000000E+00 0.  1.
         14    1    3    3    0    0  0.32574269649E+02 -0.18154231437E+02 -0.38597011323E+03  0.38776743993E+03  0.00000000000E+00 0. -1.
         13    1    5    5    0    0  0.29104459605E+02 -0.14646596950E+02  0.20156307220E+03  0.20417949076E+03  0.00000000000E+00 0. -1.
        -14    1    5    5    0    0  0.10084212026E+03  0.60126847316E+02  0.18410253864E+04  0.18447652545E+04  0.00000000000E+00 0.  1.
          5    1    4    4  501    0 -0.40292927217E+02  0.35881774926E+01 -0.40081708563E+02  0.57100006679E+02  0.41800000000E+01 0. -1.
         -5    1    4    4    0  501 -0.13193276400E+03 -0.23129359118E+02  0.92962465139E+02  0.16309725257E+03  0.41800000000E+01 0. -1.
</event>
<event>
11    1  0.7105277E-009  0.1303457E+03  0.7561462E-02  0.1118845E+00
         22   -1    0    0    0    0  0.00000000000E+00  0.00000000000E+00  0.28884048623E+03  0.28884048623E+03  0.00000000000E+00 0. -1.
         22   -1    0    0    0    0 -0.00000000000E+00 -0.00000000000E+00 -0.42764311557E+03  0.42764311557E+03  0.00000000000E+00 0.  1.
        -24    2    1    2    0    0 -0.34766400614E+02 -0.66111000989E+01 -0.31013141317E+03  0.32242370377E+03  0.80765970959E+02 0.  0.
         25    2    1    2    0    0  0.38377143683E+02  0.35758387974E+02 -0.59360083443E+02  0.14806228934E+03  0.12508938624E+03 0.  0.
         24    2    1    2    0    0 -0.36107430696E+01 -0.29147287875E+02  0.23068886727E+03  0.24599760869E+03  0.80217629869E+02 0.  0.
        -13    1    5    5    0    0 -0.18298061092E+02  0.22962110487E+02  0.10748531155E+03  0.11142338066E+03  0.00000000000E+00 0.  1.
         14    1    5    5    0    0  0.14687318023E+02 -0.52109398362E+02  0.12320355572E+03  0.13457422803E+03  0.00000000000E+00 0. -1.
         13    1    3    3    0    0 -0.23887358543E+01  0.47026855435E+01  0.38780109375E+01  0.65467762398E+01  0.00000000000E+00 0. -1.
        -14    1    3    3    0    0 -0.32377664760E+02 -0.11313785642E+02 -0.31400942410E+03  0.31587692753E+03  0.00000000000E+00 0.  1.
          5    1    4    4  501    0 -0.10882390053E+02 -0.39148614399E+02 -0.38035021883E+02  0.55813759166E+02  0.41800000000E+01 0. -1.
         -5    1    4    4    0  501  0.49259533737E+02  0.74907002373E+02 -0.21325061561E+02  0.92248530173E+02  0.41800000000E+01 0. -1.
</event>
<event>
11    1  0.7105277E-009  0.3624400E+03  0.7561462E-02  0.9767581E-01
         22   -1    0    0    0    0  0.00000000000E+00  0.00000000000E+00  0.27402075636E+03  0.27402075636E+03  0.00000000000E+00 0. -1.
         22   -1    0    0    0    0 -0.00000000000E+00 -0.00000000000E+00 -0.15345312990E+04  0.15345312990E+04  0.00000000000E+00 0.  1.
        -24    2    1    2    0    0 -0.20017289616E+02 -0.94473577228E+01 -0.10314973095E+04  0.10348334958E+04  0.80023247071E+02 0.  0.
         25    2    1    2    0    0  0.22335474288E+03 -0.26114583652E+03 -0.21760965956E+03  0.42554161403E+03  0.12508881742E+03 0.  0.
         24    2    1    2    0    0 -0.20333745326E+03  0.27059319424E+03 -0.11403573606E+02  0.34817694556E+03  0.80810564029E+02 0.  0.
        -11    1    5    5    0    0 -0.89661400558E+02  0.17749054034E+03  0.12786445713E+02  0.19926251994E+03  0.00000000000E+00 0.  1.
         12    1    5    5    0    0 -0.11367605271E+03  0.93102653904E+02 -0.24190019318E+02  0.14891442562E+03  0.00000000000E+00 0. -1.
         11    1    3    3    0    0  0.31003370115E+02 -0.12351319059E+01 -0.34383078612E+03  0.34522795946E+03  0.00000000000E+00 0. -1.
        -12    1    3    3    0    0 -0.51020659731E+02 -0.82122258169E+01 -0.68766652334E+03  0.68960553630E+03  0.00000000000E+00 0.  1.
          5    1    4    4  501    0  0.51260007567E+02 -0.13991973630E+03 -0.52747842054E+02  0.15812946665E+03  0.41800000000E+01 0.  1.
         -5    1    4    4    0  501  0.17209473531E+03 -0.12122610021E+03 -0.16486181750E+03  0.26741214738E+03  0.41800000000E+01 0.  1.
</event>
<event>
11    1  0.7105277E-009  0.2839092E+03  0.7561462E-02  0.1007241E+00
         22   -1    0    0    0    0  0.00000000000E+00  0.00000000000E+00  0.87500768175E+03  0.87500768175E+03  0.00000000000E+00 0. -1.
         22   -1    0    0    0    0 -0.00000000000E+00 -0.00000000000E+00 -0.23707582484E+04  0.23707582484E+04  0.00000000000E+00 0. -1.
        -24    2    1    2    0    0 -0.17026030084E+03  0.28941616072E+02 -0.22637816143E+04  0.22717578723E+04  0.79689687535E+02 0.  0.
         25    2    1    2    0    0 -0.12337263029E+03  0.82978653475E+02  0.74714686008E+02  0.20816969028E+03  0.12508426283E+03 0.  0.
         24    2    1    2    0    0  0.29363293113E+03 -0.11192026955E+03  0.69331636163E+03  0.76583836749E+03  0.84109350462E+02 0.  0.
        -13    1    5    5    0    0  0.80383309665E+02  0.77562133676E+01  0.16974204840E+03  0.18797339788E+03  0.00000000000E+00 0.  1.
         14    1    5    5    0    0  0.21324962146E+03 -0.11967648292E+03  0.52357431324E+03  0.57786496961E+03  0.00000000000E+00 0. -1.
         13    1    3    3    0    0 -0.57374226297E+02  0.19698755210E+02 -0.12874573903E+04  0.12888857104E+04  0.00000000000E+00 0. -1.
        -14    1    3    3    0    0 -0.11288607454E+03  0.92428608626E+01 -0.97632422401E+03  0.98287216192E+03  0.00000000000E+00 0.  1.
          5    1    4    4  501    0 -0.27756833915E+02  0.57097784769E+02 -0.24246216018E+02  0.68087812754E+02  0.41800000000E+01 0. -1.
         -5    1    4    4    0  501 -0.95615796371E+02  0.25880868706E+02  0.98960902026E+02  0.14008187752E+03  0.41800000000E+01 0. -1.
</event>
<event>
11    1  0.7105277E-009  0.2369405E+03  0.7561462E-02  0.1031096E+00
         22   -1    0    0    0    0  0.00000000000E+00  0.00000000000E+00  0.19746756184E+03  0.19746756184E+03  0.00000000000E+00 0. -1.
         22   -1    0    0    0    0 -0.00000000000E+00 -0.00000000000E+00 -0.21669909396E+04  0.21669909396E+04  0.00000000000E+00 0. -1.
         24    2    1    2    0    0  0.11866396642E+03  0.98244019947E+00 -0.18290525779E+04  0.18346103639E+04  0.79244887849E+02 0.  0.
         25    2    1    2    0    0 -0.26161366511E+03  0.97082247519E+02 -0.14563924179E+03  0.33870967284E+03  0.12508709433E+03 0.  0.
        -24    2    1    2    0    0  0.14294969870E+03 -0.98064687719E+02  0.51684419527E+01  0.19113846474E+03  0.80348619014E+02 0.  0.
        -13    1    3    3    0    0  0.54625971560E+02  0.40504810313E+01 -0.35846194303E+03  0.36262290022E+03  0.00000000000E+00 0.  1.
         14    1    3    3    0    0  0.64037994859E+02 -0.30680408318E+01 -0.14705906349E+04  0.14719874637E+04  0.00000000000E+00 0. -1.
         13    1    5    5    0    0 -0.92428068255E+01 -0.16711837325E+01  0.57001673002E+01  0.10987003246E+02  0.00000000000E+00 0. -1.
        -14    1    5    5    0    0  0.15219250552E+03 -0.96393503986E+02 -0.53172534753E+00  0.18015146150E+03  0.00000000000E+00 0.  1.
          5    1    4    4  501    0 -0.49927990253E+02 -0.11800930311E+02  0.12401166720E+02  0.52946458833E+02  0.41800000000E+01 0. -1.
         -5    1    4    4    0  501 -0.21168567486E+03  0.10888317783E+03 -0.15804040852E+03  0.28576321401E+03  0.41800000000E+01 0. -1.
</event>
<event>
11    1  0.7105277E-009  0.1423508E+03  0.7561462E-02  0.1104961E+00
         22   -1    0    0    0    0  0.00000000000E+00  0.00000000000E+00  0.77449176486E+02  0.77449176486E+02  0.00000000000E+00 0. -1.
         22   -1    0    0    0    0 -0.00000000000E+00 -0.00000000000E+00 -0.19378373457E+04  0.19378373457E+04  0.00000000000E+00 0. -1.
        -24    2    1    2    0    0  0.13517006189E+02 -0.10971404738E+02 -0.12430118726E+04  0.12458441110E+04  0.82133746455E+02 0.  0.
         25    2    1    2    0    0  0.44176479288E+02 -0.26578742071E+02 -0.65044504228E+03  0.66436803392E+03  0.12509252824E+03 0.  0.
         24    2    1    2    0    0 -0.57693485477E+02  0.37550146809E+02  0.33068745692E+02  0.10507437724E+03  0.72170153235E+02 0.  0.
        -13    1    5    5    0    0 -0.47019087671E+01  0.35689300549E+01 -0.21171510103E+02  0.21979036554E+02  0.00000000000E+00 0.  1.
         14    1    5    5    0    0 -0.52991576710E+02  0.33981216754E+02  0.54240255795E+02  0.83095340682E+02  0.00000000000E+00 0. -1.
         11    1    3    3    0    0 -0.12119374305E+02 -0.41812461205E+02 -0.59247707334E+03  0.59407427447E+03  0.00000000000E+00 0. -1.
        -12    1    3    3    0    0  0.25636380495E+02  0.30841056467E+02 -0.65053479930E+03  0.65176983657E+03  0.00000000000E+00 0.  1.
          5    1    4    4  501    0  0.81520328923E+02 -0.35003186391E+02 -0.54331860826E+03  0.55053008053E+03  0.41800000000E+01 0.  1.
         -5    1    4    4    0  501 -0.37343849635E+02  0.84244443195E+01 -0.10712643402E+03  0.11383795339E+03  0.41800000000E+01 0.  1.
</event>
<event>
11    1  0.7105277E-009  0.1639912E+03  0.7561462E-02  0.1083382E+00
         22   -1    0    0    0    0  0.00000000000E+00  0.00000000000E+00  0.21636352366E+04  0.21636352366E+04  0.00000000000E+00 0. -1.
         22   -1    0    0    0    0 -0.00000000000E+00 -0.00000000000E+00 -0.22397279980E+02  0.22397279980E+02  0.00000000000E+00 0.  1.
        -24    2    1    2    0    0 -0.36743086370E+02  0.19936794540E+02  0.11737720303E+03  0.13990682775E+03  0.63631615467E+02 0.  0.
         25    2    1    2    0    0  0.10400853823E+03 -0.74015101666E+02  0.13694659405E+04  0.13810795782E+04  0.12509127808E+03 0.  0.
         24    2    1    2    0    0 -0.67265451862E+02  0.54078307126E+02  0.65439481310E+03  0.66504611064E+03  0.81269019567E+02 0.  0.
        -13    1    5    5    0    0 -0.23044354433E+02  0.65220109595E+02  0.30860432980E+03  0.31626150151E+03  0.00000000000E+00 0.  1.
         14    1    5    5    0    0 -0.44221097429E+02 -0.11141802469E+02  0.34579048331E+03  0.34878460913E+03  0.00000000000E+00 0. -1.
         13    1    3    3    0    0 -0.82649542540E+01  0.40202630863E+02  0.67578723446E+02  0.79066079072E+02  0.00000000000E+00 0. -1.
        -14    1    3    3    0    0 -0.28478132116E+02 -0.20265836323E+02  0.49798479580E+02  0.60840748674E+02  0.00000000000E+00 0.  1.
          5    1    4    4  501    0  0.64887491060E+02 -0.10670449627E+03  0.10706580374E+04  0.10779250167E+04  0.41800000000E+01 0. -1.
         -5    1    4    4    0  501  0.39121047172E+02  0.32689394609E+02  0.29880790304E+03  0.30315456152E+03  0.41800000000E+01 0. -1.
</event>
<event>
11    1  0.7105277E-009  0.1395317E+03  0.7561462E-02  0.1108082E+00
         22   -1    0    0    0    0  0.00000000000E+00  0.00000000000E+00  0.32711905333E+03  0.32711905333E+03  0.00000000000E+00 0.  1.
         22   -1    0    0    0    0 -0.00000000000E+00 -0.00000000000E+00 -0.11849695095E+04  0.11849695095E+04  0.00000000000E+00 0.  1.
        -24    2    1    2    0    0 -0.28862820250E+02  0.34014702240E+02 -0.11172900116E+04  0.11210436177E+04  0.80073468989E+02 0.  0.
         25    2    1    2    0    0  0.83249067505E+02 -0.12748237018E+02  0.54850891352E+02  0.16046358727E+03  0.12508804007E+03 0.  0.
         24    2    1    2    0    0 -0.54386247254E+02 -0.21266465223E+02  0.20458866403E+03  0.23058135790E+03  0.88888214784E+02 0.  0.
        -11    1    5    5    0    0 -0.57407193934E+02 -0.49529647890E+02  0.12652319312E+03  0.14750217060E+03  0.00000000000E+00 0.  1.
         12    1    5    5    0    0  0.30209466795E+01  0.28263182667E+02  0.78065470906E+02  0.83079187292E+02  0.00000000000E+00 0. -1.
         11    1    3    3    0    0 -0.29258282795E+02  0.44817961545E+02 -0.38807939802E+03  0.39175287613E+03  0.00000000000E+00 0. -1.
        -12    1    3    3    0    0  0.39546254452E+00 -0.10803259305E+02 -0.72921061353E+03  0.72929074154E+03  0.00000000000E+00 0.  1.
          5    1    4    4  501    0  0.36640198436E+02 -0.56111061049E+02  0.67737405795E+02  0.95377061484E+02  0.41800000000E+01 0.  1.
         -5    1    4    4    0  501  0.46608869068E+02  0.43362824032E+02 -0.12886514443E+02  0.65086525782E+02  0.41800000000E+01 0.  1.
</event>
<event>
11    1  0.7105277E-009  0.1527577E+03  0.7561462E-02  0.1094094E+00
         22   -1    0    0    0    0  0.00000000000E+00  0.00000000000E+00  0.67546094595E+03  0.67546094595E+03  0.00000000000E+00 0.  1.
         22   -1    0    0    0    0 -0.00000000000E+00 -0.00000000000E+00 -0.42480748088E+03  0.42480748088E+03  0.00000000000E+00 0.  1.
        -24    2    1    2    0    0 -0.46894353109E+02  0.21241872429E+02 -0.37943740009E+03  0.39119129647E+03  0.80047438098E+02 0.  0.
         25    2    1    2    0    0  0.21660719261E+01  0.62828051911E+02  0.12097939455E+03  0.18501321971E+03  0.12506726825E+03 0.  0.
         24    2    1    2    0    0  0.44728281183E+02 -0.84069924341E+02  0.50911147061E+03  0.52406391065E+03  0.79875663535E+02 0.  0.
        -13    1    5    5    0    0  0.63433254610E+02 -0.68110772962E+02  0.45779780896E+03  0.46716345006E+03  0.00000000000E+00 0.  1.
         14    1    5    5    0    0 -0.18704973427E+02 -0.15959151378E+02  0.51313661653E+02  0.56900460594E+02  0.00000000000E+00 0. -1.
         13    1    3    3    0    0 -0.87478976866E+01 -0.37759943285E+01 -0.52479806832E+00  0.95424975827E+01  0.00000000000E+00 0. -1.
        -14    1    3    3    0    0 -0.38146455422E+02  0.25017866758E+02 -0.37891260202E+03  0.38164879889E+03  0.00000000000E+00 0.  1.
          5    1    4    4  501    0 -0.50384490275E+02  0.11023397712E+02  0.11643185428E+02  0.53039120697E+02  0.41800000000E+01 0. -1.
         -5    1    4    4    0  501  0.52550562202E+02  0.51804654199E+02  0.10933620912E+03  0.13197409901E+03  0.41800000000E+01 0. -1.
</event>
<event>
11    1  0.7105277E-009  0.1367038E+03  0.7561462E-02  0.1111296E+00
         22   -1    0    0    0    0  0.00000000000E+00  0.00000000000E+00  0.22562590503E+03  0.22562590503E+03  0.00000000000E+00 0.  1.
         22   -1    0    0    0    0 -0.00000000000E+00 -0.00000000000E+00 -0.10096224453E+04  0.10096224453E+04  0.00000000000E+00 0. -1.
        -24    2    1    2    0    0 -0.12545224536E+02  0.26165515125E+02 -0.86838417430E+03  0.87287492974E+03  0.83531742172E+02 0.  0.
         25    2    1    2    0    0 -0.18162403842E+01  0.29765389931E+02 -0.93433996918E+02  0.15895940813E+03  0.12509558140E+03 0.  0.
         24    2    1    2    0    0  0.14361464920E+02 -0.55930905055E+02  0.17782163091E+03  0.20341401250E+03  0.80138693815E+02 0.  0.
        -11    1    5    5    0    0 -0.12019136385E+02 -0.45113245815E+02  0.16618498561E+03  0.17261840582E+03  0.00000000000E+00 0.  1.
         12    1    5    5    0    0  0.26380601305E+02 -0.10817659240E+02  0.11636645303E+02  0.30795606676E+02  0.00000000000E+00 0. -1.
         11    1    3    3    0    0  0.80773691061E+01  0.48189442920E+02 -0.70755162651E+03  0.70923675207E+03  0.00000000000E+00 0. -1.
        -12    1    3    3    0    0 -0.20622593642E+02 -0.22023927795E+02 -0.16083254779E+03  0.16363817767E+03  0.00000000000E+00 0.  1.
          5    1    4    4  501    0 -0.37001597882E+02 -0.24026462329E+02  0.13777976193E+01  0.44336890556E+02  0.41800000000E+01 0.  1.
         -5    1    4    4    0  501  0.35185357497E+02  0.53791852260E+02 -0.94811794538E+02  0.11462251757E+03  0.41800000000E+01 0.  1.
</event>
<event>
11    1  0.7105277E-009  0.1365733E+03  0.7561462E-02  0.1111446E+00
         22   -1    0    0    0    0  0.00000000000E+00  0.00000000000E+00  0.12286098878E+04  0.12286098878E+04  0.00000000000E+00 0.  1.
         22   -1    0    0    0    0 -0.00000000000E+00 -0.00000000000E+00 -0.10191480246E+03  0.10191480246E+03  0.00000000000E+00 0. -1.
        -24    2    1    2    0    0  0.53750800103E+02  0.51826464501E+01 -0.63273100115E+02  0.11626274924E+03  0.81225201299E+02 0.  0.
         25    2    1    2    0    0 -0.74420709287E+02 -0.41440345839E+02  0.75640237085E+03  0.77139323054E+03  0.12508886946E+03 0.  0.
         24    2    1    2    0    0  0.20669909184E+02  0.36257699389E+02  0.43356581459E+03  0.44286871047E+03  0.80071925307E+02 0.  0.
        -13    1    5    5    0    0  0.21967972031E+02 -0.44158524502E+01  0.34120905044E+03  0.34194401245E+03  0.00000000000E+00 0.  1.
         14    1    5    5    0    0 -0.12980628475E+01  0.40673551839E+02  0.92356764150E+02  0.10092469802E+03  0.00000000000E+00 0. -1.
         11    1    3    3    0    0  0.75271427199E+02  0.85478173766E+01 -0.49177875134E+02  0.90317862780E+02  0.00000000000E+00 0. -1.
        -12    1    3    3    0    0 -0.21520627096E+02 -0.33651709266E+01 -0.14095224981E+02  0.25944886457E+02  0.00000000000E+00 0.  1.
          5    1    4    4  501    0  0.61077535145E+01 -0.65875164622E+02  0.37260960288E+03  0.37846034208E+03  0.41800000000E+01 0. -1.
         -5    1    4    4    0  501 -0.80528462801E+02  0.24434818782E+02  0.38379276797E+03  0.39293288846E+03  0.41800000000E+01 0. -1.
</event>
<event>
11    1  0.7105277E-009  0.1333057E+03  0.7561462E-02  0.1115273E+00
         22   -1    0    0    0    0  0.00000000000E+00  0.00000000000E+00  0.56550117456E+03  0.56550117456E+03  0.00000000000E+00 0.  1.
         22   -1    0    0    0    0 -0.00000000000E+00 -0.00000000000E+00 -0.96855526470E+03  0.96855526470E+03  0.00000000000E+00 0.  1.
        -24    2    1    2    0    0 -0.43759322350E+02  0.21564746630E+02 -0.83795581762E+03  0.84330251071E+03  0.81297329058E+02 0.  0.
         25    2    1    2    0    0  0.20060685247E+02  0.11981264664E+02 -0.91536898816E+02  0.15675639875E+03  0.12509029902E+03 0.  0.
         24    2    1    2    0    0  0.23698637103E+02 -0.33546011294E+02  0.52643862629E+03  0.53399752980E+03  0.79553593921E+02 0.  0.
        -13    1    5    5    0    0 -0.10459020991E+02 -0.35859995429E+02  0.43078854205E+03  0.43240501657E+03  0.00000000000E+00 0.  1.
         14    1    5    5    0    0  0.34157658094E+02  0.23139841348E+01  0.95650084236E+02  0.10159251322E+03  0.00000000000E+00 0. -1.
         11    1    3    3    0    0  0.23015208299E+02  0.87940143944E+01 -0.15174125755E+03  0.15372847409E+03  0.00000000000E+00 0. -1.
        -12    1    3    3    0    0 -0.66774530648E+02  0.12770732236E+02 -0.68621456006E+03  0.68957403663E+03  0.00000000000E+00 0.  1.
          5    1    4    4  501    0  0.34008109114E+02  0.25116610647E+01 -0.11922229428E+03  0.12407371913E+03  0.41800000000E+01 0. -1.
         -5    1    4    4    0  501 -0.13947423867E+02  0.94696035990E+01  0.27685395462E+02  0.32682679613E+02  0.41800000000E+01 0. -1.
</event>
<event>
11    1  0.7105277E-009  0.1419846E+03  0.7561462E-02  0.1105362E+00
         22   -1    0    0    0    0  0.00000000000E+00  0.00000000000E+00  0.52529801864E+02  0.52529801864E+02  0.00000000000E+00 0.  1.
         22   -1    0    0    0    0 -0.00000000000E+00 -0.00000000000E+00 -0.13801110079E+04  0.13801110079E+04  0.00000000000E+00 0.  1.
         24    2    1    2    0    0 -0.46195999800E+02 -0.32027494209E+02 -0.10571124362E+04  0.10616837269E+04  0.80782439660E+02 0.  0.
         25    2    1    2    0    0 -0.28605025539E+02 -0.15475949596E+02 -0.17716582522E+03  0.21930305692E+03  0.12509335972E+03 0.  0.
        -24    2    1    2    0    0  0.74801025338E+02  0.47503443805E+02 -0.93302944641E+02  0.15165402590E+03  0.80260410714E+02 0.  0.
        -13    1    3    3    0    0 -0.57754984766E+02 -0.35449946362E+02 -0.10272079658E+04  0.10294408880E+04  0.00000000000E+00 0.  1.
         14    1    3    3    0    0  0.11558984966E+02  0.34224521527E+01 -0.29904470364E+02  0.32242838893E+02  0.00000000000E+00 0. -1.
         13    1    5    5    0    0  0.21489549689E+02  0.28353667144E+02 -0.87807992080E+02  0.94741620523E+02  0.00000000000E+00 0. -1.
        -14    1    5    5    0    0  0.53311475649E+02  0.19149776662E+02 -0.54949525609E+01  0.56912405376E+02  0.00000000000E+00 0.  1.
          5    1    4    4  501    0 -0.24874802274E+02 -0.67533779994E+02 -0.13087093749E+03  0.14941299109E+03  0.41800000000E+01 0.  1.
         -5    1    4    4    0  501 -0.37302232648E+01  0.52057830398E+02 -0.46294887735E+02  0.69890065830E+02  0.41800000000E+01 0.  1.
</event>
<event>
11    1  0.7105277E-009  0.3693338E+03  0.7561462E-02  0.9744841E-01
         22   -1    0    0    0    0  0.00000000000E+00  0.00000000000E+00  0.19531317152E+03  0.19531317152E+03  0.00000000000E+00 0. -1.
         22   -1    0    0    0    0 -0.00000000000E+00 -0.00000000000E+00 -0.23672417783E+04  0.23672417783E+04  0.00000000000E+00 0.  1.
        -24    2    1    2    0    0 -0.29945987635E+03  0.12716620689E+03 -0.15280624763E+04  0.15643921557E+04  0.80625206156E+02 0.  0.
         25    2    1    2    0    0  0.43004737889E+03 -0.81927975644E+02 -0.69423032484E+03  0.83021430137E+03  0.12508837270E+03 0.  0.
         24    2    1    2    0    0 -0.13058750254E+03 -0.45238231249E+02  0.50364194319E+02  0.16794849270E+03  0.81058933786E+02 0.  0.
        -11    1    5    5    0    0  0.10263330831E+02 -0.11355926262E+02  0.59766655304E+01  0.16432089091E+02  0.00000000000E+00 0.  1.
         12    1    5    5    0    0 -0.14085083337E+03 -0.33882304987E+02  0.44387528789E+02  0.15151640361E+03  0.00000000000E+00 0. -1.
         11    1    3    3    0    0 -0.24352457540E+02 -0.95900733722E+01 -0.82854204866E+02  0.86889763260E+02  0.00000000000E+00 0. -1.
        -12    1    3    3    0    0 -0.27510741881E+03  0.13675628026E+03 -0.14452082714E+04  0.14775023925E+04  0.00000000000E+00 0.  1.
          5    1    4    4  501    0  0.54044074616E+02 -0.18032761478E+02 -0.18730854228E+03  0.19582621096E+03  0.41800000000E+01 0. -1.
         -5    1    4    4    0  501  0.37600330427E+03 -0.63895214167E+02 -0.50692178256E+03  0.63438809041E+03  0.41800000000E+01 0. -1.
</event>
<event>
11    1  0.7105277E-009  0.1801003E+03  0.7561462E-02  0.1069562E+00
         22   -1    0    0    0    0  0.00000000000E+00  0.00000000000E+00  0.53597423471E+03  0.53597423471E+03  0.00000000000E+00 0. -1.
         22   -1    0    0    0    0 -0.00000000000E+00 -0.00000000000E+00 -0.91728512735E+03  0.91728512735E+03  0.00000000000E+00 0. -1.
         24    2    1    2    0    0  0.18519952143E+02 -0.31784800326E+02 -0.68659055990E+03  0.69112103394E+03  0.69917268692E+02 0.  0.
         25    2    1    2    0    0 -0.12290632482E+03 -0.45305529356E+02 -0.17877986484E+03  0.25449412721E+03  0.12508583070E+03 0.  0.
        -24    2    1    2    0    0  0.10438637268E+03  0.77090329682E+02  0.48405953209E+03  0.50764420090E+03  0.80929416002E+02 0.  0.
        -13    1    3    3    0    0 -0.15605391799E+02  0.65268109225E+01 -0.57357522933E+02  0.59799773837E+02  0.00000000000E+00 0.  1.
         14    1    3    3    0    0  0.34125343942E+02 -0.38311611249E+02 -0.62923303696E+03  0.63132126011E+03  0.00000000000E+00 0. -1.
         11    1    5    5    0    0  0.10837624971E+03  0.70067872527E+02  0.34495525718E+03  0.36830564443E+03  0.00000000000E+00 0. -1.
        -12    1    5    5    0    0 -0.39898770294E+01  0.70224571554E+01  0.13910427490E+03  0.13933855647E+03  0.00000000000E+00 0.  1.
          5    1    4    4  501    0 -0.42537175148E+02  0.25786224248E+02 -0.12458205207E+03  0.13421065803E+03  0.41800000000E+01 0. -1.
         -5    1    4    4    0  501 -0.80369149673E+02 -0.71091753604E+02 -0.54197812766E+02  0.12028346918E+03  0.41800000000E+01 0. -1.
</event>
<event>
11    1  0.7105277E-009  0.3103509E+03  0.7561462E-02  0.9959032E-01
         22   -1    0    0    0    0  0.00000000000E+00  0.00000000000E+00  0.17531309360E+03  0.17531309360E+03  0.00000000000E+00 0. -1.
         22   -1    0    0    0    0 -0.00000000000E+00 -0.00000000000E+00 -0.16131420993E+04  0.16131420993E+04  0.00000000000E+00 0.  1.
         24    2    1    2    0    0 -0.48050707894E+02  0.28651544669E+03 -0.13312317486E+04  0.13651739962E+04  0.84392533304E+02 0.  0.
         25    2    1    2    0    0  0.96684014552E+02 -0.23570257758E+03 -0.13152052162E+03  0.31281081525E+03  0.12509778088E+03 0.  0.
        -24    2    1    2    0    0 -0.48633306658E+02 -0.50812869113E+02  0.24923264555E+02  0.11047038143E+03  0.81457902457E+02 0.  0.
        -11    1    3    3    0    0 -0.50898807291E+02  0.23785381737E+03 -0.12154464237E+04  0.12395463428E+04  0.00000000000E+00 0.  1.
         12    1    3    3    0    0  0.28480993970E+01  0.48661629315E+02 -0.11578532484E+03  0.12562765335E+03  0.00000000000E+00 0. -1.
         11    1    5    5    0    0 -0.61491013758E+02 -0.13065158514E+02 -0.10638498842E+01  0.62872688161E+02  0.00000000000E+00 0. -1.
        -12    1    5    5    0    0  0.12857707101E+02 -0.37747710599E+02  0.25987114440E+02  0.47597693266E+02  0.00000000000E+00 0.  1.
          5    1    4    4  501    0 -0.96217997046E+01 -0.10812215062E+03 -0.91278582099E+02  0.14188809124E+03  0.41800000000E+01 0.  1.
         -5    1    4    4    0  501  0.10630581426E+03 -0.12758042696E+03 -0.40241939526E+02  0.17092272401E+03  0.41800000000E+01 0.  1.
</event>
<event>
11    1  0.7105277E-009  0.1785416E+03  0.7561462E-02  0.1070829E+00
         22   -1    0    0    0    0  0.00000000000E+00  0.00000000000E+00  0.69827390147E+03  0.69827390147E+03  0.00000000000E+00 0. -1.
         22   -1    0    0    0    0 -0.00000000000E+00 -0.00000000000E+00 -0.28741017635E+03  0.28741017635E+03  0.00000000000E+00 0. -1.
         24    2    1    2    0    0  0.10196910545E+03 -0.62623100510E+02 -0.19080618083E+03  0.23952884015E+03  0.81533523386E+02 0.  0.
         25    2    1    2    0    0 -0.14454697834E+03  0.15872987949E+03  0.19090809448E+03  0.31333875263E+03  0.12508505016E+03 0.  0.
        -24    2    1    2    0    0  0.42577872888E+02 -0.96106778978E+02  0.41076181146E+03  0.43281648504E+03  0.86922124585E+02 0.  0.
        -13    1    3    3    0    0 -0.77447664741E+01 -0.28153049894E+02 -0.47877324533E+02  0.56078639699E+02  0.00000000000E+00 0.  1.
         14    1    3    3    0    0  0.10971387193E+03 -0.34470050616E+02 -0.14292885630E+03  0.18345020045E+03  0.00000000000E+00 0. -1.
         11    1    5    5    0    0  0.49383728094E+02 -0.95722815646E+02  0.25384279966E+03  0.27574948227E+03  0.00000000000E+00 0. -1.
        -12    1    5    5    0    0 -0.68058552054E+01 -0.38396333208E+00  0.15691901180E+03  0.15706700277E+03  0.00000000000E+00 0.  1.
          5    1    4    4  501    0 -0.49038347887E+01 -0.87148568112E+01 -0.11504022593E+02  0.15805418713E+02  0.41800000000E+01 0. -1.
         -5    1    4    4    0  501 -0.13964314355E+03  0.16744473630E+03  0.20241211707E+03  0.29753333392E+03  0.41800000000E+01 0. -1.
</event>
<event>
11    1  0.7105277E-009  0.1458097E+03  0.7561462E-02  0.1101239E+00
         22   -1    0    0    0    0  0.00000000000E+00  0.00000000000E+00  0.26713861837E+04  0.26713861837E+04  0.00000000000E+00 0.  1.
         22   -1    0    0    0    0 -0.00000000000E+00 -0.00000000000E+00 -0.25019477157E+03  0.25019477157E+03  0.00000000000E+00 0.  1.
         24    2    1    2    0    0  0.16209878126E+02 -0.37615126217E+02 -0.21446615489E+03  0.23277835117E+03  0.80699264617E+02 0.  0.
         25    2    1    2    0    0 -0.61277665960E+02 -0.23413647955E+02  0.17150902042E+03  0.22218295492E+03  0.12508705015E+03 0.  0.
        -24    2    1    2    0    0  0.45067787834E+02  0.61028774172E+02  0.24641485466E+04  0.24666196492E+04  0.80179905462E+02 0.  0.
        -11    1    3    3    0    0  0.42542824837E+02 -0.15071266990E+02 -0.17270256893E+03  0.17850269563E+03  0.00000000000E+00 0.  1.
         12    1    3    3    0    0 -0.26332946711E+02 -0.22543859227E+02 -0.41763585963E+02  0.54275655536E+02  0.00000000000E+00 0. -1.
         13    1    5    5    0    0  0.63766035219E+02  0.52905246424E+02  0.15244579006E+04  0.15267078839E+04  0.00000000000E+00 0. -1.
        -14    1    5    5    0    0 -0.18698247385E+02  0.81235277477E+01  0.93969064609E+03  0.93991176528E+03  0.00000000000E+00 0.  1.
          5    1    4    4  501    0 -0.29492330699E+02  0.49367229031E+02  0.46738903193E+02  0.74222087979E+02  0.41800000000E+01 0.  1.
         -5    1    4    4    0  501 -0.31785335261E+02 -0.72780876986E+02  0.12477011723E+03  0.14796086694E+03  0.41800000000E+01 0.  1.
</event>
<event>
11    1  0.7105277E-009  0.1425368E+03  0.7561462E-02  0.1104758E+00
         22   -1    0    0    0    0  0.00000000000E+00  0.00000000000E+00  0.13781268623E+04  0.13781268623E+04  0.00000000000E+00 0. -1.
         22   -1    0    0    0    0 -0.00000000000E+00 -0.00000000000E+00 -0.33531340425E+03  0.33531340425E+03  0.00000000000E+00 0. -1.
        -24    2    1    2    0    0 -0.43769846444E+02 -0.42077865463E+02 -0.30625283716E+03  0.32171865417E+03  0.77625678443E+02 0.  0.
         25    2    1    2    0    0  0.79067814409E+02  0.91839626912E+02  0.38645185341E+03  0.42388665713E+03  0.12509447129E+03 0.  0.
         24    2    1    2    0    0 -0.35297967965E+02 -0.49761761449E+02  0.96261444183E+03  0.96783495528E+03  0.79723005391E+02 0.  0.
        -13    1    5    5    0    0  0.76254051359E+01  0.90015259208E+01  0.44219952228E+03  0.44235686021E+03  0.00000000000E+00 0.  1.
         14    1    5    5    0    0 -0.42923373101E+02 -0.58763287370E+02  0.52041491955E+03  0.52547809506E+03  0.00000000000E+00 0. -1.
         11    1    3    3    0    0 -0.39574751784E+02 -0.50280139058E+02 -0.30587719192E+03  0.31249817584E+03  0.00000000000E+00 0. -1.
        -12    1    3    3    0    0 -0.41950946601E+01  0.82022735951E+01 -0.37564523437E+00  0.92204783324E+01  0.00000000000E+00 0.  1.
          5    1    4    4  501    0  0.61030277327E+02  0.11578651455E+03  0.36205207809E+03  0.38500700170E+03  0.41800000000E+01 0. -1.
         -5    1    4    4    0  501  0.18037537082E+02 -0.23946887639E+02  0.24399775315E+02  0.38879655438E+02  0.41800000000E+01 0. -1.
</event>
<event>
11    1  0.7105277E-009  0.1262310E+03  0.7561462E-02  0.1123989E+00
         22   -1    0    0    0    0  0.00000000000E+00  0.00000000000E+00  0.17186034822E+04  0.17186034822E+04  0.00000000000E+00 0. -1.
         22   -1    0    0    0    0 -0.00000000000E+00 -0.00000000000E+00 -0.19943118988E+02  0.19943118988E+02  0.00000000000E+00 0. -1.
         24    2    1    2    0    0  0.26884736370E+01 -0.28754317055E+01  0.13225728010E+03  0.15424689324E+03  0.79275594846E+02 0.  0.
         25    2    1    2    0    0 -0.17798364004E+02  0.88100708042E+01  0.54682752723E+03  0.56130461599E+03  0.12509247892E+03 0.  0.
        -24    2    1    2    0    0  0.15109890367E+02 -0.59346390987E+01  0.10195755559E+04  0.10229950920E+04  0.81982408411E+02 0.  0.
        -11    1    3    3    0    0 -0.16255393243E+02 -0.26940746620E+02  0.11471469804E+03  0.11895168593E+03  0.00000000000E+00 0.  1.
         12    1    3    3    0    0  0.18943866880E+02  0.24065314915E+02  0.17542582057E+02  0.35295207317E+02  0.00000000000E+00 0. -1.
         13    1    5    5    0    0 -0.19468731993E+02  0.13886890890E+02  0.76011489563E+03  0.76049098076E+03  0.00000000000E+00 0. -1.
        -14    1    5    5    0    0  0.34578622361E+02 -0.19821529989E+02  0.25946066028E+03  0.26250411122E+03  0.00000000000E+00 0.  1.
          5    1    4    4  501    0 -0.70657869206E+02  0.15698414372E+02  0.34314661717E+03  0.35072218061E+03  0.41800000000E+01 0. -1.
         -5    1    4    4    0  501  0.52859505201E+02 -0.68883435682E+01  0.20368091006E+03  0.21058243538E+03  0.41800000000E+01 0. -1.
</event>
<event>
11    1  0.7105277E-009  0.2170258E+03  0.7561462E-02  0.1043097E+00
         22   -1    0    0    0    0  0.00000000000E+00  0.00000000000E+00  0.16742590197E+04  0.16742590197E+04  0.00000000000E+00 0. -1.
         22   -1    0    0    0    0 -0.00000000000E+00 -0.00000000000E+00 -0.63025383076E+03  0.63025383076E+03  0.00000000000E+00 0.  1.
        -24    2    1    2    0    0  0.21807507567E+02 -0.11635202968E+03 -0.58783072142E+03  0.60473940949E+03  0.78431078960E+02 0.  0.
         25    2    1    2    0    0 -0.35017577429E+02  0.26307731521E+03  0.82467332874E+03  0.87531116803E+03  0.12509051614E+03 0.  0.
         24    2    1    2    0    0  0.13210069862E+02 -0.14672528554E+03  0.80716258164E+03  0.82446227296E+03  0.80769988084E+02 0.  0.
        -11    1    5    5    0    0 -0.31332426865E+02 -0.66380260082E+02  0.28627871212E+03  0.29553944054E+03  0.00000000000E+00 0.  1.
         12    1    5    5    0    0  0.44542496728E+02 -0.80345025455E+02  0.52088386952E+03  0.52892283242E+03  0.00000000000E+00 0. -1.
         11    1    3    3    0    0  0.54997307951E+01 -0.37143167476E+02 -0.60220266897E+02  0.70967192942E+02  0.00000000000E+00 0. -1.
        -12    1    3    3    0    0  0.16307776772E+02 -0.79208862200E+02 -0.52761045453E+03  0.53377221655E+03  0.00000000000E+00 0.  1.
          5    1    4    4  501    0  0.37972536572E+02  0.62200657133E+02  0.30018948166E+03  0.30893693949E+03  0.41800000000E+01 0. -1.
         -5    1    4    4    0  501 -0.72990114001E+02  0.20087665808E+03  0.52448384708E+03  0.56637422853E+03  0.41800000000E+01 0. -1.
</event>
<event>
11    1  0.7105277E-009  0.1315868E+03  0.7561462E-02  0.1117335E+00
         22   -1    0    0    0    0  0.00000000000E+00  0.00000000000E+00  0.95664993975E+03  0.95664993975E+03  0.00000000000E+00 0.  1.
         22   -1    0    0    0    0 -0.00000000000E+00 -0.00000000000E+00 -0.29190164669E+03  0.29190164669E+03  0.00000000000E+00 0. -1.
         24    2    1    2    0    0 -0.12814636254E+02 -0.78152988395E+01 -0.19990935561E+03  0.21606622121E+03  0.80595084764E+02 0.  0.
         25    2    1    2    0    0  0.32108655740E+02 -0.28207859744E+02 -0.28172231833E+02  0.13515606810E+03  0.12508732539E+03 0.  0.
        -24    2    1    2    0    0 -0.19294019487E+02  0.36023158584E+02  0.89282988050E+03  0.89732929712E+03  0.79904598277E+02 0.  0.
        -11    1    3    3    0    0 -0.18285677869E+02 -0.32881666665E+02 -0.43271280705E+02  0.57340855867E+02  0.00000000000E+00 0.  1.
         12    1    3    3    0    0  0.54710416151E+01  0.25066367825E+02 -0.15663807490E+03  0.15872536534E+03  0.00000000000E+00 0. -1.
         13    1    5    5    0    0 -0.35945801669E+02  0.48096159566E+02  0.44567342243E+03  0.44970005635E+03  0.00000000000E+00 0. -1.
        -14    1    5    5    0    0  0.16651782183E+02 -0.12073000983E+02  0.44715645807E+03  0.44762924077E+03  0.00000000000E+00 0.  1.
          5    1    4    4  501    0  0.72255641306E+02 -0.22786223570E+02  0.13294365623E+02  0.77034422452E+02  0.41800000000E+01 0. -1.
         -5    1    4    4    0  501 -0.40146985566E+02 -0.54216361744E+01 -0.41466597456E+02  0.58121645653E+02  0.41800000000E+01 0. -1.
</event>
<event>
11    1  0.7105277E-009  0.1375442E+03  0.7561462E-02  0.1110332E+00
         22   -1    0    0    0    0  0.00000000000E+00  0.00000000000E+00  0.61062233520E+03  0.61062233520E+03  0.00000000000E+00 0. -1.
         22   -1    0    0    0    0 -0.00000000000E+00 -0.00000000000E+00 -0.10325568200E+04  0.10325568200E+04  0.00000000000E+00 0.  1.
         24    2    1    2    0    0  0.10358492917E+01 -0.56391725085E+02 -0.97945868807E+03  0.98464077834E+03  0.83648317850E+02 0.  0.
         25    2    1    2    0    0 -0.10484378355E+02  0.10158237253E+03  0.95736216235E+02  0.18772079881E+03  0.12507907343E+03 0.  0.
        -24    2    1    2    0    0  0.94485290634E+01 -0.45190647443E+02  0.46178798707E+03  0.47081757802E+03  0.79306856250E+02 0.  0.
        -13    1    3    3    0    0 -0.10337018181E+02 -0.64616177033E+02 -0.94724251804E+03  0.94950012758E+03  0.00000000000E+00 0.  1.
         14    1    3    3    0    0  0.11372867473E+02  0.82244519485E+01 -0.32216170029E+02  0.35140650759E+02  0.00000000000E+00 0. -1.
         11    1    5    5    0    0 -0.32493004680E+01 -0.66634242570E+02  0.34712193195E+03  0.35347463258E+03  0.00000000000E+00 0. -1.
        -12    1    5    5    0    0  0.12697829531E+02  0.21443595127E+02  0.11466605512E+03  0.11734294544E+03  0.00000000000E+00 0.  1.
          5    1    4    4  501    0 -0.20691532455E+02  0.12709494705E+03  0.59127403702E+02  0.14175608399E+03  0.41800000000E+01 0.  1.
         -5    1    4    4    0  501  0.10207154100E+02 -0.25512574520E+02  0.36608812533E+02  0.45964714820E+02  0.41800000000E+01 0.  1.
</event>
<event>
11    1  0.7105277E-009  0.1536041E+03  0.7561462E-02  0.1093252E+00
         22   -1    0    0    0    0  0.00000000000E+00  0.00000000000E+00  0.79431322650E+03  0.79431322650E+03  0.00000000000E+00 0.  1.
         22   -1    0    0    0    0 -0.00000000000E+00 -0.00000000000E+00 -0.60384319611E+03  0.60384319611E+03  0.00000000000E+00 0.  1.
        -24    2    1    2    0    0 -0.65640886755E+02 -0.58768491198E+02 -0.55716866437E+03  0.56977546780E+03  0.80278898708E+02 0.  0.
         25    2    1    2    0    0  0.70303758779E+02  0.11164632605E+03  0.19420004116E+03  0.26602424055E+03  0.12509084679E+03 0.  0.
         24    2    1    2    0    0 -0.46628720244E+01 -0.52877834856E+02  0.55343865358E+03  0.56235671426E+03  0.84456633841E+02 0.  0.
        -13    1    5    5    0    0  0.36084212171E+02 -0.34143860090E+02  0.19968678139E+03  0.20577338072E+03  0.00000000000E+00 0.  1.
         14    1    5    5    0    0 -0.40747084195E+02 -0.18733974766E+02  0.35375187220E+03  0.35658333355E+03  0.00000000000E+00 0. -1.
         13    1    3    3    0    0 -0.29103522770E+01 -0.46525616149E+01  0.92574243173E+00  0.55653821977E+01  0.00000000000E+00 0. -1.
        -14    1    3    3    0    0 -0.62730534478E+02 -0.54115929583E+02 -0.55809440680E+03  0.56421008560E+03  0.00000000000E+00 0.  1.
          5    1    4    4  501    0  0.14581981984E+02  0.12324649469E+03  0.12309218070E+03  0.17484704745E+03  0.41800000000E+01 0. -1.
         -5    1    4    4    0  501  0.55721776795E+02 -0.11600168638E+02  0.71107860467E+02  0.91177193101E+02  0.41800000000E+01 0. -1.
</event>
<event>
11    1  0.7105277E-009  0.1520222E+03  0.7561462E-02  0.1094830E+00
         22   -1    0    0    0    0  0.00000000000E+00  0.00000000000E+00  0.25708678536E+03  0.25708678536E+03  0.00000000000E+00 0. -1.
         22   -1    0    0    0    0 -0.00000000000E+00 -0.00000000000E+00 -0.67533775654E+03  0.67533775654E+03  0.00000000000E+00 0. -1.
         24    2    1    2    0    0  0.83029872894E+02  0.30728742528E+02 -0.49435970435E+03  0.50854178780E+03  0.79906302881E+02 0.  0.
         25    2    1    2    0    0 -0.39154856623E+02 -0.93711899085E+02 -0.11823290769E+03  0.19985746660E+03  0.12509581795E+03 0.  0.
        -24    2    1    2    0    0 -0.43875016271E+02  0.62983156557E+02  0.19434164086E+03  0.22402528750E+03  0.80788371711E+02 0.  0.
        -11    1    3    3    0    0  0.55170846288E+02 -0.60327994676E+01 -0.13107634506E+03  0.14234193052E+03  0.00000000000E+00 0.  1.
         12    1    3    3    0    0  0.27859026606E+02  0.36761541996E+02 -0.36328335929E+03  0.36619985727E+03  0.00000000000E+00 0. -1.
         13    1    5    5    0    0 -0.16452064190E+02  0.74177344762E+02  0.16801693429E+03  0.18439804528E+03  0.00000000000E+00 0. -1.
        -14    1    5    5    0    0 -0.27422952081E+02 -0.11194188205E+02  0.26324706572E+02  0.39627242227E+02  0.00000000000E+00 0.  1.
          5    1    4    4  501    0 -0.13592859069E+02  0.26719300390E+02 -0.17473105825E+01  0.30318514562E+02  0.41800000000E+01 0.  1.
         -5    1    4    4    0  501 -0.25561997554E+02 -0.12043119948E+03 -0.11648559710E+03  0.16953895204E+03  0.41800000000E+01 0.  1.
</event>
<event>
11    1  0.7105277E-009  0.1426943E+03  0.7561462E-02  0.1104586E+00
         22   -1    0    0    0    0  0.00000000000E+00  0.00000000000E+00  0.12412359412E+04  0.12412359412E+04  0.00000000000E+00 0.  1.
         22   -1    0    0    0    0 -0.00000000000E+00 -0.00000000000E+00 -0.24566795943E+04  0.24566795943E+04  0.00000000000E+00 0.  1.
        -24    2    1    2    0    0 -0.15017134396E+02 -0.66997834149E+02 -0.24446467013E+04  0.24469682446E+04  0.81497679862E+02 0.  0.
         25    2    1    2    0    0  0.28110600584E+02  0.66570988285E+02  0.63556265609E+03  0.65177345625E+03  0.12508735389E+03 0.  0.
         24    2    1    2    0    0 -0.13093466188E+02  0.42684586360E+00  0.59364039204E+03  0.59917383466E+03  0.80179473833E+02 0.  0.
        -11    1    5    5    0    0 -0.18035293564E+01 -0.11426260427E+02  0.57161274953E+03  0.57172978545E+03  0.00000000000E+00 0.  1.
         12    1    5    5    0    0 -0.11289936832E+02  0.11853106291E+02  0.22027642508E+02  0.27444049207E+02  0.00000000000E+00 0. -1.
         11    1    3    3    0    0 -0.11816446937E+02 -0.22275199065E+02 -0.16815569908E+03  0.17003573755E+03  0.00000000000E+00 0. -1.
        -12    1    3    3    0    0 -0.32006874589E+01 -0.44722635084E+02 -0.22764910022E+04  0.22769325070E+04  0.00000000000E+00 0.  1.
          5    1    4    4  501    0  0.15297740191E+02 -0.36313697471E+02  0.14224513140E+03  0.14766128567E+03  0.41800000000E+01 0. -1.
         -5    1    4    4    0  501  0.12812860393E+02  0.10288468576E+03  0.49331752469E+03  0.50411217058E+03  0.41800000000E+01 0. -1.
</event>
<event>
11    1  0.7105277E-009  0.1491764E+03  0.7561462E-02  0.1097723E+00
         22   -1    0    0    0    0  0.00000000000E+00  0.00000000000E+00  0.10212461498E+03  0.10212461498E+03  0.00000000000E+00 0. -1.
         22   -1    0    0    0    0 -0.00000000000E+00 -0.00000000000E+00 -0.37423169672E+03  0.37423169672E+03  0.00000000000E+00 0.  1.
        -24    2    1    2    0    0 -0.30639294751E+02 -0.75335400279E+02 -0.11004018654E+03  0.16035369425E+03  0.83607868578E+02 0.  0.
         25    2    1    2    0    0 -0.42283633629E+02  0.91310827936E+02 -0.10535943763E+03  0.19201803675E+03  0.12507894454E+03 0.  0.
         24    2    1    2    0    0  0.72922928380E+02 -0.15975427658E+02 -0.56707457567E+02  0.12398458070E+03  0.81138601999E+02 0.  0.
        -13    1    5    5    0    0  0.73906158225E+02 -0.28096295034E+02 -0.70261898790E+02  0.10577455478E+03  0.00000000000E+00 0.  1.
         14    1    5    5    0    0 -0.98322984494E+00  0.12120867376E+02  0.13554441222E+02  0.18210025912E+02  0.00000000000E+00 0. -1.
         11    1    3    3    0    0  0.15544270505E+02 -0.50336286970E+02 -0.20460697181E+02  0.56515539992E+02  0.00000000000E+00 0. -1.
        -12    1    3    3    0    0 -0.46183565257E+02 -0.24999113308E+02 -0.89579489359E+02  0.10383815426E+03  0.00000000000E+00 0.  1.
          5    1    4    4  501    0  0.92357291020E+01  0.64766587053E+02 -0.11571717171E+03  0.13299603648E+03  0.41800000000E+01 0. -1.
         -5    1    4    4    0  501 -0.51519362731E+02  0.26544240883E+02  0.10357734084E+02  0.59022000268E+02  0.41800000000E+01 0. -1.
</event>
<event>
11    1  0.7105277E-009  0.1489251E+03  0.7561462E-02  0.1097982E+00
         22   -1    0    0    0    0  0.00000000000E+00  0.00000000000E+00  0.12591769108E+03  0.12591769108E+03  0.00000000000E+00 0.  1.
         22   -1    0    0    0    0 -0.00000000000E+00 -0.00000000000E+00 -0.15127514456E+04  0.15127514456E+04  0.00000000000E+00 0.  1.
         24    2    1    2    0    0  0.16644686188E+02 -0.57422933632E+02 -0.13626873755E+04  0.13667590479E+04  0.86827258281E+02 0.  0.
         25    2    1    2    0    0  0.49174932087E+02  0.89992746618E+02 -0.18422532372E+02  0.16279785021E+03  0.12508749716E+03 0.  0.
        -24    2    1    2    0    0 -0.65819618275E+02 -0.32569812987E+02 -0.57238466732E+01  0.10911223860E+03  0.80496604426E+02 0.  0.
        -11    1    3    3    0    0  0.29907653285E+02 -0.67874028160E+02 -0.12902273512E+04  0.12923575238E+04  0.00000000000E+00 0.  1.
         12    1    3    3    0    0 -0.13262967097E+02  0.10451094529E+02 -0.72460024256E+02  0.74401524099E+02  0.00000000000E+00 0. -1.
         13    1    5    5    0    0 -0.67173866856E+02 -0.32831142889E+02 -0.33053314324E+02  0.81747990309E+02  0.00000000000E+00 0. -1.
        -14    1    5    5    0    0  0.13542485812E+01  0.26132990217E+00  0.27329467651E+02  0.27364248293E+02  0.00000000000E+00 0.  1.
          5    1    4    4  501    0  0.54355076084E+02  0.86297121770E+02 -0.61422150875E+02  0.11912942768E+03  0.41800000000E+01 0. -1.
         -5    1    4    4    0  501 -0.51801439969E+01  0.36956248485E+01  0.42999618503E+02  0.43668422530E+02  0.41800000000E+01 0. -1.
</event>
<event>
11    1  0.7105277E-009  0.1895325E+03  0.7561462E-02  0.1062183E+00
         22   -1    0    0    0    0  0.00000000000E+00  0.00000000000E+00  0.41098040274E+03  0.41098040274E+03  0.00000000000E+00 0. -1.
         22   -1    0    0    0    0 -0.00000000000E+00 -0.00000000000E+00 -0.87787530493E+03  0.87787530493E+03  0.00000000000E+00 0. -1.
         24    2    1    2    0    0  0.94446233269E+02 -0.11230381875E+03 -0.82003415251E+03  0.83675605838E+03  0.78564949341E+02 0.  0.
         25    2    1    2    0    0 -0.53107745553E+02  0.48525826735E+02  0.98753368552E+02  0.17485251003E+03  0.12508390769E+03 0.  0.
        -24    2    1    2    0    0 -0.41338487716E+02  0.63777992018E+02  0.25438588177E+03  0.27724713926E+03  0.79857977401E+02 0.  0.
        -11    1    3    3    0    0  0.28293498788E+02 -0.22412706671E+02 -0.73060826868E+02  0.81490710615E+02  0.00000000000E+00 0.  1.
         12    1    3    3    0    0  0.66152734481E+02 -0.89891112082E+02 -0.74697332564E+03  0.75526534776E+03  0.00000000000E+00 0. -1.
         11    1    5    5    0    0 -0.31550405625E+02  0.14316148420E+02  0.20041717049E+03  0.20338982873E+03  0.00000000000E+00 0. -1.
        -12    1    5    5    0    0 -0.97880820909E+01  0.49461843599E+02  0.53968711274E+02  0.73857310537E+02  0.00000000000E+00 0.  1.
          5    1    4    4  501    0 -0.53663107817E+02 -0.28588268333E+02  0.19011684453E+02  0.63843047958E+02  0.41800000000E+01 0. -1.
         -5    1    4    4    0  501  0.55536226430E+00  0.77114095068E+02  0.79741684099E+02  0.11100946207E+03  0.41800000000E+01 0. -1.
</event>
<event>
11    1  0.7105277E-009  0.2254740E+03  0.7561462E-02  0.1037842E+00
         22   -1    0    0    0    0  0.00000000000E+00  0.00000000000E+00  0.37944811972E+03  0.37944811972E+03  0.00000000000E+00 0.  1.
         22   -1    0    0    0    0 -0.00000000000E+00 -0.00000000000E+00 -0.73564865714E+03  0.73564865714E+03  0.00000000000E+00 0.  1.
         24    2    1    2    0    0  0.17938186737E+03 -0.51986971285E+02 -0.63879473757E+03  0.67049944119E+03  0.81426558133E+02 0.  0.
         25    2    1    2    0    0 -0.17613593448E+03  0.10808088432E+03  0.17220276629E+03  0.29666289610E+03  0.12509890581E+03 0.  0.
        -24    2    1    2    0    0 -0.32459328912E+01 -0.56093913039E+02  0.11039143386E+03  0.14793443957E+03  0.80878097041E+02 0.  0.
        -11    1    3    3    0    0  0.15148469306E+03 -0.23159769469E+02 -0.57557540647E+03  0.59562659082E+03  0.00000000000E+00 0.  1.
         12    1    3    3    0    0  0.27897174305E+02 -0.28827201816E+02 -0.63219331096E+02  0.74872850374E+02  0.00000000000E+00 0. -1.
         13    1    5    5    0    0 -0.20746919573E+02 -0.31391150130E+02  0.46133656332E+01  0.37909393568E+02  0.00000000000E+00 0. -1.
        -14    1    5    5    0    0  0.17500986682E+02 -0.24702762909E+02  0.10577806822E+03  0.11002504600E+03  0.00000000000E+00 0.  1.
          5    1    4    4  501    0 -0.26724513983E+01  0.60749012763E+02  0.54109323909E+02  0.81503839677E+02  0.41800000000E+01 0.  1.
         -5    1    4    4    0  501 -0.17346348308E+03  0.47331871561E+02  0.11809344238E+03  0.21515905642E+03  0.41800000000E+01 0.  1.
</event>
<event>
11    1  0.7105277E-009  0.1903098E+03  0.7561462E-02  0.1061596E+00
         22   -1    0    0    0    0  0.00000000000E+00  0.00000000000E+00  0.22453202213E+03  0.22453202213E+03  0.00000000000E+00 0.  1.
         22   -1    0    0    0    0 -0.00000000000E+00 -0.00000000000E+00 -0.78674771198E+03  0.78674771198E+03  0.00000000000E+00 0.  1.
        -24    2    1    2    0    0  0.14040322798E+03 -0.86321991217E+02 -0.46015882330E+03  0.49530790962E+03  0.80120097844E+02 0.  0.
         25    2    1    2    0    0 -0.77664626897E+02  0.86846577556E+02 -0.27024025207E+03  0.31977175933E+03  0.12510020750E+03 0.  0.
         24    2    1    2    0    0 -0.62738601079E+02 -0.52458633832E+00  0.16818338553E+03  0.19620006515E+03  0.79198529922E+02 0.  0.
        -11    1    5    5    0    0 -0.61866351427E+02  0.23056552090E+02  0.15652542550E+03  0.16988013086E+03  0.00000000000E+00 0.  1.
         12    1    5    5    0    0 -0.87224965244E+00 -0.23581138429E+02  0.11657960025E+02  0.26319934289E+02  0.00000000000E+00 0. -1.
         11    1    3    3    0    0  0.37327923934E+01 -0.33220863174E+02 -0.12671744358E+03  0.13105292823E+03  0.00000000000E+00 0. -1.
        -12    1    3    3    0    0  0.13667043558E+03 -0.53101128044E+02 -0.33344137972E+03  0.36425498140E+03  0.00000000000E+00 0.  1.
          5    1    4    4  501    0 -0.61914632135E+02  0.11478602699E+03 -0.16913965794E+03  0.21362338344E+03  0.41800000000E+01 0.  1.
         -5    1    4    4    0  501 -0.15749994762E+02 -0.27939449430E+02 -0.10110059413E+03  0.10614837589E+03  0.41800000000E+01 0.  1.
</event>
<event>
11    1  0.7105277E-009  0.1359414E+03  0.7561462E-02  0.1112177E+00
         22   -1    0    0    0    0  0.00000000000E+00  0.00000000000E+00  0.35407761830E+03  0.35407761830E+03  0.00000000000E+00 0. -1.
         22   -1    0    0    0    0 -0.00000000000E+00 -0.00000000000E+00 -0.10794124788E+03  0.10794124788E+03  0.00000000000E+00 0. -1.
         24    2    1    2    0    0 -0.16780605368E+00 -0.47739580704E+02  0.89357119525E+01  0.93084177353E+02  0.79408572590E+02 0.  0.
         25    2    1    2    0    0 -0.46638579517E+02  0.55901819147E+02  0.36741039614E+02  0.14932355512E+03  0.12508976633E+03 0.  0.
        -24    2    1    2    0    0  0.46806385571E+02 -0.81622384426E+01  0.20045961885E+03  0.21961113370E+03  0.76075826562E+02 0.  0.
        -11    1    3    3    0    0  0.16990913794E+02 -0.53982291230E+02  0.30933790698E+02  0.64495568258E+02  0.00000000000E+00 0.  1.
         12    1    3    3    0    0 -0.17158719848E+02  0.62427105261E+01 -0.21998078745E+02  0.28588609095E+02  0.00000000000E+00 0. -1.
         11    1    5    5    0    0  0.39175571878E+02  0.27071851478E+02  0.15151947758E+03  0.15882620269E+03  0.00000000000E+00 0. -1.
        -12    1    5    5    0    0  0.76308136924E+01 -0.35234089920E+02  0.48940141276E+02  0.60784931013E+02  0.00000000000E+00 0.  1.
          5    1    4    4  501    0  0.21346013709E+02 -0.66523969925E+01  0.50914631219E+02  0.55764493714E+02  0.41800000000E+01 0. -1.
         -5    1    4    4    0  501 -0.67984593226E+02  0.62554216139E+02 -0.14173591605E+02  0.93559061410E+02  0.41800000000E+01 0. -1.
</event>
<event>
11    1  0.7105277E-009  0.1634420E+03  0.7561462E-02  0.1083884E+00
         22   -1    0    0    0    0  0.00000000000E+00  0.00000000000E+00  0.23283773069E+03  0.23283773069E+03  0.00000000000E+00 0. -1.
         22   -1    0    0    0    0 -0.00000000000E+00 -0.00000000000E+00 -0.14712758427E+04  0.14712758427E+04  0.00000000000E+00 0. -1.
         24    2    1    2    0    0  0.85504589079E+02 -0.56155536591E+02 -0.12310425846E+04  0.12378999329E+04  0.80410944015E+02 0.  0.
         25    2    1    2    0    0 -0.96468554411E+02  0.10581072069E+03 -0.18475290076E+03  0.26510872113E+03  0.12508760561E+03 0.  0.
        -24    2    1    2    0    0  0.10963965333E+02 -0.49655184102E+02  0.17735737335E+03  0.20110491929E+03  0.80010654543E+02 0.  0.
        -11    1    3    3    0    0 -0.53018089125E+01  0.11386370381E+02 -0.54579679185E+02  0.56006249545E+02  0.00000000000E+00 0.  1.
         12    1    3    3    0    0  0.90806397991E+02 -0.67541906971E+02 -0.11764629054E+04  0.11818936834E+04  0.00000000000E+00 0. -1.
         11    1    5    5    0    0  0.39598727265E+02 -0.38875432679E+02  0.15045814187E+03  0.16036524225E+03  0.00000000000E+00 0. -1.
        -12    1    5    5    0    0 -0.28634761932E+02 -0.10779751424E+02  0.26899231472E+02  0.40739677041E+02  0.00000000000E+00 0.  1.
          5    1    4    4  501    0 -0.67517558036E+02  0.28237043225E+02 -0.16401254858E+03  0.17964837807E+03  0.41800000000E+01 0.  1.
         -5    1    4    4    0  501 -0.28950996375E+02  0.77573677468E+02 -0.20740352178E+02  0.85460343057E+02  0.41800000000E+01 0.  1.
</event>
<event>
11    1  0.7105277E-009  0.1336589E+03  0.7561462E-02  0.1114853E+00
         22   -1    0    0    0    0  0.00000000000E+00  0.00000000000E+00  0.12079839677E+03  0.12079839677E+03  0.00000000000E+00 0. -1.
         22   -1    0    0    0    0 -0.00000000000E+00 -0.00000000000E+00 -0.20691769914E+04  0.20691769914E+04  0.00000000000E+00 0. -1.
         24    2    1    2    0    0 -0.33991251583E+02  0.32589716497E+02 -0.19138683132E+04  0.19161536162E+04  0.80840991996E+02 0.  0.
         25    2    1    2    0    0  0.18328316224E+02 -0.48622428877E+02 -0.10000434204E+03  0.16836939637E+03  0.12508923792E+03 0.  0.
        -24    2    1    2    0    0  0.15662935359E+02  0.16032712381E+02  0.65494060637E+02  0.10545237553E+03  0.79550965526E+02 0.  0.
        -13    1    3    3    0    0  0.11245854444E+02 -0.47441113935E+01 -0.54064128476E+02  0.55424776256E+02  0.00000000000E+00 0.  1.
         14    1    3    3    0    0 -0.45237106027E+02  0.37333827890E+02 -0.18598041847E+04  0.18607288400E+04  0.00000000000E+00 0. -1.
         11    1    5    5    0    0  0.13110237623E+02  0.28478602230E+02  0.80145632180E+02  0.86059464750E+02  0.00000000000E+00 0. -1.
        -12    1    5    5    0    0  0.25526977363E+01 -0.12445889850E+02 -0.14651571543E+02  0.19392910781E+02  0.00000000000E+00 0.  1.
          5    1    4    4  501    0  0.61996242887E+02 -0.63725954381E+02 -0.67941819657E+02  0.11197363374E+03  0.41800000000E+01 0. -1.
         -5    1    4    4    0  501 -0.43667926663E+02  0.15103525503E+02 -0.32062522385E+02  0.56395762636E+02  0.41800000000E+01 0. -1.
</event>
<event>
11    1  0.7105277E-009  0.1431586E+03  0.7561462E-02  0.1104082E+00
         22   -1    0    0    0    0  0.00000000000E+00  0.00000000000E+00  0.17260640583E+03  0.17260640583E+03  0.00000000000E+00 0.  1.
         22   -1    0    0    0    0 -0.00000000000E+00 -0.00000000000E+00 -0.26069570072E+03  0.26069570072E+03  0.00000000000E+00 0. -1.
         24    2    1    2    0    0 -0.39234912377E+02  0.23128566689E+02 -0.12761743365E+03  0.15776804603E+03  0.80809888193E+02 0.  0.
         25    2    1    2    0    0 -0.29394806908E+02 -0.54606016789E+02 -0.32724296351E+02  0.14343390975E+03  0.12512607703E+03 0.  0.
        -24    2    1    2    0    0  0.68629719285E+02  0.31477450100E+02  0.72252435115E+02  0.13210015077E+03  0.80803262427E+02 0.  0.
        -11    1    3    3    0    0  0.13065954721E+02 -0.15098068374E+02 -0.63724018893E+02  0.66778899551E+02  0.00000000000E+00 0.  1.
         12    1    3    3    0    0 -0.52300867097E+02  0.38226635063E+02 -0.63893414760E+02  0.90989146480E+02  0.00000000000E+00 0. -1.
         11    1    5    5    0    0  0.43001044268E+01 -0.16270776935E+02 -0.80615689796E+01  0.18660599523E+02  0.00000000000E+00 0. -1.
        -12    1    5    5    0    0  0.64329614858E+02  0.47748227036E+02  0.80314004095E+02  0.11343955124E+03  0.00000000000E+00 0.  1.
          5    1    4    4  501    0  0.91956770967E+01  0.34091100821E+02 -0.30089770323E+02  0.46579290576E+02  0.41800000000E+01 0.  1.
         -5    1    4    4    0  501 -0.38590484005E+02 -0.88697117611E+02 -0.26345260276E+01  0.96854619175E+02  0.41800000000E+01 0.  1.
</event>
<event>
11    1  0.7105277E-009  0.1397184E+03  0.7561462E-02  0.1107873E+00
         22   -1    0    0    0    0  0.00000000000E+00  0.00000000000E+00  0.12193581211E+04  0.12193581211E+04  0.00000000000E+00 0. -1.
         22   -1    0    0    0    0 -0.00000000000E+00 -0.00000000000E+00 -0.18237512351E+04  0.18237512351E+04  0.00000000000E+00 0. -1.
        -24    2    1    2    0    0 -0.37171432312E+02  0.49741194242E+02 -0.17956405661E+04  0.17985025520E+04  0.80190305135E+02 0.  0.
         25    2    1    2    0    0  0.30414214641E+02 -0.85464740427E+02  0.21773299693E+03  0.26699115216E+03  0.12508945228E+03 0.  0.
         24    2    1    2    0    0  0.67572176710E+01  0.35723546185E+02  0.97351445514E+03  0.97761565207E+03  0.81732105382E+02 0.  0.
        -11    1    5    5    0    0 -0.32171745260E+02  0.16317965969E+01  0.22239984200E+03  0.22472065698E+03  0.00000000000E+00 0.  1.
         12    1    5    5    0    0  0.38928962931E+02  0.34091749588E+02  0.75111461314E+03  0.75289499508E+03  0.00000000000E+00 0. -1.
         11    1    3    3    0    0  0.15232392109E+01  0.69178533387E+01 -0.12108585034E+04  0.12108792228E+04  0.00000000000E+00 0. -1.
        -12    1    3    3    0    0 -0.38694671522E+02  0.42823340904E+02 -0.58478206270E+03  0.58762332917E+03  0.00000000000E+00 0.  1.
          5    1    4    4  501    0  0.21111299857E+02 -0.10923657902E+03  0.11117853076E+03  0.15734184211E+03  0.41800000000E+01 0. -1.
         -5    1    4    4    0  501  0.93029147835E+01  0.23771838588E+02  0.10655446617E+03  0.10964931005E+03  0.41800000000E+01 0. -1.
</event>
<event>
11    1  0.7105277E-009  0.1695703E+03  0.7561462E-02  0.1078406E+00
         22   -1    0    0    0    0  0.00000000000E+00  0.00000000000E+00  0.16287520555E+04  0.16287520555E+04  0.00000000000E+00 0.  1.
         22   -1    0    0    0    0 -0.00000000000E+00 -0.00000000000E+00 -0.22103999391E+03  0.22103999391E+03  0.00000000000E+00 0.  1.
        -24    2    1    2    0    0  0.55623972827E+02 -0.10451468893E+03 -0.16510475825E+03  0.21820625405E+03  0.79605537208E+02 0.  0.
         25    2    1    2    0    0 -0.33062049092E+02  0.77996195644E+02  0.17649339079E+03  0.23232072384E+03  0.12508595489E+03 0.  0.
         24    2    1    2    0    0 -0.22561923735E+02  0.26518493285E+02  0.13963234291E+04  0.13992650715E+04  0.83733810292E+02 0.  0.
        -13    1    5    5    0    0 -0.28374309463E+02  0.52253810311E+02  0.11492009603E+04  0.11507382019E+04  0.00000000000E+00 0.  1.
         14    1    5    5    0    0  0.58123857289E+01 -0.25735317027E+02  0.24712246875E+03  0.24852686963E+03  0.00000000000E+00 0. -1.
         13    1    3    3    0    0  0.18013599521E+02 -0.48671720980E+02 -0.15521973901E+02  0.54169713536E+02  0.00000000000E+00 0. -1.
        -14    1    3    3    0    0  0.37610373305E+02 -0.55842967949E+02 -0.14958278435E+03  0.16403654051E+03  0.00000000000E+00 0.  1.
          5    1    4    4  501    0 -0.31463466813E+02 -0.27094549534E+02  0.27646666258E+02  0.50058714662E+02  0.41800000000E+01 0. -1.
         -5    1    4    4    0  501 -0.15985822786E+01  0.10509074518E+03  0.14884672453E+03  0.18226200918E+03  0.41800000000E+01 0. -1.
</event>
<event>
11    1  0.7105277E-009  0.1319671E+03  0.7561462E-02  0.1116875E+00
         22   -1    0    0    0    0  0.00000000000E+00  0.00000000000E+00  0.34433784775E+03  0.34433784775E+03  0.00000000000E+00 0.  1.
         22   -1    0    0    0    0 -0.00000000000E+00 -0.00000000000E+00 -0.24314061461E+04  0.24314061461E+04  0.00000000000E+00 0. -1.
        -24    2    1    2    0    0  0.13621322326E+02 -0.15961943665E+02 -0.23411497180E+04  0.23426147092E+04  0.80133322873E+02 0.  0.
         25    2    1    2    0    0 -0.53451471682E+02  0.25221307156E+02 -0.26188843582E+02  0.14080931827E+03  0.12509290317E+03 0.  0.
         24    2    1    2    0    0  0.39830149355E+02 -0.92593634908E+01  0.28027026319E+03  0.29231996646E+03  0.72300523891E+02 0.  0.
        -11    1    5    5    0    0  0.43356290469E+02 -0.24265213888E+02  0.26814156346E+03  0.27270582426E+03  0.00000000000E+00 0.  1.
         12    1    5    5    0    0 -0.35261411138E+01  0.15005850397E+02  0.12128699721E+02  0.19614142200E+02  0.00000000000E+00 0. -1.
         11    1    3    3    0    0 -0.12747192077E+00  0.44842704759E+01 -0.21340160486E+04  0.21340207638E+04  0.00000000000E+00 0. -1.
        -12    1    3    3    0    0  0.13748794247E+02 -0.20446214141E+02 -0.20713366942E+03  0.20859394532E+03  0.00000000000E+00 0.  1.
          5    1    4    4  501    0 -0.22462214688E+02  0.60746767413E+02  0.26395316999E+02  0.70063585401E+02  0.41800000000E+01 0.  1.
         -5    1    4    4    0  501 -0.30989256993E+02 -0.35525460257E+02 -0.52584160580E+02  0.70745732871E+02  0.41800000000E+01 0.  1.
</event>
<event>
11    1  0.7105277E-009  0.1579908E+03  0.7561462E-02  0.1088982E+00
         22   -1    0    0    0    0  0.00000000000E+00  0.00000000000E+00  0.25745333831E+03  0.25745333831E+03  0.00000000000E+00 0. -1.
         22   -1    0    0    0    0 -0.00000000000E+00 -0.00000000000E+00 -0.48693576399E+03  0.48693576399E+03  0.00000000000E+00 0.  1.
         24    2    1    2    0    0 -0.48128655707E+02 -0.75932507224E+02 -0.24967685558E+03  0.27767181384E+03  0.81737328285E+02 0.  0.
         25    2    1    2    0    0  0.10496271625E+03  0.62736183323E+02 -0.17509871277E+03  0.24750819379E+03  0.12509095203E+03 0.  0.
        -24    2    1    2    0    0 -0.56834060543E+02  0.13196323902E+02  0.19529314268E+03  0.21920909467E+03  0.80678139590E+02 0.  0.
        -13    1    3    3    0    0 -0.56016773822E+01 -0.73492504259E+02 -0.19427849283E+03  0.20778994141E+03  0.00000000000E+00 0.  1.
         14    1    3    3    0    0 -0.42526978325E+02 -0.24400029650E+01 -0.55398362750E+02  0.69881872437E+02  0.00000000000E+00 0. -1.
         13    1    5    5    0    0  0.14825414172E+02  0.92519293177E+01  0.90656226602E+02  0.92325199828E+02  0.00000000000E+00 0. -1.
        -14    1    5    5    0    0 -0.71659474715E+02  0.39443945838E+01  0.10463691608E+03  0.12688389484E+03  0.00000000000E+00 0.  1.
          5    1    4    4  501    0 -0.68884933421E+01  0.16629242520E+02  0.13860248278E+02  0.23098959492E+02  0.41800000000E+01 0. -1.
         -5    1    4    4    0  501  0.11185120959E+03  0.46106940803E+02 -0.18895896105E+03  0.22440923430E+03  0.41800000000E+01 0. -1.
</event>
<event>
11    1  0.7105277E-009  0.1629145E+03  0.7561462E-02  0.1084368E+00
         22   -1    0    0    0    0  0.00000000000E+00  0.00000000000E+00  0.28305985750E+04  0.28305985750E+04  0.00000000000E+00 0. -1.
         22   -1    0    0    0    0 -0.00000000000E+00 -0.00000000000E+00 -0.10970097497E+03  0.10970097497E+03  0.00000000000E+00 0. -1.
        -24    2    1    2    0    0 -0.75820845199E+02  0.19308117091E+02  0.38865244178E+02  0.11810775964E+03  0.79481643976E+02 0.  0.
         25    2    1    2    0    0  0.16336352706E+03 -0.72848024317E+02  0.10560162889E+03  0.24247466285E+03  0.12509109273E+03 0.  0.
         24    2    1    2    0    0 -0.87542681860E+02  0.53539907226E+02  0.25764307270E+04  0.25797171275E+04  0.80093222096E+02 0.  0.
        -13    1    5    5    0    0  0.88127826927E+01 -0.37032601727E+01  0.62336451211E+03  0.62343780302E+03  0.00000000000E+00 0.  1.
         14    1    5    5    0    0 -0.96355464553E+02  0.57243167398E+02  0.19530662148E+04  0.19562793245E+04  0.00000000000E+00 0. -1.
         13    1    3    3    0    0 -0.76324030250E+01  0.70559284501E+01 -0.22991120243E+02  0.25231553901E+02  0.00000000000E+00 0. -1.
        -14    1    3    3    0    0 -0.68188442174E+02  0.12252188641E+02  0.61856364421E+02  0.92876205736E+02  0.00000000000E+00 0.  1.
          5    1    4    4  501    0  0.60734117369E+01 -0.59805981435E+02  0.32898225340E+02  0.68654259708E+02  0.41800000000E+01 0.  1.
         -5    1    4    4    0  501  0.15729011532E+03 -0.13042042882E+02  0.72703403554E+02  0.17382040314E+03  0.41800000000E+01 0.  1.
</event>
<event>
11    1  0.7105277E-009  0.2402096E+03  0.7561462E-02  0.1029248E+00
         22   -1    0    0    0    0  0.00000000000E+00  0.00000000000E+00  0.67240362024E+03  0.67240362024E+03  0.00000000000E+00 0.  1.
         22   -1    0    0    0    0 -0.00000000000E+00 -0.00000000000E+00 -0.82923143752E+03  0.82923143752E+03  0.00000000000E+00 0. -1.
        -24    2    1    2    0    0 -0.18132504927E+03 -0.74396857843E+02 -0.57420342001E+03  0.61176835995E+03  0.78340875178E+02 0.  0.
         25    2    1    2    0    0  0.28117989097E+03 -0.25747022860E+02 -0.11694242759E+03  0.33022354650E+03  0.12508804506E+03 0.  0.
         24    2    1    2    0    0 -0.99854841703E+02  0.10014388070E+03  0.53431803033E+03  0.55964315131E+03  0.87777633945E+02 0.  0.
        -11    1    5    5    0    0 -0.72422530968E+02  0.90451715159E+02  0.50580105961E+03  0.51890389059E+03  0.00000000000E+00 0.  1.
         12    1    5    5    0    0 -0.27432310735E+02  0.96921655436E+01  0.28516970723E+02  0.40739260724E+02  0.00000000000E+00 0. -1.
         11    1    3    3    0    0 -0.14263226449E+03 -0.50851295778E+02 -0.51747840836E+03  0.53917874613E+03  0.00000000000E+00 0. -1.
        -12    1    3    3    0    0 -0.38692784781E+02 -0.23545562064E+02 -0.56725011652E+02  0.72589613816E+02  0.00000000000E+00 0.  1.
          5    1    4    4  501    0  0.19585443559E+03 -0.52847031710E+02 -0.12802778696E+03  0.23991739273E+03  0.41800000000E+01 0. -1.
         -5    1    4    4    0  501  0.85325455388E+02  0.27100008850E+02  0.11085359369E+02  0.90306153773E+02  0.41800000000E+01 0. -1.
</event>
<event>
11    1  0.7105277E-009  0.1575140E+03  0.7561462E-02  0.1089439E+00
         22   -1    0    0    0    0  0.00000000000E+00  0.00000000000E+00  0.92375612479E+03  0.92375612479E+03  0.00000000000E+00 0.  1.
         22   -1    0    0    0    0 -0.00000000000E+00 -0.00000000000E+00 -0.30882148367E+04  0.30882148367E+04  0.00000000000E+00 0. -1.
        -24    2    1    2    0    0  0.53243343562E+01 -0.92987311218E+02 -0.25020539394E+04  0.25050744809E+04  0.80307227563E+02 0.  0.
         25    2    1    2    0    0 -0.29199131240E+02  0.11599045997E+03 -0.56973275375E+03  0.59543996932E+03  0.12508785033E+03 0.  0.
         24    2    1    2    0    0  0.23874796884E+02 -0.23003148755E+02  0.90732798122E+03  0.91145651126E+03  0.80060949490E+02 0.  0.
        -13    1    5    5    0    0  0.33096785789E+02 -0.29305114044E+02  0.88824963121E+03  0.88934897216E+03  0.00000000000E+00 0.  1.
         14    1    5    5    0    0 -0.92219889053E+01  0.63019652891E+01  0.19078350008E+02  0.22107539096E+02  0.00000000000E+00 0. -1.
         11    1    3    3    0    0 -0.21745927032E+02 -0.91258643182E+02 -0.21091131747E+04  0.21111985717E+04  0.00000000000E+00 0. -1.
        -12    1    3    3    0    0  0.27070261389E+02 -0.17286680360E+01 -0.39294076471E+03  0.39387590928E+03  0.00000000000E+00 0.  1.
          5    1    4    4  501    0 -0.39725326509E+02 -0.66793431792E+01 -0.71203931427E+02  0.81915733789E+02  0.41800000000E+01 0. -1.
         -5    1    4    4    0  501  0.10526195268E+02  0.12266980315E+03 -0.49852882232E+03  0.51352423553E+03  0.41800000000E+01 0. -1.
</event>
<event>
11    1  0.7105277E-009  0.3498639E+03  0.7561462E-02  0.9810495E-01
         22   -1    0    0    0    0  0.00000000000E+00  0.00000000000E+00  0.10327958598E+04  0.10327958598E+04  0.00000000000E+00 0. -1.
         22   -1    0    0    0    0 -0.00000000000E+00 -0.00000000000E+00 -0.60224821713E+03  0.60224821713E+03  0.00000000000E+00 0. -1.
        -24    2    1    2    0    0  0.83180016559E+02 -0.15254383320E+02 -0.41955719886E+03  0.43607624520E+03  0.83562175347E+02 0.  0.
         25    2    1    2    0    0  0.18137643617E+03 -0.20114439097E+03  0.21672196063E+02  0.29912128717E+03  0.12508949891E+03 0.  0.
         24    2    1    2    0    0 -0.26455645273E+03  0.21639877429E+03  0.82843264547E+03  0.89984654457E+03  0.81268748579E+02 0.  0.
        -13    1    5    5    0    0 -0.30487184812E+01  0.59661976650E+01  0.71677585915E+02  0.71990044600E+02  0.00000000000E+00 0.  1.
         14    1    5    5    0    0 -0.26150773425E+03  0.21043257662E+03  0.75675505956E+03  0.82785649997E+03  0.00000000000E+00 0. -1.
         11    1    3    3    0    0  0.48082149746E+02 -0.49870740432E+02 -0.26060397148E+03  0.26965424868E+03  0.00000000000E+00 0. -1.
        -12    1    3    3    0    0  0.35097866813E+02  0.34616357112E+02 -0.15895322737E+03  0.16642199652E+03  0.00000000000E+00 0.  1.
          5    1    4    4  501    0  0.79891911966E+02 -0.12311447835E+03  0.69444959955E+02  0.16241910984E+03  0.41800000000E+01 0. -1.
         -5    1    4    4    0  501  0.10148452421E+03 -0.78029912615E+02 -0.47772763892E+02  0.13670217733E+03  0.41800000000E+01 0. -1.
</event>
<event>
11    1  0.7105277E-009  0.1326995E+03  0.7561462E-02  0.1115996E+00
         22   -1    0    0    0    0  0.00000000000E+00  0.00000000000E+00  0.24646547754E+04  0.24646547754E+04  0.00000000000E+00 0.  1.
         22   -1    0    0    0    0 -0.00000000000E+00 -0.00000000000E+00 -0.31753689634E+03  0.31753689634E+03  0.00000000000E+00 0.  1.
        -24    2    1    2    0    0  0.41476042178E+02  0.15706373769E+02 -0.30390256041E+03  0.31864625580E+03  0.84921833844E+02 0.  0.
         25    2    1    2    0    0 -0.20325336050E+02 -0.48347238424E+02  0.93204803182E+03  0.94186617982E+03  0.12509113609E+03 0.  0.
         24    2    1    2    0    0 -0.21150706128E+02  0.32640864656E+02  0.15189724076E+04  0.15216792361E+04  0.81961845018E+02 0.  0.
        -11    1    5    5    0    0 -0.30620272391E+02  0.27410938768E+02  0.14927161070E+04  0.14932817338E+04  0.00000000000E+00 0.  1.
         12    1    5    5    0    0  0.94695662626E+01  0.52299258880E+01  0.26256300669E+02  0.28397502264E+02  0.00000000000E+00 0. -1.
         13    1    3    3    0    0 -0.17577030135E+02 -0.42894671926E+01 -0.16977646577E+03  0.17073781025E+03  0.00000000000E+00 0. -1.
        -14    1    3    3    0    0  0.59053072313E+02  0.19995840961E+02 -0.13412609463E+03  0.14790844556E+03  0.00000000000E+00 0.  1.
          5    1    4    4  501    0 -0.34908555289E+01 -0.16974795768E+02  0.87018041536E+03  0.87036300326E+03  0.41800000000E+01 0.  1.
         -5    1    4    4    0  501 -0.16834480521E+02 -0.31372442656E+02  0.61867616463E+02  0.71503176568E+02  0.41800000000E+01 0.  1.
</event>
<event>
11    1  0.7105277E-009  0.1548241E+03  0.7561462E-02  0.1092049E+00
         22   -1    0    0    0    0  0.00000000000E+00  0.00000000000E+00  0.10239923688E+04  0.10239923688E+04  0.00000000000E+00 0. -1.
         22   -1    0    0    0    0 -0.00000000000E+00 -0.00000000000E+00 -0.11040701340E+04  0.11040701340E+04  0.00000000000E+00 0.  1.
        -24    2    1    2    0    0 -0.27640907743E+02  0.89266907662E+02 -0.10309475417E+04  0.10381679048E+04  0.78785558884E+02 0.  0.
         25    2    1    2    0    0  0.37148570413E+02 -0.39550692101E+02  0.19537929557E+01  0.13635970645E+03  0.12508348695E+03 0.  0.
         24    2    1    2    0    0 -0.95076626692E+01 -0.49716215561E+02  0.94891598361E+03  0.95353489154E+03  0.78899605203E+02 0.  0.
        -13    1    5    5    0    0 -0.11052631916E+02 -0.24797701136E+02  0.84414256603E+02  0.88672731839E+02  0.00000000000E+00 0.  1.
         14    1    5    5    0    0  0.15449692469E+01 -0.24918514425E+02  0.86450172700E+03  0.86486215970E+03  0.00000000000E+00 0. -1.
         13    1    3    3    0    0 -0.22452200200E+02  0.13652466914E+02 -0.60218173043E+03  0.60275478232E+03  0.00000000000E+00 0. -1.
        -14    1    3    3    0    0 -0.51887075435E+01  0.75614440748E+02 -0.42876581125E+03  0.43541312249E+03  0.00000000000E+00 0.  1.
          5    1    4    4  501    0  0.31280882093E+01 -0.81758092435E+02  0.29632372037E+01  0.81978190936E+02  0.41800000000E+01 0.  1.
         -5    1    4    4    0  501  0.34020482203E+02  0.42207400334E+02 -0.10094442479E+01  0.54381515518E+02  0.41800000000E+01 0.  1.
</event>
<event>
11    1  0.7105277E-009  0.1313232E+03  0.7561462E-02  0.1117654E+00
         22   -1    0    0    0    0  0.00000000000E+00  0.00000000000E+00  0.40194639894E+03  0.40194639894E+03  0.00000000000E+00 0. -1.
         22   -1    0    0    0    0 -0.00000000000E+00 -0.00000000000E+00 -0.13342766802E+03  0.13342766802E+03  0.00000000000E+00 0. -1.
         24    2    1    2    0    0  0.25638977549E+01  0.38161986112E+02 -0.59656271898E+02  0.10659886948E+03  0.79633770742E+02 0.  0.
         25    2    1    2    0    0  0.28247723374E+02 -0.47661400789E+02  0.63667513075E+02  0.15089956081E+03  0.12509029630E+03 0.  0.
        -24    2    1    2    0    0 -0.30811621129E+02  0.94994146767E+01  0.26450748974E+03  0.27787563667E+03  0.78810294052E+02 0.  0.
        -11    1    3    3    0    0 -0.96298210164E+01  0.21875068712E+02  0.15665717048E+02  0.28577382221E+02  0.00000000000E+00 0.  1.
         12    1    3    3    0    0  0.12193718771E+02  0.16286917400E+02 -0.75321988946E+02  0.78021487262E+02  0.00000000000E+00 0. -1.
         11    1    5    5    0    0 -0.88967307305E+01  0.43601387724E+02  0.13120639833E+03  0.13854729081E+03  0.00000000000E+00 0. -1.
        -12    1    5    5    0    0 -0.21914890399E+02 -0.34101973048E+02  0.13330109141E+03  0.13932834585E+03  0.00000000000E+00 0.  1.
          5    1    4    4  501    0 -0.83809259003E+01 -0.70007923417E+02  0.78228154681E+02  0.10539670699E+03  0.41800000000E+01 0. -1.
         -5    1    4    4    0  501  0.36628649275E+02  0.22346522628E+02 -0.14560641607E+02  0.45502853814E+02  0.41800000000E+01 0. -1.
</event>
<event>
11    1  0.7105277E-009  0.1999902E+03  0.7561462E-02  0.1054531E+00
         22   -1    0    0    0    0  0.00000000000E+00  0.00000000000E+00  0.66462932102E+02  0.66462932102E+02  0.00000000000E+00 0.  1.
         22   -1    0    0    0    0 -0.00000000000E+00 -0.00000000000E+00 -0.17129901699E+04  0.17129901699E+04  0.00000000000E+00 0.  1.
         24    2    1    2    0    0 -0.15949939573E+03 -0.20791185131E+02 -0.13154585055E+04  0.13276165217E+04  0.79134179022E+02 0.  0.
         25    2    1    2    0    0  0.13754360853E+03 -0.37125749031E+02 -0.28318988189E+03  0.34079412887E+03  0.12509022176E+03 0.  0.
        -24    2    1    2    0    0  0.21955787195E+02  0.57916934162E+02 -0.47878850387E+02  0.11104245144E+03  0.78750326056E+02 0.  0.
        -11    1    3    3    0    0 -0.36007957345E+02  0.14777029679E+02 -0.55608962841E+03  0.55745009501E+03  0.00000000000E+00 0.  1.
         12    1    3    3    0    0 -0.12349143838E+03 -0.35568214810E+02 -0.75936887712E+03  0.77016642669E+03  0.00000000000E+00 0. -1.
         11    1    5    5    0    0 -0.15515447300E+02  0.38005887366E+02 -0.54358548331E+02  0.68117753604E+02  0.00000000000E+00 0. -1.
        -12    1    5    5    0    0  0.37471234495E+02  0.19911046796E+02  0.64796979440E+01  0.42924697839E+02  0.00000000000E+00 0.  1.
          5    1    4    4  501    0  0.13497601736E+03 -0.64001802989E+01 -0.27816300917E+03  0.30927596034E+03  0.41800000000E+01 0. -1.
         -5    1    4    4    0  501  0.25675911675E+01 -0.30725568732E+02 -0.50268727148E+01  0.31518168532E+02  0.41800000000E+01 0. -1.
</event>
<event>
11    1  0.7105277E-009  0.3547465E+03  0.7561462E-02  0.9793608E-01
         22   -1    0    0    0    0  0.00000000000E+00  0.00000000000E+00  0.19232499237E+04  0.19232499237E+04  0.00000000000E+00 0.  1.
         22   -1    0    0    0    0 -0.00000000000E+00 -0.00000000000E+00 -0.97518531772E+03  0.97518531772E+03  0.00000000000E+00 0.  1.
        -24    2    1    2    0    0 -0.49525218637E+02 -0.38998528623E+02 -0.72865970141E+03  0.73581205150E+03  0.80627428058E+02 0.  0.
         25    2    1    2    0    0 -0.28326312768E+03 -0.44421069761E+01 -0.12069909126E+03  0.33237543622E+03  0.12508968047E+03 0.  0.
         24    2    1    2    0    0  0.33278834631E+03  0.43440635599E+02  0.17974233987E+04  0.18302477537E+04  0.80254555274E+02 0.  0.
        -11    1    5    5    0    0  0.20165592839E+03  0.80529450048E+01  0.12523212783E+04  0.12684788321E+04  0.00000000000E+00 0.  1.
         12    1    5    5    0    0  0.13113241792E+03  0.35387690594E+02  0.54510212038E+03  0.56176892164E+03  0.00000000000E+00 0. -1.
         13    1    3    3    0    0 -0.66575444518E+02 -0.45936798387E+02 -0.50948814129E+03  0.51586882574E+03  0.00000000000E+00 0. -1.
        -14    1    3    3    0    0  0.17050225882E+02  0.69382697641E+01 -0.21917156012E+03  0.21994322575E+03  0.00000000000E+00 0.  1.
          5    1    4    4  501    0 -0.18297750149E+03  0.16604318121E+02 -0.13888885833E+02  0.18430095762E+03  0.41800000000E+01 0. -1.
         -5    1    4    4    0  501 -0.10028562619E+03 -0.21046425097E+02 -0.10681020543E+03  0.14807447860E+03  0.41800000000E+01 0. -1.
</event>
<event>
11    1  0.7105277E-009  0.1336707E+03  0.7561462E-02  0.1114839E+00
         22   -1    0    0    0    0  0.00000000000E+00  0.00000000000E+00  0.28003718953E+03  0.28003718953E+03  0.00000000000E+00 0. -1.
         22   -1    0    0    0    0 -0.00000000000E+00 -0.00000000000E+00 -0.14224248544E+04  0.14224248544E+04  0.00000000000E+00 0.  1.
         24    2    1    2    0    0 -0.15115067775E+02  0.22090197434E+02 -0.13717860348E+04  0.13746527638E+04  0.84598189127E+02 0.  0.
         25    2    1    2    0    0 -0.28698058805E+02 -0.41493112771E+02  0.99867373005E+02  0.16782884999E+03  0.12509106168E+03 0.  0.
        -24    2    1    2    0    0  0.43813126581E+02  0.19402915337E+02  0.12953099692E+03  0.15998043016E+03  0.80742774829E+02 0.  0.
        -11    1    3    3    0    0  0.45067141655E+01 -0.30703044746E+02 -0.60908841640E+03  0.60987841937E+03  0.00000000000E+00 0.  1.
         12    1    3    3    0    0 -0.19621781941E+02  0.52793242180E+02 -0.76269761842E+03  0.76477434442E+03  0.00000000000E+00 0. -1.
         11    1    5    5    0    0  0.52785633213E+02 -0.12985184246E+02  0.10544699231E+03  0.11863391703E+03  0.00000000000E+00 0. -1.
        -12    1    5    5    0    0 -0.89725066324E+01  0.32388099583E+02  0.24084004618E+02  0.41346513134E+02  0.00000000000E+00 0.  1.
          5    1    4    4  501    0 -0.58387062574E+02  0.12809241101E+02  0.85076024516E+02  0.10406021373E+03  0.41800000000E+01 0. -1.
         -5    1    4    4    0  501  0.29689003769E+02 -0.54302353873E+02  0.14791348489E+02  0.63768636264E+02  0.41800000000E+01 0. -1.
</event>
<event>
11    1  0.7105277E-009  0.4138454E+03  0.7561462E-02  0.9609767E-01
         22   -1    0    0    0    0  0.00000000000E+00  0.00000000000E+00  0.15501567781E+03  0.15501567781E+03  0.00000000000E+00 0. -1.
         22   -1    0    0    0    0 -0.00000000000E+00 -0.00000000000E+00 -0.20036080479E+04  0.20036080479E+04  0.00000000000E+00 0.  1.
        -24    2    1    2    0    0 -0.32752302033E+02  0.32649964922E+03 -0.16767332813E+04  0.17105126100E+04  0.82122823998E+02 0.  0.
         25    2    1    2    0    0 -0.33195350686E+02 -0.17136592069E+03 -0.14691851489E+03  0.26019311157E+03  0.12508874933E+03 0.  0.
         24    2    1    2    0    0  0.65947652719E+02 -0.15513372852E+03 -0.24940573870E+02  0.18791800408E+03  0.79218542066E+02 0.  0.
        -13    1    5    5    0    0  0.81653482791E+02 -0.14679155118E+03 -0.26561391194E+02  0.17006045470E+03  0.00000000000E+00 0.  1.
         14    1    5    5    0    0 -0.15705830072E+02 -0.83421773424E+01  0.16208173244E+01  0.17857549380E+02  0.00000000000E+00 0. -1.
         13    1    3    3    0    0  0.11463031863E+02  0.11943055405E+03 -0.45422980087E+03  0.46980822719E+03  0.00000000000E+00 0. -1.
        -14    1    3    3    0    0 -0.44215333896E+02  0.20706909517E+03 -0.12225034804E+04  0.12407043828E+04  0.00000000000E+00 0.  1.
          5    1    4    4  501    0  0.66787396005E+01  0.89977107948E+01  0.11662743179E+02  0.16704979517E+02  0.41800000000E+01 0.  1.
         -5    1    4    4    0  501 -0.39874090286E+02 -0.18036363149E+03 -0.15858125807E+03  0.24348813205E+03  0.41800000000E+01 0.  1.
</event>
<event>
11    1  0.7105277E-009  0.1712937E+03  0.7561462E-02  0.1076911E+00
         22   -1    0    0    0    0  0.00000000000E+00  0.00000000000E+00  0.60689362806E+03  0.60689362806E+03  0.00000000000E+00 0. -1.
         22   -1    0    0    0    0 -0.00000000000E+00 -0.00000000000E+00 -0.20570961217E+04  0.20570961217E+04  0.00000000000E+00 0. -1.
        -24    2    1    2    0    0 -0.23294032374E+02 -0.47857418330E+02 -0.20141008932E+04  0.20164531476E+04  0.81534924395E+02 0.  0.
         25    2    1    2    0    0 -0.48391353120E+02  0.12499747472E+03  0.36597257184E+03  0.40932798905E+03  0.12508951810E+03 0.  0.
         24    2    1    2    0    0  0.71685385494E+02 -0.77140056394E+02  0.19792582772E+03  0.23820861314E+03  0.80494268742E+02 0.  0.
        -13    1    5    5    0    0  0.13371664699E+02 -0.36009675380E+02  0.13930875609E+02  0.40860340589E+02  0.00000000000E+00 0.  1.
         14    1    5    5    0    0  0.58313720795E+02 -0.41130381013E+02  0.18399495212E+03  0.19734827255E+03  0.00000000000E+00 0. -1.
         11    1    3    3    0    0 -0.30431150807E+02 -0.52287305358E+02 -0.19901960951E+04  0.19911153945E+04  0.00000000000E+00 0. -1.
        -12    1    3    3    0    0  0.71371184333E+01  0.44298870278E+01 -0.23904798178E+02  0.25337753147E+02  0.00000000000E+00 0.  1.
          5    1    4    4  501    0 -0.78786040895E+02  0.96519956749E+02  0.18165319544E+03  0.22031499746E+03  0.41800000000E+01 0.  1.
         -5    1    4    4    0  501  0.30394687775E+02  0.28477517974E+02  0.18431937640E+03  0.18901299160E+03  0.41800000000E+01 0.  1.
</event>
<event>
11    1  0.7105277E-009  0.1929198E+03  0.7561462E-02  0.1059646E+00
         22   -1    0    0    0    0  0.00000000000E+00  0.00000000000E+00  0.11211636957E+04  0.11211636957E+04  0.00000000000E+00 0.  1.
         22   -1    0    0    0    0 -0.00000000000E+00 -0.00000000000E+00 -0.63741049414E+03  0.63741049414E+03  0.00000000000E+00 0. -1.
         24    2    1    2    0    0  0.98670597340E+02  0.10811171497E+03 -0.59517479532E+03  0.61827450446E+03  0.81279125116E+02 0.  0.
         25    2    1    2    0    0 -0.86193015736E+02 -0.14274965826E+03  0.36068228593E+03  0.41658876472E+03  0.12509111324E+03 0.  0.
        -24    2    1    2    0    0 -0.12477581604E+02  0.34637943297E+02  0.71824571092E+03  0.72371092063E+03  0.80778203878E+02 0.  0.
        -11    1    3    3    0    0  0.32120680742E+02  0.61910645751E+02 -0.14541965907E+03  0.16128094566E+03  0.00000000000E+00 0.  1.
         12    1    3    3    0    0  0.66549916598E+02  0.46201069217E+02 -0.44975513625E+03  0.45699355879E+03  0.00000000000E+00 0. -1.
         11    1    5    5    0    0 -0.93486382847E+01 -0.24309244974E+02  0.13529267272E+03  0.13777678948E+03  0.00000000000E+00 0. -1.
        -12    1    5    5    0    0 -0.31289433189E+01  0.58947188271E+02  0.58295303820E+03  0.58593413114E+03  0.00000000000E+00 0.  1.
          5    1    4    4  501    0 -0.92230956727E+02 -0.14710875483E+03  0.24349102760E+03  0.29908675672E+03  0.41800000000E+01 0. -1.
         -5    1    4    4    0  501  0.60379409904E+01  0.43590965617E+01  0.11719125833E+03  0.11750200800E+03  0.41800000000E+01 0. -1.
</event>
<event>
11    1  0.7105277E-009  0.1574602E+03  0.7561462E-02  0.1089491E+00
         22   -1    0    0    0    0  0.00000000000E+00  0.00000000000E+00  0.31431518401E+03  0.31431518401E+03  0.00000000000E+00 0.  1.
         22   -1    0    0    0    0 -0.00000000000E+00 -0.00000000000E+00 -0.20840795543E+04  0.20840795543E+04  0.00000000000E+00 0.  1.
         24    2    1    2    0    0 -0.75488103843E+02 -0.56870078070E+02 -0.19369503740E+04  0.19409509464E+04  0.81124381233E+02 0.  0.
         25    2    1    2    0    0  0.10351678631E+03  0.76044181121E+02 -0.79118239640E+02  0.19597363858E+03  0.12509008213E+03 0.  0.
        -24    2    1    2    0    0 -0.28028682463E+02 -0.19174103051E+02  0.24630424341E+03  0.26147015331E+03  0.80917287905E+02 0.  0.
        -11    1    3    3    0    0 -0.64811140311E+02 -0.59271780129E+02 -0.19076953811E+04  0.19097160247E+04  0.00000000000E+00 0.  1.
         12    1    3    3    0    0 -0.10676963532E+02  0.24017020591E+01 -0.29254992899E+02  0.31234921683E+02  0.00000000000E+00 0. -1.
         13    1    5    5    0    0  0.43566302142E+01  0.25462225442E+02  0.37711079161E+02  0.45710290338E+02  0.00000000000E+00 0. -1.
        -14    1    5    5    0    0 -0.32385312677E+02 -0.44636328493E+02  0.20859316425E+03  0.21575986297E+03  0.00000000000E+00 0.  1.
          5    1    4    4  501    0  0.24523281647E+02  0.81006796264E+01 -0.87531152287E+02  0.91357470268E+02  0.41800000000E+01 0. -1.
         -5    1    4    4    0  501  0.78993504659E+02  0.67943501494E+02  0.84129126468E+01  0.10461616831E+03  0.41800000000E+01 0. -1.
</event>
<event>
11    1  0.7105277E-009  0.1676897E+03  0.7561462E-02  0.1080060E+00
         22   -1    0    0    0    0  0.00000000000E+00  0.00000000000E+00  0.13085174586E+04  0.13085174586E+04  0.00000000000E+00 0. -1.
         22   -1    0    0    0    0 -0.00000000000E+00 -0.00000000000E+00 -0.11259967398E+03  0.11259967398E+03  0.00000000000E+00 0.  1.
         24    2    1    2    0    0 -0.38544887004E+02 -0.88624145177E+01 -0.60236321579E+02  0.10879603722E+03  0.81510199195E+02 0.  0.
         25    2    1    2    0    0 -0.42344168995E+02 -0.76295404362E+02  0.22855094202E+03  0.27476800591E+03  0.12509159284E+03 0.  0.
        -24    2    1    2    0    0  0.80889055999E+02  0.85157818879E+02  0.10276031642E+04  0.10375530894E+04  0.82178201916E+02 0.  0.
        -11    1    3    3    0    0 -0.24177376312E+02 -0.35747328984E+02 -0.64919874099E+02  0.77955160881E+02  0.00000000000E+00 0.  1.
         12    1    3    3    0    0 -0.14367510691E+02  0.26884914467E+02  0.46835525200E+01  0.30840876342E+02  0.00000000000E+00 0. -1.
         11    1    5    5    0    0  0.82116310840E+02  0.85612814815E+02  0.10288967243E+04  0.10357128520E+04  0.00000000000E+00 0. -1.
        -12    1    5    5    0    0 -0.12272548405E+01 -0.45499593524E+00 -0.12935601548E+01  0.18402373811E+01  0.00000000000E+00 0.  1.
          5    1    4    4  501    0 -0.18200678770E+02  0.27463662794E+02  0.15755265410E+02  0.36758920957E+02  0.41800000000E+01 0. -1.
         -5    1    4    4    0  501 -0.24143490225E+02 -0.10375906716E+03  0.21279567661E+03  0.23800908495E+03  0.41800000000E+01 0. -1.
</event>
<event>
11    1  0.7105277E-009  0.1566427E+03  0.7561462E-02  0.1090278E+00
         22   -1    0    0    0    0  0.00000000000E+00  0.00000000000E+00  0.47751411581E+02  0.47751411581E+02  0.00000000000E+00 0. -1.
         22   -1    0    0    0    0 -0.00000000000E+00 -0.00000000000E+00 -0.15731857632E+04  0.15731857632E+04  0.00000000000E+00 0.  1.
         24    2    1    2    0    0 -0.10462687646E+02 -0.48207033184E+02 -0.85874047986E+03  0.86381156452E+03  0.79384012039E+02 0.  0.
         25    2    1    2    0    0  0.21168421511E-02  0.13447258961E+03 -0.58552246942E+03  0.61365047515E+03  0.12508983209E+03 0.  0.
        -24    2    1    2    0    0  0.10460570804E+02 -0.86265556424E+02 -0.81171402316E+02  0.14347513509E+03  0.80281679529E+02 0.  0.
        -13    1    3    3    0    0  0.39920082764E+01  0.21398817632E+02 -0.24586404520E+03  0.24682579738E+03  0.00000000000E+00 0.  1.
         14    1    3    3    0    0 -0.14454695922E+02 -0.69605850816E+02 -0.61287643465E+03  0.61698576714E+03  0.00000000000E+00 0. -1.
         11    1    5    5    0    0  0.18343379577E+02 -0.72732947086E+02 -0.16327557554E+02  0.76766856792E+02  0.00000000000E+00 0. -1.
        -12    1    5    5    0    0 -0.78828087736E+01 -0.13532609338E+02 -0.64843844762E+02  0.66708278296E+02  0.00000000000E+00 0.  1.
          5    1    4    4  501    0  0.10535686833E+02  0.15177912717E+03 -0.41784908136E+03  0.44470578064E+03  0.41800000000E+01 0.  1.
         -5    1    4    4    0  501 -0.10533569991E+02 -0.17306537560E+02 -0.16767338806E+03  0.16894469451E+03  0.41800000000E+01 0.  1.
</event>
<event>
11    1  0.7105277E-009  0.1500940E+03  0.7561462E-02  0.1096783E+00
         22   -1    0    0    0    0  0.00000000000E+00  0.00000000000E+00  0.34710980429E+03  0.34710980429E+03  0.00000000000E+00 0.  1.
         22   -1    0    0    0    0 -0.00000000000E+00 -0.00000000000E+00 -0.43276308182E+03  0.43276308182E+03  0.00000000000E+00 0.  1.
        -24    2    1    2    0    0 -0.19620068866E+02  0.79902827663E+02 -0.34591565729E+03  0.36431067726E+03  0.79342413880E+02 0.  0.
         25    2    1    2    0    0  0.80335937959E+02 -0.71505718473E+02  0.36184940321E+02  0.16889041827E+03  0.12509073817E+03 0.  0.
         24    2    1    2    0    0 -0.60715869094E+02 -0.83971091894E+01  0.22407743943E+03  0.24667179058E+03  0.82941818176E+02 0.  0.
        -11    1    5    5    0    0 -0.71227857504E+02 -0.31366666569E+02  0.17219048084E+03  0.18896252843E+03  0.00000000000E+00 0.  1.
         12    1    5    5    0    0  0.10511988411E+02  0.22969557380E+02  0.51886958586E+02  0.57709262149E+02  0.00000000000E+00 0. -1.
         11    1    3    3    0    0 -0.50619992278E+01 -0.57104557899E+01  0.30481900210E-01  0.76311251239E+01  0.00000000000E+00 0. -1.
        -12    1    3    3    0    0 -0.14558069638E+02  0.85613283453E+02 -0.34594613919E+03  0.35667955214E+03  0.00000000000E+00 0.  1.
          5    1    4    4  501    0  0.25388236366E+02 -0.99649356108E+02  0.18835532435E+02  0.10462698696E+03  0.41800000000E+01 0.  1.
         -5    1    4    4    0  501  0.54947701593E+02  0.28143637635E+02  0.17349407886E+02  0.64263431309E+02  0.41800000000E+01 0.  1.
</event>
<event>
11    1  0.7105277E-009  0.1549833E+03  0.7561462E-02  0.1091893E+00
         22   -1    0    0    0    0  0.00000000000E+00  0.00000000000E+00  0.12111341753E+04  0.12111341753E+04  0.00000000000E+00 0. -1.
         22   -1    0    0    0    0 -0.00000000000E+00 -0.00000000000E+00 -0.13923504284E+03  0.13923504284E+03  0.00000000000E+00 0. -1.
        -24    2    1    2    0    0 -0.66388100481E+02 -0.71260043796E+00 -0.97222435347E+02  0.14092109164E+03  0.77451045493E+02 0.  0.
         25    2    1    2    0    0 -0.42318911399E+02  0.43655963331E+01  0.27774192657E+03  0.30756782600E+03  0.12508973227E+03 0.  0.
         24    2    1    2    0    0  0.10870701188E+03 -0.36529958951E+01  0.89137964126E+03  0.90188030054E+03  0.83665123172E+02 0.  0.
        -13    1    5    5    0    0  0.59842247485E+02  0.19978178405E+02  0.23700011395E+03  0.24525349378E+03  0.00000000000E+00 0.  1.
         14    1    5    5    0    0  0.48864764396E+02 -0.23631174300E+02  0.65437952730E+03  0.65662680676E+03  0.00000000000E+00 0. -1.
         11    1    3    3    0    0 -0.14053525503E+02 -0.61346920512E+01 -0.85697963654E+02  0.87059043184E+02  0.00000000000E+00 0. -1.
        -12    1    3    3    0    0 -0.52334574978E+02  0.54220916132E+01 -0.11524471693E+02  0.53862048451E+02  0.00000000000E+00 0.  1.
          5    1    4    4  501    0  0.47370586927E+00 -0.51605264630E+02  0.17801755670E+03  0.18539431121E+03  0.41800000000E+01 0. -1.
         -5    1    4    4    0  501 -0.42792617268E+02  0.55970860963E+02  0.99724369873E+02  0.12217351479E+03  0.41800000000E+01 0. -1.
</event>
<event>
11    1  0.7105277E-009  0.1327967E+03  0.7561462E-02  0.1115880E+00
         22   -1    0    0    0    0  0.00000000000E+00  0.00000000000E+00  0.26055573902E+03  0.26055573902E+03  0.00000000000E+00 0.  1.
         22   -1    0    0    0    0 -0.00000000000E+00 -0.00000000000E+00 -0.17902811322E+04  0.17902811322E+04  0.00000000000E+00 0. -1.
        -24    2    1    2    0    0  0.31741387736E+02  0.20964226050E+02 -0.16665499285E+04  0.16689826542E+04  0.81654280309E+02 0.  0.
         25    2    1    2    0    0  0.13920372493E+02 -0.80583045445E+01 -0.77495160451E+02  0.14802800704E+03  0.12509227767E+03 0.  0.
         24    2    1    2    0    0 -0.45661760229E+02 -0.12905921506E+02  0.21431969573E+03  0.23382620998E+03  0.80561810663E+02 0.  0.
        -13    1    5    5    0    0 -0.68517603427E+02 -0.11167664728E+02  0.17568236747E+03  0.18890122539E+03  0.00000000000E+00 0.  1.
         14    1    5    5    0    0  0.22855843198E+02 -0.17382567777E+01  0.38637328264E+02  0.44924984589E+02  0.00000000000E+00 0. -1.
         13    1    3    3    0    0  0.17035363555E+02 -0.26247455469E+02 -0.10451564183E+04  0.10456247277E+04  0.00000000000E+00 0. -1.
        -14    1    3    3    0    0  0.14706024181E+02  0.47211681520E+02 -0.62139351024E+03  0.62335792654E+03  0.00000000000E+00 0.  1.
          5    1    4    4  501    0  0.39401275323E+02  0.21536454129E+01  0.21556345100E+02  0.45158023647E+02  0.41800000000E+01 0.  1.
         -5    1    4    4    0  501 -0.25480902830E+02 -0.10211949957E+02 -0.99051505551E+02  0.10286998339E+03  0.41800000000E+01 0.  1.
</event>
<event>
11    1  0.7105277E-009  0.1666652E+03  0.7561462E-02  0.1080971E+00
         22   -1    0    0    0    0  0.00000000000E+00  0.00000000000E+00  0.14339701248E+03  0.14339701248E+03  0.00000000000E+00 0.  1.
         22   -1    0    0    0    0 -0.00000000000E+00 -0.00000000000E+00 -0.12221007360E+04  0.12221007360E+04  0.00000000000E+00 0.  1.
         24    2    1    2    0    0 -0.14181199788E+03  0.25114598677E+02 -0.76012382123E+03  0.77796945515E+03  0.81895443837E+02 0.  0.
         25    2    1    2    0    0  0.60562465652E+02 -0.27968406146E+02 -0.41148896157E+03  0.43522437282E+03  0.12508814977E+03 0.  0.
        -24    2    1    2    0    0  0.81249532231E+02  0.28538074686E+01  0.92909059320E+02  0.15230392048E+03  0.89189462292E+02 0.  0.
        -11    1    3    3    0    0 -0.13076192532E+03  0.48763176951E+02 -0.64398580444E+03  0.65893417339E+03  0.00000000000E+00 0.  1.
         12    1    3    3    0    0 -0.11050072566E+02 -0.23648578273E+02 -0.11613801679E+03  0.11903528176E+03  0.00000000000E+00 0. -1.
         13    1    5    5    0    0  0.90807870210E+02  0.11310765343E+02  0.43591637491E+02  0.10136189404E+03  0.00000000000E+00 0. -1.
        -14    1    5    5    0    0 -0.95583379790E+01 -0.84569578743E+01  0.49317421829E+02  0.50942026434E+02  0.00000000000E+00 0.  1.
          5    1    4    4  501    0  0.79049618796E+02  0.26981736332E+02 -0.24096991503E+03  0.25507024263E+03  0.41800000000E+01 0. -1.
         -5    1    4    4    0  501 -0.18487153144E+02 -0.54950142478E+02 -0.17051904654E+03  0.18015413018E+03  0.41800000000E+01 0. -1.
</event>
<event>
11    1  0.7105277E-009  0.1591433E+03  0.7561462E-02  0.1087886E+00
         22   -1    0    0    0    0  0.00000000000E+00  0.00000000000E+00  0.26671609726E+03  0.26671609726E+03  0.00000000000E+00 0. -1.
         22   -1    0    0    0    0 -0.00000000000E+00 -0.00000000000E+00 -0.16015797387E+04  0.16015797387E+04  0.00000000000E+00 0.  1.
         24    2    1    2    0    0 -0.12660307327E+02 -0.40510433397E+02 -0.13111099224E+04  0.13142881481E+04  0.80887137411E+02 0.  0.
         25    2    1    2    0    0  0.32665313895E+02  0.13429746409E+03 -0.24017397039E+03  0.30403953157E+03  0.12511462391E+03 0.  0.
        -24    2    1    2    0    0 -0.20005006568E+02 -0.93787030692E+02  0.21642025133E+03  0.24996815631E+03  0.80312804536E+02 0.  0.
        -11    1    3    3    0    0 -0.22923660594E+02 -0.14342709683E+00 -0.10154587231E+04  0.10157174475E+04  0.00000000000E+00 0.  1.
         12    1    3    3    0    0  0.10263353267E+02 -0.40367006300E+02 -0.29565119930E+03  0.29857070062E+03  0.00000000000E+00 0. -1.
         13    1    5    5    0    0  0.26367869179E+02 -0.15058948778E+02  0.81930962060E+02  0.87376879135E+02  0.00000000000E+00 0. -1.
        -14    1    5    5    0    0 -0.46372875747E+02 -0.78728081914E+02  0.13448928927E+03  0.16259127718E+03  0.00000000000E+00 0.  1.
          5    1    4    4  501    0 -0.81164708651E-01  0.14979402846E+03 -0.18893107820E+03  0.24114452567E+03  0.41800000000E+01 0.  1.
         -5    1    4    4    0  501  0.32746478604E+02 -0.15496564370E+02 -0.51242892187E+02  0.62895005906E+02  0.41800000000E+01 0.  1.
</event>
<event>
11    1  0.7105277E-009  0.1485738E+03  0.7561462E-02  0.1098345E+00
         22   -1    0    0    0    0  0.00000000000E+00  0.00000000000E+00  0.13170933164E+04  0.13170933164E+04  0.00000000000E+00 0. -1.
         22   -1    0    0    0    0 -0.00000000000E+00 -0.00000000000E+00 -0.14912038136E+04  0.14912038136E+04  0.00000000000E+00 0.  1.
         24    2    1    2    0    0  0.39233608853E+02  0.36751845115E+02 -0.14654857766E+04  0.14685884020E+04  0.78824862193E+02 0.  0.
         25    2    1    2    0    0 -0.10568111103E+03 -0.67683613566E+02  0.35396895055E+03  0.39584584598E+03  0.12510134713E+03 0.  0.
        -24    2    1    2    0    0  0.66447502173E+02  0.30931768452E+02  0.93740632883E+03  0.94386288200E+03  0.82307167571E+02 0.  0.
        -13    1    3    3    0    0 -0.73756239917E+01  0.47081029792E+02 -0.74557330025E+03  0.74709475252E+03  0.00000000000E+00 0.  1.
         14    1    3    3    0    0  0.46609232845E+02 -0.10329184677E+02 -0.71991247636E+03  0.72149364949E+03  0.00000000000E+00 0. -1.
         13    1    5    5    0    0  0.19518633359E+02  0.53551505027E+02  0.55631348813E+03  0.55922574852E+03  0.00000000000E+00 0. -1.
        -14    1    5    5    0    0  0.46928868814E+02 -0.22619736576E+02  0.38109284071E+03  0.38463713348E+03  0.00000000000E+00 0.  1.
          5    1    4    4  501    0  0.26528396766E+02 -0.14089762182E+02  0.10029016435E+03  0.10477531531E+03  0.41800000000E+01 0.  1.
         -5    1    4    4    0  501 -0.13220950779E+03 -0.53593851384E+02  0.25367878620E+03  0.29107053067E+03  0.41800000000E+01 0.  1.
</event>
<event>
11    1  0.7105277E-009  0.1443546E+03  0.7561462E-02  0.1102791E+00
         22   -1    0    0    0    0  0.00000000000E+00  0.00000000000E+00  0.42680789048E+03  0.42680789048E+03  0.00000000000E+00 0. -1.
         22   -1    0    0    0    0 -0.00000000000E+00 -0.00000000000E+00 -0.11633800767E+03  0.11633800767E+03  0.00000000000E+00 0. -1.
         24    2    1    2    0    0  0.44710829062E+02  0.53005034570E+02 -0.40716803290E+02  0.11627602667E+03  0.83986096368E+02 0.  0.
         25    2    1    2    0    0 -0.46302201460E+02 -0.74573139999E+02  0.18104869518E+03  0.23691885069E+03  0.12508742829E+03 0.  0.
        -24    2    1    2    0    0  0.15913723985E+01  0.21568105429E+02  0.17013799092E+03  0.18995102078E+03  0.81650099241E+02 0.  0.
        -13    1    3    3    0    0 -0.96159132432E+01 -0.16852927230E+02 -0.14431450420E+01  0.19456865404E+02  0.00000000000E+00 0.  1.
         14    1    3    3    0    0  0.54326742305E+02  0.69857961800E+02 -0.39273658248E+02  0.96819161267E+02  0.00000000000E+00 0. -1.
         11    1    5    5    0    0  0.30982897306E+02 -0.14979047387E+02  0.98386270993E+02  0.10423132977E+03  0.00000000000E+00 0. -1.
        -12    1    5    5    0    0 -0.29391524907E+02  0.36547152816E+02  0.71751719922E+02  0.85719691012E+02  0.00000000000E+00 0.  1.
          5    1    4    4  501    0 -0.57631797463E+02 -0.17705653990E+02  0.16630107262E+03  0.17694189277E+03  0.41800000000E+01 0. -1.
         -5    1    4    4    0  501  0.11329596003E+02 -0.56867486008E+02  0.14747622562E+02  0.59976957923E+02  0.41800000000E+01 0. -1.
</event>
<event>
11    1  0.7105277E-009  0.1959506E+03  0.7561462E-02  0.1057425E+00
         22   -1    0    0    0    0  0.00000000000E+00  0.00000000000E+00  0.56432251097E+03  0.56432251097E+03  0.00000000000E+00 0. -1.
         22   -1    0    0    0    0 -0.00000000000E+00 -0.00000000000E+00 -0.35999802431E+03  0.35999802431E+03  0.00000000000E+00 0. -1.
        -24    2    1    2    0    0  0.39615922719E+02 -0.14782872443E+03 -0.17261481646E+03  0.24386189510E+03  0.79056915711E+02 0.  0.
         25    2    1    2    0    0 -0.56456810156E+02  0.13650243203E+03 -0.85802702384E+02  0.21173180009E+03  0.12509183054E+03 0.  0.
         24    2    1    2    0    0  0.16840887437E+02  0.11326292395E+02  0.46274200550E+03  0.46872684008E+03  0.71852533484E+02 0.  0.
        -11    1    5    5    0    0 -0.25474093138E+02  0.21012341818E+00  0.26399620648E+03  0.26522249265E+03  0.00000000000E+00 0.  1.
         12    1    5    5    0    0  0.42314980574E+02  0.11116168977E+02  0.19874579903E+03  0.20350434743E+03  0.00000000000E+00 0. -1.
         11    1    3    3    0    0  0.17075068096E+02 -0.13194118867E+03 -0.10074233848E+03  0.16688035829E+03  0.00000000000E+00 0. -1.
        -12    1    3    3    0    0  0.22540854623E+02 -0.15887535754E+02 -0.71872477978E+02  0.76981536813E+02  0.00000000000E+00 0.  1.
          5    1    4    4  501    0  0.19916088692E+02  0.38569449698E+02 -0.75312924005E+02  0.87027363289E+02  0.41800000000E+01 0. -1.
         -5    1    4    4    0  501 -0.76372898847E+02  0.97932982336E+02 -0.10489778378E+02  0.12470443680E+03  0.41800000000E+01 0. -1.
</event>
<event>
11    1  0.7105277E-009  0.1512403E+03  0.7561462E-02  0.1095618E+00
         22   -1    0    0    0    0  0.00000000000E+00  0.00000000000E+00  0.49659804853E+03  0.49659804853E+03  0.00000000000E+00 0.  1.
         22   -1    0    0    0    0 -0.00000000000E+00 -0.00000000000E+00 -0.76726057247E+03  0.76726057247E+03  0.00000000000E+00 0. -1.
         24    2    1    2    0    0  0.63655150517E+02  0.25660972325E+01 -0.21130101207E+03  0.23384809531E+03  0.77319149868E+02 0.  0.
         25    2    1    2    0    0 -0.10262596414E+03 -0.48953532875E+02 -0.52618421447E+03  0.55267221839E+03  0.12509283161E+03 0.  0.
        -24    2    1    2    0    0  0.38970813624E+02  0.46387435642E+02  0.46682270261E+03  0.47733830730E+03  0.79106924164E+02 0.  0.
        -13    1    3    3    0    0  0.58605899859E+02 -0.13125461751E+02 -0.72827444152E+02  0.94396853053E+02  0.00000000000E+00 0.  1.
         14    1    3    3    0    0  0.50492506579E+01  0.15691558984E+02 -0.13847356791E+03  0.13945124226E+03  0.00000000000E+00 0. -1.
         13    1    5    5    0    0  0.89927823356E+01  0.64857807579E+01  0.39309685192E+01  0.11763842896E+02  0.00000000000E+00 0. -1.
        -14    1    5    5    0    0  0.29978031288E+02  0.39901654884E+02  0.46289173409E+03  0.46557446441E+03  0.00000000000E+00 0.  1.
          5    1    4    4  501    0 -0.50161286369E+02 -0.75290668245E+02 -0.17977493402E+03  0.20129912736E+03  0.41800000000E+01 0.  1.
         -5    1    4    4    0  501 -0.52464677772E+02  0.26337135370E+02 -0.34640928045E+03  0.35137309103E+03  0.41800000000E+01 0.  1.
</event>
<event>
11    1  0.7105277E-009  0.1598321E+03  0.7561462E-02  0.1087235E+00
         22   -1    0    0    0    0  0.00000000000E+00  0.00000000000E+00  0.26384366933E+04  0.26384366933E+04  0.00000000000E+00 0. -1.
         22   -1    0    0    0    0 -0.00000000000E+00 -0.00000000000E+00 -0.20159376467E+03  0.20159376467E+03  0.00000000000E+00 0. -1.
         24    2    1    2    0    0  0.60906330450E+02 -0.91126281583E+02 -0.13566039112E+03  0.19199752259E+03  0.80285283064E+02 0.  0.
         25    2    1    2    0    0 -0.12096699879E+02  0.17465808794E+03  0.28835574558E+03  0.35978984421E+03  0.12509163904E+03 0.  0.
        -24    2    1    2    0    0 -0.48809630571E+02 -0.83531806357E+02  0.22841475742E+04  0.22882430912E+04  0.96779961541E+02 0.  0.
        -13    1    3    3    0    0 -0.57767634256E+01 -0.44291438514E+02 -0.85070087628E+02  0.96083413398E+02  0.00000000000E+00 0.  1.
         14    1    3    3    0    0  0.66683093876E+02 -0.46834843070E+02 -0.50590303497E+02  0.95914109192E+02  0.00000000000E+00 0. -1.
         13    1    5    5    0    0 -0.77192451712E+02 -0.46278564687E+02  0.14903360267E+04  0.14930511889E+04  0.00000000000E+00 0. -1.
        -14    1    5    5    0    0  0.28382821141E+02 -0.37253241670E+02  0.79381154746E+03  0.79519190227E+03  0.00000000000E+00 0.  1.
          5    1    4    4  501    0 -0.44742040530E+02  0.10446044005E+03  0.84456611978E+02  0.14164824543E+03  0.41800000000E+01 0. -1.
         -5    1    4    4    0  501  0.32645340651E+02  0.70197647890E+02  0.20389913360E+03  0.21814159878E+03  0.41800000000E+01 0. -1.
</event>
<event>
11    1  0.7105277E-009  0.1315499E+03  0.7561462E-02  0.1117379E+00
         22   -1    0    0    0    0  0.00000000000E+00  0.00000000000E+00  0.20430972368E+03  0.20430972368E+03  0.00000000000E+00 0. -1.
         22   -1    0    0    0    0 -0.00000000000E+00 -0.00000000000E+00 -0.19148378965E+03  0.19148378965E+03  0.00000000000E+00 0. -1.
        -24    2    1    2    0    0 -0.32077861781E+02  0.20811362515E+02 -0.10624781080E+03  0.13934146085E+03  0.81641554294E+02 0.  0.
         25    2    1    2    0    0  0.32378665838E+02 -0.52692615407E+02  0.63787488314E+02  0.15343157988E+03  0.12509003286E+03 0.  0.
         24    2    1    2    0    0 -0.30080405741E+00  0.31881252892E+02  0.55286256508E+02  0.10302047259E+03  0.80871149646E+02 0.  0.
        -13    1    5    5    0    0 -0.13251136196E+02  0.39944687276E+02 -0.35536770103E+01  0.42235047915E+02  0.00000000000E+00 0.  1.
         14    1    5    5    0    0  0.12950332138E+02 -0.80634343842E+01  0.58839933519E+02  0.60785424676E+02  0.00000000000E+00 0. -1.
         13    1    3    3    0    0  0.23193635606E+01  0.41410923096E+02 -0.83526036190E+02  0.93256864201E+02  0.00000000000E+00 0. -1.
        -14    1    3    3    0    0 -0.34397225341E+02 -0.20599560581E+02 -0.22721774606E+02  0.46084596651E+02  0.00000000000E+00 0.  1.
          5    1    4    4  501    0  0.12966146820E+02 -0.68216410868E+02 -0.14610667317E+02  0.71081246996E+02  0.41800000000E+01 0. -1.
         -5    1    4    4    0  501  0.19412519017E+02  0.15523795461E+02  0.78398155631E+02  0.82350332886E+02  0.41800000000E+01 0. -1.
</event>
<event>
11    1  0.7105277E-009  0.1501715E+03  0.7561462E-02  0.1096704E+00
         22   -1    0    0    0    0  0.00000000000E+00  0.00000000000E+00  0.25502818908E+03  0.25502818908E+03  0.00000000000E+00 0.  1.
         22   -1    0    0    0    0 -0.00000000000E+00 -0.00000000000E+00 -0.25892982696E+03  0.25892982696E+03  0.00000000000E+00 0.  1.
         24    2    1    2    0    0  0.52713303873E+02 -0.76081772914E+02 -0.15181568320E+03  0.19705222255E+03  0.84937907748E+02 0.  0.
         25    2    1    2    0    0 -0.62823572491E+02  0.16161405331E+02  0.97913142473E+01  0.14123694620E+03  0.12507602830E+03 0.  0.
        -24    2    1    2    0    0  0.10110268619E+02  0.59920367583E+02  0.13812273107E+03  0.17566884729E+03  0.89938796333E+02 0.  0.
        -13    1    3    3    0    0  0.56151529205E+02 -0.71478944244E+01 -0.68689457394E+02  0.89007461394E+02  0.00000000000E+00 0.  1.
         14    1    3    3    0    0 -0.34382253325E+01 -0.68933878490E+02 -0.83126225806E+02  0.10804476116E+03  0.00000000000E+00 0. -1.
         13    1    5    5    0    0 -0.14373732042E+00  0.71631432005E+02  0.52929400107E+02  0.89065167755E+02  0.00000000000E+00 0. -1.
        -14    1    5    5    0    0  0.10254005939E+02 -0.11711064422E+02  0.85193330964E+02  0.86603679532E+02  0.00000000000E+00 0.  1.
          5    1    4    4  501    0 -0.28636441945E+02  0.59123452094E+01 -0.57674323981E+02  0.64798161084E+02  0.41800000000E+01 0. -1.
         -5    1    4    4    0  501 -0.34187130546E+02  0.10249060122E+02  0.67465638228E+02  0.76438785115E+02  0.41800000000E+01 0. -1.
</event>
<event>
11    1  0.7105277E-009  0.2039377E+03  0.7561462E-02  0.1051773E+00
         22   -1    0    0    0    0  0.00000000000E+00  0.00000000000E+00  0.44795769772E+03  0.44795769772E+03  0.00000000000E+00 0.  1.
         22   -1    0    0    0    0 -0.00000000000E+00 -0.00000000000E+00 -0.14478686557E+04  0.14478686557E+04  0.00000000000E+00 0. -1.
         24    2    1    2    0    0 -0.15441276436E+03  0.46754671070E+02 -0.13946186803E+04  0.14055580120E+04  0.67843649925E+02 0.  0.
         25    2    1    2    0    0  0.13659723552E+03 -0.62925631339E+02  0.20786113436E+03  0.28543347437E+03  0.12509027652E+03 0.  0.
        -24    2    1    2    0    0  0.17815528837E+02  0.16170960270E+02  0.18684658792E+03  0.20483486700E+03  0.80416306188E+02 0.  0.
        -13    1    3    3    0    0 -0.57275223600E+02 -0.70319599524E+01 -0.31476088036E+03  0.32000673665E+03  0.00000000000E+00 0.  1.
         14    1    3    3    0    0 -0.97137540761E+02  0.53786631022E+02 -0.10798577999E+04  0.10855512754E+04  0.00000000000E+00 0. -1.
         11    1    5    5    0    0  0.39215345242E+02  0.27695894504E+02  0.66269970951E+02  0.81832847467E+02  0.00000000000E+00 0. -1.
        -12    1    5    5    0    0 -0.21399816405E+02 -0.11524934234E+02  0.12057661697E+03  0.12300201954E+03  0.00000000000E+00 0.  1.
          5    1    4    4  501    0  0.71995116516E+02 -0.81197223523E+02  0.18475630333E+03  0.21430970564E+03  0.41800000000E+01 0.  1.
         -5    1    4    4    0  501  0.64602119008E+02  0.18271592184E+02  0.23104831025E+02  0.71123768727E+02  0.41800000000E+01 0.  1.
</event>
<event>
11    1  0.7105277E-009  0.1349695E+03  0.7561462E-02  0.1113309E+00
         22   -1    0    0    0    0  0.00000000000E+00  0.00000000000E+00  0.28986006271E+02  0.28986006271E+02  0.00000000000E+00 0. -1.
         22   -1    0    0    0    0 -0.00000000000E+00 -0.00000000000E+00 -0.15848727444E+04  0.15848727444E+04  0.00000000000E+00 0. -1.
        -24    2    1    2    0    0 -0.14938613795E+02  0.22535228641E+02 -0.97624129449E+03  0.97988056524E+03  0.79924078677E+02 0.  0.
         25    2    1    2    0    0  0.62502910483E+02 -0.20875053470E+02 -0.47298716604E+03  0.49366654411E+03  0.12508963130E+03 0.  0.
         24    2    1    2    0    0 -0.47564296688E+02 -0.16601751713E+01 -0.10665827759E+03  0.14031164131E+03  0.77757636335E+02 0.  0.
        -13    1    5    5    0    0  0.18676561667E+02 -0.13837524138E+02 -0.34555310819E+02  0.41645654465E+02  0.00000000000E+00 0.  1.
         14    1    5    5    0    0 -0.66240858355E+02  0.12177348967E+02 -0.72102966771E+02  0.98665986848E+02  0.00000000000E+00 0. -1.
         13    1    3    3    0    0 -0.30072523033E+02 -0.71810619976E+01 -0.79473514065E+03  0.79533632388E+03  0.00000000000E+00 0. -1.
        -14    1    3    3    0    0  0.15133909238E+02  0.29716290639E+02 -0.18150615384E+03  0.18454424137E+03  0.00000000000E+00 0.  1.
          5    1    4    4  501    0 -0.32583458140E+02  0.10819679483E+02 -0.19700051404E+03  0.20001355489E+03  0.41800000000E+01 0. -1.
         -5    1    4    4    0  501  0.95086368623E+02 -0.31694732954E+02 -0.27598665199E+03  0.29365298921E+03  0.41800000000E+01 0. -1.
</event>
<event>
11    1  0.7105277E-009  0.1471598E+03  0.7561462E-02  0.1099817E+00
         22   -1    0    0    0    0  0.00000000000E+00  0.00000000000E+00  0.28045747202E+04  0.28045747202E+04  0.00000000000E+00 0.  1.
         22   -1    0    0    0    0 -0.00000000000E+00 -0.00000000000E+00 -0.25246183705E+03  0.25246183705E+03  0.00000000000E+00 0.  1.
        -24    2    1    2    0    0  0.54655633653E+02 -0.80395859063E+01 -0.23275483094E+03  0.25237186423E+03  0.80404435800E+02 0.  0.
         25    2    1    2    0    0  0.21936606376E+02  0.43432008444E+02  0.52767381733E+03  0.54447649778E+03  0.12508974812E+03 0.  0.
         24    2    1    2    0    0 -0.76592240029E+02 -0.35392422538E+02  0.22571938968E+04  0.22601881953E+04  0.80046208994E+02 0.  0.
        -13    1    5    5    0    0 -0.67190676712E+02 -0.57794606925E+02  0.19600715256E+04  0.19620742058E+04  0.00000000000E+00 0.  1.
         14    1    5    5    0    0 -0.94015633171E+01  0.22402184387E+02  0.29712237118E+03  0.29811398947E+03  0.00000000000E+00 0. -1.
         13    1    3    3    0    0 -0.96011603030E+01 -0.15875798411E+02 -0.11468436708E+02  0.21811655023E+02  0.00000000000E+00 0. -1.
        -14    1    3    3    0    0  0.64256793956E+02  0.78362125045E+01 -0.22128639423E+03  0.23056020920E+03  0.00000000000E+00 0.  1.
          5    1    4    4  501    0  0.43260781020E+02 -0.13528209133E+02  0.75121585771E+02  0.87836397157E+02  0.41800000000E+01 0. -1.
         -5    1    4    4    0  501 -0.21324174644E+02  0.56960217577E+02  0.45255223156E+03  0.45664010062E+03  0.41800000000E+01 0. -1.
</event>
<event>
11    1  0.7105277E-009  0.1856145E+03  0.7561462E-02  0.1065190E+00
         22   -1    0    0    0    0  0.00000000000E+00  0.00000000000E+00  0.21225049407E+04  0.21225049407E+04  0.00000000000E+00 0. -1.
         22   -1    0    0    0    0 -0.00000000000E+00 -0.00000000000E+00 -0.61354518187E+03  0.61354518187E+03  0.00000000000E+00 0.  1.
         24    2    1    2    0    0  0.44737951176E+02  0.28599076462E+02 -0.58106126558E+03  0.58942929834E+03  0.83518332941E+02 0.  0.
         25    2    1    2    0    0  0.97211286638E+02 -0.96794855695E+01  0.23015288626E+03  0.27957458758E+03  0.12509145566E+03 0.  0.
        -24    2    1    2    0    0 -0.14194923781E+03 -0.18919590893E+02  0.18598681381E+04  0.18670462366E+04  0.79022917028E+02 0.  0.
        -11    1    3    3    0    0 -0.13164484082E+01  0.48462237155E+02 -0.30977456775E+03  0.31354521890E+03  0.00000000000E+00 0.  1.
         12    1    3    3    0    0  0.46054399584E+02 -0.19863160693E+02 -0.27128669783E+03  0.27588407945E+03  0.00000000000E+00 0. -1.
         13    1    5    5    0    0 -0.10669618971E+03 -0.39552240416E+01  0.88362213015E+03  0.89004931863E+03  0.00000000000E+00 0. -1.
        -14    1    5    5    0    0 -0.35253048106E+02 -0.14964366851E+02  0.97624600799E+03  0.97699691801E+03  0.00000000000E+00 0.  1.
          5    1    4    4  501    0  0.84080913020E+00 -0.16951375476E+02 -0.10372657274E+02  0.20325366158E+02  0.41800000000E+01 0.  1.
         -5    1    4    4    0  501  0.96370477508E+02  0.72718899061E+01  0.24052554353E+03  0.25924922143E+03  0.41800000000E+01 0.  1.
</event>
<event>
11    1  0.7105277E-009  0.1274371E+03  0.7561462E-02  0.1122459E+00
         22   -1    0    0    0    0  0.00000000000E+00  0.00000000000E+00  0.77252258550E+03  0.77252258550E+03  0.00000000000E+00 0. -1.
         22   -1    0    0    0    0 -0.00000000000E+00 -0.00000000000E+00 -0.93574658248E+02  0.93574658248E+02  0.00000000000E+00 0. -1.
         24    2    1    2    0    0 -0.14968015225E+02  0.20661600515E+02 -0.43334933428E+02  0.94395857607E+02  0.79885657427E+02 0.  0.
         25    2    1    2    0    0  0.12013243846E+02 -0.11237238111E+02  0.16028744366E+03  0.20398334211E+03  0.12508615316E+03 0.  0.
        -24    2    1    2    0    0  0.29547713788E+01 -0.94243624040E+01  0.56199541702E+03  0.56771804403E+03  0.79795861364E+02 0.  0.
        -13    1    3    3    0    0 -0.93692940626E+01  0.16296775975E+02  0.21851166978E+02  0.28824331332E+02  0.00000000000E+00 0.  1.
         14    1    3    3    0    0 -0.55987211623E+01  0.43648245401E+01 -0.65186100406E+02  0.65571526275E+02  0.00000000000E+00 0. -1.
         13    1    5    5    0    0  0.38735224000E+02 -0.19265660216E+02  0.29428596842E+03  0.29744884342E+03  0.00000000000E+00 0. -1.
        -14    1    5    5    0    0 -0.35780452621E+02  0.98412978124E+01  0.26770944860E+03  0.27026920062E+03  0.00000000000E+00 0.  1.
          5    1    4    4  501    0 -0.27352664974E+02  0.47373305138E+02  0.60473934979E+02  0.81651500492E+02  0.41800000000E+01 0.  1.
         -5    1    4    4    0  501  0.39365908820E+02 -0.58610543250E+02  0.99813508686E+02  0.12233184162E+03  0.41800000000E+01 0.  1.
</event>
<event>
11    1  0.7105277E-009  0.2039801E+03  0.7561462E-02  0.1051744E+00
         22   -1    0    0    0    0  0.00000000000E+00  0.00000000000E+00  0.29153682253E+04  0.29153682253E+04  0.00000000000E+00 0.  1.
         22   -1    0    0    0    0 -0.00000000000E+00 -0.00000000000E+00 -0.86875715179E+02  0.86875715179E+02  0.00000000000E+00 0. -1.
         24    2    1    2    0    0  0.12612378481E+03  0.83879900697E+02  0.56360653074E+02  0.18090620444E+03  0.81286436474E+02 0.  0.
         25    2    1    2    0    0 -0.15151747816E+03 -0.16925798790E+03  0.71653251550E+03  0.76201797878E+03  0.12508693605E+03 0.  0.
        -24    2    1    2    0    0  0.25393693347E+02  0.85378087204E+02  0.20555993415E+04  0.20593197572E+04  0.85877541910E+02 0.  0.
        -13    1    3    3    0    0 -0.94833998729E+01  0.18552181156E+00  0.12374981220E+02  0.15591967537E+02  0.00000000000E+00 0.  1.
         14    1    3    3    0    0  0.13560718468E+03  0.83694378885E+02  0.43985671854E+02  0.16531423690E+03  0.00000000000E+00 0. -1.
         11    1    5    5    0    0 -0.30227653218E+02  0.40741269974E+02  0.10259866102E+04  0.10272400334E+04  0.00000000000E+00 0. -1.
        -12    1    5    5    0    0  0.55621346565E+02  0.44636817229E+02  0.10296127314E+04  0.10320797238E+04  0.00000000000E+00 0.  1.
          5    1    4    4  501    0 -0.73390076609E+01 -0.95498389860E+02  0.30639469400E+03  0.32104358646E+03  0.41800000000E+01 0.  1.
         -5    1    4    4    0  501 -0.14417847050E+03 -0.73759598041E+02  0.41013782150E+03  0.44097439232E+03  0.41800000000E+01 0.  1.
</event>
<event>
11    1  0.7105277E-009  0.1579153E+03  0.7561462E-02  0.1089055E+00
         22   -1    0    0    0    0  0.00000000000E+00  0.00000000000E+00  0.74533298927E+03  0.74533298927E+03  0.00000000000E+00 0. -1.
         22   -1    0    0    0    0 -0.00000000000E+00 -0.00000000000E+00 -0.23775893833E+04  0.23775893833E+04  0.00000000000E+00 0.  1.
        -24    2    1    2    0    0 -0.27391765123E+02  0.47196978563E+02 -0.23425403212E+04  0.23445380900E+04  0.79911423531E+02 0.  0.
         25    2    1    2    0    0  0.86746310565E+02  0.34430374188E+02  0.20939082627E+03  0.26115703875E+03  0.12509239665E+03 0.  0.
         24    2    1    2    0    0 -0.59354545441E+02 -0.81627352751E+02  0.50089310087E+03  0.51722724381E+03  0.80275378878E+02 0.  0.
        -11    1    5    5    0    0  0.94632171674E+01  0.10389283250E+02  0.55102776556E+02  0.56866560207E+02  0.00000000000E+00 0.  1.
         12    1    5    5    0    0 -0.68817762609E+02 -0.92016636001E+02  0.44579032432E+03  0.46036068360E+03  0.00000000000E+00 0. -1.
         13    1    3    3    0    0 -0.28415909517E+01  0.40364747907E+02 -0.44732933152E+03  0.44915578406E+03  0.00000000000E+00 0. -1.
        -14    1    3    3    0    0 -0.24550174172E+02  0.68322306562E+01 -0.18952109897E+04  0.18953823060E+04  0.00000000000E+00 0.  1.
          5    1    4    4  501    0  0.69009905469E+02 -0.32910141070E+02  0.15434014093E+03  0.17228986023E+03  0.41800000000E+01 0. -1.
         -5    1    4    4    0  501  0.17736405096E+02  0.67340515258E+02  0.55050685342E+02  0.88867178517E+02  0.41800000000E+01 0. -1.
</event>
<event>
11    1  0.7105277E-009  0.1284281E+03  0.7561462E-02  0.1121216E+00
         22   -1    0    0    0    0  0.00000000000E+00  0.00000000000E+00  0.69029099477E+03  0.69029099477E+03  0.00000000000E+00 0.  1.
         22   -1    0    0    0    0 -0.00000000000E+00 -0.00000000000E+00 -0.82425166402E+03  0.82425166402E+03  0.00000000000E+00 0. -1.
        -24    2    1    2    0    0  0.28795005577E+02 -0.56531905625E+01 -0.77581962213E+03  0.78090904212E+03  0.84034130357E+02 0.  0.
         25    2    1    2    0    0 -0.22804290591E+02 -0.13034729640E+02  0.51916215631E+02  0.13795705568E+03  0.12508763296E+03 0.  0.
         24    2    1    2    0    0 -0.59907149859E+01  0.18687920202E+02  0.58994273725E+03  0.59567656100E+03  0.80081240356E+02 0.  0.
        -11    1    5    5    0    0  0.24808434184E+02 -0.97281240754E+01  0.41221162148E+03  0.41307204661E+03  0.00000000000E+00 0.  1.
         12    1    5    5    0    0 -0.30799149170E+02  0.28416044278E+02  0.17773111577E+03  0.18260451439E+03  0.00000000000E+00 0. -1.
         13    1    3    3    0    0  0.12825518856E+02 -0.37782106943E+02 -0.19820162612E+03  0.20217780822E+03  0.00000000000E+00 0. -1.
        -14    1    3    3    0    0  0.15969486721E+02  0.32128916380E+02 -0.57761799601E+03  0.57873123389E+03  0.00000000000E+00 0.  1.
          5    1    4    4  501    0 -0.25509917547E+02  0.47417470751E+02 -0.56896054648E+01  0.54304847261E+02  0.41800000000E+01 0. -1.
         -5    1    4    4    0  501  0.27056269553E+01 -0.60452200391E+02  0.57605821096E+02  0.83652208419E+02  0.41800000000E+01 0. -1.
</event>
<event>
11    1  0.7950107E-009  0.1766034E+03  0.7561462E-02  0.1072424E+00
         22   -1    0    0    0    0  0.00000000000E+00  0.00000000000E+00  0.45811459194E+03  0.45811459194E+03  0.00000000000E+00 0.  1.
         22   -1    0    0    0    0 -0.00000000000E+00 -0.00000000000E+00 -0.69543757258E+03  0.69543757258E+03  0.00000000000E+00 0.  1.
        -24    2    1    2    0    0  0.20100979898E+02  0.15369897510E+03 -0.48026279266E+03  0.51103589288E+03  0.80485461162E+02 0.  0.
         25    2    1    2    0    0 -0.18019613675E+02 -0.69366291616E+02 -0.16444521999E+03  0.21868228490E+03  0.12507326838E+03 0.  0.
         24    2    1    2    0    0 -0.20813662229E+01 -0.84332683479E+02  0.40738503201E+03  0.42383398674E+03  0.80971293844E+02 0.  0.
        -13    1    5    5    0    0 -0.25203115666E+02 -0.74558894546E+02  0.19989072604E+03  0.21482673984E+03  0.00000000000E+00 0.  1.
         14    1    5    5    0    0  0.23121749443E+02 -0.97737889330E+01  0.20749430597E+03  0.20900724690E+03  0.00000000000E+00 0. -1.
         11    1    3    3    0    0  0.36079464789E+02  0.23128605378E+02 -0.13031509511E+03  0.13718120928E+03  0.00000000000E+00 0. -1.
        -12    1    3    3    0    0 -0.15978484891E+02  0.13057036972E+03 -0.34994769754E+03  0.37385468359E+03  0.00000000000E+00 0.  1.
          5    1    4    4  501    0  0.35558331009E+02 -0.59170103674E+02 -0.33652202962E+02  0.76911892690E+02  0.41800000000E+01 0. -1.
         -5    1    4    4    0  501 -0.53577944684E+02 -0.10196187943E+02 -0.13079301703E+03  0.14177039221E+03  0.41800000000E+01 0. -1.
</event>
<event>
11    1  0.7105277E-009  0.2278661E+03  0.7561462E-02  0.1036399E+00
         22   -1    0    0    0    0  0.00000000000E+00  0.00000000000E+00  0.68379032438E+03  0.68379032438E+03  0.00000000000E+00 0. -1.
         22   -1    0    0    0    0 -0.00000000000E+00 -0.00000000000E+00 -0.25308006420E+04  0.25308006420E+04  0.00000000000E+00 0. -1.
        -24    2    1    2    0    0 -0.67480769473E+02  0.18260452433E+03 -0.22884253296E+04  0.22980452131E+04  0.78887549910E+02 0.  0.
         25    2    1    2    0    0  0.10089601425E+03 -0.12379676472E+03 -0.18888186311E+03  0.27718166015E+03  0.12509064660E+03 0.  0.
         24    2    1    2    0    0 -0.33415244781E+02 -0.58807759609E+02  0.63029687513E+03  0.63936409314E+03  0.83290825556E+02 0.  0.
        -13    1    5    5    0    0  0.81590802086E+01 -0.10730322401E+02  0.12748878205E+02  0.18553821821E+02  0.00000000000E+00 0.  1.
         14    1    5    5    0    0 -0.41574324990E+02 -0.48077437208E+02  0.61754799692E+03  0.62081027131E+03  0.00000000000E+00 0. -1.
         13    1    3    3    0    0 -0.30080921562E+02  0.82195375670E+02 -0.14747867380E+04  0.14773817598E+04  0.00000000000E+00 0. -1.
        -14    1    3    3    0    0 -0.37399847910E+02  0.10040914866E+03 -0.81363859166E+03  0.82066345330E+03  0.00000000000E+00 0.  1.
          5    1    4    4  501    0  0.63225622142E+02 -0.12421341062E+03 -0.77508948950E+02  0.15953545136E+03  0.41800000000E+01 0. -1.
         -5    1    4    4    0  501  0.37670392111E+02  0.41664589851E+00 -0.11137291416E+03  0.11764620879E+03  0.41800000000E+01 0. -1.
</event>
<event>
11    1  0.7105277E-009  0.1386914E+03  0.7561462E-02  0.1109029E+00
         22   -1    0    0    0    0  0.00000000000E+00  0.00000000000E+00  0.45668491710E+03  0.45668491710E+03  0.00000000000E+00 0. -1.
         22   -1    0    0    0    0 -0.00000000000E+00 -0.00000000000E+00 -0.30417664530E+03  0.30417664530E+03  0.00000000000E+00 0.  1.
         24    2    1    2    0    0 -0.82291662373E+01  0.13758953939E+02 -0.25898036284E+03  0.27088640258E+03  0.77791945457E+02 0.  0.
         25    2    1    2    0    0  0.33254613386E+02  0.42838748257E+02  0.12176331546E+03  0.18279789221E+03  0.12509091390E+03 0.  0.
        -24    2    1    2    0    0 -0.25025447149E+02 -0.56597702196E+02  0.28972531917E+03  0.30717726761E+03  0.81163663480E+02 0.  0.
        -11    1    3    3    0    0 -0.73621021057E+01 -0.12261106872E+02 -0.23517378455E+03  0.23560824313E+03  0.00000000000E+00 0.  1.
         12    1    3    3    0    0 -0.86706413168E+00  0.26020060812E+02 -0.23806578286E+02  0.35278159455E+02  0.00000000000E+00 0. -1.
         13    1    5    5    0    0 -0.31688619182E+02 -0.45007983770E+02  0.28855427215E+03  0.29375747678E+03  0.00000000000E+00 0. -1.
        -14    1    5    5    0    0  0.66631720335E+01 -0.11589718426E+02  0.11710470186E+01  0.13419790828E+02  0.00000000000E+00 0.  1.
          5    1    4    4  501    0  0.73419736363E+02  0.41930980110E+02  0.44555748217E+02  0.95662698477E+02  0.41800000000E+01 0. -1.
         -5    1    4    4    0  501 -0.40165122977E+02  0.90776814669E+00  0.77207567244E+02  0.87135193731E+02  0.41800000000E+01 0. -1.
</event>
<event>
11    1  0.7105277E-009  0.1386057E+03  0.7561462E-02  0.1109125E+00
         22   -1    0    0    0    0  0.00000000000E+00  0.00000000000E+00  0.10660297451E+04  0.10660297451E+04  0.00000000000E+00 0.  1.
         22   -1    0    0    0    0 -0.00000000000E+00 -0.00000000000E+00 -0.89284231006E+03  0.89284231006E+03  0.00000000000E+00 0. -1.
         24    2    1    2    0    0  0.46424973646E+01 -0.21071232085E+02 -0.87166754743E+03  0.87552657403E+03  0.79227009141E+02 0.  0.
         25    2    1    2    0    0  0.16331196434E+01 -0.42102378311E+02  0.25911998708E+03  0.29080285531E+03  0.12509138904E+03 0.  0.
        -24    2    1    2    0    0 -0.62756170080E+01  0.63173610396E+02  0.78573499544E+03  0.79254262587E+03  0.81939260151E+02 0.  0.
        -13    1    3    3    0    0  0.36992266356E+02 -0.50474785028E+01 -0.24585734999E+03  0.24867597663E+03  0.00000000000E+00 0.  1.
         14    1    3    3    0    0 -0.32349768991E+02 -0.16023753582E+02 -0.62581019745E+03  0.62685059740E+03  0.00000000000E+00 0. -1.
         11    1    5    5    0    0  0.13935853072E+02 -0.38934005662E+01  0.27457935715E+02  0.31037151973E+02  0.00000000000E+00 0. -1.
        -12    1    5    5    0    0 -0.20211470080E+02  0.67067010962E+02  0.75827705972E+03  0.76150547390E+03  0.00000000000E+00 0.  1.
          5    1    4    4  501    0  0.18999975538E+02 -0.67931214230E+02  0.24738337236E+03  0.25727738777E+03  0.41800000000E+01 0. -1.
         -5    1    4    4    0  501 -0.17366855895E+02  0.25828835918E+02  0.11736614717E+02  0.33525467537E+02  0.41800000000E+01 0. -1.
</event>
<event>
11    1  0.7105277E-009  0.1546172E+03  0.7561462E-02  0.1092252E+00
         22   -1    0    0    0    0  0.00000000000E+00  0.00000000000E+00  0.27301028322E+04  0.27301028322E+04  0.00000000000E+00 0. -1.
         22   -1    0    0    0    0 -0.00000000000E+00 -0.00000000000E+00 -0.66836688036E+02  0.66836688036E+02  0.00000000000E+00 0.  1.
         24    2    1    2    0    0  0.10342621374E+02  0.62094309594E+01 -0.24121386454E+02  0.84862304202E+02  0.80462677934E+02 0.  0.
         25    2    1    2    0    0 -0.93747983965E+02 -0.37841893962E+02  0.59955684637E+03  0.62075440491E+03  0.12508767222E+03 0.  0.
        -24    2    1    2    0    0  0.83405362591E+02  0.31632463003E+02  0.20878306843E+04  0.20913228111E+04  0.81468196525E+02 0.  0.
        -13    1    3    3    0    0  0.52848815223E+01  0.38288774487E+02 -0.33404023574E+02  0.51086094149E+02  0.00000000000E+00 0.  1.
         14    1    3    3    0    0  0.50577398515E+01 -0.32079343528E+02  0.92826371207E+01  0.33776210053E+02  0.00000000000E+00 0. -1.
         13    1    5    5    0    0  0.91101404067E+02  0.37798952522E+02  0.14208693144E+04  0.14242885365E+04  0.00000000000E+00 0. -1.
        -14    1    5    5    0    0 -0.76960414763E+01 -0.61664895198E+01  0.66696136991E+03  0.66703427468E+03  0.00000000000E+00 0.  1.
          5    1    4    4  501    0 -0.45863100453E+02 -0.44762173277E+02  0.54046785302E+03  0.54427019823E+03  0.41800000000E+01 0. -1.
         -5    1    4    4    0  501 -0.47884883512E+02  0.69202793149E+01  0.59088993356E+02  0.76484206674E+02  0.41800000000E+01 0. -1.
</event>
<event>
11    1  0.7105277E-009  0.1424840E+03  0.7561462E-02  0.1104816E+00
         22   -1    0    0    0    0  0.00000000000E+00  0.00000000000E+00  0.98238924160E+03  0.98238924160E+03  0.00000000000E+00 0.  1.
         22   -1    0    0    0    0 -0.00000000000E+00 -0.00000000000E+00 -0.96029980601E+02  0.96029980601E+02  0.00000000000E+00 0. -1.
        -24    2    1    2    0    0  0.12506873660E+02  0.65877960828E+02 -0.41883409027E+02  0.11173764777E+03  0.78960460774E+02 0.  0.
         25    2    1    2    0    0 -0.77439053061E+02 -0.69486591873E+02  0.48008566176E+03  0.50690783461E+03  0.12509243292E+03 0.  0.
         24    2    1    2    0    0  0.64932179401E+02  0.36086310443E+01  0.44815700827E+03  0.45977373982E+03  0.79485707082E+02 0.  0.
        -11    1    5    5    0    0  0.75802606816E+02  0.22180956110E+02  0.38598305292E+03  0.39398089695E+03  0.00000000000E+00 0.  1.
         12    1    5    5    0    0 -0.10870427415E+02 -0.18572325066E+02  0.62173955346E+02  0.65792842878E+02  0.00000000000E+00 0. -1.
         11    1    3    3    0    0  0.88751138412E+01  0.22217932892E+02 -0.59797285193E+02  0.64405896502E+02  0.00000000000E+00 0. -1.
        -12    1    3    3    0    0  0.36317598188E+01  0.43660027936E+02  0.17913876166E+02  0.47331751268E+02  0.00000000000E+00 0.  1.
          5    1    4    4  501    0  0.24760880027E+01 -0.65036926569E+02  0.10699073065E+03  0.12530132351E+03  0.41800000000E+01 0. -1.
         -5    1    4    4    0  501 -0.79915141064E+02 -0.44496653040E+01  0.37309493111E+03  0.38160651110E+03  0.41800000000E+01 0. -1.
</event>
<event>
11    1  0.7105277E-009  0.1978811E+03  0.7561462E-02  0.1056032E+00
         22   -1    0    0    0    0  0.00000000000E+00  0.00000000000E+00  0.19536765158E+04  0.19536765158E+04  0.00000000000E+00 0. -1.
         22   -1    0    0    0    0 -0.00000000000E+00 -0.00000000000E+00 -0.90076189166E+03  0.90076189166E+03  0.00000000000E+00 0.  1.
         24    2    1    2    0    0  0.14860181914E+03 -0.52595795443E+02 -0.82342673702E+03  0.84356177313E+03  0.93359817366E+02 0.  0.
         25    2    1    2    0    0 -0.11185223124E+03  0.39619247014E+01  0.42757656478E+02  0.17321559574E+03  0.12509519151E+03 0.  0.
        -24    2    1    2    0    0 -0.36749587900E+02  0.48633870741E+02  0.18335837047E+04  0.18376610386E+04  0.10608065352E+03 0.  0.
        -13    1    3    3    0    0  0.93237250631E+02 -0.35810079900E+02 -0.70186032160E+03  0.70893120807E+03  0.00000000000E+00 0.  1.
         14    1    3    3    0    0  0.55364568511E+02 -0.16785715543E+02 -0.12156641541E+03  0.13463056506E+03  0.00000000000E+00 0. -1.
         13    1    5    5    0    0  0.15467409561E+02  0.65091877298E+02  0.11045879846E+04  0.11066123120E+04  0.00000000000E+00 0. -1.
        -14    1    5    5    0    0 -0.52216997461E+02 -0.16458006557E+02  0.72899572001E+03  0.73104872656E+03  0.00000000000E+00 0.  1.
          5    1    4    4  501    0 -0.61107159382E+02  0.42655652732E+02  0.71265649451E+02  0.10319813385E+03  0.41800000000E+01 0. -1.
         -5    1    4    4    0  501 -0.50745071860E+02 -0.38693728031E+02 -0.28507992973E+02  0.70017461896E+02  0.41800000000E+01 0. -1.
</event>
<event>
11    1  0.7105277E-009  0.1452376E+03  0.7561462E-02  0.1101847E+00
         22   -1    0    0    0    0  0.00000000000E+00  0.00000000000E+00  0.38063495854E+03  0.38063495854E+03  0.00000000000E+00 0.  1.
         22   -1    0    0    0    0 -0.00000000000E+00 -0.00000000000E+00 -0.37972690202E+03  0.37972690202E+03  0.00000000000E+00 0.  1.
         24    2    1    2    0    0 -0.40702206806E+01 -0.75673034032E+02 -0.28935421193E+03  0.30960324530E+03  0.79908289695E+02 0.  0.
         25    2    1    2    0    0 -0.22506793122E+02  0.60942744648E+02 -0.27135854963E+01  0.14098327977E+03  0.12509335621E+03 0.  0.
        -24    2    1    2    0    0  0.26577013802E+02  0.14730289385E+02  0.29297585395E+03  0.30977533548E+03  0.95930122412E+02 0.  0.
        -11    1    3    3    0    0 -0.19153315070E+02 -0.55043450115E+02 -0.27325167970E+03  0.27939776544E+03  0.00000000000E+00 0.  1.
         12    1    3    3    0    0  0.15083094389E+02 -0.20629583918E+02 -0.16102532237E+02  0.30205479858E+02  0.00000000000E+00 0. -1.
         11    1    5    5    0    0  0.38286334983E+02  0.43819942840E+02  0.11314938218E+03  0.12723526840E+03  0.00000000000E+00 0. -1.
        -12    1    5    5    0    0 -0.11709321180E+02 -0.29089653455E+02  0.17982647177E+03  0.18254006708E+03  0.00000000000E+00 0.  1.
          5    1    4    4  501    0  0.92435831134E+01  0.87211356124E+02  0.24828272835E+02  0.91242424331E+02  0.41800000000E+01 0.  1.
         -5    1    4    4    0  501 -0.31750376235E+02 -0.26268611476E+02 -0.27541858331E+02  0.49740855444E+02  0.41800000000E+01 0.  1.
</event>
<event>
11    1  0.7105277E-009  0.1303923E+03  0.7561462E-02  0.1118788E+00
         22   -1    0    0    0    0  0.00000000000E+00  0.00000000000E+00  0.25088127210E+03  0.25088127210E+03  0.00000000000E+00 0. -1.
         22   -1    0    0    0    0 -0.00000000000E+00 -0.00000000000E+00 -0.51007572979E+03  0.51007572979E+03  0.00000000000E+00 0.  1.
        -24    2    1    2    0    0 -0.12486769731E+02  0.10448905586E+02 -0.39266857840E+03  0.40110530601E+03  0.80198223177E+02 0.  0.
         25    2    1    2    0    0  0.47724067489E+02 -0.14913266689E+02 -0.58685557307E+02  0.14694596154E+03  0.12509647811E+03 0.  0.
         24    2    1    2    0    0 -0.35237297757E+02  0.44643611040E+01  0.19215967802E+03  0.21290573434E+03  0.84509834839E+02 0.  0.
        -11    1    5    5    0    0  0.96533816003E+01 -0.10335459640E+02 -0.87375927801E+00  0.14169437447E+02  0.00000000000E+00 0.  1.
         12    1    5    5    0    0 -0.44890679358E+02  0.14799820744E+02  0.19303343730E+03  0.19873629689E+03  0.00000000000E+00 0. -1.
         13    1    3    3    0    0 -0.18736135738E+01 -0.32846409198E+02 -0.10590137190E+03  0.11089408278E+03  0.00000000000E+00 0. -1.
        -14    1    3    3    0    0 -0.10613156158E+02  0.43295314784E+02 -0.28676720650E+03  0.29021122323E+03  0.00000000000E+00 0.  1.
          5    1    4    4  501    0 -0.13268772016E+02 -0.17697240382E+02  0.31035830945E+02  0.38339898675E+02  0.41800000000E+01 0.  1.
         -5    1    4    4    0  501  0.60992839505E+02  0.27839736927E+01 -0.89721388252E+02  0.10860606286E+03  0.41800000000E+01 0.  1.
</event>
<event>
11    1  0.7105277E-009  0.2086548E+03  0.7561462E-02  0.1048567E+00
         22   -1    0    0    0    0  0.00000000000E+00  0.00000000000E+00  0.68970649411E+03  0.68970649411E+03  0.00000000000E+00 0. -1.
         22   -1    0    0    0    0 -0.00000000000E+00 -0.00000000000E+00 -0.14756204668E+03  0.14756204668E+03  0.00000000000E+00 0.  1.
         24    2    1    2    0    0  0.63826057593E+02  0.14187421073E+03  0.65580035448E+02  0.18635570984E+03  0.78902802500E+02 0.  0.
         25    2    1    2    0    0  0.28842017708E+02 -0.19896418602E+03  0.11135917396E+03  0.26166279983E+03  0.12509174987E+03 0.  0.
        -24    2    1    2    0    0 -0.92668075301E+02  0.57089975294E+02  0.36520523801E+03  0.38925003112E+03  0.79335259465E+02 0.  0.
        -11    1    3    3    0    0  0.41569480140E+02  0.14054916990E+03  0.71798461256E+02  0.16320879228E+03  0.00000000000E+00 0.  1.
         12    1    3    3    0    0  0.22256577454E+02  0.13250408339E+01 -0.62184258079E+01  0.23146917563E+02  0.00000000000E+00 0. -1.
         13    1    5    5    0    0 -0.10623726279E+03  0.57944995448E+02  0.33216981129E+03  0.35352618296E+03  0.00000000000E+00 0. -1.
        -14    1    5    5    0    0  0.13569187493E+02 -0.85502015368E+00  0.33035426721E+02  0.35723848160E+02  0.00000000000E+00 0.  1.
          5    1    4    4  501    0  0.11574690163E+02  0.39560461357E+01 -0.16653185455E+02  0.21081383712E+02  0.41800000000E+01 0. -1.
         -5    1    4    4    0  501  0.17267327545E+02 -0.20292023216E+03  0.12801235942E+03  0.24058141612E+03  0.41800000000E+01 0. -1.
</event>
<event>
11    1  0.7105277E-009  0.1442434E+03  0.7561462E-02  0.1102910E+00
         22   -1    0    0    0    0  0.00000000000E+00  0.00000000000E+00  0.11377237428E+04  0.11377237428E+04  0.00000000000E+00 0. -1.
         22   -1    0    0    0    0 -0.00000000000E+00 -0.00000000000E+00 -0.18411460669E+03  0.18411460669E+03  0.00000000000E+00 0. -1.
        -24    2    1    2    0    0 -0.76932815237E+02 -0.48589303193E+01 -0.14305307788E+03  0.18145621389E+03  0.80745942336E+02 0.  0.
         25    2    1    2    0    0  0.13902000318E+02  0.88554527726E+01  0.19035990914E+03  0.22837640736E+03  0.12508878357E+03 0.  0.
         24    2    1    2    0    0  0.63030814919E+02 -0.39965224533E+01  0.90630230482E+03  0.91200572821E+03  0.79885698031E+02 0.  0.
        -13    1    5    5    0    0 -0.80433256920E-01  0.15352464300E+02  0.51094286809E+03  0.51117347260E+03  0.00000000000E+00 0.  1.
         14    1    5    5    0    0  0.63111248176E+02 -0.19348986753E+02  0.39535943673E+03  0.40083225562E+03  0.00000000000E+00 0. -1.
         11    1    3    3    0    0 -0.79401072211E+02 -0.66881401301E+01 -0.15220570409E+03  0.17180173993E+03  0.00000000000E+00 0. -1.
        -12    1    3    3    0    0  0.24682569734E+01  0.18292098107E+01  0.91526262043E+01  0.96544739605E+01  0.00000000000E+00 0.  1.
          5    1    4    4  501    0 -0.41520661574E+02  0.24834423006E+02  0.28069676312E+02  0.56090043964E+02  0.41800000000E+01 0.  1.
         -5    1    4    4    0  501  0.55422661893E+02 -0.15978970233E+02  0.16229023282E+03  0.17228636339E+03  0.41800000000E+01 0.  1.
</event>
<event>
11    1  0.7105277E-009  0.1816044E+03  0.7561462E-02  0.1068352E+00
         22   -1    0    0    0    0  0.00000000000E+00  0.00000000000E+00  0.11837155792E+04  0.11837155792E+04  0.00000000000E+00 0.  1.
         22   -1    0    0    0    0 -0.00000000000E+00 -0.00000000000E+00 -0.50305227918E+03  0.50305227918E+03  0.00000000000E+00 0.  1.
         24    2    1    2    0    0 -0.31250445557E+02 -0.88826811589E+01 -0.34683169773E+03  0.35673992834E+03  0.76913311917E+02 0.  0.
         25    2    1    2    0    0  0.55510041012E+02 -0.12061896420E+03 -0.88919944084E+02  0.20293930075E+03  0.12508918479E+03 0.  0.
        -24    2    1    2    0    0 -0.24259595455E+02  0.12950164536E+03  0.11164149419E+04  0.11270886293E+04  0.81161886678E+02 0.  0.
        -13    1    3    3    0    0  0.31028687125E+01  0.24408139428E+02 -0.21673027494E+03  0.21812243613E+03  0.00000000000E+00 0.  1.
         14    1    3    3    0    0 -0.34353314270E+02 -0.33290820587E+02 -0.13010142278E+03  0.13861749221E+03  0.00000000000E+00 0. -1.
         11    1    5    5    0    0  0.15665310586E+02  0.16351559437E+02  0.64638930216E+02  0.68490632580E+02  0.00000000000E+00 0. -1.
        -12    1    5    5    0    0 -0.39924906041E+02  0.11315008593E+03  0.10517760116E+04  0.10585979968E+04  0.00000000000E+00 0.  1.
          5    1    4    4  501    0  0.53545646197E+02 -0.33838430796E+01 -0.62868601149E+02  0.82755785484E+02  0.41800000000E+01 0.  1.
         -5    1    4    4    0  501  0.19643948147E+01 -0.11723512112E+03 -0.26051342935E+02  0.12018351526E+03  0.41800000000E+01 0.  1.
</event>
<event>
11    1  0.7105277E-009  0.1662512E+03  0.7561462E-02  0.1081341E+00
         22   -1    0    0    0    0  0.00000000000E+00  0.00000000000E+00  0.15856779262E+03  0.15856779262E+03  0.00000000000E+00 0. -1.
         22   -1    0    0    0    0 -0.00000000000E+00 -0.00000000000E+00 -0.16660495746E+04  0.16660495746E+04  0.00000000000E+00 0.  1.
        -24    2    1    2    0    0 -0.96981069330E+02  0.53831619561E+02 -0.15551243813E+04  0.15609402587E+04  0.76285508904E+02 0.  0.
         25    2    1    2    0    0  0.80240819849E+02  0.15140598139E+02  0.37025723909E+02  0.15390297267E+03  0.12508954346E+03 0.  0.
         24    2    1    2    0    0  0.16740249481E+02 -0.68972217700E+02  0.10616875348E+02  0.10977413591E+03  0.83067683879E+02 0.  0.
        -13    1    5    5    0    0  0.27537921246E+02 -0.30142746872E+02  0.42089732970E+02  0.58638450841E+02  0.00000000000E+00 0.  1.
         14    1    5    5    0    0 -0.10797671765E+02 -0.38829470829E+02 -0.31472857623E+02  0.51135685067E+02  0.00000000000E+00 0. -1.
         11    1    3    3    0    0  0.12751129536E+02  0.21330959196E+01 -0.11815196122E+03  0.11885717203E+03  0.00000000000E+00 0. -1.
        -12    1    3    3    0    0 -0.10973219887E+03  0.51698523641E+02 -0.14369724201E+04  0.14420830867E+04  0.00000000000E+00 0.  1.
          5    1    4    4  501    0  0.87630262428E+02 -0.34114684277E+02  0.44334680569E+01  0.94233765793E+02  0.41800000000E+01 0. -1.
         -5    1    4    4    0  501 -0.73894425786E+01  0.49255282417E+02  0.32592255852E+02  0.59669206875E+02  0.41800000000E+01 0. -1.
</event>
<event>
11    1  0.7105277E-009  0.1292652E+03  0.7561462E-02  0.1120175E+00
         22   -1    0    0    0    0  0.00000000000E+00  0.00000000000E+00  0.10061141849E+03  0.10061141849E+03  0.00000000000E+00 0.  1.
         22   -1    0    0    0    0 -0.00000000000E+00 -0.00000000000E+00 -0.30347048584E+03  0.30347048584E+03  0.00000000000E+00 0. -1.
        -24    2    1    2    0    0  0.32343159381E+02 -0.11884954925E+02 -0.16780251470E+03  0.18875382076E+03  0.79265306386E+02 0.  0.
         25    2    1    2    0    0 -0.19124111621E+02  0.16888834372E+02 -0.46622924984E+02  0.13593924751E+03  0.12511921319E+03 0.  0.
         24    2    1    2    0    0 -0.13219047760E+02 -0.50038794465E+01  0.11566372334E+02  0.79388836061E+02  0.77259460838E+02 0.  0.
        -13    1    5    5    0    0 -0.56982432974E+01  0.20635030075E+02  0.36841240462E+02  0.42609288209E+02  0.00000000000E+00 0.  1.
         14    1    5    5    0    0 -0.75208044625E+01 -0.25638909522E+02 -0.25274868129E+02  0.36779547852E+02  0.00000000000E+00 0. -1.
         13    1    3    3    0    0  0.54142936938E+02 -0.19879216331E+02 -0.84733931014E+02  0.10250112159E+03  0.00000000000E+00 0. -1.
        -14    1    3    3    0    0 -0.21799777557E+02  0.79942614061E+01 -0.83068583690E+02  0.86252699165E+02  0.00000000000E+00 0.  1.
          5    1    4    4  501    0 -0.69920878203E+02  0.18583479297E+02 -0.10002009285E+02  0.73155912278E+02  0.41800000000E+01 0. -1.
         -5    1    4    4    0  501  0.50796766582E+02 -0.16946449253E+01 -0.36620915699E+02  0.62783335235E+02  0.41800000000E+01 0. -1.
</event>
<event>
11    1  0.7105277E-009  0.1407970E+03  0.7561462E-02  0.1106672E+00
         22   -1    0    0    0    0  0.00000000000E+00  0.00000000000E+00  0.42017866406E+03  0.42017866406E+03  0.00000000000E+00 0.  1.
         22   -1    0    0    0    0 -0.00000000000E+00 -0.00000000000E+00 -0.12535677615E+04  0.12535677615E+04  0.00000000000E+00 0. -1.
         24    2    1    2    0    0  0.24109785520E+02  0.58326268196E+02 -0.92964738096E+03  0.93517169325E+03  0.79489669837E+02 0.  0.
         25    2    1    2    0    0  0.42312578834E+02 -0.94141816730E+02 -0.29489138323E+03  0.33654457665E+03  0.12509311807E+03 0.  0.
        -24    2    1    2    0    0 -0.66422364354E+02  0.35815548533E+02  0.39114966672E+03  0.40203015569E+03  0.54180257535E+02 0.  0.
        -11    1    3    3    0    0  0.26355108939E+02  0.74914662127E+02 -0.61898992782E+03  0.62406356176E+03  0.00000000000E+00 0.  1.
         12    1    3    3    0    0 -0.22453234189E+01 -0.16588393930E+02 -0.31065745314E+03  0.31110813149E+03  0.00000000000E+00 0. -1.
         13    1    5    5    0    0 -0.21634842699E+02  0.25140256050E+02  0.68450605329E+02  0.76063028225E+02  0.00000000000E+00 0. -1.
        -14    1    5    5    0    0 -0.44787521655E+02  0.10675292483E+02  0.32269906139E+03  0.32596712746E+03  0.00000000000E+00 0.  1.
          5    1    4    4  501    0 -0.41845298393E+02 -0.50428765497E+02 -0.14421243033E+03  0.15845752380E+03  0.41800000000E+01 0. -1.
         -5    1    4    4    0  501  0.84157877227E+02 -0.43713051233E+02 -0.15067895289E+03  0.17808705285E+03  0.41800000000E+01 0. -1.
</event>
<event>
11    1  0.7105277E-009  0.1289038E+03  0.7561462E-02  0.1120623E+00
         22   -1    0    0    0    0  0.00000000000E+00  0.00000000000E+00  0.88085517859E+03  0.88085517859E+03  0.00000000000E+00 0.  1.
         22   -1    0    0    0    0 -0.00000000000E+00 -0.00000000000E+00 -0.57506802190E+03  0.57506802190E+03  0.00000000000E+00 0. -1.
         24    2    1    2    0    0  0.22928332241E+02 -0.27191180299E+02 -0.55066087913E+03  0.55740944824E+03  0.78821446865E+02 0.  0.
         25    2    1    2    0    0 -0.39169709116E+02 -0.92246751875E+00  0.22081191539E+03  0.25679176390E+03  0.12509592707E+03 0.  0.
        -24    2    1    2    0    0  0.16241376875E+02  0.28113647818E+02  0.63563612042E+03  0.64172198835E+03  0.81973613006E+02 0.  0.
        -13    1    3    3    0    0  0.16103076591E+01  0.10965113346E+02 -0.98261863125E+01  0.14811506976E+02  0.00000000000E+00 0.  1.
         14    1    3    3    0    0  0.21318024582E+02 -0.38156293646E+02 -0.54083469281E+03  0.54259794127E+03  0.00000000000E+00 0. -1.
         11    1    5    5    0    0 -0.25968758508E+02  0.34948222955E+02  0.25485561215E+03  0.25854813431E+03  0.00000000000E+00 0. -1.
        -12    1    5    5    0    0  0.42210135383E+02 -0.68345751368E+01  0.38078050827E+03  0.38317385404E+03  0.00000000000E+00 0.  1.
          5    1    4    4  501    0 -0.42524299503E+02 -0.46815169607E+01  0.78092842575E+01  0.43688556510E+02  0.41800000000E+01 0. -1.
         -5    1    4    4    0  501  0.33545903866E+01  0.37590494420E+01  0.21300263113E+03  0.21310320739E+03  0.41800000000E+01 0. -1.
</event>
<event>
11    1  0.7105277E-009  0.1381587E+03  0.7561462E-02  0.1109632E+00
         22   -1    0    0    0    0  0.00000000000E+00  0.00000000000E+00  0.45821189452E+02  0.45821189452E+02  0.00000000000E+00 0. -1.
         22   -1    0    0    0    0 -0.00000000000E+00 -0.00000000000E+00 -0.15190177196E+04  0.15190177196E+04  0.00000000000E+00 0.  1.
        -24    2    1    2    0    0 -0.39665725289E+02  0.62138104868E+02 -0.99790491179E+03  0.10045219006E+04  0.88405440851E+02 0.  0.
         25    2    1    2    0    0  0.10492175027E+02 -0.14458010855E+02 -0.43632079648E+03  0.45424938966E+03  0.12509017046E+03 0.  0.
         24    2    1    2    0    0  0.29173550262E+02 -0.47680094012E+02 -0.38970821914E+02  0.10606761883E+03  0.81284238352E+02 0.  0.
        -13    1    5    5    0    0  0.20550094985E+02  0.21026163549E+02 -0.11984189465E+02  0.31749437075E+02  0.00000000000E+00 0.  1.
         14    1    5    5    0    0  0.86234552769E+01 -0.68706257561E+02 -0.26986632449E+02  0.74318181758E+02  0.00000000000E+00 0. -1.
         11    1    3    3    0    0  0.17247863162E+02  0.23321084714E+02 -0.10408713048E+03  0.10805319295E+03  0.00000000000E+00 0. -1.
        -12    1    3    3    0    0 -0.56913588451E+02  0.38817020153E+02 -0.89381778131E+03  0.89646870765E+03  0.00000000000E+00 0.  1.
          5    1    4    4  501    0 -0.47338364522E+02 -0.36752259434E+02 -0.27256267539E+03  0.27910487948E+03  0.41800000000E+01 0.  1.
         -5    1    4    4    0  501  0.57830539549E+02  0.22294248579E+02 -0.16375812109E+03  0.17514451018E+03  0.41800000000E+01 0.  1.
</event>
<event>
11    1  0.7105277E-009  0.1964557E+03  0.7561462E-02  0.1057059E+00
         22   -1    0    0    0    0  0.00000000000E+00  0.00000000000E+00  0.56958602027E+03  0.56958602027E+03  0.00000000000E+00 0.  1.
         22   -1    0    0    0    0 -0.00000000000E+00 -0.00000000000E+00 -0.22854457517E+04  0.22854457517E+04  0.00000000000E+00 0. -1.
         24    2    1    2    0    0 -0.42952379746E+01 -0.11600610042E+02 -0.21068168771E+04  0.21083359072E+04  0.79056440078E+02 0.  0.
         25    2    1    2    0    0 -0.13067619852E+03 -0.58748612261E+02 -0.10857754002E+03  0.21900971714E+03  0.12509398748E+03 0.  0.
        -24    2    1    2    0    0  0.13497143650E+03  0.70349222303E+02  0.49953468569E+03  0.52768614763E+03  0.75838423281E+02 0.  0.
        -11    1    3    3    0    0  0.31237843060E+02 -0.27001612040E+02 -0.10820070007E+04  0.10827945509E+04  0.00000000000E+00 0.  1.
         12    1    3    3    0    0 -0.35533081034E+02  0.15401001998E+02 -0.10248098763E+04  0.10255413562E+04  0.00000000000E+00 0. -1.
         13    1    5    5    0    0  0.64707265745E+02  0.38960186205E+02  0.13111207048E+03  0.15131193402E+03  0.00000000000E+00 0. -1.
        -14    1    5    5    0    0  0.70264170754E+02  0.31389036097E+02  0.36842261520E+03  0.37637421361E+03  0.00000000000E+00 0.  1.
          5    1    4    4  501    0 -0.70318447361E+02  0.34892498800E+02 -0.41354624970E+02  0.88824815892E+02  0.41800000000E+01 0.  1.
         -5    1    4    4    0  501 -0.60357751163E+02 -0.93641111061E+02 -0.67222915047E+02  0.13018490125E+03  0.41800000000E+01 0.  1.
</event>
<event>
11    1  0.7105277E-009  0.1498875E+03  0.7561462E-02  0.1096994E+00
         22   -1    0    0    0    0  0.00000000000E+00  0.00000000000E+00  0.13545434480E+03  0.13545434480E+03  0.00000000000E+00 0.  1.
         22   -1    0    0    0    0 -0.00000000000E+00 -0.00000000000E+00 -0.14314685093E+04  0.14314685093E+04  0.00000000000E+00 0. -1.
        -24    2    1    2    0    0  0.48438022880E+02 -0.72065750184E+02 -0.10984565556E+04  0.11048268178E+04  0.80596390746E+02 0.  0.
         25    2    1    2    0    0  0.35058930212E+00  0.71035968113E+02 -0.29375444063E+03  0.32708610188E+03  0.12508962778E+03 0.  0.
         24    2    1    2    0    0 -0.48788612182E+02  0.10297820701E+01  0.96196831816E+02  0.13500993441E+03  0.81193982591E+02 0.  0.
        -13    1    5    5    0    0  0.50032625825E+01  0.32151875961E+02  0.35057334246E+02  0.47830873384E+02  0.00000000000E+00 0.  1.
         14    1    5    5    0    0 -0.53791874764E+02 -0.31122093891E+02  0.61139497570E+02  0.87179061029E+02  0.00000000000E+00 0. -1.
         11    1    3    3    0    0  0.65073451639E+02 -0.76130159644E+02 -0.87442424663E+03  0.88014096508E+03  0.00000000000E+00 0. -1.
        -12    1    3    3    0    0 -0.16635428760E+02  0.40644094600E+01 -0.22403230901E+03  0.22468585268E+03  0.00000000000E+00 0.  1.
          5    1    4    4  501    0 -0.35999732914E+02 -0.16331103269E+02 -0.14809942105E+03  0.15334143803E+03  0.41800000000E+01 0. -1.
         -5    1    4    4    0  501  0.36350322216E+02  0.87367071382E+02 -0.14565501958E+03  0.17374466385E+03  0.41800000000E+01 0. -1.
</event>
<event>
11    1  0.7105277E-009  0.1798899E+03  0.7561462E-02  0.1069732E+00
         22   -1    0    0    0    0  0.00000000000E+00  0.00000000000E+00  0.64403294682E+02  0.64403294682E+02  0.00000000000E+00 0.  1.
         22   -1    0    0    0    0 -0.00000000000E+00 -0.00000000000E+00 -0.96773528818E+03  0.96773528818E+03  0.00000000000E+00 0.  1.
         24    2    1    2    0    0  0.10553530647E+03  0.25386490149E+02 -0.32242556730E+03  0.34952906348E+03  0.80188184781E+02 0.  0.
         25    2    1    2    0    0 -0.15694185050E+03 -0.15601038576E+02 -0.54097295972E+03  0.57721092415E+03  0.12508625414E+03 0.  0.
        -24    2    1    2    0    0  0.51406544030E+02 -0.97854515723E+01 -0.39933466480E+02  0.10539859522E+03  0.82315213042E+02 0.  0.
        -11    1    3    3    0    0  0.33178869061E+02  0.25615837067E+02 -0.22099475030E+03  0.22493485306E+03  0.00000000000E+00 0.  1.
         12    1    3    3    0    0  0.72356437406E+02 -0.22934691799E+00 -0.10143081700E+03  0.12459421042E+03  0.00000000000E+00 0. -1.
         11    1    5    5    0    0  0.14498875996E+02  0.35366257938E+02 -0.23264504848E+02  0.44746248909E+02  0.00000000000E+00 0. -1.
        -12    1    5    5    0    0  0.36907668034E+02 -0.45151709510E+02 -0.16668961632E+02  0.60652346313E+02  0.00000000000E+00 0.  1.
          5    1    4    4  501    0 -0.89063450730E+02 -0.66729564749E+02 -0.36737222585E+03  0.38388143716E+03  0.41800000000E+01 0. -1.
         -5    1    4    4    0  501 -0.67878399767E+02  0.51128526172E+02 -0.17360073387E+03  0.19332948700E+03  0.41800000000E+01 0. -1.
</event>
<event>
11    1  0.7105277E-009  0.1813155E+03  0.7561462E-02  0.1068584E+00
         22   -1    0    0    0    0  0.00000000000E+00  0.00000000000E+00  0.58940631003E+02  0.58940631003E+02  0.00000000000E+00 0. -1.
         22   -1    0    0    0    0 -0.00000000000E+00 -0.00000000000E+00 -0.91171771052E+03  0.91171771052E+03  0.00000000000E+00 0. -1.
         24    2    1    2    0    0 -0.12477588898E+03  0.96713648588E+02 -0.39622431667E+03  0.43366487237E+03  0.78415305356E+02 0.  0.
         25    2    1    2    0    0  0.54889648989E+02 -0.96178756013E+02 -0.37265734172E+03  0.40839541823E+03  0.12510034617E+03 0.  0.
        -24    2    1    2    0    0  0.69886239994E+02 -0.53489257528E+00 -0.83895421122E+02  0.12859805092E+03  0.67931173737E+02 0.  0.
        -11    1    3    3    0    0 -0.75443424103E+02  0.15164469188E+02 -0.13221834724E+03  0.15298157639E+03  0.00000000000E+00 0.  1.
         12    1    3    3    0    0 -0.49332464880E+02  0.81549179400E+02 -0.26400596943E+03  0.28068329599E+03  0.00000000000E+00 0. -1.
         11    1    5    5    0    0  0.59691185448E+02  0.22687648489E+02 -0.80891002683E+02  0.10305882461E+03  0.00000000000E+00 0. -1.
        -12    1    5    5    0    0  0.10195054547E+02 -0.23222541065E+02 -0.30044184387E+01  0.25539226317E+02  0.00000000000E+00 0.  1.
          5    1    4    4  501    0 -0.30240194562E+01 -0.97515068257E+02 -0.29931353444E+03  0.31484027305E+03  0.41800000000E+01 0. -1.
         -5    1    4    4    0  501  0.57913668446E+02  0.13363122445E+01 -0.73343807281E+02  0.93555145180E+02  0.41800000000E+01 0. -1.
</event>
<event>
11    1  0.7105277E-009  0.1860283E+03  0.7561462E-02  0.1064868E+00
         22   -1    0    0    0    0  0.00000000000E+00  0.00000000000E+00  0.24303389420E+03  0.24303389420E+03  0.00000000000E+00 0.  1.
         22   -1    0    0    0    0 -0.00000000000E+00 -0.00000000000E+00 -0.56986044002E+03  0.56986044002E+03  0.00000000000E+00 0.  1.
         24    2    1    2    0    0 -0.17993008042E+02  0.55699913744E+01 -0.27818834094E+03  0.29064507773E+03  0.82042885313E+02 0.  0.
         25    2    1    2    0    0 -0.98493121995E+02 -0.81422278565E+02 -0.22265818073E+03  0.28557680474E+03  0.12508782286E+03 0.  0.
        -24    2    1    2    0    0  0.11648613004E+03  0.75852287191E+02  0.17401997585E+03  0.23667245175E+03  0.80051917275E+02 0.  0.
        -11    1    3    3    0    0 -0.17562587834E+02 -0.35685159067E+02 -0.17609114730E+03  0.18052691551E+03  0.00000000000E+00 0.  1.
         12    1    3    3    0    0 -0.43042020787E+00  0.41255150441E+02 -0.10209719365E+03  0.11011816222E+03  0.00000000000E+00 0. -1.
         13    1    5    5    0    0  0.30330295344E+02  0.64074606432E+02  0.57479822853E+02  0.91265612584E+02  0.00000000000E+00 0. -1.
        -14    1    5    5    0    0  0.86155834692E+02  0.11777680759E+02  0.11654015300E+03  0.14540683917E+03  0.00000000000E+00 0.  1.
          5    1    4    4  501    0 -0.36016214954E+02 -0.76635777911E+02 -0.42599378728E+02  0.94880923603E+02  0.41800000000E+01 0. -1.
         -5    1    4    4    0  501 -0.62476907041E+02 -0.47865006544E+01 -0.18005880200E+03  0.19069588113E+03  0.41800000000E+01 0. -1.
</event>
<event>
11    1  0.7105277E-009  0.1315705E+03  0.7561462E-02  0.1117354E+00
         22   -1    0    0    0    0  0.00000000000E+00  0.00000000000E+00  0.11009932655E+04  0.11009932655E+04  0.00000000000E+00 0.  1.
         22   -1    0    0    0    0 -0.00000000000E+00 -0.00000000000E+00 -0.68326058629E+02  0.68326058629E+02  0.00000000000E+00 0. -1.
        -24    2    1    2    0    0  0.51935242794E+02 -0.26371303766E+02  0.13768497425E+01  0.92286179899E+02  0.71569044836E+02 0.  0.
         25    2    1    2    0    0 -0.51921164253E+01  0.21662753033E+02  0.17974385824E+03  0.22013319726E+03  0.12511809230E+03 0.  0.
         24    2    1    2    0    0 -0.46743126368E+02  0.47085507337E+01  0.85154649888E+03  0.85689994696E+03  0.83300594431E+02 0.  0.
        -13    1    5    5    0    0 -0.47187547396E+02  0.29626840727E+02  0.75944371839E+03  0.76148484931E+03  0.00000000000E+00 0.  1.
         14    1    5    5    0    0  0.44442102789E+00 -0.24918289994E+02  0.92102780482E+02  0.95415097646E+02  0.00000000000E+00 0. -1.
         11    1    3    3    0    0  0.14695855944E+02 -0.85135443128E+01 -0.33935388128E+02  0.37948111760E+02  0.00000000000E+00 0. -1.
        -12    1    3    3    0    0  0.37239386850E+02 -0.17857759454E+02  0.35312237871E+02  0.54338068139E+02  0.00000000000E+00 0.  1.
          5    1    4    4  501    0  0.92732539127E+01  0.20225911069E+01  0.19216394591E+03  0.19244359854E+03  0.41800000000E+01 0.  1.
         -5    1    4    4    0  501 -0.14465370338E+02  0.19640161926E+02 -0.12420087669E+02  0.27689598719E+02  0.41800000000E+01 0.  1.
</event>
<event>
11    1  0.7105277E-009  0.1419877E+03  0.7561462E-02  0.1105359E+00
         22   -1    0    0    0    0  0.00000000000E+00  0.00000000000E+00  0.21633878559E+03  0.21633878559E+03  0.00000000000E+00 0.  1.
         22   -1    0    0    0    0 -0.00000000000E+00 -0.00000000000E+00 -0.80793469434E+03  0.80793469434E+03  0.00000000000E+00 0.  1.
        -24    2    1    2    0    0  0.92003964919E+01  0.11915302574E+02 -0.71533009098E+03  0.72007762483E+03  0.81166649550E+02 0.  0.
         25    2    1    2    0    0 -0.41342672872E+02 -0.67331207212E+02  0.53541851401E+01  0.14804639736E+03  0.12508541245E+03 0.  0.
         24    2    1    2    0    0  0.32142276380E+02  0.55415904639E+02  0.11837999708E+03  0.15614945773E+03  0.79150369706E+02 0.  0.
        -11    1    5    5    0    0  0.51337757926E+02  0.12861409146E+02  0.78920689561E+02  0.95023452236E+02  0.00000000000E+00 0.  1.
         12    1    5    5    0    0 -0.19195481546E+02  0.42554495493E+02  0.39459307517E+02  0.61126005498E+02  0.00000000000E+00 0. -1.
         11    1    3    3    0    0  0.28185180109E+02 -0.18887603442E+02 -0.15938077572E+03  0.16295207151E+03  0.00000000000E+00 0. -1.
        -12    1    3    3    0    0 -0.18984783617E+02  0.30802906016E+02 -0.55594931526E+03  0.55712555332E+03  0.00000000000E+00 0.  1.
          5    1    4    4  501    0 -0.62378136303E+01 -0.87416868330E+02  0.38280619429E+02  0.95726158449E+02  0.41800000000E+01 0.  1.
         -5    1    4    4    0  501 -0.35104859242E+02  0.20085661118E+02 -0.32926434289E+02  0.52320238913E+02  0.41800000000E+01 0.  1.
</event>
<event>
11    1  0.7105277E-009  0.1293545E+03  0.7561462E-02  0.1120065E+00
         22   -1    0    0    0    0  0.00000000000E+00  0.00000000000E+00  0.12224932274E+04  0.12224932274E+04  0.00000000000E+00 0.  1.
         22   -1    0    0    0    0 -0.00000000000E+00 -0.00000000000E+00 -0.28564568708E+04  0.28564568708E+04  0.00000000000E+00 0. -1.
         24    2    1    2    0    0  0.31887547097E+02  0.82078772246E+01 -0.28441295647E+04  0.28455044778E+04  0.82088777299E+02 0.  0.
         25    2    1    2    0    0 -0.59825641478E+01  0.27569144144E+01  0.40653920932E+03  0.42540445267E+03  0.12510566728E+03 0.  0.
        -24    2    1    2    0    0 -0.25904982949E+02 -0.10964791639E+02  0.80362671196E+03  0.80804116771E+03  0.79519442575E+02 0.  0.
        -11    1    3    3    0    0  0.19825972407E+02 -0.29159366759E+02 -0.60243190187E+03  0.60346295184E+03  0.00000000000E+00 0.  1.
         12    1    3    3    0    0  0.12061574690E+02  0.37367243983E+02 -0.22416976628E+04  0.22420415260E+04  0.00000000000E+00 0. -1.
         11    1    5    5    0    0 -0.60723298034E+01 -0.79753791650E+00  0.25170283960E+01  0.66215321426E+01  0.00000000000E+00 0. -1.
        -12    1    5    5    0    0 -0.19832653146E+02 -0.10167253722E+02  0.80110968356E+03  0.80141963557E+03  0.00000000000E+00 0.  1.
          5    1    4    4  501    0  0.47308646072E+02 -0.37705622524E+01  0.70568634155E+02  0.85145344320E+02  0.41800000000E+01 0. -1.
         -5    1    4    4    0  501 -0.53291210220E+02  0.65274766667E+01  0.33597057517E+03  0.34025910835E+03  0.41800000000E+01 0. -1.
</event>
<event>
11    1  0.7105277E-009  0.1578400E+03  0.7561462E-02  0.1089127E+00
         22   -1    0    0    0    0  0.00000000000E+00  0.00000000000E+00  0.12957822679E+04  0.12957822679E+04  0.00000000000E+00 0. -1.
         22   -1    0    0    0    0 -0.00000000000E+00 -0.00000000000E+00 -0.23228967799E+04  0.23228967799E+04  0.00000000000E+00 0.  1.
         24    2    1    2    0    0 -0.71273178995E+01 -0.52360231605E+02 -0.19048635843E+04  0.19073753776E+04  0.82359963724E+02 0.  0.
         25    2    1    2    0    0 -0.51851292165E+02 -0.24155165487E+02 -0.40221448111E+03  0.42508258023E+03  0.12508670066E+03 0.  0.
        -24    2    1    2    0    0  0.58978610064E+02  0.76515397093E+02  0.12799635534E+04  0.12862210899E+04  0.82005558863E+02 0.  0.
        -11    1    3    3    0    0 -0.11415708553E+02 -0.67564591242E+02 -0.98693465579E+03  0.98931052111E+03  0.00000000000E+00 0.  1.
         12    1    3    3    0    0  0.42883906535E+01  0.15204359636E+02 -0.91792892851E+03  0.91806485645E+03  0.00000000000E+00 0. -1.
         13    1    5    5    0    0  0.77199303330E+02  0.67592529105E+02  0.11623820553E+04  0.11669021060E+04  0.00000000000E+00 0. -1.
        -14    1    5    5    0    0 -0.18220693266E+02  0.89228679875E+01  0.11758149812E+03  0.11931898398E+03  0.00000000000E+00 0.  1.
          5    1    4    4  501    0 -0.17399575101E+01 -0.33770043359E+02 -0.35106018775E+03  0.35270975476E+03  0.41800000000E+01 0.  1.
         -5    1    4    4    0  501 -0.50111334654E+02  0.96148778713E+01 -0.51154293364E+02  0.72372825473E+02  0.41800000000E+01 0.  1.
</event>
<event>
11    1  0.7105277E-009  0.1416443E+03  0.7561462E-02  0.1105736E+00
         22   -1    0    0    0    0  0.00000000000E+00  0.00000000000E+00  0.20090269518E+04  0.20090269518E+04  0.00000000000E+00 0. -1.
         22   -1    0    0    0    0 -0.00000000000E+00 -0.00000000000E+00 -0.15533971408E+03  0.15533971408E+03  0.00000000000E+00 0.  1.
         24    2    1    2    0    0 -0.34854107975E+02  0.25168888146E+01 -0.13426284719E+03  0.15550499057E+03  0.70243479298E+02 0.  0.
         25    2    1    2    0    0  0.82793607493E+02 -0.40408540796E+02  0.69663957476E+03  0.71375155871E+03  0.12508780445E+03 0.  0.
        -24    2    1    2    0    0 -0.47939499518E+02  0.37891651981E+02  0.12913105102E+04  0.12951101167E+04  0.78060281997E+02 0.  0.
        -11    1    3    3    0    0 -0.13142429749E+02  0.17789742518E+02 -0.12567290519E+03  0.12760437883E+03  0.00000000000E+00 0.  1.
         12    1    3    3    0    0 -0.21711678225E+02 -0.15272853703E+02 -0.85899420004E+01  0.27900611735E+02  0.00000000000E+00 0. -1.
         13    1    5    5    0    0 -0.39491365398E+02  0.42366188064E+02  0.12741558028E+04  0.12754714704E+04  0.00000000000E+00 0. -1.
        -14    1    5    5    0    0 -0.84481341202E+01 -0.44745360830E+01  0.17154707339E+02  0.19638646266E+02  0.00000000000E+00 0.  1.
          5    1    4    4  501    0  0.10473169893E+03 -0.23838448101E+02  0.65446770264E+03  0.66323634291E+03  0.41800000000E+01 0.  1.
         -5    1    4    4    0  501 -0.21938091440E+02 -0.16570092695E+02  0.42171872128E+02  0.50515215795E+02  0.41800000000E+01 0.  1.
</event>
<event>
11    1  0.7105277E-009  0.1385365E+03  0.7561462E-02  0.1109204E+00
         22   -1    0    0    0    0  0.00000000000E+00  0.00000000000E+00  0.22874087620E+04  0.22874087620E+04  0.00000000000E+00 0. -1.
         22   -1    0    0    0    0 -0.00000000000E+00 -0.00000000000E+00 -0.98807838824E+02  0.98807838824E+02  0.00000000000E+00 0.  1.
        -24    2    1    2    0    0  0.47022906816E+02  0.36465588158E+02 -0.56779507215E+02  0.11863281039E+03  0.85492329344E+02 0.  0.
         25    2    1    2    0    0 -0.36011149713E+02 -0.51322151306E+02  0.47429961245E+03  0.49450808555E+03  0.12508940077E+03 0.  0.
         24    2    1    2    0    0 -0.11011757103E+02  0.14856563148E+02  0.17710808180E+04  0.17730757049E+04  0.82025699072E+02 0.  0.
        -11    1    5    5    0    0 -0.28543830863E+02  0.30717510993E+02  0.49411967919E+03  0.49589572808E+03  0.00000000000E+00 0.  1.
         12    1    5    5    0    0  0.17532073760E+02 -0.15860947845E+02  0.12769611388E+04  0.12771799768E+04  0.00000000000E+00 0. -1.
         11    1    3    3    0    0  0.99840725428E+01  0.35758438911E+02  0.13240764331E+02  0.39416563751E+02  0.00000000000E+00 0. -1.
        -12    1    3    3    0    0  0.37038834273E+02  0.70714924686E+00 -0.70020271546E+02  0.79216246640E+02  0.00000000000E+00 0.  1.
          5    1    4    4  501    0 -0.75862263965E+02 -0.24766236728E+01  0.28384847322E+03  0.29385139936E+03  0.41800000000E+01 0. -1.
         -5    1    4    4    0  501  0.39851114252E+02 -0.48845527633E+02  0.19045113923E+03  0.20065668619E+03  0.41800000000E+01 0. -1.
</event>
<event>
11    1  0.7105277E-009  0.1370553E+03  0.7561462E-02  0.1110892E+00
         22   -1    0    0    0    0  0.00000000000E+00  0.00000000000E+00  0.43500685450E+02  0.43500685450E+02  0.00000000000E+00 0. -1.
         22   -1    0    0    0    0 -0.00000000000E+00 -0.00000000000E+00 -0.42700412890E+04  0.42700412890E+04  0.00000000000E+00 0. -1.
        -24    2    1    2    0    0  0.17595626570E+01 -0.23704232401E+02 -0.28827704433E+04  0.28840532018E+04  0.82658667207E+02 0.  0.
         25    2    1    2    0    0  0.12363165207E+02 -0.31602308643E+02 -0.13203488400E+04  0.13266947346E+04  0.12508519391E+03 0.  0.
         24    2    1    2    0    0 -0.14122727864E+02  0.55306541044E+02 -0.23421320348E+02  0.10279403817E+03  0.82217948848E+02 0.  0.
        -13    1    5    5    0    0  0.11808852927E+02  0.55819732305E+02 -0.42036476920E+02  0.70868589050E+02  0.00000000000E+00 0.  1.
         14    1    5    5    0    0 -0.25931580791E+02 -0.51319126190E+00  0.18615156572E+02  0.31925449124E+02  0.00000000000E+00 0. -1.
         11    1    3    3    0    0 -0.51403805669E+01 -0.50676415554E+02 -0.12383962712E+04  0.12394433618E+04  0.00000000000E+00 0. -1.
        -12    1    3    3    0    0  0.68999432239E+01  0.26972183153E+02 -0.16443741721E+04  0.16446098399E+04  0.00000000000E+00 0.  1.
          5    1    4    4  501    0 -0.34522377297E+02 -0.51979537461E+02 -0.10264574732E+04  0.10283608722E+04  0.41800000000E+01 0. -1.
         -5    1    4    4    0  501  0.46885542504E+02  0.20377228819E+02 -0.29389136680E+03  0.29833386236E+03  0.41800000000E+01 0. -1.
</event>
<event>
11    1  0.7105277E-009  0.2535935E+03  0.7561462E-02  0.1022002E+00
         22   -1    0    0    0    0  0.00000000000E+00  0.00000000000E+00  0.10570437753E+04  0.10570437753E+04  0.00000000000E+00 0. -1.
         22   -1    0    0    0    0 -0.00000000000E+00 -0.00000000000E+00 -0.14604293498E+03  0.14604293498E+03  0.00000000000E+00 0. -1.
         24    2    1    2    0    0  0.56385461080E+01  0.42204342049E+02  0.48254895515E+01  0.91387674220E+02  0.80718163755E+02 0.  0.
         25    2    1    2    0    0 -0.22447760728E+03 -0.54412632015E+02  0.11485194798E+03  0.28668768117E+03  0.12509166993E+03 0.  0.
        -24    2    1    2    0    0  0.21883906117E+03  0.12208289966E+02  0.79132340278E+03  0.82501135488E+03  0.80071410920E+02 0.  0.
        -11    1    3    3    0    0  0.42998658833E+02  0.27505981448E+02  0.44640211548E+01  0.51238571035E+02  0.00000000000E+00 0.  1.
         12    1    3    3    0    0 -0.37360112725E+02  0.14698360602E+02  0.36146839669E+00  0.40149103185E+02  0.00000000000E+00 0. -1.
         11    1    5    5    0    0  0.18742297230E+03 -0.17315506993E+02  0.68194007925E+03  0.70743866803E+03  0.00000000000E+00 0. -1.
        -12    1    5    5    0    0  0.31416088872E+02  0.29523796959E+02  0.10938332353E+03  0.11757268685E+03  0.00000000000E+00 0.  1.
          5    1    4    4  501    0 -0.16891290123E+03 -0.38051779839E+02  0.14067744833E+03  0.22313028261E+03  0.41800000000E+01 0. -1.
         -5    1    4    4    0  501 -0.55564706052E+02 -0.16360852176E+02 -0.25825500353E+02  0.63557398554E+02  0.41800000000E+01 0. -1.
</event>
<event>
11    1  0.7105277E-009  0.1450436E+03  0.7561462E-02  0.1102054E+00
         22   -1    0    0    0    0  0.00000000000E+00  0.00000000000E+00  0.18722761679E+03  0.18722761679E+03  0.00000000000E+00 0.  1.
         22   -1    0    0    0    0 -0.00000000000E+00 -0.00000000000E+00 -0.13964177540E+04  0.13964177540E+04  0.00000000000E+00 0. -1.
        -24    2    1    2    0    0 -0.61845876943E+02 -0.23551906576E+02 -0.10788814571E+04  0.10839251719E+04  0.80802073029E+02 0.  0.
         25    2    1    2    0    0  0.12113605351E+03 -0.15388806170E+02 -0.26946500356E+03  0.32119677518E+03  0.12508085955E+03 0.  0.
         24    2    1    2    0    0 -0.59290176571E+02  0.38940712746E+02  0.13915632342E+03  0.17852342374E+03  0.86454764643E+02 0.  0.
        -11    1    5    5    0    0 -0.10129533899E+02 -0.23646724039E+02  0.64340364228E+02  0.69292549988E+02  0.00000000000E+00 0.  1.
         12    1    5    5    0    0 -0.49160642672E+02  0.62587436785E+02  0.74815959194E+02  0.10923087376E+03  0.00000000000E+00 0. -1.
         13    1    3    3    0    0 -0.27327206423E+02 -0.41698166441E+02 -0.87046850349E+03  0.87189502170E+03  0.00000000000E+00 0. -1.
        -14    1    3    3    0    0 -0.34518670520E+02  0.18146259866E+02 -0.20841295358E+03  0.21203015018E+03  0.00000000000E+00 0.  1.
          5    1    4    4  501    0  0.96352058932E+02 -0.65306349358E+02 -0.15569086647E+03  0.19443702536E+03  0.41800000000E+01 0. -1.
         -5    1    4    4    0  501  0.24783994583E+02  0.49917543188E+02 -0.11377413708E+03  0.12675974982E+03  0.41800000000E+01 0. -1.
</event>
<event>
11    1  0.7105277E-009  0.1754414E+03  0.7561462E-02  0.1073391E+00
         22   -1    0    0    0    0  0.00000000000E+00  0.00000000000E+00  0.93357178624E+02  0.93357178624E+02  0.00000000000E+00 0.  1.
         22   -1    0    0    0    0 -0.00000000000E+00 -0.00000000000E+00 -0.92564497356E+03  0.92564497356E+03  0.00000000000E+00 0.  1.
        -24    2    1    2    0    0 -0.11800997735E+02 -0.77791420760E+01 -0.53179781153E+03  0.53802774883E+03  0.80406265691E+02 0.  0.
         25    2    1    2    0    0 -0.11356968565E+03  0.12367132172E+02 -0.28399390046E+03  0.33068349465E+03  0.12509204085E+03 0.  0.
         24    2    1    2    0    0  0.12537068338E+03 -0.45879900963E+01 -0.16496082948E+02  0.15029090870E+03  0.81094873952E+02 0.  0.
        -13    1    5    5    0    0  0.79221799846E+02 -0.31553523872E+02  0.17356474251E+02  0.87022788039E+02  0.00000000000E+00 0.  1.
         14    1    5    5    0    0  0.46148883534E+02  0.26965533776E+02 -0.33852557199E+02  0.63268120662E+02  0.00000000000E+00 0. -1.
         11    1    3    3    0    0 -0.32093868373E+02  0.49394649284E+01 -0.91713089478E+02  0.97291857227E+02  0.00000000000E+00 0. -1.
        -12    1    3    3    0    0  0.20292870638E+02 -0.12718607004E+02 -0.44008472205E+03  0.44073589160E+03  0.00000000000E+00 0.  1.
          5    1    4    4  501    0 -0.89634867771E+02  0.61138812965E+02 -0.14318245382E+03  0.17969711031E+03  0.41800000000E+01 0.  1.
         -5    1    4    4    0  501 -0.23934817875E+02 -0.48771680793E+02 -0.14081144664E+03  0.15098638435E+03  0.41800000000E+01 0.  1.
</event>
<event>
11    1  0.7105277E-009  0.1685717E+03  0.7561462E-02  0.1079281E+00
         22   -1    0    0    0    0  0.00000000000E+00  0.00000000000E+00  0.53755933098E+03  0.53755933098E+03  0.00000000000E+00 0.  1.
         22   -1    0    0    0    0 -0.00000000000E+00 -0.00000000000E+00 -0.21709176762E+03  0.21709176762E+03  0.00000000000E+00 0. -1.
        -24    2    1    2    0    0 -0.12834236215E+02  0.10835929754E+02 -0.14885905733E+03  0.16987873253E+03  0.80110110641E+02 0.  0.
         25    2    1    2    0    0  0.60418365235E+02 -0.10951469220E+03  0.13059549045E+03  0.21985704119E+03  0.12505234811E+03 0.  0.
         24    2    1    2    0    0 -0.47584129020E+02  0.98678762446E+02  0.33873113023E+03  0.36491532488E+03  0.80141551364E+02 0.  0.
        -11    1    5    5    0    0 -0.46603730283E+02  0.11099500964E+03  0.27808118151E+03  0.30301970786E+03  0.00000000000E+00 0.  1.
         12    1    5    5    0    0 -0.98039873684E+00 -0.12316247199E+02  0.60649948717E+02  0.61895617019E+02  0.00000000000E+00 0. -1.
         13    1    3    3    0    0  0.12092243792E+01  0.10630201961E+02 -0.15440736805E+03  0.15477757823E+03  0.00000000000E+00 0. -1.
        -14    1    3    3    0    0 -0.14043460594E+02  0.20572779298E+00  0.55483107196E+01  0.15101154301E+02  0.00000000000E+00 0.  1.
          5    1    4    4  501    0 -0.70225821941E+01 -0.44086963084E+02 -0.14341741427E+02  0.47075842231E+02  0.41800000000E+01 0.  1.
         -5    1    4    4    0  501  0.67440947429E+02 -0.65427729115E+02  0.14493723188E+03  0.17278119896E+03  0.41800000000E+01 0.  1.
</event>
<event>
11    1  0.7105277E-009  0.2429556E+03  0.7561462E-02  0.1027720E+00
         22   -1    0    0    0    0  0.00000000000E+00  0.00000000000E+00  0.93301813039E+03  0.93301813039E+03  0.00000000000E+00 0.  1.
         22   -1    0    0    0    0 -0.00000000000E+00 -0.00000000000E+00 -0.15308908817E+04  0.15308908817E+04  0.00000000000E+00 0.  1.
        -24    2    1    2    0    0  0.17783551204E+03  0.10715699769E+03 -0.13998422453E+04  0.14174323934E+04  0.80300601590E+02 0.  0.
         25    2    1    2    0    0 -0.18203410407E+03 -0.12050975010E+03  0.11524382551E+02  0.25186856494E+03  0.12508376272E+03 0.  0.
         24    2    1    2    0    0  0.41985920252E+01  0.13352752415E+02  0.79044511143E+03  0.79460805377E+03  0.80016003216E+02 0.  0.
        -11    1    5    5    0    0  0.73249311364E+01 -0.13772275200E+02  0.69898771265E+03  0.69916174997E+03  0.00000000000E+00 0.  1.
         12    1    5    5    0    0 -0.31263391112E+01  0.27125027615E+02  0.91457398777E+02  0.95446303807E+02  0.00000000000E+00 0. -1.
         11    1    3    3    0    0  0.80475078551E+02  0.94505332583E+02 -0.74447167456E+03  0.75474868027E+03  0.00000000000E+00 0. -1.
        -12    1    3    3    0    0  0.97360433493E+02  0.12651665104E+02 -0.65537057075E+03  0.66268371313E+03  0.00000000000E+00 0.  1.
          5    1    4    4  501    0 -0.15284321535E+03 -0.11579364465E+03 -0.36572877052E+02  0.19525435809E+03  0.41800000000E+01 0. -1.
         -5    1    4    4    0  501 -0.29190888722E+02 -0.47161054517E+01  0.48097259604E+02  0.56614206843E+02  0.41800000000E+01 0. -1.
</event>
<event>
11    1  0.7105277E-009  0.1497398E+03  0.7561462E-02  0.1097145E+00
         22   -1    0    0    0    0  0.00000000000E+00  0.00000000000E+00  0.11091071918E+04  0.11091071918E+04  0.00000000000E+00 0. -1.
         22   -1    0    0    0    0 -0.00000000000E+00 -0.00000000000E+00 -0.96415644638E+02  0.96415644638E+02  0.00000000000E+00 0.  1.
        -24    2    1    2    0    0 -0.12712094297E+02  0.41144607829E+01 -0.53371809477E+02  0.94295832386E+02  0.76580858114E+02 0.  0.
         25    2    1    2    0    0 -0.28218956994E+02  0.69386227671E+02  0.27135304220E+03  0.30804222166E+03  0.12508708442E+03 0.  0.
         24    2    1    2    0    0  0.40931051291E+02 -0.73500688454E+02  0.79471031444E+03  0.80318478239E+03  0.80396570990E+02 0.  0.
        -13    1    5    5    0    0  0.58268211189E+02 -0.33537690152E+02  0.35406158999E+03  0.36038808333E+03  0.00000000000E+00 0.  1.
         14    1    5    5    0    0 -0.17337159898E+02 -0.39962998302E+02  0.44064872444E+03  0.44279669906E+03  0.00000000000E+00 0. -1.
         11    1    3    3    0    0 -0.37993722081E+02 -0.83013041091E+01 -0.62372714942E+01  0.39387029885E+02  0.00000000000E+00 0. -1.
        -12    1    3    3    0    0  0.25281627783E+02  0.12415764892E+02 -0.47134537983E+02  0.54908802501E+02  0.00000000000E+00 0.  1.
          5    1    4    4  501    0  0.20365790834E+02  0.28800871025E+02  0.70274502363E+01  0.36209295283E+02  0.41800000000E+01 0.  1.
         -5    1    4    4    0  501 -0.48584747828E+02  0.40585356646E+02  0.26432559196E+03  0.27183292637E+03  0.41800000000E+01 0.  1.
</event>
<event>
11    1  0.7105277E-009  0.1552713E+03  0.7561462E-02  0.1091611E+00
         22   -1    0    0    0    0  0.00000000000E+00  0.00000000000E+00  0.19353887950E+03  0.19353887950E+03  0.00000000000E+00 0. -1.
         22   -1    0    0    0    0 -0.00000000000E+00 -0.00000000000E+00 -0.15943757872E+04  0.15943757872E+04  0.00000000000E+00 0.  1.
         24    2    1    2    0    0 -0.13964182640E+02 -0.34053105094E+01 -0.14438412744E+04  0.14462108007E+04  0.81495153532E+02 0.  0.
         25    2    1    2    0    0 -0.57689270648E+02 -0.57766672019E+02 -0.78161324327E+02  0.16858657288E+03  0.12508876685E+03 0.  0.
        -24    2    1    2    0    0  0.71653453288E+02  0.61171982528E+02  0.12116569097E+03  0.17311729310E+03  0.80076486469E+02 0.  0.
        -13    1    3    3    0    0 -0.30358306913E+02 -0.34508599371E+02 -0.67262218822E+03  0.67419068394E+03  0.00000000000E+00 0.  1.
         14    1    3    3    0    0  0.16394124273E+02  0.31103288862E+02 -0.77121908615E+03  0.77202011679E+03  0.00000000000E+00 0. -1.
         13    1    5    5    0    0  0.84227582132E+02  0.28960419776E+02  0.87078080853E+02  0.12456156578E+03  0.00000000000E+00 0. -1.
        -14    1    5    5    0    0 -0.12574128844E+02  0.32211562752E+02  0.34087610121E+02  0.48555727313E+02  0.00000000000E+00 0.  1.
          5    1    4    4  501    0 -0.44404720508E+02 -0.67229137114E+01  0.25780932015E+02  0.51952917413E+02  0.41800000000E+01 0.  1.
         -5    1    4    4    0  501 -0.13284550140E+02 -0.51043758308E+02 -0.10394225634E+03  0.11663365547E+03  0.41800000000E+01 0.  1.
</event>
<event>
11    1  0.7105277E-009  0.1348940E+03  0.7561462E-02  0.1113398E+00
         22   -1    0    0    0    0  0.00000000000E+00  0.00000000000E+00  0.15270022530E+04  0.15270022530E+04  0.00000000000E+00 0.  1.
         22   -1    0    0    0    0 -0.00000000000E+00 -0.00000000000E+00 -0.38952195289E+03  0.38952195289E+03  0.00000000000E+00 0. -1.
         24    2    1    2    0    0 -0.23844470231E+02  0.44744128632E+02 -0.36723880974E+03  0.38198354319E+03  0.92067845011E+02 0.  0.
         25    2    1    2    0    0 -0.92237071987E+01 -0.50826961116E+02  0.33021755354E+03  0.35687405840E+03  0.12508798558E+03 0.  0.
        -24    2    1    2    0    0  0.33068177430E+02  0.60828324838E+01  0.11745015563E+04  0.11776666043E+04  0.79462066003E+02 0.  0.
        -11    1    3    3    0    0  0.33197843164E+02  0.27180222339E+02 -0.19600221194E+03  0.20064328636E+03  0.00000000000E+00 0.  1.
         12    1    3    3    0    0 -0.57042313396E+02  0.17563906292E+02 -0.17123659780E+03  0.18134025683E+03  0.00000000000E+00 0. -1.
         13    1    5    5    0    0  0.26300890867E+02 -0.22277129426E+02  0.21692029520E+03  0.21964157581E+03  0.00000000000E+00 0. -1.
        -14    1    5    5    0    0  0.67672865625E+01  0.28359961909E+02  0.95758126106E+03  0.95802502845E+03  0.00000000000E+00 0.  1.
          5    1    4    4  501    0  0.38131295863E+02  0.15782860612E+02  0.50075132945E+02  0.65023732227E+02  0.41800000000E+01 0.  1.
         -5    1    4    4    0  501 -0.47355003062E+02 -0.66609821727E+02  0.28014242060E+03  0.29185032617E+03  0.41800000000E+01 0.  1.
</event>
<event>
11    1  0.7105277E-009  0.1316106E+03  0.7561462E-02  0.1117306E+00
         22   -1    0    0    0    0  0.00000000000E+00  0.00000000000E+00  0.22571708186E+03  0.22571708186E+03  0.00000000000E+00 0. -1.
         22   -1    0    0    0    0 -0.00000000000E+00 -0.00000000000E+00 -0.38625659280E+03  0.38625659280E+03  0.00000000000E+00 0. -1.
        -24    2    1    2    0    0 -0.11600634127E+02 -0.27130237935E+02 -0.24943675258E+03  0.26339457288E+03  0.79293019625E+02 0.  0.
         25    2    1    2    0    0 -0.18106754293E+02  0.54016116451E+02 -0.79661758336E+02  0.15886815113E+03  0.12508996089E+03 0.  0.
         24    2    1    2    0    0  0.29707388420E+02 -0.26885878516E+02  0.16855899997E+03  0.18971095065E+03  0.77283432471E+02 0.  0.
        -11    1    5    5    0    0  0.29164920373E+02 -0.49041576961E+02  0.79001970642E+02  0.97452451054E+02  0.00000000000E+00 0.  1.
         12    1    5    5    0    0  0.54246804702E+00  0.22155698445E+02  0.89557029330E+02  0.92258499595E+02  0.00000000000E+00 0. -1.
         11    1    3    3    0    0 -0.82304745181E+01 -0.47845890884E+02 -0.22903769941E+03  0.23412654214E+03  0.00000000000E+00 0. -1.
        -12    1    3    3    0    0 -0.33701596089E+01  0.20715652949E+02 -0.20399053174E+02  0.29268030738E+02  0.00000000000E+00 0.  1.
          5    1    4    4  501    0 -0.65897665996E+02  0.39868688586E+02 -0.76681222596E+02  0.10876349117E+03  0.41800000000E+01 0.  1.
         -5    1    4    4    0  501  0.47790911703E+02  0.14147427864E+02 -0.29805357397E+01  0.50104659961E+02  0.41800000000E+01 0.  1.
</event>
<event>
11    1  0.7105277E-009  0.1623875E+03  0.7561462E-02  0.1084853E+00
         22   -1    0    0    0    0  0.00000000000E+00  0.00000000000E+00  0.64685455775E+03  0.64685455775E+03  0.00000000000E+00 0. -1.
         22   -1    0    0    0    0 -0.00000000000E+00 -0.00000000000E+00 -0.10818323597E+04  0.10818323597E+04  0.00000000000E+00 0. -1.
        -24    2    1    2    0    0  0.54329422183E+02 -0.89843034166E+02 -0.10286416256E+04  0.10370277066E+04  0.79368843603E+02 0.  0.
         25    2    1    2    0    0 -0.38944001089E+01  0.71737657015E+02  0.70826015433E+02  0.16070400976E+03  0.12509195220E+03 0.  0.
         24    2    1    2    0    0 -0.50435022074E+02  0.18105377151E+02  0.52283780825E+03  0.53095520111E+03  0.75382728260E+02 0.  0.
        -11    1    5    5    0    0 -0.12885693252E+02  0.40245028684E+02  0.15915639042E+03  0.16467076254E+03  0.00000000000E+00 0.  1.
         12    1    5    5    0    0 -0.37549328821E+02 -0.22139651533E+02  0.36368141783E+03  0.36628443857E+03  0.00000000000E+00 0. -1.
         11    1    3    3    0    0  0.19942849022E+02 -0.82149008631E+02 -0.88895047827E+03  0.89296087801E+03  0.00000000000E+00 0. -1.
        -12    1    3    3    0    0  0.34386573161E+02 -0.76940255345E+01 -0.13969114735E+03  0.14406682856E+03  0.00000000000E+00 0.  1.
          5    1    4    4  501    0 -0.51660637143E+01 -0.22523029113E+02  0.61561654184E+02  0.65888426302E+02  0.41800000000E+01 0. -1.
         -5    1    4    4    0  501  0.12716636053E+01  0.94260686128E+02  0.92643612495E+01  0.94815583461E+02  0.41800000000E+01 0. -1.
</event>
<event>
11    1  0.7105277E-009  0.1334886E+03  0.7561462E-02  0.1115055E+00
         22   -1    0    0    0    0  0.00000000000E+00  0.00000000000E+00  0.30042515099E+04  0.30042515099E+04  0.00000000000E+00 0. -1.
         22   -1    0    0    0    0 -0.00000000000E+00 -0.00000000000E+00 -0.41006419714E+03  0.41006419714E+03  0.00000000000E+00 0.  1.
         24    2    1    2    0    0 -0.41910932973E+02 -0.20609650781E+02 -0.38993082615E+03  0.40098719589E+03  0.81014801626E+02 0.  0.
         25    2    1    2    0    0  0.31085364850E+02  0.28931999065E+02  0.29718992741E+03  0.32522749348E+03  0.12509080334E+03 0.  0.
        -24    2    1    2    0    0  0.10825568123E+02 -0.83223482833E+01  0.26869282115E+04  0.26881010176E+04  0.78213893014E+02 0.  0.
        -11    1    3    3    0    0 -0.61753139776E+02 -0.19593705723E+02 -0.35444985836E+03  0.36032216927E+03  0.00000000000E+00 0.  1.
         12    1    3    3    0    0  0.19842206803E+02 -0.10159450586E+01 -0.35480967792E+02  0.40665026628E+02  0.00000000000E+00 0. -1.
         11    1    5    5    0    0 -0.23482154594E+02  0.74831171065E+01  0.19880424091E+04  0.19881951688E+04  0.00000000000E+00 0. -1.
        -12    1    5    5    0    0  0.34307722716E+02 -0.15805465390E+02  0.69888580235E+03  0.69990584888E+03  0.00000000000E+00 0.  1.
          5    1    4    4  501    0  0.52721660011E+02 -0.31326264272E+02  0.19598177929E+03  0.20539532244E+03  0.41800000000E+01 0.  1.
         -5    1    4    4    0  501 -0.21636295161E+02  0.60258263337E+02  0.10120814812E+03  0.11983217104E+03  0.41800000000E+01 0.  1.
</event>
<event>
11    1  0.7105277E-009  0.1346772E+03  0.7561462E-02  0.1113652E+00
         22   -1    0    0    0    0  0.00000000000E+00  0.00000000000E+00  0.11848551092E+04  0.11848551092E+04  0.00000000000E+00 0. -1.
         22   -1    0    0    0    0 -0.00000000000E+00 -0.00000000000E+00 -0.16849976629E+03  0.16849976629E+03  0.00000000000E+00 0. -1.
        -24    2    1    2    0    0  0.22056140360E+02  0.43904372058E+02 -0.13997949200E+03  0.17119487816E+03  0.85436297405E+02 0.  0.
         25    2    1    2    0    0 -0.46395105212E+02 -0.62347261144E+02  0.53230667165E+03  0.55230234960E+03  0.12509119045E+03 0.  0.
         24    2    1    2    0    0  0.24338964852E+02  0.18442889086E+02  0.62402816324E+03  0.62985764771E+03  0.79856011051E+02 0.  0.
        -11    1    5    5    0    0 -0.27087907337E+02  0.16164641821E+02  0.16823565483E+03  0.17116742075E+03  0.00000000000E+00 0.  1.
         12    1    5    5    0    0  0.51426872189E+02  0.22782472650E+01  0.45579250840E+03  0.45869022696E+03  0.00000000000E+00 0. -1.
         11    1    3    3    0    0  0.28272264751E+02  0.63285631166E+02 -0.70790228575E+02  0.99073954841E+02  0.00000000000E+00 0. -1.
        -12    1    3    3    0    0 -0.62161243910E+01 -0.19381259107E+02 -0.69189263427E+02  0.72120923320E+02  0.00000000000E+00 0.  1.
          5    1    4    4  501    0  0.40094276964E+02 -0.41112624428E+02  0.18637655455E+03  0.19506791489E+03  0.41800000000E+01 0. -1.
         -5    1    4    4    0  501 -0.86489382175E+02 -0.21234636717E+02  0.34593011710E+03  0.35723443471E+03  0.41800000000E+01 0. -1.
</event>
<event>
11    1  0.7105277E-009  0.2996584E+03  0.7561462E-02  0.1000336E+00
         22   -1    0    0    0    0  0.00000000000E+00  0.00000000000E+00  0.21283491663E+03  0.21283491663E+03  0.00000000000E+00 0.  1.
         22   -1    0    0    0    0 -0.00000000000E+00 -0.00000000000E+00 -0.26315371330E+04  0.26315371330E+04  0.00000000000E+00 0. -1.
        -24    2    1    2    0    0  0.66021739195E+02 -0.18878743009E+03 -0.12311323673E+04  0.12499152434E+04  0.81250514215E+02 0.  0.
         25    2    1    2    0    0 -0.32963405214E+03  0.21594346456E+03 -0.12447413467E+04  0.13116092627E+04  0.12509056508E+03 0.  0.
         24    2    1    2    0    0  0.26361231295E+03 -0.27156034463E+02  0.57171497608E+02  0.28284754360E+03  0.80655136460E+02 0.  0.
        -13    1    5    5    0    0  0.21219014531E+03 -0.24907456824E+02  0.11371291637E+02  0.21394939927E+03  0.00000000000E+00 0.  1.
         14    1    5    5    0    0  0.51422167633E+02 -0.22485776384E+01  0.45800205971E+02  0.68898144333E+02  0.00000000000E+00 0. -1.
         13    1    3    3    0    0  0.31055025425E+02 -0.17451087153E+03 -0.10540650641E+04  0.10688646398E+04  0.00000000000E+00 0. -1.
        -14    1    3    3    0    0  0.34966713770E+02 -0.14276558565E+02 -0.17706730314E+03  0.18105060353E+03  0.00000000000E+00 0.  1.
          5    1    4    4  501    0 -0.26434898902E+03  0.13422380575E+03 -0.76211199014E+03  0.81775826253E+03  0.41800000000E+01 0. -1.
         -5    1    4    4    0  501 -0.65285063119E+02  0.81719658802E+02 -0.48262935661E+03  0.49385100016E+03  0.41800000000E+01 0. -1.
</event>
<event>
11    1  0.7105277E-009  0.1923536E+03  0.7561462E-02  0.1060066E+00
         22   -1    0    0    0    0  0.00000000000E+00  0.00000000000E+00  0.38031256279E+03  0.38031256279E+03  0.00000000000E+00 0.  1.
         22   -1    0    0    0    0 -0.00000000000E+00 -0.00000000000E+00 -0.29672250616E+03  0.29672250616E+03  0.00000000000E+00 0.  1.
         24    2    1    2    0    0  0.13795483805E+03  0.85695224387E+02 -0.14792360034E+03  0.23550620330E+03  0.84891527432E+02 0.  0.
         25    2    1    2    0    0 -0.13290269241E+03  0.21991037671E+02  0.11947649582E+02  0.18421201739E+03  0.12507833398E+03 0.  0.
        -24    2    1    2    0    0 -0.50521456394E+01 -0.10768626206E+03  0.21956600739E+03  0.25731684826E+03  0.79880370465E+02 0.  0.
        -13    1    3    3    0    0  0.10691512675E+03  0.99992928477E+02 -0.13448199824E+03  0.19878339449E+03  0.00000000000E+00 0.  1.
         14    1    3    3    0    0  0.31039711299E+02 -0.14297704090E+02 -0.13441602100E+02  0.36722808809E+02  0.00000000000E+00 0. -1.
         13    1    5    5    0    0 -0.35022262851E+02 -0.30587821329E+02  0.47882650296E+02  0.66745201387E+02  0.00000000000E+00 0. -1.
        -14    1    5    5    0    0  0.29970117212E+02 -0.77098440729E+02  0.17168335709E+03  0.19057164687E+03  0.00000000000E+00 0.  1.
          5    1    4    4  501    0 -0.11283021518E+02 -0.20223534182E+02 -0.39119901508E+02  0.45652349374E+02  0.41800000000E+01 0.  1.
         -5    1    4    4    0  501 -0.12161967090E+03  0.42214571853E+02  0.51067551090E+02  0.13855966801E+03  0.41800000000E+01 0.  1.
</event>
<event>
11    1  0.7105277E-009  0.1704980E+03  0.7561462E-02  0.1077599E+00
         22   -1    0    0    0    0  0.00000000000E+00  0.00000000000E+00  0.18637889585E+04  0.18637889585E+04  0.00000000000E+00 0.  1.
         22   -1    0    0    0    0 -0.00000000000E+00 -0.00000000000E+00 -0.15281439399E+04  0.15281439399E+04  0.00000000000E+00 0.  1.
         24    2    1    2    0    0  0.89775421692E+02  0.41464120831E+02 -0.14861118002E+04  0.14916129776E+04  0.81253260941E+02 0.  0.
         25    2    1    2    0    0  0.30571069671E+02 -0.13980703537E+02  0.79701913639E+02  0.15208857935E+03  0.12509392694E+03 0.  0.
        -24    2    1    2    0    0 -0.12034649136E+03 -0.27483417294E+02  0.17420549051E+04  0.17482313415E+04  0.79491602291E+02 0.  0.
        -11    1    3    3    0    0  0.49529249490E+02  0.51586434047E+02 -0.12372197497E+04  0.12392848808E+04  0.00000000000E+00 0.  1.
         12    1    3    3    0    0  0.40246172202E+02 -0.10122313216E+02 -0.24889205050E+03  0.25232809674E+03  0.00000000000E+00 0. -1.
         13    1    5    5    0    0 -0.66829350558E+02  0.64361254997E+01  0.12913967946E+04  0.12931408535E+04  0.00000000000E+00 0. -1.
        -14    1    5    5    0    0 -0.53517140805E+02 -0.33919542794E+02  0.45065811052E+03  0.45509048806E+03  0.00000000000E+00 0.  1.
          5    1    4    4  501    0 -0.60558968925E+01  0.52041964906E+02  0.22036337127E+02  0.56992214840E+02  0.41800000000E+01 0.  1.
         -5    1    4    4    0  501  0.36626966564E+02 -0.66022668443E+02  0.57665576511E+02  0.95096364507E+02  0.41800000000E+01 0.  1.
</event>
<event>
11    1  0.7105277E-009  0.1633825E+03  0.7561462E-02  0.1083938E+00
         22   -1    0    0    0    0  0.00000000000E+00  0.00000000000E+00  0.22105018978E+04  0.22105018978E+04  0.00000000000E+00 0. -1.
         22   -1    0    0    0    0 -0.00000000000E+00 -0.00000000000E+00 -0.41895992643E+03  0.41895992643E+03  0.00000000000E+00 0. -1.
         24    2    1    2    0    0 -0.36996972824E+02  0.20439380068E+00 -0.39205788321E+03  0.40160723110E+03  0.78804609695E+02 0.  0.
         25    2    1    2    0    0 -0.53435720440E+02 -0.60068878984E+02  0.26091647390E+03  0.30031374970E+03  0.12508915006E+03 0.  0.
        -24    2    1    2    0    0  0.90432693264E+02  0.59864485184E+02  0.19226833807E+04  0.19275408434E+04  0.83309616225E+02 0.  0.
        -13    1    3    3    0    0 -0.15856002303E+02 -0.11317228813E+02 -0.36447136502E+03  0.36499160045E+03  0.00000000000E+00 0.  1.
         14    1    3    3    0    0 -0.21140970521E+02  0.11521622613E+02 -0.27586518187E+02  0.36615630650E+02  0.00000000000E+00 0. -1.
         11    1    5    5    0    0  0.48833195108E+02  0.72392650202E+02  0.15234341650E+04  0.15259348059E+04  0.00000000000E+00 0. -1.
        -12    1    5    5    0    0  0.41599498156E+02 -0.12528165019E+02  0.39924921561E+03  0.40160603747E+03  0.00000000000E+00 0.  1.
          5    1    4    4  501    0 -0.87321897691E+02 -0.51579924326E+02  0.13102970916E+03  0.16574637097E+03  0.41800000000E+01 0.  1.
         -5    1    4    4    0  501  0.33886177252E+02 -0.84889546581E+01  0.12988676475E+03  0.13456737873E+03  0.41800000000E+01 0.  1.
</event>
<event>
11    1  0.7105277E-009  0.1343491E+03  0.7561462E-02  0.1114038E+00
         22   -1    0    0    0    0  0.00000000000E+00  0.00000000000E+00  0.17201549282E+04  0.17201549282E+04  0.00000000000E+00 0.  1.
         22   -1    0    0    0    0 -0.00000000000E+00 -0.00000000000E+00 -0.12937509506E+03  0.12937509506E+03  0.00000000000E+00 0. -1.
         24    2    1    2    0    0 -0.20870911233E+02 -0.38334440207E+02 -0.10026605777E+03  0.13536528352E+03  0.79783164897E+02 0.  0.
         25    2    1    2    0    0 -0.99219642577E+01  0.72639398759E+02  0.53685844802E+03  0.55609048095E+03  0.12507878383E+03 0.  0.
        -24    2    1    2    0    0  0.30792875491E+02 -0.34304958552E+02  0.11541874429E+04  0.11580742588E+04  0.82839025890E+02 0.  0.
        -13    1    3    3    0    0 -0.30031566432E+02 -0.29597450738E+02 -0.88589949854E+01  0.43085796553E+02  0.00000000000E+00 0.  1.
         14    1    3    3    0    0  0.91606551987E+01 -0.87369894691E+01 -0.91407062782E+02  0.92279486968E+02  0.00000000000E+00 0. -1.
         13    1    5    5    0    0  0.39878218197E+01  0.25036863859E+02  0.18899160355E+03  0.19068448675E+03  0.00000000000E+00 0. -1.
        -14    1    5    5    0    0  0.26805053671E+02 -0.59341822412E+02  0.96519583931E+03  0.96738977202E+03  0.00000000000E+00 0.  1.
          5    1    4    4  501    0  0.22954069497E+02  0.67471625582E+02  0.13394097258E+03  0.15177933358E+03  0.41800000000E+01 0. -1.
         -5    1    4    4    0  501 -0.32876033755E+02  0.51677731772E+01  0.40291747544E+03  0.40431114737E+03  0.41800000000E+01 0. -1.
</event>
<event>
11    1  0.7105277E-009  0.2150831E+03  0.7561462E-02  0.1044342E+00
         22   -1    0    0    0    0  0.00000000000E+00  0.00000000000E+00  0.93927363710E+03  0.93927363710E+03  0.00000000000E+00 0. -1.
         22   -1    0    0    0    0 -0.00000000000E+00 -0.00000000000E+00 -0.12878545220E+04  0.12878545220E+04  0.00000000000E+00 0.  1.
        -24    2    1    2    0    0 -0.12451810293E+03 -0.11992173430E+03 -0.11791199344E+04  0.11943856417E+04  0.79669699790E+02 0.  0.
         25    2    1    2    0    0  0.18964896023E+03  0.12327187774E+03  0.74670907942E+02  0.26903821012E+03  0.12507249917E+03 0.  0.
         24    2    1    2    0    0 -0.65130857303E+02 -0.33501434462E+01  0.75586814161E+03  0.76370430724E+03  0.87489252841E+02 0.  0.
        -11    1    5    5    0    0 -0.32021645313E+02  0.21788602443E+02  0.11223502611E+03  0.11873007222E+03  0.00000000000E+00 0.  1.
         12    1    5    5    0    0 -0.33109211990E+02 -0.25138745889E+02  0.64363311551E+03  0.64497423502E+03  0.00000000000E+00 0. -1.
         11    1    3    3    0    0  0.55000769489E+01 -0.29628969954E+02 -0.25916844928E+03  0.26091456803E+03  0.00000000000E+00 0. -1.
        -12    1    3    3    0    0 -0.13001817988E+03 -0.90292764344E+02 -0.91995148515E+03  0.93347107369E+03  0.00000000000E+00 0.  1.
          5    1    4    4  501    0  0.28528596150E+02  0.83688299599E+02  0.48778432632E+02  0.10106641469E+03  0.41800000000E+01 0. -1.
         -5    1    4    4    0  501  0.16112036408E+03  0.39583578146E+02  0.25892475310E+02  0.16797179543E+03  0.41800000000E+01 0. -1.
</event>
<event>
11    1  0.7105277E-009  0.1748137E+03  0.7561462E-02  0.1073917E+00
         22   -1    0    0    0    0  0.00000000000E+00  0.00000000000E+00  0.30647269104E+04  0.30647269104E+04  0.00000000000E+00 0. -1.
         22   -1    0    0    0    0 -0.00000000000E+00 -0.00000000000E+00 -0.89268982464E+02  0.89268982464E+02  0.00000000000E+00 0. -1.
         24    2    1    2    0    0 -0.58035007016E+02 -0.42509608924E+02 -0.21802338556E+02  0.10951473592E+03  0.79642994215E+02 0.  0.
         25    2    1    2    0    0  0.17505790797E+03  0.43341494472E+02  0.53673352704E+03  0.57987295037E+03  0.12508398474E+03 0.  0.
        -24    2    1    2    0    0 -0.11702290096E+03 -0.83188554833E+00  0.24605267395E+04  0.24646082066E+04  0.80042019906E+02 0.  0.
        -13    1    3    3    0    0 -0.39430893399E+00 -0.14324325225E+02  0.25874552322E+02  0.29577596767E+02  0.00000000000E+00 0.  1.
         14    1    3    3    0    0 -0.57640698082E+02 -0.28185283699E+02 -0.47676890878E+02  0.79937139155E+02  0.00000000000E+00 0. -1.
         13    1    5    5    0    0 -0.12632702999E+03 -0.11279650547E+02  0.21160352737E+04  0.21198327831E+04  0.00000000000E+00 0. -1.
        -14    1    5    5    0    0  0.93041290322E+01  0.10447764999E+02  0.34449146582E+03  0.34477542348E+03  0.00000000000E+00 0.  1.
          5    1    4    4  501    0 -0.14180668205E+01  0.42667146171E+02  0.11013214258E+03  0.11819076743E+03  0.41800000000E+01 0. -1.
         -5    1    4    4    0  501  0.17647597479E+03  0.67434830076E+00  0.42660138446E+03  0.46168218294E+03  0.41800000000E+01 0. -1.
</event>
<event>
11    1  0.7105277E-009  0.1796672E+03  0.7561462E-02  0.1069912E+00
         22   -1    0    0    0    0  0.00000000000E+00  0.00000000000E+00  0.10275695688E+04  0.10275695688E+04  0.00000000000E+00 0.  1.
         22   -1    0    0    0    0 -0.00000000000E+00 -0.00000000000E+00 -0.14970102183E+03  0.14970102183E+03  0.00000000000E+00 0.  1.
        -24    2    1    2    0    0  0.10577225375E+03  0.44059726769E+02  0.11204157669E+01  0.14057861311E+03  0.81437472610E+02 0.  0.
         25    2    1    2    0    0 -0.42752137838E+02  0.77224966274E+02  0.76809743970E+01  0.15328693201E+03  0.12508575239E+03 0.  0.
         24    2    1    2    0    0 -0.63020115914E+02 -0.12128469304E+03  0.86906715681E+03  0.88340504552E+03  0.80282249745E+02 0.  0.
        -13    1    5    5    0    0 -0.56873147893E+02 -0.77439402265E+02  0.75429183144E+03  0.76038646947E+03  0.00000000000E+00 0.  1.
         14    1    5    5    0    0 -0.61469680206E+01 -0.43845290778E+02  0.11477532537E+03  0.12301857605E+03  0.00000000000E+00 0. -1.
         11    1    3    3    0    0  0.32003544428E+02  0.25677009528E+02  0.38140162703E+02  0.56019708008E+02  0.00000000000E+00 0. -1.
        -12    1    3    3    0    0  0.73768709324E+02  0.18382717241E+02 -0.37019746936E+02  0.84558905100E+02  0.00000000000E+00 0.  1.
          5    1    4    4  501    0 -0.86370496126E+02  0.41743158055E+02  0.11860581716E+02  0.96749675162E+02  0.41800000000E+01 0.  1.
         -5    1    4    4    0  501  0.43618358287E+02  0.35481808219E+02 -0.41796073190E+01  0.56537256845E+02  0.41800000000E+01 0.  1.
</event>
<event>
11    1  0.1391495E-008  0.1627552E+03  0.7561462E-02  0.1084514E+00
         22   -1    0    0    0    0  0.00000000000E+00  0.00000000000E+00  0.34811761178E+03  0.34811761178E+03  0.00000000000E+00 0. -1.
         22   -1    0    0    0    0 -0.00000000000E+00 -0.00000000000E+00 -0.12739670720E+04  0.12739670720E+04  0.00000000000E+00 0.  1.
         24    2    1    2    0    0 -0.78977133780E+02  0.59316816477E+02 -0.94122136225E+03  0.94972521981E+03  0.79526523996E+02 0.  0.
         25    2    1    2    0    0  0.59346408180E+02  0.46009683081E+02 -0.29777316690E+03  0.33159666660E+03  0.12509437746E+03 0.  0.
        -24    2    1    2    0    0  0.19630725600E+02 -0.10532649956E+03  0.31314506892E+03  0.34076279738E+03  0.81119744776E+02 0.  0.
        -13    1    3    3    0    0 -0.64350128694E+02  0.75724895821E+02 -0.85460380361E+03  0.86036205173E+03  0.00000000000E+00 0.  1.
         14    1    3    3    0    0 -0.14627005086E+02 -0.16408079345E+02 -0.86617558639E+02  0.89363168085E+02  0.00000000000E+00 0. -1.
         13    1    5    5    0    0  0.12856481559E+02 -0.11568631996E+03  0.30354835921E+03  0.32510032317E+03  0.00000000000E+00 0. -1.
        -14    1    5    5    0    0  0.67742440415E+01  0.10359820404E+02  0.95967097046E+01  0.15662474207E+02  0.00000000000E+00 0.  1.
          5    1    4    4  501    0 -0.18220934272E+02 -0.96626925902E+01 -0.24394909281E+01  0.21184748991E+02  0.41800000000E+01 0. -1.
         -5    1    4    4    0  501  0.77567342452E+02  0.55672375671E+02 -0.29533367597E+03  0.31041191761E+03  0.41800000000E+01 0. -1.
</event>
<event>
11    1  0.7105277E-009  0.1594095E+03  0.7561462E-02  0.1087634E+00
         22   -1    0    0    0    0  0.00000000000E+00  0.00000000000E+00  0.16892168975E+03  0.16892168975E+03  0.00000000000E+00 0. -1.
         22   -1    0    0    0    0 -0.00000000000E+00 -0.00000000000E+00 -0.99240908516E+03  0.99240908516E+03  0.00000000000E+00 0.  1.
        -24    2    1    2    0    0  0.31431220931E+02  0.82575235816E+02 -0.49411480014E+03  0.50784530597E+03  0.77141609107E+02 0.  0.
         25    2    1    2    0    0 -0.90605719412E+02 -0.15569617840E+03 -0.43785302805E+03  0.48970979905E+03  0.12509882793E+03 0.  0.
         24    2    1    2    0    0  0.59174498480E+02  0.73120942582E+02  0.10848043279E+03  0.16377566989E+03  0.78779262727E+02 0.  0.
        -11    1    5    5    0    0  0.11391894168E+02  0.52254638148E+02  0.96419358562E+02  0.11025885527E+03  0.00000000000E+00 0.  1.
         12    1    5    5    0    0  0.47782604312E+02  0.20866304434E+02  0.12061074232E+02  0.53516814621E+02  0.00000000000E+00 0. -1.
         13    1    3    3    0    0  0.20196914375E+02  0.73077962482E+02 -0.20858743627E+03  0.22193923159E+03  0.00000000000E+00 0. -1.
        -14    1    3    3    0    0  0.11234306557E+02  0.94972733345E+01 -0.28552736388E+03  0.28590607438E+03  0.00000000000E+00 0.  1.
          5    1    4    4  501    0 -0.36655630829E+02 -0.13773683900E+03 -0.20326352552E+03  0.24829137177E+03  0.41800000000E+01 0. -1.
         -5    1    4    4    0  501 -0.53950088582E+02 -0.17959339399E+02 -0.23458950253E+03  0.24141842727E+03  0.41800000000E+01 0. -1.
</event>
<event>
11    1  0.7410024E-009  0.1866173E+03  0.7561462E-02  0.1064412E+00
         22   -1    0    0    0    0  0.00000000000E+00  0.00000000000E+00  0.57904962369E+03  0.57904962369E+03  0.00000000000E+00 0. -1.
         22   -1    0    0    0    0 -0.00000000000E+00 -0.00000000000E+00 -0.61078329595E+03  0.61078329595E+03  0.00000000000E+00 0. -1.
         24    2    1    2    0    0  0.71883411503E+02 -0.17604383905E+02 -0.42610623793E+03  0.43985653541E+03  0.80187945171E+02 0.  0.
         25    2    1    2    0    0 -0.13181619461E+03 -0.10590220217E+03 -0.98402132134E+02  0.23222216729E+03  0.12511342767E+03 0.  0.
        -24    2    1    2    0    0  0.59932783108E+02  0.12350658608E+03  0.49277469780E+03  0.51775421694E+03  0.79979441573E+02 0.  0.
        -11    1    3    3    0    0  0.21590068955E+02 -0.33079106516E+01 -0.17690136899E+02  0.28107192921E+02  0.00000000000E+00 0.  1.
         12    1    3    3    0    0  0.50293342548E+02 -0.14296473253E+02 -0.40841610104E+03  0.41174934249E+03  0.00000000000E+00 0. -1.
         11    1    5    5    0    0  0.40190290943E+02  0.37086217769E+02  0.30797693423E+03  0.31279456366E+03  0.00000000000E+00 0. -1.
        -12    1    5    5    0    0  0.19742492165E+02  0.86420368306E+02  0.18479776357E+03  0.20495965329E+03  0.00000000000E+00 0.  1.
          5    1    4    4  501    0 -0.85406058806E+02 -0.41484743297E+02 -0.11683474109E+03  0.15060879102E+03  0.41800000000E+01 0. -1.
         -5    1    4    4    0  501 -0.46410135806E+02 -0.64417458873E+02  0.18432608951E+02  0.81613376269E+02  0.41800000000E+01 0. -1.
</event>
<event>
11    1  0.7105277E-009  0.1462320E+03  0.7561462E-02  0.1100792E+00
         22   -1    0    0    0    0  0.00000000000E+00  0.00000000000E+00  0.23308291648E+03  0.23308291648E+03  0.00000000000E+00 0.  1.
         22   -1    0    0    0    0 -0.00000000000E+00 -0.00000000000E+00 -0.27942871159E+03  0.27942871159E+03  0.00000000000E+00 0. -1.
        -24    2    1    2    0    0  0.38941509765E+02 -0.64205059612E+02 -0.20176883309E+03  0.23009526598E+03  0.81206148532E+02 0.  0.
         25    2    1    2    0    0 -0.44779723635E+02  0.67578368755E+02  0.73932739565E+02  0.16640032197E+03  0.12510378731E+03 0.  0.
         24    2    1    2    0    0  0.58382138696E+01 -0.33733091432E+01  0.81490298409E+02  0.11601604011E+03  0.82301815730E+02 0.  0.
        -11    1    5    5    0    0  0.35602753905E+02 -0.26737466509E+02  0.39879647734E+02  0.59773192188E+02  0.00000000000E+00 0.  1.
         12    1    5    5    0    0 -0.29764540035E+02  0.23364157366E+02  0.41610650675E+02  0.56242847924E+02  0.00000000000E+00 0. -1.
         13    1    3    3    0    0  0.52483884734E+02 -0.74515285761E+02 -0.18483905300E+03  0.20608872235E+03  0.00000000000E+00 0. -1.
        -14    1    3    3    0    0 -0.13542374969E+02  0.10310226149E+02 -0.16929780089E+02  0.24006543627E+02  0.00000000000E+00 0.  1.
          5    1    4    4  501    0 -0.80650863942E+02  0.59278829100E+02  0.80812758256E+02  0.12871175444E+03  0.41800000000E+01 0. -1.
         -5    1    4    4    0  501  0.35871140307E+02  0.82995396544E+01 -0.68800186905E+01  0.37688567532E+02  0.41800000000E+01 0. -1.
</event>
<event>
11    1  0.7105277E-009  0.1410359E+03  0.7561462E-02  0.1106407E+00
         22   -1    0    0    0    0  0.00000000000E+00  0.00000000000E+00  0.17836529566E+03  0.17836529566E+03  0.00000000000E+00 0.  1.
         22   -1    0    0    0    0 -0.00000000000E+00 -0.00000000000E+00 -0.68554690613E+03  0.68554690613E+03  0.00000000000E+00 0.  1.
         24    2    1    2    0    0  0.75662710793E+02  0.51891418687E+01 -0.46510231539E+03  0.47814890295E+03  0.80959475138E+02 0.  0.
         25    2    1    2    0    0 -0.20808172323E+02 -0.45357898406E+02 -0.17219961575E+03  0.21860881725E+03  0.12508712297E+03 0.  0.
        -24    2    1    2    0    0 -0.54854538470E+02  0.40168756538E+02  0.13012032067E+03  0.16715448159E+03  0.79917291452E+02 0.  0.
        -13    1    3    3    0    0  0.67466846538E+02  0.39526101944E+01 -0.46497349108E+03  0.46985928310E+03  0.00000000000E+00 0.  1.
         14    1    3    3    0    0  0.81958642550E+01  0.12365316743E+01 -0.12882430420E+00  0.82896198447E+01  0.00000000000E+00 0. -1.
         11    1    5    5    0    0  0.16303780085E+02 -0.31087028725E+01  0.45459409537E+02  0.48394578148E+02  0.00000000000E+00 0. -1.
        -12    1    5    5    0    0 -0.71158318555E+02  0.43277459410E+02  0.84660911130E+02  0.11875990344E+03  0.00000000000E+00 0.  1.
          5    1    4    4  501    0  0.29978503185E+02 -0.61543812218E+02 -0.14076862781E+03  0.15658745305E+03  0.41800000000E+01 0. -1.
         -5    1    4    4    0  501 -0.50786675508E+02  0.16185913812E+02 -0.31430987934E+02  0.62021364203E+02  0.41800000000E+01 0. -1.
</event>
<event>
11    1  0.7105277E-009  0.2398852E+03  0.7561462E-02  0.1029430E+00
         22   -1    0    0    0    0  0.00000000000E+00  0.00000000000E+00  0.31158735316E+03  0.31158735316E+03  0.00000000000E+00 0.  1.
         22   -1    0    0    0    0 -0.00000000000E+00 -0.00000000000E+00 -0.16834606250E+04  0.16834606250E+04  0.00000000000E+00 0.  1.
        -24    2    1    2    0    0 -0.36374740070E+02  0.20176221603E+03 -0.15954855494E+04  0.16107127837E+04  0.82404003761E+02 0.  0.
         25    2    1    2    0    0  0.43642572817E+02 -0.19130521344E+03  0.13657195232E+03  0.26981688148E+03  0.12508753944E+03 0.  0.
         24    2    1    2    0    0 -0.72678327467E+01 -0.10457002591E+02  0.87040325180E+02  0.11451831298E+03  0.73322953466E+02 0.  0.
        -13    1    5    5    0    0 -0.29677932733E+02  0.18191558086E+02  0.25942292279E+02  0.43413304477E+02  0.00000000000E+00 0.  1.
         14    1    5    5    0    0  0.22410099987E+02 -0.28648560677E+02  0.61098032901E+02  0.71105008506E+02  0.00000000000E+00 0. -1.
         11    1    3    3    0    0 -0.40685703942E+02  0.78099411174E+02 -0.44784588221E+03  0.45642171152E+03  0.00000000000E+00 0. -1.
        -12    1    3    3    0    0  0.43109638713E+01  0.12366280486E+03 -0.11476396671E+04  0.11542910722E+04  0.00000000000E+00 0.  1.
          5    1    4    4  501    0 -0.30647456881E+02 -0.13723683290E+03  0.80039429242E+02  0.16185486570E+03  0.41800000000E+01 0.  1.
         -5    1    4    4    0  501  0.74290029698E+02 -0.54068380543E+02  0.56532523078E+02  0.10796201579E+03  0.41800000000E+01 0.  1.
</event>
<event>
11    1  0.7105277E-009  0.1397798E+03  0.7561462E-02  0.1107805E+00
         22   -1    0    0    0    0  0.00000000000E+00  0.00000000000E+00  0.72389146828E+02  0.72389146828E+02  0.00000000000E+00 0. -1.
         22   -1    0    0    0    0 -0.00000000000E+00 -0.00000000000E+00 -0.14058981053E+04  0.14058981053E+04  0.00000000000E+00 0. -1.
        -24    2    1    2    0    0  0.96115957286E+02  0.64120624155E+02 -0.67492776870E+03  0.68945507146E+03  0.80442966832E+02 0.  0.
         25    2    1    2    0    0 -0.51990727438E+02  0.36793808178E+02 -0.27212849990E+02  0.14298406477E+03  0.12508830287E+03 0.  0.
         24    2    1    2    0    0 -0.44125229847E+02 -0.10091443233E+03 -0.63136833980E+03  0.64584811591E+03  0.79768726733E+02 0.  0.
        -11    1    5    5    0    0 -0.13572494574E+02 -0.26519861949E+02 -0.44857456259E+02  0.53848928205E+02  0.00000000000E+00 0.  1.
         12    1    5    5    0    0 -0.30552735273E+02 -0.74394570384E+02 -0.58651088354E+03  0.59199918771E+03  0.00000000000E+00 0. -1.
         11    1    3    3    0    0  0.13602519033E+02  0.53581273527E+02 -0.21057441864E+03  0.21770982335E+03  0.00000000000E+00 0. -1.
        -12    1    3    3    0    0  0.82513438253E+02  0.10539350627E+02 -0.46435335006E+03  0.47174524811E+03  0.00000000000E+00 0.  1.
          5    1    4    4  501    0 -0.92541449217E+02  0.28306317413E+02 -0.82046035172E+01  0.97210880808E+02  0.41800000000E+01 0.  1.
         -5    1    4    4    0  501  0.40550721778E+02  0.84874907656E+01 -0.19008246473E+02  0.45773183964E+02  0.41800000000E+01 0.  1.
</event>
<event>
11    1  0.7105277E-009  0.1454361E+03  0.7561462E-02  0.1101636E+00
         22   -1    0    0    0    0  0.00000000000E+00  0.00000000000E+00  0.52396588051E+03  0.52396588051E+03  0.00000000000E+00 0.  1.
         22   -1    0    0    0    0 -0.00000000000E+00 -0.00000000000E+00 -0.13741676770E+04  0.13741676770E+04  0.00000000000E+00 0.  1.
         24    2    1    2    0    0 -0.17529191190E+01  0.15943646105E+01 -0.12342304677E+04  0.12371449276E+04  0.84835780766E+02 0.  0.
         25    2    1    2    0    0 -0.86512165019E+01  0.71946476202E+02 -0.92951490225E+02  0.17186667625E+03  0.12508811248E+03 0.  0.
        -24    2    1    2    0    0  0.10404135621E+02 -0.73540840813E+02  0.47698016147E+03  0.48912195365E+03  0.78827088026E+02 0.  0.
        -13    1    3    3    0    0  0.22522330947E+02  0.19062453666E+02 -0.10567842946E+04  0.10571961398E+04  0.00000000000E+00 0.  1.
         14    1    3    3    0    0 -0.24275250066E+02 -0.17468089056E+02 -0.17744617305E+03  0.17994878781E+03  0.00000000000E+00 0. -1.
         11    1    5    5    0    0  0.31620499762E+02 -0.40923865336E+02  0.12911447278E+03  0.13908690032E+03  0.00000000000E+00 0. -1.
        -12    1    5    5    0    0 -0.21216364141E+02 -0.32616975477E+02  0.34786568868E+03  0.35003505333E+03  0.00000000000E+00 0.  1.
          5    1    4    4  501    0  0.20490410883E+02  0.68589272328E+02  0.26733637449E+01  0.71756285371E+02  0.41800000000E+01 0. -1.
         -5    1    4    4    0  501 -0.29141627385E+02  0.33572038748E+01 -0.95624853970E+02  0.10011039088E+03  0.41800000000E+01 0. -1.
</event>
<event>
11    1  0.7105277E-009  0.1447659E+03  0.7561462E-02  0.1102350E+00
         22   -1    0    0    0    0  0.00000000000E+00  0.00000000000E+00  0.91700560356E+03  0.91700560356E+03  0.00000000000E+00 0. -1.
         22   -1    0    0    0    0 -0.00000000000E+00 -0.00000000000E+00 -0.74492375044E+02  0.74492375044E+02  0.00000000000E+00 0.  1.
         24    2    1    2    0    0 -0.37725143318E+02 -0.36253764286E+02  0.49080154355E+02  0.10178957382E+03  0.72213114628E+02 0.  0.
         25    2    1    2    0    0  0.75177081963E+02  0.93693054720E+02  0.12650371563E+03  0.21466143881E+03  0.12508541518E+03 0.  0.
        -24    2    1    2    0    0 -0.37451938645E+02 -0.57439290434E+02  0.66692935854E+03  0.67504696597E+03  0.78687465280E+02 0.  0.
        -11    1    3    3    0    0 -0.40715250462E+02 -0.52324351607E+02  0.21443675670E+02  0.69680704772E+02  0.00000000000E+00 0.  1.
         12    1    3    3    0    0  0.29901071436E+01  0.16070587322E+02  0.27636478685E+02  0.32108869051E+02  0.00000000000E+00 0. -1.
         11    1    5    5    0    0 -0.42207227610E+02 -0.74627304578E+02  0.51701025956E+03  0.52407088560E+03  0.00000000000E+00 0. -1.
        -12    1    5    5    0    0  0.47552889654E+01  0.17188014144E+02  0.14991909898E+03  0.15097608037E+03  0.00000000000E+00 0.  1.
          5    1    4    4  501    0  0.81059195428E+02  0.10483172198E+03  0.14199074819E+03  0.19426561216E+03  0.41800000000E+01 0.  1.
         -5    1    4    4    0  501 -0.58821134649E+01 -0.11138667256E+02 -0.15487032567E+02  0.20395826651E+02  0.41800000000E+01 0.  1.
</event>
<event>
11    1  0.7105277E-009  0.1556401E+03  0.7561462E-02  0.1091251E+00
         22   -1    0    0    0    0  0.00000000000E+00  0.00000000000E+00  0.12948658061E+04  0.12948658061E+04  0.00000000000E+00 0. -1.
         22   -1    0    0    0    0 -0.00000000000E+00 -0.00000000000E+00 -0.78968980758E+02  0.78968980758E+02  0.00000000000E+00 0.  1.
         24    2    1    2    0    0  0.80924101653E+02  0.30439937922E+02  0.17321584924E+01  0.11736919562E+03  0.79355073307E+02 0.  0.
         25    2    1    2    0    0 -0.13781829131E+03 -0.50561533533E+02  0.50722373165E+03  0.54265459643E+03  0.12509095484E+03 0.  0.
        -24    2    1    2    0    0  0.56894189659E+02  0.20121595612E+02  0.70694093522E+03  0.71381099482E+03  0.78222905959E+02 0.  0.
        -11    1    3    3    0    0  0.63615985152E+02  0.26739242759E+02 -0.34421467774E+02  0.77115615240E+02  0.00000000000E+00 0.  1.
         12    1    3    3    0    0  0.17308116501E+02  0.37006951633E+01  0.36153626267E+02  0.40253580384E+02  0.00000000000E+00 0. -1.
         13    1    5    5    0    0  0.57803713819E+02  0.30077351568E+01  0.67572862696E+03  0.67820313557E+03  0.00000000000E+00 0. -1.
        -14    1    5    5    0    0 -0.90952415903E+00  0.17113860455E+02  0.31212308254E+02  0.35607859250E+02  0.00000000000E+00 0.  1.
          5    1    4    4  501    0  0.10813628320E+02  0.22740887855E+02  0.94362993283E+02  0.97754434371E+02  0.41800000000E+01 0.  1.
         -5    1    4    4    0  501 -0.14863191963E+03 -0.73302421388E+02  0.41286073837E+03  0.44490016206E+03  0.41800000000E+01 0.  1.
</event>
<event>
11    1  0.7105277E-009  0.1603025E+03  0.7561462E-02  0.1086793E+00
         22   -1    0    0    0    0  0.00000000000E+00  0.00000000000E+00  0.20448297569E+03  0.20448297569E+03  0.00000000000E+00 0. -1.
         22   -1    0    0    0    0 -0.00000000000E+00 -0.00000000000E+00 -0.23531131465E+04  0.23531131465E+04  0.00000000000E+00 0.  1.
         24    2    1    2    0    0 -0.17477685355E+02 -0.28401777903E+02 -0.19017545429E+04  0.19034212151E+04  0.72317704722E+02 0.  0.
         25    2    1    2    0    0 -0.37883388576E+01 -0.71130583704E+02 -0.41639777746E+03  0.44057827655E+03  0.12509275455E+03 0.  0.
        -24    2    1    2    0    0  0.21266024212E+02  0.99532361608E+02  0.16952214952E+03  0.21359663050E+03  0.80788777625E+02 0.  0.
        -13    1    3    3    0    0 -0.37844642644E+02 -0.40036473230E+02 -0.11795398303E+04  0.11808257058E+04  0.00000000000E+00 0.  1.
         14    1    3    3    0    0  0.20366957289E+02  0.11634695326E+02 -0.72221471253E+03  0.72259550932E+03  0.00000000000E+00 0. -1.
         13    1    5    5    0    0  0.49834971276E-01  0.93648966109E+02  0.16696047361E+03  0.19143126987E+03  0.00000000000E+00 0. -1.
        -14    1    5    5    0    0  0.21216189241E+02  0.58833954988E+01  0.25616759161E+01  0.22165360633E+02  0.00000000000E+00 0.  1.
          5    1    4    4  501    0 -0.28850676844E+02  0.28537257788E+02 -0.10577089135E+03  0.11336529669E+03  0.41800000000E+01 0. -1.
         -5    1    4    4    0  501  0.25062337986E+02 -0.99667841492E+02 -0.31062688611E+03  0.32721297985E+03  0.41800000000E+01 0. -1.
</event>
<event>
11    1  0.7105277E-009  0.1627470E+03  0.7561462E-02  0.1084522E+00
         22   -1    0    0    0    0  0.00000000000E+00  0.00000000000E+00  0.67369762805E+03  0.67369762805E+03  0.00000000000E+00 0. -1.
         22   -1    0    0    0    0 -0.00000000000E+00 -0.00000000000E+00 -0.15176969745E+03  0.15176969745E+03  0.00000000000E+00 0.  1.
        -24    2    1    2    0    0 -0.86220669863E+02  0.16964813493E+02 -0.77656227827E+02  0.14204988600E+03  0.80161534317E+02 0.  0.
         25    2    1    2    0    0 -0.35258935602E+02  0.21114785390E+02  0.11010733641E+03  0.17164236171E+03  0.12509375724E+03 0.  0.
         24    2    1    2    0    0  0.12147960546E+03 -0.38079598883E+02  0.48947682201E+03  0.51177507778E+03  0.78222890278E+02 0.  0.
        -13    1    5    5    0    0  0.16644864000E+02 -0.28832015924E+02  0.51441626265E+02  0.61274607731E+02  0.00000000000E+00 0.  1.
         14    1    5    5    0    0  0.10483474146E+03 -0.92475829585E+01  0.43803519574E+03  0.45050047005E+03  0.00000000000E+00 0. -1.
         11    1    3    3    0    0 -0.96411788776E+01 -0.15948468073E+02  0.99501007984E+01  0.21126061391E+02  0.00000000000E+00 0. -1.
        -12    1    3    3    0    0 -0.76579490985E+02  0.32913281566E+02 -0.87606328626E+02  0.12092382461E+03  0.00000000000E+00 0.  1.
          5    1    4    4  501    0  0.46771655172E+02  0.87814795105E+01  0.31059470019E+02  0.56981270499E+02  0.41800000000E+01 0.  1.
         -5    1    4    4    0  501 -0.82030590773E+02  0.12333305879E+02  0.79047866396E+02  0.11466109121E+03  0.41800000000E+01 0.  1.
</event>
<event>
11    1  0.7105277E-009  0.2395379E+03  0.7561462E-02  0.1029625E+00
         22   -1    0    0    0    0  0.00000000000E+00  0.00000000000E+00  0.95102493565E+03  0.95102493565E+03  0.00000000000E+00 0.  1.
         22   -1    0    0    0    0 -0.00000000000E+00 -0.00000000000E+00 -0.33975148352E+03  0.33975148352E+03  0.00000000000E+00 0.  1.
        -24    2    1    2    0    0 -0.64364531396E+02  0.72538110305E+02 -0.24551733600E+03  0.27517829895E+03  0.77715915911E+02 0.  0.
         25    2    1    2    0    0 -0.81787476128E+02  0.10024315295E+03  0.70599341868E+02  0.19331959540E+03  0.12510123072E+03 0.  0.
         24    2    1    2    0    0  0.14615200752E+03 -0.17278126326E+03  0.78619144626E+03  0.82227852482E+03  0.82651122025E+02 0.  0.
        -11    1    5    5    0    0  0.13122595453E+03 -0.18078224145E+03  0.71414140828E+03  0.74826494037E+03  0.00000000000E+00 0.  1.
         12    1    5    5    0    0  0.14926052998E+02  0.80009781983E+01  0.72050037983E+02  0.74013584453E+02  0.00000000000E+00 0. -1.
         13    1    3    3    0    0 -0.73457091762E+02  0.66198737802E+02 -0.15414620246E+03  0.18313729535E+03  0.00000000000E+00 0. -1.
        -14    1    3    3    0    0  0.90925603665E+01  0.63393725022E+01 -0.91371133541E+02  0.92041003593E+02  0.00000000000E+00 0.  1.
          5    1    4    4  501    0 -0.92344370190E+02  0.38677431943E+02  0.16896179211E+01  0.10021852951E+03  0.41800000000E+01 0. -1.
         -5    1    4    4    0  501  0.10556894062E+02  0.61565721008E+02  0.68909723947E+02  0.93101065890E+02  0.41800000000E+01 0. -1.
</event>
<event>
11    1  0.7105277E-009  0.1570297E+03  0.7561462E-02  0.1089905E+00
         22   -1    0    0    0    0  0.00000000000E+00  0.00000000000E+00  0.17217440385E+03  0.17217440385E+03  0.00000000000E+00 0. -1.
         22   -1    0    0    0    0 -0.00000000000E+00 -0.00000000000E+00 -0.16730835583E+04  0.16730835583E+04  0.00000000000E+00 0. -1.
         24    2    1    2    0    0 -0.69854965744E+01 -0.55259684525E+02 -0.15081997422E+04  0.15120072892E+04  0.91635966381E+02 0.  0.
         25    2    1    2    0    0  0.66341653107E+02 -0.28867242927E+02 -0.89763281824E+02  0.17011492383E+03  0.12508840032E+03 0.  0.
        -24    2    1    2    0    0 -0.59356156533E+02  0.84126927452E+02  0.97053869626E+02  0.16313574907E+03  0.81199296634E+02 0.  0.
        -11    1    3    3    0    0  0.55289869793E+01  0.21243090714E+02 -0.15005612000E+03  0.15165314948E+03  0.00000000000E+00 0.  1.
         12    1    3    3    0    0 -0.12514483554E+02 -0.76502775238E+02 -0.13581436222E+04  0.13603541397E+04  0.00000000000E+00 0. -1.
         13    1    5    5    0    0 -0.53629447933E+02  0.63505778807E+02  0.11018936842E+03  0.13802463019E+03  0.00000000000E+00 0. -1.
        -14    1    5    5    0    0 -0.57267085998E+01  0.20621148645E+02 -0.13135498790E+02  0.25111118877E+02  0.00000000000E+00 0.  1.
          5    1    4    4  501    0  0.10066285745E+03 -0.39289562574E+02 -0.62845264082E+02  0.12507469854E+03  0.41800000000E+01 0. -1.
         -5    1    4    4    0  501 -0.34321204346E+02  0.10422319647E+02 -0.26918017742E+02  0.45040225285E+02  0.41800000000E+01 0. -1.
</event>
<event>
11    1  0.7105277E-009  0.1289832E+03  0.7561462E-02  0.1120525E+00
         22   -1    0    0    0    0  0.00000000000E+00  0.00000000000E+00  0.72606291516E+02  0.72606291516E+02  0.00000000000E+00 0. -1.
         22   -1    0    0    0    0 -0.00000000000E+00 -0.00000000000E+00 -0.14469289349E+04  0.14469289349E+04  0.00000000000E+00 0.  1.
        -24    2    1    2    0    0  0.21755889736E+02  0.25674633090E+02 -0.96864011538E+03  0.97248826373E+03  0.79606811539E+02 0.  0.
         25    2    1    2    0    0 -0.10983325257E+02 -0.18296746252E+02 -0.43915408477E+03  0.45712152210E+03  0.12509345086E+03 0.  0.
         24    2    1    2    0    0 -0.10772564479E+02 -0.73778868372E+01  0.33471556809E+02  0.89925440537E+02  0.82436389907E+02 0.  0.
        -11    1    5    5    0    0 -0.18868202093E+02  0.32554329370E+02  0.69455158523E+00  0.37633440088E+02  0.00000000000E+00 0.  1.
         12    1    5    5    0    0  0.80956376142E+01 -0.39932216207E+02  0.32777005223E+02  0.52292000449E+02  0.00000000000E+00 0. -1.
         11    1    3    3    0    0  0.19405292114E+02  0.12342115750E+02 -0.68715150374E+02  0.72461473034E+02  0.00000000000E+00 0. -1.
        -12    1    3    3    0    0  0.23505976214E+01  0.13332517339E+02 -0.89992496501E+03  0.90002679070E+03  0.00000000000E+00 0.  1.
          5    1    4    4  501    0  0.14418407882E+02 -0.25664027251E+02 -0.17260812940E+02  0.34379366544E+02  0.41800000000E+01 0. -1.
         -5    1    4    4    0  501 -0.25401733139E+02  0.73672809985E+01 -0.42189327183E+03  0.42274215556E+03  0.41800000000E+01 0. -1.
</event>
<event>
11    1  0.7105277E-009  0.1773094E+03  0.7561462E-02  0.1071840E+00
         22   -1    0    0    0    0  0.00000000000E+00  0.00000000000E+00  0.91894126555E+03  0.91894126555E+03  0.00000000000E+00 0. -1.
         22   -1    0    0    0    0 -0.00000000000E+00 -0.00000000000E+00 -0.23522242108E+04  0.23522242108E+04  0.00000000000E+00 0. -1.
         24    2    1    2    0    0  0.50208133797E+02  0.11385199044E+03 -0.22480618604E+04  0.22531215714E+04  0.85390601718E+02 0.  0.
         25    2    1    2    0    0 -0.24852729898E+02 -0.20843597435E+03  0.58467460724E+02  0.25125569307E+03  0.12509102986E+03 0.  0.
        -24    2    1    2    0    0 -0.25355403899E+02  0.94583983912E+02  0.75631145439E+03  0.76678821192E+03  0.79800497381E+02 0.  0.
        -11    1    3    3    0    0 -0.11637619711E+02 -0.69407376700E+01 -0.12640670069E+03  0.12713088536E+03  0.00000000000E+00 0.  1.
         12    1    3    3    0    0  0.61845753509E+02  0.12079272811E+03 -0.21216551597E+04  0.21259906860E+04  0.00000000000E+00 0. -1.
         13    1    5    5    0    0 -0.24827315387E+02  0.94511266734E+02  0.75838127054E+03  0.76465085277E+03  0.00000000000E+00 0. -1.
        -14    1    5    5    0    0 -0.52808851212E+00  0.72717178158E-01 -0.20698161508E+01  0.21373591563E+01  0.00000000000E+00 0.  1.
          5    1    4    4  501    0 -0.63954750984E+02 -0.15168454105E+03  0.73925629901E+02  0.18050174881E+03  0.41800000000E+01 0.  1.
         -5    1    4    4    0  501  0.39102021086E+02 -0.56751433306E+02 -0.15458169177E+02  0.70753944269E+02  0.41800000000E+01 0.  1.
</event>
<event>
11    1  0.7105277E-009  0.1396146E+03  0.7561462E-02  0.1107989E+00
         22   -1    0    0    0    0  0.00000000000E+00  0.00000000000E+00  0.58034926305E+03  0.58034926305E+03  0.00000000000E+00 0. -1.
         22   -1    0    0    0    0 -0.00000000000E+00 -0.00000000000E+00 -0.51389083458E+03  0.51389083458E+03  0.00000000000E+00 0.  1.
        -24    2    1    2    0    0 -0.50440599530E+02 -0.34047422947E+02 -0.44666908638E+03  0.45811277168E+03  0.81550951937E+02 0.  0.
         25    2    1    2    0    0  0.85472665287E+02  0.19033905348E+02  0.40842425974E+02  0.15806261329E+03  0.12509124629E+03 0.  0.
         24    2    1    2    0    0 -0.35032065757E+02  0.15013517599E+02  0.47228508887E+03  0.47806471266E+03  0.63561096465E+02 0.  0.
        -11    1    5    5    0    0 -0.13353032898E+02 -0.13126781032E+02  0.38340407038E+02  0.42668520946E+02  0.00000000000E+00 0.  1.
         12    1    5    5    0    0 -0.21679032858E+02  0.28140298631E+02  0.43394468183E+03  0.43539619172E+03  0.00000000000E+00 0. -1.
         11    1    3    3    0    0  0.16096728072E+02  0.88226509075E+01 -0.42956956540E+02  0.46714493884E+02  0.00000000000E+00 0. -1.
        -12    1    3    3    0    0 -0.66537327602E+02 -0.42870073855E+02 -0.40371212983E+03  0.41139827779E+03  0.00000000000E+00 0.  1.
          5    1    4    4  501    0 -0.16864705433E+02  0.43751753537E+02  0.84100047888E+01  0.47820861634E+02  0.41800000000E+01 0.  1.
         -5    1    4    4    0  501  0.10233737072E+03 -0.24717848189E+02  0.32432421185E+02  0.11024175166E+03  0.41800000000E+01 0.  1.
</event>
<event>
11    1  0.7105277E-009  0.1918973E+03  0.7561462E-02  0.1060406E+00
         22   -1    0    0    0    0  0.00000000000E+00  0.00000000000E+00  0.19011074123E+04  0.19011074123E+04  0.00000000000E+00 0.  1.
         22   -1    0    0    0    0 -0.00000000000E+00 -0.00000000000E+00 -0.22658991865E+03  0.22658991865E+03  0.00000000000E+00 0. -1.
        -24    2    1    2    0    0  0.15851747638E+02  0.56375040837E+02 -0.12537834045E+03  0.16019698485E+03  0.80708875396E+02 0.  0.
         25    2    1    2    0    0  0.10197145030E+03 -0.14016111977E+03  0.63140300688E+02  0.22288277146E+03  0.12508683411E+03 0.  0.
         24    2    1    2    0    0 -0.11782319794E+03  0.83786078936E+02  0.17367555334E+04  0.17446175746E+04  0.80425654765E+02 0.  0.
        -13    1    5    5    0    0 -0.89912772798E+02  0.32689159572E+02  0.13630871635E+04  0.13664404499E+04  0.00000000000E+00 0.  1.
         14    1    5    5    0    0 -0.27910425142E+02  0.51096919364E+02  0.37366836991E+03  0.37817712473E+03  0.00000000000E+00 0. -1.
         11    1    3    3    0    0  0.45495237415E+02  0.31402728630E+02 -0.98753135040E+02  0.11317300771E+03  0.00000000000E+00 0. -1.
        -12    1    3    3    0    0 -0.29643489777E+02  0.24972312207E+02 -0.26625205409E+02  0.47023977141E+02  0.00000000000E+00 0.  1.
          5    1    4    4  501    0 -0.20505381588E+02 -0.34918317801E+02  0.44440005955E+02  0.60267288984E+02  0.41800000000E+01 0.  1.
         -5    1    4    4    0  501  0.12247683189E+03 -0.10524280197E+03  0.18700294732E+02  0.16261548247E+03  0.41800000000E+01 0.  1.
</event>
<event>
11    1  0.7105277E-009  0.1283217E+03  0.7561462E-02  0.1121348E+00
         22   -1    0    0    0    0  0.00000000000E+00  0.00000000000E+00  0.31485719933E+04  0.31485719933E+04  0.00000000000E+00 0.  1.
         22   -1    0    0    0    0 -0.00000000000E+00 -0.00000000000E+00 -0.77648956237E+03  0.77648956237E+03  0.00000000000E+00 0. -1.
         24    2    1    2    0    0  0.21314884784E+02 -0.26191551494E+01 -0.53964040178E+03  0.54948336538E+03  0.10128682693E+03 0.  0.
         25    2    1    2    0    0 -0.52072051489E+02  0.38683628982E+02 -0.20977139544E+03  0.25270398230E+03  0.12508933859E+03 0.  0.
        -24    2    1    2    0    0  0.30757166704E+02 -0.36064473833E+02  0.31214942281E+04  0.31228742080E+04  0.79815117106E+02 0.  0.
        -13    1    3    3    0    0  0.43851997219E+01 -0.40659505660E+02 -0.10238880189E+03  0.11025376243E+03  0.00000000000E+00 0.  1.
         14    1    3    3    0    0  0.16929685062E+02  0.38040350511E+02 -0.43725159989E+03  0.43922960295E+03  0.00000000000E+00 0. -1.
         13    1    5    5    0    0  0.15905237264E+02  0.24659654893E+02  0.79857883559E+03  0.79911778343E+03  0.00000000000E+00 0. -1.
        -14    1    5    5    0    0  0.14851929440E+02 -0.60724128726E+02  0.23229153926E+04  0.23237564245E+04  0.00000000000E+00 0.  1.
          5    1    4    4  501    0 -0.82825742083E+01  0.78348723353E+02 -0.94497274515E+02  0.12310292757E+03  0.41800000000E+01 0.  1.
         -5    1    4    4    0  501 -0.43789477280E+02 -0.39665094370E+02 -0.11527412093E+03  0.12960105473E+03  0.41800000000E+01 0.  1.
</event>
<event>
11    1  0.7105277E-009  0.1698732E+03  0.7561462E-02  0.1078142E+00
         22   -1    0    0    0    0  0.00000000000E+00  0.00000000000E+00  0.38355149667E+03  0.38355149667E+03  0.00000000000E+00 0.  1.
         22   -1    0    0    0    0 -0.00000000000E+00 -0.00000000000E+00 -0.28347618380E+03  0.28347618380E+03  0.00000000000E+00 0. -1.
        -24    2    1    2    0    0  0.13595581738E+02 -0.22098846100E+02 -0.13720562121E+03  0.16143695896E+03  0.81014260383E+02 0.  0.
         25    2    1    2    0    0  0.14687147067E+02  0.13128704454E+03 -0.48419522169E+02  0.18826536135E+03  0.12508955114E+03 0.  0.
         24    2    1    2    0    0 -0.28282728805E+02 -0.10918819844E+03  0.28570045625E+03  0.31732536015E+03  0.79678466739E+02 0.  0.
        -13    1    5    5    0    0  0.59466644219E+01  0.11307999444E+02  0.29170980075E+02  0.31846188904E+02  0.00000000000E+00 0.  1.
         14    1    5    5    0    0 -0.34229393227E+02 -0.12049619789E+03  0.25652947618E+03  0.28547917124E+03  0.00000000000E+00 0. -1.
         11    1    3    3    0    0  0.19588722640E+02 -0.74299710861E+01 -0.14302871296E+03  0.14455495584E+03  0.00000000000E+00 0. -1.
        -12    1    3    3    0    0 -0.59931409019E+01 -0.14668875014E+02  0.58230917509E+01  0.16882003127E+02  0.00000000000E+00 0.  1.
          5    1    4    4  501    0  0.67355135175E+02  0.67917381865E+02 -0.71409733994E+01  0.96010160373E+02  0.41800000000E+01 0. -1.
         -5    1    4    4    0  501 -0.52667988108E+02  0.63369662677E+02 -0.41278548770E+02  0.92255200979E+02  0.41800000000E+01 0. -1.
</event>
<event>
11    1  0.7105277E-009  0.1922805E+03  0.7561462E-02  0.1060121E+00
         22   -1    0    0    0    0  0.00000000000E+00  0.00000000000E+00  0.40686474014E+03  0.40686474014E+03  0.00000000000E+00 0.  1.
         22   -1    0    0    0    0 -0.00000000000E+00 -0.00000000000E+00 -0.36542009256E+03  0.36542009256E+03  0.00000000000E+00 0. -1.
        -24    2    1    2    0    0 -0.13425437761E+02  0.89509001966E+01 -0.66878699259E+02  0.10665908814E+03  0.81504844490E+02 0.  0.
         25    2    1    2    0    0  0.70897850715E+02  0.12552620726E+03 -0.22244762667E+03  0.29311120835E+03  0.12509156608E+03 0.  0.
         24    2    1    2    0    0 -0.57472412954E+02 -0.13447710746E+03  0.33077097351E+03  0.37251453621E+03  0.89277500446E+02 0.  0.
        -13    1    5    5    0    0 -0.79389495192E+02 -0.81873695414E+02  0.20979561299E+03  0.23878901394E+03  0.00000000000E+00 0.  1.
         14    1    5    5    0    0  0.21917082238E+02 -0.52603412045E+02  0.12097536052E+03  0.13372552227E+03  0.00000000000E+00 0. -1.
         13    1    3    3    0    0 -0.56827997939E+01 -0.36330209319E+02 -0.24727226107E+02  0.44312684793E+02  0.00000000000E+00 0. -1.
        -14    1    3    3    0    0 -0.77426379674E+01  0.45281109515E+02 -0.42151473152E+02  0.62346403349E+02  0.00000000000E+00 0.  1.
          5    1    4    4  501    0  0.10275358974E+03  0.77952219005E+02 -0.12294068595E+03  0.17823224544E+03  0.41800000000E+01 0.  1.
         -5    1    4    4    0  501 -0.31855739027E+02  0.47573988257E+02 -0.99506940726E+02  0.11487896291E+03  0.41800000000E+01 0.  1.
</event>
<event>
11    1  0.7105277E-009  0.1921235E+03  0.7561462E-02  0.1060238E+00
         22   -1    0    0    0    0  0.00000000000E+00  0.00000000000E+00  0.87018653647E+03  0.87018653647E+03  0.00000000000E+00 0.  1.
         22   -1    0    0    0    0 -0.00000000000E+00 -0.00000000000E+00 -0.33087969544E+03  0.33087969544E+03  0.00000000000E+00 0.  1.
        -24    2    1    2    0    0 -0.21340865643E+02  0.14192714015E+03 -0.17088448263E+03  0.23739373138E+03  0.80966237646E+02 0.  0.
         25    2    1    2    0    0  0.14258018511E+03 -0.12069584755E+03 -0.13776821248E+02  0.22524576961E+03  0.12509699886E+03 0.  0.
         24    2    1    2    0    0 -0.12123931947E+03 -0.21231292605E+02  0.72396814491E+03  0.73842673091E+03  0.77423650844E+02 0.  0.
        -11    1    5    5    0    0 -0.86921451891E+02  0.17640413073E+02  0.54223263535E+03  0.54943858057E+03  0.00000000000E+00 0.  1.
         12    1    5    5    0    0 -0.34317867574E+02 -0.38871705678E+02  0.18173550956E+03  0.18898815034E+03  0.00000000000E+00 0. -1.
         11    1    3    3    0    0 -0.11552182407E+02 -0.58081225245E+01 -0.31488769741E+02  0.34040120820E+02  0.00000000000E+00 0. -1.
        -12    1    3    3    0    0 -0.97886832356E+01  0.14773526268E+03 -0.13939571289E+03  0.20335361056E+03  0.00000000000E+00 0.  1.
          5    1    4    4  501    0  0.68939865035E+01 -0.19526720574E+02  0.41981840042E+02  0.46997522909E+02  0.41800000000E+01 0.  1.
         -5    1    4    4    0  501  0.13568619860E+03 -0.10116912697E+03 -0.55758661291E+02  0.17824824670E+03  0.41800000000E+01 0.  1.
</event>
<event>
11    1  0.7105277E-009  0.1872836E+03  0.7561462E-02  0.1063899E+00
         22   -1    0    0    0    0  0.00000000000E+00  0.00000000000E+00  0.15257872504E+04  0.15257872504E+04  0.00000000000E+00 0. -1.
         22   -1    0    0    0    0 -0.00000000000E+00 -0.00000000000E+00 -0.12274105926E+03  0.12274105926E+03  0.00000000000E+00 0.  1.
        -24    2    1    2    0    0  0.98080648223E+01  0.16089128729E+03 -0.18965776698E+02  0.18158778695E+03  0.81438438244E+02 0.  0.
         25    2    1    2    0    0  0.62071710915E+02 -0.52916796947E+02  0.30832736564E+03  0.34258801052E+03  0.12509075046E+03 0.  0.
         24    2    1    2    0    0 -0.71879775737E+02 -0.10797449034E+03  0.11136846022E+04  0.11243525122E+04  0.83964193386E+02 0.  0.
        -11    1    5    5    0    0 -0.22631846457E+02 -0.70490962719E+02  0.32882184474E+03  0.33705338134E+03  0.00000000000E+00 0.  1.
         12    1    5    5    0    0 -0.49247929280E+02 -0.37483527621E+02  0.78486275751E+03  0.78729913089E+03  0.00000000000E+00 0. -1.
         11    1    3    3    0    0 -0.23809418295E+02  0.60203225439E+02  0.21151766190E+02  0.68108104993E+02  0.00000000000E+00 0. -1.
        -12    1    3    3    0    0  0.33617483118E+02  0.10068806185E+03 -0.40117542888E+02  0.11347968196E+03  0.00000000000E+00 0.  1.
          5    1    4    4  501    0  0.92256209905E+01 -0.65535844369E+02  0.26441654330E+03  0.27260528196E+03  0.41800000000E+01 0.  1.
         -5    1    4    4    0  501  0.52846089924E+02  0.12619047422E+02  0.43910822342E+02  0.69982728561E+02  0.41800000000E+01 0.  1.
</event>
<event>
11    1  0.7105277E-009  0.1317580E+03  0.7561462E-02  0.1117128E+00
         22   -1    0    0    0    0  0.00000000000E+00  0.00000000000E+00  0.42900330762E+03  0.42900330762E+03  0.00000000000E+00 0.  1.
         22   -1    0    0    0    0 -0.00000000000E+00 -0.00000000000E+00 -0.55002908733E+03  0.55002908733E+03  0.00000000000E+00 0.  1.
        -24    2    1    2    0    0  0.17842798312E+02  0.10310220421E+02 -0.51359160246E+03  0.52017352724E+03  0.79871761131E+02 0.  0.
         25    2    1    2    0    0  0.10665437416E+02 -0.41467199234E+02  0.15152037767E+03  0.20108691075E+03  0.12507693895E+03 0.  0.
         24    2    1    2    0    0 -0.28508235727E+02  0.31156978813E+02  0.24104544508E+03  0.25777195697E+03  0.80993816856E+02 0.  0.
        -11    1    5    5    0    0  0.50875912897E+01  0.51688581273E+02  0.14044121975E+03  0.14973753446E+03  0.00000000000E+00 0.  1.
         12    1    5    5    0    0 -0.33595827017E+02 -0.20531602460E+02  0.10060422533E+03  0.10803442251E+03  0.00000000000E+00 0. -1.
         13    1    3    3    0    0  0.82155440802E+01 -0.44648974668E+01 -0.38258751850E+01  0.10102860726E+02  0.00000000000E+00 0. -1.
        -14    1    3    3    0    0  0.96272542314E+01  0.14775117888E+02 -0.50976572728E+03  0.51007066651E+03  0.00000000000E+00 0.  1.
          5    1    4    4  501    0 -0.30697566822E+02 -0.63250472907E+02  0.13325592946E+03  0.15072351531E+03  0.41800000000E+01 0.  1.
         -5    1    4    4    0  501  0.41363004238E+02  0.21783273673E+02  0.18264448206E+02  0.50363395435E+02  0.41800000000E+01 0.  1.
</event>
<event>
11    1  0.7105277E-009  0.1742399E+03  0.7561462E-02  0.1074400E+00
         22   -1    0    0    0    0  0.00000000000E+00  0.00000000000E+00  0.81427671889E+03  0.81427671889E+03  0.00000000000E+00 0. -1.
         22   -1    0    0    0    0 -0.00000000000E+00 -0.00000000000E+00 -0.69988540482E+03  0.69988540482E+03  0.00000000000E+00 0.  1.
         24    2    1    2    0    0  0.11557175610E+03  0.22134822286E+02 -0.48984505158E+03  0.51009100197E+03  0.79986714961E+02 0.  0.
         25    2    1    2    0    0 -0.14353472391E+03  0.26114744218E+02 -0.14997589264E+03  0.24376923892E+03  0.12508587705E+03 0.  0.
        -24    2    1    2    0    0  0.27962967808E+02 -0.48249566504E+02  0.75421225828E+03  0.76030188281E+03  0.78184872126E+02 0.  0.
        -13    1    3    3    0    0  0.29086184879E+02 -0.95582071198E+01 -0.26999314712E+03  0.27172350831E+03  0.00000000000E+00 0.  1.
         14    1    3    3    0    0  0.86485571220E+02  0.31693029406E+02 -0.21985190446E+03  0.23836749367E+03  0.00000000000E+00 0. -1.
         13    1    5    5    0    0  0.45290972852E+02 -0.17933973134E+02  0.23933807679E+03  0.24424498892E+03  0.00000000000E+00 0. -1.
        -14    1    5    5    0    0 -0.17328005045E+02 -0.30315593370E+02  0.51487418150E+03  0.51605689389E+03  0.00000000000E+00 0.  1.
          5    1    4    4  501    0 -0.84111003674E+02 -0.27649724356E+02 -0.19760002255E+02  0.90813535803E+02  0.41800000000E+01 0.  1.
         -5    1    4    4    0  501 -0.59423720234E+02  0.53764468573E+02 -0.13021589038E+03  0.15295570312E+03  0.41800000000E+01 0.  1.
</event>
<event>
11    1  0.7105277E-009  0.1408433E+03  0.7561462E-02  0.1106620E+00
         22   -1    0    0    0    0  0.00000000000E+00  0.00000000000E+00  0.83228842081E+03  0.83228842081E+03  0.00000000000E+00 0.  1.
         22   -1    0    0    0    0 -0.00000000000E+00 -0.00000000000E+00 -0.11116146013E+04  0.11116146013E+04  0.00000000000E+00 0.  1.
         24    2    1    2    0    0 -0.66779474698E+01  0.31381405658E+02 -0.86066000255E+03  0.86473901282E+03  0.77514725652E+02 0.  0.
         25    2    1    2    0    0 -0.55813846418E+02 -0.13791295020E+02 -0.22641502683E+03  0.26498346028E+03  0.12508830712E+03 0.  0.
        -24    2    1    2    0    0  0.62491793887E+02 -0.17590110638E+02  0.80774884889E+03  0.81418054902E+03  0.78848761667E+02 0.  0.
        -13    1    3    3    0    0 -0.20111833848E+02 -0.94972925024E+01 -0.61051932847E+03  0.61092432826E+03  0.00000000000E+00 0.  1.
         14    1    3    3    0    0  0.13433886378E+02  0.40878698161E+02 -0.25014067408E+03  0.25381468455E+03  0.00000000000E+00 0. -1.
         11    1    5    5    0    0  0.66576110118E+01 -0.13546419060E+01  0.31593484054E+01  0.74926845273E+01  0.00000000000E+00 0. -1.
        -12    1    5    5    0    0  0.55834182876E+02 -0.16235468732E+02  0.80458950049E+03  0.80668786449E+03  0.00000000000E+00 0.  1.
          5    1    4    4  501    0 -0.80973691542E+02  0.85284173550E+01 -0.78295662874E+02  0.11303608207E+03  0.41800000000E+01 0.  1.
         -5    1    4    4    0  501  0.25159845125E+02 -0.22319712375E+02 -0.14811936396E+03  0.15194737821E+03  0.41800000000E+01 0.  1.
</event>
<event>
11    1  0.7105277E-009  0.2092535E+03  0.7561462E-02  0.1048166E+00
         22   -1    0    0    0    0  0.00000000000E+00  0.00000000000E+00  0.31397646418E+03  0.31397646418E+03  0.00000000000E+00 0. -1.
         22   -1    0    0    0    0 -0.00000000000E+00 -0.00000000000E+00 -0.10984469854E+04  0.10984469854E+04  0.00000000000E+00 0. -1.
        -24    2    1    2    0    0  0.24567276740E+02  0.13705899129E+02 -0.84040056122E+03  0.84472611531E+03  0.80608336030E+02 0.  0.
         25    2    1    2    0    0 -0.86396350347E+02  0.14270556288E+03 -0.17393125263E+03  0.27153183577E+03  0.12509296609E+03 0.  0.
         24    2    1    2    0    0  0.61829073607E+02 -0.15641146201E+03  0.22986129258E+03  0.29616549854E+03  0.81181333494E+02 0.  0.
        -11    1    5    5    0    0  0.43431937223E+02 -0.38298468816E+02  0.12248524394E+03  0.13548336011E+03  0.00000000000E+00 0.  1.
         12    1    5    5    0    0  0.18397136384E+02 -0.11811299319E+03  0.10737604865E+03  0.16068213843E+03  0.00000000000E+00 0. -1.
         11    1    3    3    0    0  0.17187082528E+02  0.39788727807E+02 -0.25189556124E+03  0.25559716829E+03  0.00000000000E+00 0. -1.
        -12    1    3    3    0    0  0.73801942124E+01 -0.26082828678E+02 -0.58850499998E+03  0.58912894702E+03  0.00000000000E+00 0.  1.
          5    1    4    4  501    0  0.27546152381E+02  0.29770906240E+01 -0.19997023872E+02  0.34423929806E+02  0.41800000000E+01 0.  1.
         -5    1    4    4    0  501 -0.11394250273E+03  0.13972847226E+03 -0.15393422876E+03  0.23710790596E+03  0.41800000000E+01 0.  1.
</event>
<event>
11    1  0.7105277E-009  0.1562399E+03  0.7561462E-02  0.1090668E+00
         22   -1    0    0    0    0  0.00000000000E+00  0.00000000000E+00  0.14500598750E+03  0.14500598750E+03  0.00000000000E+00 0.  1.
         22   -1    0    0    0    0 -0.00000000000E+00 -0.00000000000E+00 -0.88248691249E+03  0.88248691249E+03  0.00000000000E+00 0.  1.
        -24    2    1    2    0    0 -0.18008540049E+02  0.41862657427E+02 -0.73235989449E+03  0.73812206560E+03  0.79977365934E+02 0.  0.
         25    2    1    2    0    0  0.10471762348E+03 -0.37922798926E+02 -0.22607237148E+02  0.16900499516E+03  0.12509069458E+03 0.  0.
         24    2    1    2    0    0 -0.86709083430E+02 -0.39398585005E+01  0.17486206650E+02  0.12036583923E+03  0.81536373458E+02 0.  0.
        -11    1    5    5    0    0 -0.52222005092E+02 -0.33721738758E+02  0.35246273055E+02  0.71460431323E+02  0.00000000000E+00 0.  1.
         12    1    5    5    0    0 -0.34487078338E+02  0.29781880257E+02 -0.17760066405E+02  0.48905407908E+02  0.00000000000E+00 0. -1.
         11    1    3    3    0    0  0.87790072033E+01  0.41656561390E+02 -0.17444678677E+03  0.17956620364E+03  0.00000000000E+00 0. -1.
        -12    1    3    3    0    0 -0.26787547252E+02  0.20609603623E+00 -0.55791310772E+03  0.55855586196E+03  0.00000000000E+00 0.  1.
          5    1    4    4  501    0  0.71280526148E+01 -0.65372852984E+02 -0.56485573509E+01  0.66134693176E+02  0.41800000000E+01 0. -1.
         -5    1    4    4    0  501  0.97589570864E+02  0.27450054058E+02 -0.16958679797E+02  0.10287030198E+03  0.41800000000E+01 0. -1.
</event>
<event>
11    1  0.7105277E-009  0.1594781E+03  0.7561462E-02  0.1087569E+00
         22   -1    0    0    0    0  0.00000000000E+00  0.00000000000E+00  0.48864996668E+03  0.48864996668E+03  0.00000000000E+00 0. -1.
         22   -1    0    0    0    0 -0.00000000000E+00 -0.00000000000E+00 -0.25124196211E+04  0.25124196211E+04  0.00000000000E+00 0. -1.
         24    2    1    2    0    0 -0.35197919397E+01 -0.10110280766E+03 -0.23977034076E+04  0.24011711234E+04  0.80043527453E+02 0.  0.
         25    2    1    2    0    0  0.55092822982E+02  0.35376148788E+02 -0.57974176298E+02  0.15262683332E+03  0.12508898466E+03 0.  0.
        -24    2    1    2    0    0 -0.51573031042E+02  0.65726658871E+02  0.43190792952E+03  0.44727163105E+03  0.80794066251E+02 0.  0.
        -13    1    3    3    0    0 -0.34355810953E+02 -0.20077039264E+02 -0.55175882685E+03  0.55319184038E+03  0.00000000000E+00 0.  1.
         14    1    3    3    0    0  0.30836019013E+02 -0.81025768394E+02 -0.18459445807E+04  0.18479792830E+04  0.00000000000E+00 0. -1.
         13    1    5    5    0    0 -0.24530461124E+02 -0.14535327123E+02  0.15855405870E+03  0.16109751329E+03  0.00000000000E+00 0. -1.
        -14    1    5    5    0    0 -0.27042569918E+02  0.80261985993E+02  0.27335387082E+03  0.28617411776E+03  0.00000000000E+00 0.  1.
          5    1    4    4  501    0 -0.21998366030E+02 -0.30815287221E+02 -0.25632849850E+02  0.45913238025E+02  0.41800000000E+01 0.  1.
         -5    1    4    4    0  501  0.77091189012E+02  0.66191436009E+02 -0.32341326448E+02  0.10671359529E+03  0.41800000000E+01 0.  1.
</event>
<event>
11    1  0.7105277E-009  0.1418264E+03  0.7561462E-02  0.1105536E+00
         22   -1    0    0    0    0  0.00000000000E+00  0.00000000000E+00  0.26261030622E+03  0.26261030622E+03  0.00000000000E+00 0. -1.
         22   -1    0    0    0    0 -0.00000000000E+00 -0.00000000000E+00 -0.43296965455E+03  0.43296965455E+03  0.00000000000E+00 0. -1.
        -24    2    1    2    0    0  0.65802526502E+02  0.23661886141E+02 -0.26360360839E+03  0.28451879949E+03  0.81081610463E+02 0.  0.
         25    2    1    2    0    0 -0.45874402842E+02 -0.39597806471E+02 -0.12006828068E+03  0.18367419724E+03  0.12508945436E+03 0.  0.
         24    2    1    2    0    0 -0.19928123660E+02  0.15935920329E+02  0.21331254075E+03  0.22738696404E+03  0.74508440499E+02 0.  0.
        -13    1    5    5    0    0 -0.17674124220E+02  0.38308643574E+02  0.65754177420E+02  0.78125147600E+02  0.00000000000E+00 0.  1.
         14    1    5    5    0    0 -0.22539994405E+01 -0.22372723244E+02  0.14755836333E+03  0.14926181644E+03  0.00000000000E+00 0. -1.
         11    1    3    3    0    0  0.84537263331E+02  0.13292625253E+02 -0.21517133926E+03  0.23156413370E+03  0.00000000000E+00 0. -1.
        -12    1    3    3    0    0 -0.18734736829E+02  0.10369260889E+02 -0.48432269129E+02  0.52954665785E+02  0.00000000000E+00 0.  1.
          5    1    4    4  501    0 -0.34359057299E+01 -0.27019671523E+02 -0.13421732529E+03  0.13701690007E+03  0.41800000000E+01 0.  1.
         -5    1    4    4    0  501 -0.42438497112E+02 -0.12578134948E+02  0.14149044607E+02  0.46657297170E+02  0.41800000000E+01 0.  1.
</event>
<event>
11    1  0.7105277E-009  0.1454634E+03  0.7561462E-02  0.1101606E+00
         22   -1    0    0    0    0  0.00000000000E+00  0.00000000000E+00  0.10968862408E+04  0.10968862408E+04  0.00000000000E+00 0.  1.
         22   -1    0    0    0    0 -0.00000000000E+00 -0.00000000000E+00 -0.18405505361E+03  0.18405505361E+03  0.00000000000E+00 0. -1.
         24    2    1    2    0    0  0.65359843057E+02  0.14726356351E+02 -0.74659591121E+02  0.12849278131E+03  0.80296734973E+02 0.  0.
         25    2    1    2    0    0 -0.10249423555E+03  0.36543320781E+02  0.63916033382E+01  0.16591865919E+03  0.12509063218E+03 0.  0.
        -24    2    1    2    0    0  0.37134392496E+02 -0.51269677132E+02  0.98109917499E+03  0.98652985392E+03  0.81719144671E+02 0.  0.
        -13    1    3    3    0    0 -0.85872247935E+01 -0.18425194788E+02 -0.34611276685E+01  0.20620563459E+02  0.00000000000E+00 0.  1.
         14    1    3    3    0    0  0.73947067851E+02  0.33151551139E+02 -0.71198463453E+02  0.10787221785E+03  0.00000000000E+00 0. -1.
         11    1    5    5    0    0  0.20292205337E+02  0.16033163297E+02  0.12634655291E+03  0.12896622564E+03  0.00000000000E+00 0. -1.
        -12    1    5    5    0    0  0.16842187159E+02 -0.67302840429E+02  0.85475262207E+03  0.85756362827E+03  0.00000000000E+00 0.  1.
          5    1    4    4  501    0 -0.94511964596E+02  0.13967890718E+02 -0.47516128514E+02  0.10678421368E+03  0.41800000000E+01 0.  1.
         -5    1    4    4    0  501 -0.79822709569E+01  0.22575430062E+02  0.53907731852E+02  0.59134445508E+02  0.41800000000E+01 0.  1.
</event>
<event>
11    1  0.7105277E-009  0.1311360E+03  0.7561462E-02  0.1117881E+00
         22   -1    0    0    0    0  0.00000000000E+00  0.00000000000E+00  0.94993013835E+03  0.94993013835E+03  0.00000000000E+00 0.  1.
         22   -1    0    0    0    0 -0.00000000000E+00 -0.00000000000E+00 -0.53077498707E+02  0.53077498707E+02  0.00000000000E+00 0.  1.
        -24    2    1    2    0    0 -0.87941633613E+01 -0.45654590980E+02  0.47707948261E+02  0.10100862113E+03  0.75927690788E+02 0.  0.
         25    2    1    2    0    0 -0.50045470504E+01  0.31000656987E+01  0.14413945477E+03  0.19092355354E+03  0.12506384361E+03 0.  0.
         24    2    1    2    0    0  0.13798710412E+02  0.42554525281E+02  0.70500523661E+03  0.71107546238E+03  0.81207373591E+02 0.  0.
        -11    1    5    5    0    0 -0.32088927118E+02  0.32592598422E+02  0.34056555954E+03  0.34362316141E+03  0.00000000000E+00 0.  1.
         12    1    5    5    0    0  0.45887637530E+02  0.99619268585E+01  0.36443967707E+03  0.36745230097E+03  0.00000000000E+00 0. -1.
         11    1    3    3    0    0  0.25643621566E+02  0.38327892356E+01  0.26557149172E+02  0.37115600122E+02  0.00000000000E+00 0. -1.
        -12    1    3    3    0    0 -0.34437784927E+02 -0.49487380215E+02  0.21150799089E+02  0.63893021007E+02  0.00000000000E+00 0.  1.
          5    1    4    4  501    0  0.33775535333E+02  0.52311165567E+02  0.72129156204E+02  0.95379937118E+02  0.41800000000E+01 0.  1.
         -5    1    4    4    0  501 -0.38780082383E+02 -0.49211099868E+02  0.72010298568E+02  0.95543616426E+02  0.41800000000E+01 0.  1.
</event>
<event>
11    1  0.7105277E-009  0.1403232E+03  0.7561462E-02  0.1107198E+00
         22   -1    0    0    0    0  0.00000000000E+00  0.00000000000E+00  0.52909585948E+03  0.52909585948E+03  0.00000000000E+00 0. -1.
         22   -1    0    0    0    0 -0.00000000000E+00 -0.00000000000E+00 -0.81570484155E+03  0.81570484155E+03  0.00000000000E+00 0. -1.
         24    2    1    2    0    0  0.54233931791E+02  0.29057931429E+02 -0.67205538993E+03  0.68018040695E+03  0.84860215209E+02 0.  0.
         25    2    1    2    0    0 -0.63457512031E+02 -0.61881765946E+02 -0.92177420430E+02  0.17888577232E+03  0.12508890403E+03 0.  0.
        -24    2    1    2    0    0  0.92235802402E+01  0.32823834517E+02  0.47762382829E+03  0.48573452176E+03  0.81553821094E+02 0.  0.
        -13    1    3    3    0    0  0.25572834339E+00 -0.13683308235E+02 -0.18518712991E+02  0.23026963588E+02  0.00000000000E+00 0.  1.
         14    1    3    3    0    0  0.53978203448E+02  0.42741239664E+02 -0.65353667694E+03  0.65715344336E+03  0.00000000000E+00 0. -1.
         11    1    5    5    0    0 -0.26015879172E+02  0.26893251949E+02  0.37888437471E+03  0.38072751722E+03  0.00000000000E+00 0. -1.
        -12    1    5    5    0    0  0.35239459413E+02  0.59305825680E+01  0.98739453582E+02  0.10500700454E+03  0.00000000000E+00 0.  1.
          5    1    4    4  501    0 -0.98600960150E+00 -0.19628551675E+02 -0.10087070356E+03  0.10285243552E+03  0.41800000000E+01 0.  1.
         -5    1    4    4    0  501 -0.62471502430E+02 -0.42253214271E+02  0.86932831341E+01  0.76033336792E+02  0.41800000000E+01 0.  1.
</event>
<event>
11    1  0.7105277E-009  0.1407795E+03  0.7561462E-02  0.1106691E+00
         22   -1    0    0    0    0  0.00000000000E+00  0.00000000000E+00  0.53605373161E+03  0.53605373161E+03  0.00000000000E+00 0.  1.
         22   -1    0    0    0    0 -0.00000000000E+00 -0.00000000000E+00 -0.15779087695E+04  0.15779087695E+04  0.00000000000E+00 0. -1.
        -24    2    1    2    0    0  0.55114095638E+02  0.33294404519E+02 -0.84232932610E+03  0.84840196534E+03  0.78237588570E+02 0.  0.
         25    2    1    2    0    0 -0.29396354699E+02 -0.92473423611E+02 -0.71874964881E+03  0.73597812976E+03  0.12508904857E+03 0.  0.
         24    2    1    2    0    0 -0.25717740939E+02  0.59179019092E+02  0.51922393705E+03  0.52958240599E+03  0.81856395188E+02 0.  0.
        -11    1    5    5    0    0  0.22929016059E+02  0.36058270323E+02  0.33284693367E+03  0.33557863443E+03  0.00000000000E+00 0.  1.
         12    1    5    5    0    0 -0.48646756998E+02  0.23120748769E+02  0.18637700338E+03  0.19400377156E+03  0.00000000000E+00 0. -1.
         11    1    3    3    0    0 -0.10785568836E+02  0.33733794931E+02 -0.28878091097E+03  0.29094451697E+03  0.00000000000E+00 0. -1.
        -12    1    3    3    0    0  0.65899664474E+02 -0.43939041216E+00 -0.55354841513E+03  0.55745744836E+03  0.00000000000E+00 0.  1.
          5    1    4    4  501    0  0.22378947976E+02  0.22048945102E+02 -0.11608540403E+03  0.12033397991E+03  0.41800000000E+01 0. -1.
         -5    1    4    4    0  501 -0.51775302676E+02 -0.11452236871E+03 -0.60266424478E+03  0.61564414984E+03  0.41800000000E+01 0. -1.
</event>
<event>
11    1  0.7105277E-009  0.1559412E+03  0.7561462E-02  0.1090958E+00
         22   -1    0    0    0    0  0.00000000000E+00  0.00000000000E+00  0.13499620404E+04  0.13499620404E+04  0.00000000000E+00 0. -1.
         22   -1    0    0    0    0 -0.00000000000E+00 -0.00000000000E+00 -0.44264209614E+03  0.44264209614E+03  0.00000000000E+00 0.  1.
         24    2    1    2    0    0  0.37695742051E+02 -0.28302199113E+02 -0.32505162696E+03  0.33811827877E+03  0.80270958677E+02 0.  0.
         25    2    1    2    0    0 -0.92925610859E-01  0.11316633816E+03 -0.42404521311E+02  0.17393640896E+03  0.12509637168E+03 0.  0.
        -24    2    1    2    0    0 -0.37602816440E+02 -0.84864139046E+02  0.12747760925E+04  0.12805494488E+04  0.78338437841E+02 0.  0.
        -11    1    3    3    0    0  0.47013483439E+02 -0.45667447930E+02 -0.29491352518E+03  0.30210887237E+03  0.00000000000E+00 0.  1.
         12    1    3    3    0    0 -0.93177413879E+01  0.17365248817E+02 -0.30138101774E+02  0.36009406404E+02  0.00000000000E+00 0. -1.
         13    1    5    5    0    0 -0.58693929042E+01 -0.68134985705E+02  0.11003269471E+04  0.11024500971E+04  0.00000000000E+00 0. -1.
        -14    1    5    5    0    0 -0.31733423536E+02 -0.16729153340E+02  0.17444914542E+03  0.17809935170E+03  0.00000000000E+00 0.  1.
          5    1    4    4  501    0  0.48843370377E+01 -0.12278695931E+02 -0.46231980937E+02  0.48264806883E+02  0.41800000000E+01 0.  1.
         -5    1    4    4    0  501 -0.49772626486E+01  0.12544503409E+03  0.38274596262E+01  0.12567160208E+03  0.41800000000E+01 0.  1.
</event>
<event>
11    1  0.7105277E-009  0.1873644E+03  0.7561462E-02  0.1063837E+00
         22   -1    0    0    0    0  0.00000000000E+00  0.00000000000E+00  0.57548325400E+03  0.57548325400E+03  0.00000000000E+00 0. -1.
         22   -1    0    0    0    0 -0.00000000000E+00 -0.00000000000E+00 -0.16056622938E+04  0.16056622938E+04  0.00000000000E+00 0.  1.
         24    2    1    2    0    0 -0.57605962503E+02 -0.95209817209E+02 -0.14444458637E+04  0.14519410158E+04  0.96568649915E+02 0.  0.
         25    2    1    2    0    0 -0.98296294985E+01 -0.37503233594E+02 -0.11442747541E+03  0.17390889398E+03  0.12509013602E+03 0.  0.
        -24    2    1    2    0    0  0.67435592002E+02  0.13271305080E+03  0.52869429933E+03  0.55529563795E+03  0.81702328355E+02 0.  0.
        -11    1    3    3    0    0 -0.65497584266E+01 -0.82656616554E+02 -0.11380778875E+04  0.11410943403E+04  0.00000000000E+00 0.  1.
         12    1    3    3    0    0 -0.51056204077E+02 -0.12553200656E+02 -0.30636797623E+03  0.31084667552E+03  0.00000000000E+00 0. -1.
         13    1    5    5    0    0  0.59787627261E+02  0.11111461210E+03  0.51099541653E+03  0.52634336047E+03  0.00000000000E+00 0. -1.
        -14    1    5    5    0    0  0.76479647406E+01  0.21598438699E+02  0.17698882805E+02  0.28952277483E+02  0.00000000000E+00 0.  1.
          5    1    4    4  501    0  0.91177755582E+01 -0.62978279737E+02 -0.98373330805E+01  0.64526297522E+02  0.41800000000E+01 0.  1.
         -5    1    4    4    0  501 -0.18947405057E+02  0.25475046143E+02 -0.10459014233E+03  0.10938259646E+03  0.41800000000E+01 0.  1.
</event>
<event>
11    1  0.7105277E-009  0.1301523E+03  0.7561462E-02  0.1119082E+00
         22   -1    0    0    0    0  0.00000000000E+00  0.00000000000E+00  0.11168069633E+04  0.11168069633E+04  0.00000000000E+00 0.  1.
         22   -1    0    0    0    0 -0.00000000000E+00 -0.00000000000E+00 -0.72879057117E+03  0.72879057117E+03  0.00000000000E+00 0.  1.
        -24    2    1    2    0    0 -0.28101964898E+02 -0.22098588818E+02 -0.69339513038E+03  0.69882793960E+03  0.79281866019E+02 0.  0.
         25    2    1    2    0    0  0.40204873222E+02  0.23623070424E+02  0.11281674567E+03  0.17478484539E+03  0.12509053836E+03 0.  0.
         24    2    1    2    0    0 -0.12102908324E+02 -0.15244816068E+01  0.96859477688E+03  0.97198474952E+03  0.80185454142E+02 0.  0.
        -13    1    5    5    0    0 -0.15984323257E+02  0.35546711324E+02  0.65949551172E+03  0.66064619673E+03  0.00000000000E+00 0.  1.
         14    1    5    5    0    0  0.38814149327E+01 -0.37071192931E+02  0.30909926516E+03  0.31133855279E+03  0.00000000000E+00 0. -1.
         11    1    3    3    0    0 -0.48821450571E+02 -0.15580431022E+02 -0.26662237824E+03  0.27150281112E+03  0.00000000000E+00 0. -1.
        -12    1    3    3    0    0  0.20719485673E+02 -0.65181577961E+01 -0.42677275213E+03  0.42732512848E+03  0.00000000000E+00 0.  1.
          5    1    4    4  501    0 -0.10604088537E+02 -0.30730084336E+02  0.91623496929E+02  0.97309415610E+02  0.41800000000E+01 0.  1.
         -5    1    4    4    0  501  0.50808961760E+02  0.54353154761E+02  0.21193248737E+02  0.77475429780E+02  0.41800000000E+01 0.  1.
</event>
<event>
11    1  0.7105277E-009  0.1591744E+03  0.7561462E-02  0.1087856E+00
         22   -1    0    0    0    0  0.00000000000E+00  0.00000000000E+00  0.31769202609E+03  0.31769202609E+03  0.00000000000E+00 0. -1.
         22   -1    0    0    0    0 -0.00000000000E+00 -0.00000000000E+00 -0.83393782983E+03  0.83393782983E+03  0.00000000000E+00 0.  1.
        -24    2    1    2    0    0  0.26643205605E+02 -0.33068021993E+02 -0.73199688811E+03  0.73767890816E+03  0.80915838068E+02 0.  0.
         25    2    1    2    0    0 -0.11106367682E+03 -0.14607650350E+02  0.43640858109E+01  0.16797183128E+03  0.12508783754E+03 0.  0.
         24    2    1    2    0    0  0.84420471220E+02  0.47675672343E+02  0.21138699856E+03  0.24597911649E+03  0.80134118163E+02 0.  0.
        -11    1    5    5    0    0 -0.12053432991E+02  0.13207556283E+01  0.55992324588E+02  0.57290226523E+02  0.00000000000E+00 0.  1.
         12    1    5    5    0    0  0.96473904211E+02  0.46354916715E+02  0.15539467397E+03  0.18868888996E+03  0.00000000000E+00 0. -1.
         11    1    3    3    0    0  0.33913069814E+02 -0.19117263174E+02 -0.13568188638E+03  0.14115643927E+03  0.00000000000E+00 0. -1.
        -12    1    3    3    0    0 -0.72698642093E+01 -0.13950758820E+02 -0.59631500173E+03  0.59652246889E+03  0.00000000000E+00 0.  1.
          5    1    4    4  501    0  0.11334722778E+02  0.10544629197E+02  0.35650453187E+02  0.39090821912E+02  0.41800000000E+01 0. -1.
         -5    1    4    4    0  501 -0.12239839960E+03 -0.25152279547E+02 -0.31286367376E+02  0.12888100937E+03  0.41800000000E+01 0. -1.
</event>
<event>
11    1  0.7105277E-009  0.1349712E+03  0.7561462E-02  0.1113308E+00
         22   -1    0    0    0    0  0.00000000000E+00  0.00000000000E+00  0.16019582942E+03  0.16019582942E+03  0.00000000000E+00 0. -1.
         22   -1    0    0    0    0 -0.00000000000E+00 -0.00000000000E+00 -0.57456856881E+03  0.57456856881E+03  0.00000000000E+00 0.  1.
        -24    2    1    2    0    0 -0.23182677879E+01  0.11673002642E+02 -0.45695334313E+03  0.46433668364E+03  0.81612282244E+02 0.  0.
         25    2    1    2    0    0  0.17425589326E+02 -0.57666510827E+02 -0.39263126879E+02  0.14427920507E+03  0.12508324528E+03 0.  0.
         24    2    1    2    0    0 -0.15107321538E+02  0.45993508185E+02  0.81843730624E+02  0.12614850952E+03  0.82894006135E+02 0.  0.
        -11    1    5    5    0    0  0.15536642804E+02 -0.18603978773E+02  0.24862524516E+02  0.34722333175E+02  0.00000000000E+00 0.  1.
         12    1    5    5    0    0 -0.30643964342E+02  0.64597486958E+02  0.56981206108E+02  0.91426176347E+02  0.00000000000E+00 0. -1.
         11    1    3    3    0    0 -0.34411859690E+02 -0.85009007561E+01 -0.11633001366E+03  0.12161049905E+03  0.00000000000E+00 0. -1.
        -12    1    3    3    0    0  0.32093591902E+02  0.20173903398E+02 -0.34062332948E+03  0.34272618459E+03  0.00000000000E+00 0.  1.
          5    1    4    4  501    0 -0.79534311254E+01  0.27409587091E+02 -0.46913155767E+02  0.55071400156E+02  0.41800000000E+01 0. -1.
         -5    1    4    4    0  501  0.25379020452E+02 -0.85076097918E+02  0.76500288878E+01  0.89207804917E+02  0.41800000000E+01 0. -1.
</event>
<event>
11    1  0.7105277E-009  0.1354885E+03  0.7561462E-02  0.1112703E+00
         22   -1    0    0    0    0  0.00000000000E+00  0.00000000000E+00  0.58195145375E+03  0.58195145375E+03  0.00000000000E+00 0.  1.
         22   -1    0    0    0    0 -0.00000000000E+00 -0.00000000000E+00 -0.42421074837E+03  0.42421074837E+03  0.00000000000E+00 0.  1.
         24    2    1    2    0    0  0.41748459366E+02  0.37932410083E+02 -0.32876684648E+03  0.34307682181E+03  0.80201400986E+02 0.  0.
         25    2    1    2    0    0 -0.35803772831E+02  0.92575673973E+01 -0.34287187583E+02  0.13487461477E+03  0.12509171744E+03 0.  0.
        -24    2    1    2    0    0 -0.59446865347E+01 -0.47189977481E+02  0.52079473945E+03  0.52821076554E+03  0.74277984096E+02 0.  0.
        -11    1    3    3    0    0  0.48791472383E+02  0.52651038893E+02 -0.31002765881E+03  0.31822930239E+03  0.00000000000E+00 0.  1.
         12    1    3    3    0    0 -0.70430130175E+01 -0.14718628810E+02 -0.18739187675E+02  0.24847519416E+02  0.00000000000E+00 0. -1.
         11    1    5    5    0    0 -0.11779179062E+02  0.11733913140E+02  0.34207149269E+02  0.38033706605E+02  0.00000000000E+00 0. -1.
        -12    1    5    5    0    0  0.58344925274E+01 -0.58923890621E+02  0.48658759018E+03  0.49017705894E+03  0.00000000000E+00 0.  1.
          5    1    4    4  501    0  0.40677834031E+01  0.46115042337E+02 -0.58967313449E+02  0.75085021456E+02  0.41800000000E+01 0. -1.
         -5    1    4    4    0  501 -0.39871556234E+02 -0.36857474940E+02  0.24680125866E+02  0.59789593311E+02  0.41800000000E+01 0. -1.
</event>
<event>
11    1  0.7105277E-009  0.2014347E+03  0.7561462E-02  0.1053514E+00
         22   -1    0    0    0    0  0.00000000000E+00  0.00000000000E+00  0.41879986448E+03  0.41879986448E+03  0.00000000000E+00 0. -1.
         22   -1    0    0    0    0 -0.00000000000E+00 -0.00000000000E+00 -0.17330394964E+03  0.17330394964E+03  0.00000000000E+00 0.  1.
        -24    2    1    2    0    0 -0.68125463318E+02  0.14259490002E+03 -0.22312261439E+02  0.17626098617E+03  0.74804505034E+02 0.  0.
         25    2    1    2    0    0  0.35837640994E+01 -0.16811491638E+03  0.14190116638E+03  0.25309923834E+03  0.12509122653E+03 0.  0.
         24    2    1    2    0    0  0.64541699219E+02  0.25520016365E+02  0.12590700990E+03  0.16274358962E+03  0.76262694980E+02 0.  0.
        -11    1    5    5    0    0 -0.16268654589E+02  0.84136253591E+01  0.11473256959E+02  0.21612353853E+02  0.00000000000E+00 0.  1.
         12    1    5    5    0    0  0.80810353808E+02  0.17106391006E+02  0.11443375294E+03  0.14113123576E+03  0.00000000000E+00 0. -1.
         13    1    3    3    0    0 -0.20352471696E+02  0.82765062825E+02  0.21699368437E+02  0.87949652183E+02  0.00000000000E+00 0. -1.
        -14    1    3    3    0    0 -0.47772991623E+02  0.59829837190E+02 -0.44011629875E+02  0.88311333990E+02  0.00000000000E+00 0.  1.
          5    1    4    4  501    0 -0.55045962114E+02 -0.92438508603E+02  0.10507865209E+03  0.15044577542E+03  0.41800000000E+01 0.  1.
         -5    1    4    4    0  501  0.58629726214E+02 -0.75676407777E+02  0.36822514287E+02  0.10265346291E+03  0.41800000000E+01 0.  1.
</event>
<event>
11    1  0.7105277E-009  0.1297541E+03  0.7561462E-02  0.1119571E+00
         22   -1    0    0    0    0  0.00000000000E+00  0.00000000000E+00  0.17692140808E+03  0.17692140808E+03  0.00000000000E+00 0.  1.
         22   -1    0    0    0    0 -0.00000000000E+00 -0.00000000000E+00 -0.30546688977E+03  0.30546688977E+03  0.00000000000E+00 0. -1.
        -24    2    1    2    0    0 -0.24945287019E+01 -0.31519761486E+02 -0.17386540284E+03  0.19413778751E+03  0.80377759341E+02 0.  0.
         25    2    1    2    0    0  0.17438570320E+02  0.44398042056E+02 -0.67248385614E+02  0.14981387556E+03  0.12508621854E+03 0.  0.
         24    2    1    2    0    0 -0.14944041619E+02 -0.12878280570E+02  0.11256830676E+03  0.13843663478E+03  0.78127483459E+02 0.  0.
        -11    1    5    5    0    0  0.19596416262E+02  0.14378718371E+02  0.80230824448E+02  0.83831690093E+02  0.00000000000E+00 0.  1.
         12    1    5    5    0    0 -0.34540457880E+02 -0.27256998941E+02  0.32337482314E+02  0.54604944687E+02  0.00000000000E+00 0. -1.
         11    1    3    3    0    0  0.78647617495E+01 -0.43939229199E+02 -0.42019700870E+02  0.61303879169E+02  0.00000000000E+00 0. -1.
        -12    1    3    3    0    0 -0.10359290451E+02  0.12419467713E+02 -0.13184570197E+03  0.13283390834E+03  0.00000000000E+00 0.  1.
          5    1    4    4  501    0  0.58484431827E+02  0.62961773722E+02 -0.29692074023E+02  0.91014863490E+02  0.41800000000E+01 0.  1.
         -5    1    4    4    0  501 -0.41045861507E+02 -0.18563731666E+02 -0.37556311592E+02  0.58799012071E+02  0.41800000000E+01 0.  1.
</event>
<event>
11    1  0.7105277E-009  0.1761651E+03  0.7561462E-02  0.1072788E+00
         22   -1    0    0    0    0  0.00000000000E+00  0.00000000000E+00  0.28116628597E+04  0.28116628597E+04  0.00000000000E+00 0.  1.
         22   -1    0    0    0    0 -0.00000000000E+00 -0.00000000000E+00 -0.64527805526E+02  0.64527805526E+02  0.00000000000E+00 0. -1.
         24    2    1    2    0    0 -0.11900625685E+02  0.41638507340E+02 -0.12305914645E+02  0.92455562551E+02  0.80753980250E+02 0.  0.
         25    2    1    2    0    0 -0.59405566544E+02  0.71977904461E+02  0.65359359730E+03  0.67196913768E+03  0.12509233185E+03 0.  0.
        -24    2    1    2    0    0  0.71306192230E+02 -0.11361641180E+03  0.21058473715E+04  0.21117659650E+04  0.83480996162E+02 0.  0.
        -13    1    3    3    0    0  0.63894918952E+01  0.62875318877E+02 -0.44879429650E+01  0.63358290402E+02  0.00000000000E+00 0.  1.
         14    1    3    3    0    0 -0.18290117581E+02 -0.21236811537E+02 -0.78179716805E+01  0.29097272150E+02  0.00000000000E+00 0. -1.
         11    1    5    5    0    0 -0.83582543434E+01 -0.41289580373E+02  0.94622961583E+03  0.94716692073E+03  0.00000000000E+00 0. -1.
        -12    1    5    5    0    0  0.79664446573E+02 -0.72326831429E+02  0.11596177557E+04  0.11645990443E+04  0.00000000000E+00 0.  1.
          5    1    4    4  501    0 -0.55246890078E+02 -0.40851315997E+01  0.46830797738E+03  0.47159171032E+03  0.41800000000E+01 0. -1.
         -5    1    4    4    0  501 -0.41586764656E+01  0.76063036061E+02  0.18528561992E+03  0.20037742736E+03  0.41800000000E+01 0. -1.
</event>
<event>
11    1  0.7105277E-009  0.1349415E+03  0.7561462E-02  0.1113342E+00
         22   -1    0    0    0    0  0.00000000000E+00  0.00000000000E+00  0.21207430222E+03  0.21207430222E+03  0.00000000000E+00 0.  1.
         22   -1    0    0    0    0 -0.00000000000E+00 -0.00000000000E+00 -0.27534240355E+03  0.27534240355E+03  0.00000000000E+00 0.  1.
        -24    2    1    2    0    0  0.95145890643E+01 -0.23689977830E+02 -0.13825668115E+03  0.16237124128E+03  0.81226643782E+02 0.  0.
         25    2    1    2    0    0 -0.57822269610E+02  0.98487473791E+01 -0.68511938520E+02  0.15421319786E+03  0.12508961582E+03 0.  0.
         24    2    1    2    0    0  0.48307680545E+02  0.13841230451E+02  0.14350051834E+03  0.17083226662E+03  0.77884869490E+02 0.  0.
        -13    1    5    5    0    0  0.30540450875E+02  0.38655538855E+02  0.12681899163E+03  0.13605155810E+03  0.00000000000E+00 0.  1.
         14    1    5    5    0    0  0.17767229671E+02 -0.24814308403E+02  0.16681526705E+02  0.34780708517E+02  0.00000000000E+00 0. -1.
         13    1    3    3    0    0  0.43064898603E+02 -0.27530850539E+02 -0.76939625668E+02  0.92370120824E+02  0.00000000000E+00 0. -1.
        -14    1    3    3    0    0 -0.33550309538E+02  0.38408727083E+01 -0.61317055478E+02  0.70001120460E+02  0.00000000000E+00 0.  1.
          5    1    4    4  501    0 -0.42923899885E+02 -0.47191773549E+02 -0.26260797120E+00  0.63930165298E+02  0.41800000000E+01 0.  1.
         -5    1    4    4    0  501 -0.14898369725E+02  0.57040520928E+02 -0.68249330549E+02  0.90283032562E+02  0.41800000000E+01 0.  1.
</event>
<event>
11    1  0.7105277E-009  0.1592604E+03  0.7561462E-02  0.1087775E+00
         22   -1    0    0    0    0  0.00000000000E+00  0.00000000000E+00  0.25784487549E+04  0.25784487549E+04  0.00000000000E+00 0.  1.
         22   -1    0    0    0    0 -0.00000000000E+00 -0.00000000000E+00 -0.72081194742E+03  0.72081194742E+03  0.00000000000E+00 0. -1.
         24    2    1    2    0    0  0.25493528958E+00  0.10170068818E+03 -0.64467888346E+03  0.65673647137E+03  0.73135730544E+02 0.  0.
         25    2    1    2    0    0 -0.90081111818E+01 -0.61770054248E+02  0.12408283032E+01  0.13981374012E+03  0.12509858753E+03 0.  0.
        -24    2    1    2    0    0  0.87531758923E+01 -0.39930633936E+02  0.25010748627E+04  0.25027104909E+04  0.80704763237E+02 0.  0.
        -13    1    3    3    0    0  0.18228165882E+02 -0.27163381850E+01 -0.12659753495E+03  0.12793193652E+03  0.00000000000E+00 0.  1.
         14    1    3    3    0    0 -0.17973230593E+02  0.10441702637E+03 -0.51808134850E+03  0.52880453485E+03  0.00000000000E+00 0. -1.
         11    1    5    5    0    0  0.12528408461E+02  0.16898085745E+02  0.24048258037E+03  0.24140086533E+03  0.00000000000E+00 0. -1.
        -12    1    5    5    0    0 -0.37752325690E+01 -0.56828719680E+02  0.22605922823E+04  0.22613096255E+04  0.00000000000E+00 0.  1.
          5    1    4    4  501    0 -0.49436977130E+02  0.12051181163E+02  0.17533050813E+02  0.53982644859E+02  0.41800000000E+01 0. -1.
         -5    1    4    4    0  501  0.40428865948E+02 -0.73821235411E+02 -0.16292222510E+02  0.85831095261E+02  0.41800000000E+01 0. -1.
</event>
<event>
11    1  0.7105277E-009  0.1461359E+03  0.7561462E-02  0.1100894E+00
         22   -1    0    0    0    0  0.00000000000E+00  0.00000000000E+00  0.21605296944E+04  0.21605296944E+04  0.00000000000E+00 0. -1.
         22   -1    0    0    0    0 -0.00000000000E+00 -0.00000000000E+00 -0.81831398029E+02  0.81831398029E+02  0.00000000000E+00 0. -1.
         24    2    1    2    0    0  0.46761270267E+02  0.56805813685E+02 -0.30137237497E+02  0.10728470870E+03  0.72029429896E+02 0.  0.
         25    2    1    2    0    0 -0.83290470172E+02 -0.66718781317E+02  0.55668725066E+03  0.58046292150E+03  0.12509120669E+03 0.  0.
        -24    2    1    2    0    0  0.36529199905E+02  0.99129676324E+01  0.15521482832E+04  0.15546134623E+04  0.78905478281E+02 0.  0.
        -13    1    3    3    0    0  0.39727146752E+02  0.64048227793E+02  0.13981711854E+00  0.75368701869E+02  0.00000000000E+00 0.  1.
         14    1    3    3    0    0  0.70341235149E+01 -0.72424141087E+01 -0.30277054615E+02  0.31916006829E+02  0.00000000000E+00 0. -1.
         13    1    5    5    0    0  0.29258912593E+02  0.21634393138E+02  0.15062019416E+04  0.15066414370E+04  0.00000000000E+00 0. -1.
        -14    1    5    5    0    0  0.72702873115E+01 -0.11721425506E+02  0.45946341654E+02  0.47972025232E+02  0.00000000000E+00 0.  1.
          5    1    4    4  501    0 -0.24056182464E+02 -0.56768299150E+02  0.85776145108E+02  0.10571830103E+03  0.41800000000E+01 0. -1.
         -5    1    4    4    0  501 -0.59234287708E+02 -0.99504821672E+01  0.47091110555E+03  0.47474462047E+03  0.41800000000E+01 0. -1.
</event>
<event>
11    1  0.7105277E-009  0.1433059E+03  0.7561462E-02  0.1103922E+00
         22   -1    0    0    0    0  0.00000000000E+00  0.00000000000E+00  0.71407602660E+03  0.71407602660E+03  0.00000000000E+00 0.  1.
         22   -1    0    0    0    0 -0.00000000000E+00 -0.00000000000E+00 -0.94479684166E+03  0.94479684166E+03  0.00000000000E+00 0.  1.
        -24    2    1    2    0    0  0.56467173265E+02 -0.44234657473E+02 -0.86866074877E+03  0.87648010366E+03  0.92198856132E+02 0.  0.
         25    2    1    2    0    0 -0.45806467143E+02  0.57910628490E+01 -0.30565061503E+01  0.13337174763E+03  0.12508761727E+03 0.  0.
         24    2    1    2    0    0 -0.10660706122E+02  0.38443594624E+02  0.64099643986E+03  0.64902101697E+03  0.93596388450E+02 0.  0.
        -11    1    5    5    0    0  0.14454156660E+02  0.52418641336E+02  0.56758857690E+03  0.57018718789E+03  0.00000000000E+00 0.  1.
         12    1    5    5    0    0 -0.25114862782E+02 -0.13975046712E+02  0.73407862966E+02  0.78833829086E+02  0.00000000000E+00 0. -1.
         13    1    3    3    0    0 -0.16435962705E+02 -0.18853439790E+02 -0.74715443975E+02  0.78790802955E+02  0.00000000000E+00 0. -1.
        -14    1    3    3    0    0  0.72903135970E+02 -0.25381217683E+02 -0.79394530480E+03  0.79768930070E+03  0.00000000000E+00 0.  1.
          5    1    4    4  501    0 -0.18512933628E+02 -0.35074947306E+02 -0.50897522773E+02  0.64660736653E+02  0.41800000000E+01 0.  1.
         -5    1    4    4    0  501 -0.27293533514E+02  0.40866010155E+02  0.47841016623E+02  0.68711010975E+02  0.41800000000E+01 0.  1.
</event>
<event>
11    1  0.7105277E-009  0.1380366E+03  0.7561462E-02  0.1109771E+00
         22   -1    0    0    0    0  0.00000000000E+00  0.00000000000E+00  0.10454167374E+04  0.10454167374E+04  0.00000000000E+00 0.  1.
         22   -1    0    0    0    0 -0.00000000000E+00 -0.00000000000E+00 -0.65860162017E+03  0.65860162017E+03  0.00000000000E+00 0.  1.
         24    2    1    2    0    0  0.16706585549E+02  0.31143790227E+02 -0.47047111114E+03  0.47898826511E+03  0.82690060013E+02 0.  0.
         25    2    1    2    0    0 -0.72929599855E+02 -0.15846140777E+02 -0.15214258343E+03  0.21062644021E+03  0.12508519062E+03 0.  0.
        -24    2    1    2    0    0  0.56223014306E+02 -0.15297649451E+02  0.10094288118E+04  0.10144036522E+04  0.81689645538E+02 0.  0.
        -11    1    3    3    0    0 -0.24364700754E+02  0.40974706523E+02 -0.25488378412E+03  0.25930350677E+03  0.00000000000E+00 0.  1.
         12    1    3    3    0    0  0.41071286303E+02 -0.98309162955E+01 -0.21558732702E+03  0.21968475834E+03  0.00000000000E+00 0. -1.
         13    1    5    5    0    0  0.33315307187E+02  0.33110957333E+01  0.12274978738E+03  0.12723357792E+03  0.00000000000E+00 0. -1.
        -14    1    5    5    0    0  0.22907707119E+02 -0.18608745184E+02  0.88667902441E+03  0.88717007432E+03  0.00000000000E+00 0.  1.
          5    1    4    4  501    0  0.20702114818E+02  0.25952095044E+02 -0.92754322415E+01  0.34721676780E+02  0.41800000000E+01 0.  1.
         -5    1    4    4    0  501 -0.93631714673E+02 -0.41798235821E+02 -0.14286715118E+03  0.17590476343E+03  0.41800000000E+01 0.  1.
</event>
<event>
11    1  0.7105277E-009  0.1510756E+03  0.7561462E-02  0.1095785E+00
         22   -1    0    0    0    0  0.00000000000E+00  0.00000000000E+00  0.41199564399E+03  0.41199564399E+03  0.00000000000E+00 0. -1.
         22   -1    0    0    0    0 -0.00000000000E+00 -0.00000000000E+00 -0.39093113362E+03  0.39093113362E+03  0.00000000000E+00 0. -1.
        -24    2    1    2    0    0  0.40361282979E+01  0.80458227355E+02 -0.26716232405E+03  0.29041860736E+03  0.80482565992E+02 0.  0.
         25    2    1    2    0    0 -0.54558579616E+02 -0.10546847211E+03 -0.34045579153E+02  0.17579973772E+03  0.12508480764E+03 0.  0.
         24    2    1    2    0    0  0.50522451318E+02  0.25010244760E+02  0.32227241358E+03  0.33670843253E+03  0.79592898866E+02 0.  0.
        -13    1    5    5    0    0  0.15528380895E+02  0.10056130850E+02  0.80259832461E+01  0.20166129722E+02  0.00000000000E+00 0.  1.
         14    1    5    5    0    0  0.34994070423E+02  0.14954113910E+02  0.31424643033E+03  0.31654230281E+03  0.00000000000E+00 0. -1.
         13    1    3    3    0    0 -0.22568588700E+02  0.82604799305E+02 -0.18134919241E+03  0.20055030205E+03  0.00000000000E+00 0. -1.
        -14    1    3    3    0    0  0.26604716998E+02 -0.21465719507E+01 -0.85813131638E+02  0.89868305310E+02  0.00000000000E+00 0.  1.
          5    1    4    4  501    0 -0.14187096456E+02 -0.92107569060E+01 -0.64640007710E+02  0.66947104085E+02  0.41800000000E+01 0. -1.
         -5    1    4    4    0  501 -0.40371483160E+02 -0.96257715209E+02  0.30594428557E+02  0.10885263363E+03  0.41800000000E+01 0. -1.
</event>
<event>
11    1  0.7105277E-009  0.1317916E+03  0.7561462E-02  0.1117087E+00
         22   -1    0    0    0    0  0.00000000000E+00  0.00000000000E+00  0.11878021574E+04  0.11878021574E+04  0.00000000000E+00 0.  1.
         22   -1    0    0    0    0 -0.00000000000E+00 -0.00000000000E+00 -0.75337062406E+03  0.75337062406E+03  0.00000000000E+00 0.  1.
        -24    2    1    2    0    0 -0.25003344426E+02 -0.23172672201E+01 -0.65868446818E+03  0.66373048298E+03  0.77732801669E+02 0.  0.
         25    2    1    2    0    0 -0.87380985461E+01 -0.22914722272E+02 -0.44008491251E+02  0.13485187318E+03  0.12508733563E+03 0.  0.
         24    2    1    2    0    0  0.33741442972E+02  0.25231989492E+02  0.11371244928E+04  0.11425904253E+04  0.10337131937E+03 0.  0.
        -13    1    5    5    0    0  0.27738311908E+01  0.17402482968E+02  0.10438401785E+04  0.10439889170E+04  0.00000000000E+00 0.  1.
         14    1    5    5    0    0  0.30967611782E+02  0.78295065241E+01  0.93284314239E+02  0.98601508279E+02  0.00000000000E+00 0. -1.
         11    1    3    3    0    0 -0.27821557203E+02  0.17940497381E+02 -0.11522282104E+03  0.11988410645E+03  0.00000000000E+00 0. -1.
        -12    1    3    3    0    0  0.28182127765E+01 -0.20257764602E+02 -0.54346164714E+03  0.54384637653E+03  0.00000000000E+00 0.  1.
          5    1    4    4  501    0 -0.51325842411E+02  0.27599188310E+02 -0.65636521422E+01  0.58792952163E+02  0.41800000000E+01 0.  1.
         -5    1    4    4    0  501  0.42587743865E+02 -0.50513910583E+02 -0.37444839109E+02  0.76058921014E+02  0.41800000000E+01 0.  1.
</event>
<event>
11    1  0.7105277E-009  0.1470534E+03  0.7561462E-02  0.1099928E+00
         22   -1    0    0    0    0  0.00000000000E+00  0.00000000000E+00  0.65981902283E+03  0.65981902283E+03  0.00000000000E+00 0. -1.
         22   -1    0    0    0    0 -0.00000000000E+00 -0.00000000000E+00 -0.63267387117E+03  0.63267387117E+03  0.00000000000E+00 0.  1.
         24    2    1    2    0    0 -0.74714604781E+01  0.65031679958E+01 -0.54974052140E+03  0.55573491054E+03  0.80799356463E+02 0.  0.
         25    2    1    2    0    0  0.41959475016E+02  0.62874558155E+02 -0.30933796946E+01  0.14618681156E+03  0.12508879754E+03 0.  0.
        -24    2    1    2    0    0 -0.34488014538E+02 -0.69377726151E+02  0.57997905276E+03  0.59057117189E+03  0.79974467182E+02 0.  0.
        -13    1    3    3    0    0 -0.32004833000E+02  0.30644760971E+02 -0.37728566905E+03  0.37987877906E+03  0.00000000000E+00 0.  1.
         14    1    3    3    0    0  0.24533372522E+02 -0.24141592975E+02 -0.17245485235E+03  0.17585613147E+03  0.00000000000E+00 0. -1.
         13    1    5    5    0    0 -0.82837844019E+01 -0.62521256659E+02  0.20185144533E+03  0.21147466657E+03  0.00000000000E+00 0. -1.
        -14    1    5    5    0    0 -0.26204230136E+02 -0.68564694926E+01  0.37812760743E+03  0.37909650533E+03  0.00000000000E+00 0.  1.
          5    1    4    4  501    0  0.38226223437E+02  0.86526432245E+02 -0.39348954002E+02  0.10253721381E+03  0.41800000000E+01 0. -1.
         -5    1    4    4    0  501  0.37332515799E+01 -0.23651874089E+02  0.36255574308E+02  0.43649597749E+02  0.41800000000E+01 0. -1.
</event>
<event>
11    1  0.7105277E-009  0.1490987E+03  0.7561462E-02  0.1097803E+00
         22   -1    0    0    0    0  0.00000000000E+00  0.00000000000E+00  0.19713375316E+04  0.19713375316E+04  0.00000000000E+00 0. -1.
         22   -1    0    0    0    0 -0.00000000000E+00 -0.00000000000E+00 -0.13385448261E+03  0.13385448261E+03  0.00000000000E+00 0. -1.
         24    2    1    2    0    0 -0.49347373905E+02  0.13177252540E+02 -0.37146592214E+02  0.10254620376E+03  0.80790168323E+02 0.  0.
         25    2    1    2    0    0  0.10272832487E+03 -0.72701735665E+02  0.64232944154E+02  0.18870927490E+03  0.12508664285E+03 0.  0.
        -24    2    1    2    0    0 -0.53380950967E+02  0.59524483125E+02  0.18103966970E+04  0.18139365355E+04  0.80230070901E+02 0.  0.
        -11    1    3    3    0    0 -0.25694596972E+02 -0.15754360698E+02  0.18611754416E+02  0.35423291730E+02  0.00000000000E+00 0.  1.
         12    1    3    3    0    0 -0.23652776933E+02  0.28931613238E+02 -0.55758346630E+02  0.67122912035E+02  0.00000000000E+00 0. -1.
         13    1    5    5    0    0 -0.25186123852E+02  0.39641597113E+02  0.16031506818E+04  0.16038384911E+04  0.00000000000E+00 0. -1.
        -14    1    5    5    0    0 -0.28194827115E+02  0.19882886011E+02  0.20724601524E+03  0.21009804441E+03  0.00000000000E+00 0.  1.
          5    1    4    4  501    0  0.80706207838E+02  0.71264672681E+01  0.67782720421E+02  0.10571777574E+03  0.41800000000E+01 0.  1.
         -5    1    4    4    0  501  0.22022117034E+02 -0.79828202933E+02 -0.35497762666E+01  0.82991499165E+02  0.41800000000E+01 0.  1.
</event>
<event>
11    1  0.7105277E-009  0.1870351E+03  0.7561462E-02  0.1064090E+00
         22   -1    0    0    0    0  0.00000000000E+00  0.00000000000E+00  0.69137870200E+03  0.69137870200E+03  0.00000000000E+00 0. -1.
         22   -1    0    0    0    0 -0.00000000000E+00 -0.00000000000E+00 -0.11675197454E+04  0.11675197454E+04  0.00000000000E+00 0. -1.
         24    2    1    2    0    0 -0.87180511506E+01 -0.10206489297E+03 -0.10797244156E+04  0.10883711915E+04  0.90850372238E+02 0.  0.
         25    2    1    2    0    0  0.14607478977E+03  0.99831346661E+02  0.90960163189E+02  0.23499914662E+03  0.12508679244E+03 0.  0.
        -24    2    1    2    0    0 -0.13735673861E+03  0.22335463110E+01  0.51262320905E+03  0.53552810921E+03  0.71665465399E+02 0.  0.
        -13    1    3    3    0    0  0.27460671983E+02 -0.64923924211E+02 -0.36347828671E+03  0.37025081951E+03  0.00000000000E+00 0.  1.
         14    1    3    3    0    0 -0.36178723134E+02 -0.37140968761E+02 -0.71624612888E+03  0.71812037202E+03  0.00000000000E+00 0. -1.
         13    1    5    5    0    0 -0.91796114600E+02  0.35578245230E+02  0.32022800714E+03  0.33501987217E+03  0.00000000000E+00 0. -1.
        -14    1    5    5    0    0 -0.45560624015E+02 -0.33344698919E+02  0.19239520190E+03  0.20050823704E+03  0.00000000000E+00 0.  1.
          5    1    4    4  501    0  0.16719888222E+03  0.10050669246E+03  0.82594650829E+02  0.21188773015E+03  0.41800000000E+01 0. -1.
         -5    1    4    4    0  501 -0.21124092452E+02 -0.67534580229E+00  0.83655123602E+01  0.23111416463E+02  0.41800000000E+01 0. -1.
</event>
<event>
11    1  0.7105277E-009  0.1461304E+03  0.7561462E-02  0.1100900E+00
         22   -1    0    0    0    0  0.00000000000E+00  0.00000000000E+00  0.56090633952E+03  0.56090633952E+03  0.00000000000E+00 0.  1.
         22   -1    0    0    0    0 -0.00000000000E+00 -0.00000000000E+00 -0.90596439542E+03  0.90596439542E+03  0.00000000000E+00 0.  1.
         24    2    1    2    0    0  0.11514431462E+02  0.73694674275E+02 -0.84860431557E+03  0.85568238142E+03  0.80619887854E+02 0.  0.
         25    2    1    2    0    0 -0.21291500958E+02 -0.11365198266E+03  0.10016276616E+03  0.19761177131E+03  0.12509089200E+03 0.  0.
        -24    2    1    2    0    0  0.97770694958E+01  0.39957308388E+02  0.40338349352E+03  0.41357658221E+03  0.81456546272E+02 0.  0.
        -11    1    3    3    0    0 -0.51803865966E+01  0.76925448101E+02 -0.80787767854E+03  0.81154833772E+03  0.00000000000E+00 0.  1.
         12    1    3    3    0    0  0.16694818058E+02 -0.32307738262E+01 -0.40726637031E+02  0.44134043701E+02  0.00000000000E+00 0. -1.
         11    1    5    5    0    0  0.14288675810E+02  0.28862454702E+02  0.46906240900E+02  0.56898180843E+02  0.00000000000E+00 0. -1.
        -12    1    5    5    0    0 -0.45116063140E+01  0.11094853686E+02  0.35647725262E+03  0.35667840137E+03  0.00000000000E+00 0.  1.
          5    1    4    4  501    0 -0.27294351468E+02 -0.24317812946E+02 -0.24401705916E+02  0.44150348812E+02  0.41800000000E+01 0. -1.
         -5    1    4    4    0  501  0.60028505109E+01 -0.89334169717E+02  0.12456447207E+03  0.15346142250E+03  0.41800000000E+01 0. -1.
</event>
<event>
11    1  0.7105277E-009  0.1533898E+03  0.7561462E-02  0.1093465E+00
         22   -1    0    0    0    0  0.00000000000E+00  0.00000000000E+00  0.70849067803E+03  0.70849067803E+03  0.00000000000E+00 0. -1.
         22   -1    0    0    0    0 -0.00000000000E+00 -0.00000000000E+00 -0.13496598705E+04  0.13496598705E+04  0.00000000000E+00 0.  1.
        -24    2    1    2    0    0 -0.66074819221E+02 -0.58783026666E+02 -0.12809222313E+04  0.12863985623E+04  0.78982101873E+02 0.  0.
         25    2    1    2    0    0  0.79775576871E+02  0.62809657085E+02  0.39512982011E+02  0.16588589288E+03  0.12509059925E+03 0.  0.
         24    2    1    2    0    0 -0.13700757650E+02 -0.40266304195E+01  0.60024005677E+03  0.60586609344E+03  0.81127510220E+02 0.  0.
        -13    1    5    5    0    0  0.26903493533E+02  0.12806982576E+01  0.88938855695E+02  0.92927704182E+02  0.00000000000E+00 0.  1.
         14    1    5    5    0    0 -0.40604251183E+02 -0.53073286771E+01  0.51130120108E+03  0.51293838926E+03  0.00000000000E+00 0. -1.
         13    1    3    3    0    0 -0.25793033970E+02 -0.57311419828E+02 -0.43501446581E+03  0.43953096012E+03  0.00000000000E+00 0. -1.
        -14    1    3    3    0    0 -0.40281785251E+02 -0.14716068378E+01 -0.84590776548E+03  0.84686760214E+03  0.00000000000E+00 0.  1.
          5    1    4    4  501    0  0.39270505096E+02  0.42541461009E+02  0.84103009461E+02  0.10218971120E+03  0.41800000000E+01 0.  1.
         -5    1    4    4    0  501  0.40505071774E+02  0.20268196076E+02 -0.44590027451E+02  0.63696181673E+02  0.41800000000E+01 0.  1.
</event>
<event>
11    1  0.7105277E-009  0.1584767E+03  0.7561462E-02  0.1088519E+00
         22   -1    0    0    0    0  0.00000000000E+00  0.00000000000E+00  0.64896973610E+03  0.64896973610E+03  0.00000000000E+00 0. -1.
         22   -1    0    0    0    0 -0.00000000000E+00 -0.00000000000E+00 -0.21513189523E+03  0.21513189523E+03  0.00000000000E+00 0. -1.
         24    2    1    2    0    0  0.55522716882E+02  0.85103336745E+02 -0.90186438995E+02  0.15831948952E+03  0.81278022671E+02 0.  0.
         25    2    1    2    0    0 -0.13218489290E+03 -0.24538750034E+02  0.19424500382E+02  0.18466157632E+03  0.12509032892E+03 0.  0.
        -24    2    1    2    0    0  0.76662176018E+02 -0.60564586711E+02  0.50459977948E+03  0.52112056548E+03  0.86026437311E+02 0.  0.
        -11    1    3    3    0    0 -0.16385681316E+02  0.88735068774E+01  0.20092245945E+01  0.18742109272E+02  0.00000000000E+00 0.  1.
         12    1    3    3    0    0  0.71908398198E+02  0.76229829868E+02 -0.92195663590E+02  0.13957738025E+03  0.00000000000E+00 0. -1.
         11    1    5    5    0    0  0.90241893474E+02 -0.31929776497E+02  0.42023929893E+03  0.43100368715E+03  0.00000000000E+00 0. -1.
        -12    1    5    5    0    0 -0.13579717456E+02 -0.28634810214E+02  0.84360480550E+02  0.90116878335E+02  0.00000000000E+00 0.  1.
          5    1    4    4  501    0 -0.40176856863E+02 -0.66049521546E+02  0.30113732348E+02  0.83072428637E+02  0.41800000000E+01 0.  1.
         -5    1    4    4    0  501 -0.92008036037E+02  0.41510771511E+02 -0.10689231966E+02  0.10158914768E+03  0.41800000000E+01 0.  1.
</event>
<event>
11    1  0.7105277E-009  0.2154576E+03  0.7561462E-02  0.1044101E+00
         22   -1    0    0    0    0  0.00000000000E+00  0.00000000000E+00  0.17093050659E+04  0.17093050659E+04  0.00000000000E+00 0. -1.
         22   -1    0    0    0    0 -0.00000000000E+00 -0.00000000000E+00 -0.74753357272E+02  0.74753357272E+02  0.00000000000E+00 0. -1.
         24    2    1    2    0    0  0.15692787475E+03 -0.78050686467E+02  0.13648778019E+03  0.23665170254E+03  0.81589500830E+02 0.  0.
         25    2    1    2    0    0 -0.17606630842E+03  0.37556479994E+02  0.50326340817E+03  0.54893756685E+03  0.12509420505E+03 0.  0.
        -24    2    1    2    0    0  0.19138433671E+02  0.40494206472E+02  0.99480052025E+03  0.99846915377E+03  0.72845833988E+02 0.  0.
        -13    1    3    3    0    0  0.34622599006E+02 -0.40749759681E+02  0.81470315543E+02  0.97450908619E+02  0.00000000000E+00 0.  1.
         14    1    3    3    0    0  0.12230527574E+03 -0.37300926786E+02  0.55017464644E+02  0.13920079392E+03  0.00000000000E+00 0. -1.
         11    1    5    5    0    0  0.40443650666E+02  0.39118209399E+02  0.87302389090E+03  0.87483520577E+03  0.00000000000E+00 0. -1.
        -12    1    5    5    0    0 -0.21305216995E+02  0.13759970737E+01  0.12177662936E+03  0.12363394800E+03  0.00000000000E+00 0.  1.
          5    1    4    4  501    0  0.55098934016E+01  0.36076842003E+02  0.10417141847E+03  0.11045838257E+03  0.41800000000E+01 0. -1.
         -5    1    4    4    0  501 -0.18157620182E+03  0.14796379912E+01  0.39909198971E+03  0.43847918428E+03  0.41800000000E+01 0. -1.
</event>
<event>
11    1  0.7105277E-009  0.1723548E+03  0.7561462E-02  0.1076000E+00
         22   -1    0    0    0    0  0.00000000000E+00  0.00000000000E+00  0.64688989042E+03  0.64688989042E+03  0.00000000000E+00 0.  1.
         22   -1    0    0    0    0 -0.00000000000E+00 -0.00000000000E+00 -0.77648927609E+03  0.77648927609E+03  0.00000000000E+00 0.  1.
        -24    2    1    2    0    0  0.68074718827E+02 -0.98083718999E+02 -0.71437494409E+03  0.72869453855E+03  0.80059893158E+02 0.  0.
         25    2    1    2    0    0 -0.11241249036E+03  0.43709961756E+02  0.10444509790E+03  0.20274108486E+03  0.12509212712E+03 0.  0.
         24    2    1    2    0    0  0.44337771533E+02  0.54373757243E+02  0.48033046053E+03  0.49194354310E+03  0.79804478713E+02 0.  0.
        -13    1    5    5    0    0  0.23445481328E+02  0.66716003964E+02  0.43319273631E+03  0.43892671663E+03  0.00000000000E+00 0.  1.
         14    1    5    5    0    0  0.20892290206E+02 -0.12342246721E+02  0.47137724213E+02  0.53016826463E+02  0.00000000000E+00 0. -1.
         11    1    3    3    0    0  0.24703814800E+01  0.21311576037E+00  0.16526988594E+01  0.29798685380E+01  0.00000000000E+00 0. -1.
        -12    1    3    3    0    0  0.65604337347E+02 -0.98296834759E+02 -0.71602764295E+03  0.72571467001E+03  0.00000000000E+00 0.  1.
          5    1    4    4  501    0 -0.84846697573E+02 -0.32124423859E+02  0.39328914234E+02  0.98970584479E+02  0.41800000000E+01 0.  1.
         -5    1    4    4    0  501 -0.27565792787E+02  0.75834385615E+02  0.65116183665E+02  0.10377050038E+03  0.41800000000E+01 0.  1.
</event>
<event>
11    1  0.7105277E-009  0.1398208E+03  0.7561462E-02  0.1107759E+00
         22   -1    0    0    0    0  0.00000000000E+00  0.00000000000E+00  0.20966549389E+03  0.20966549389E+03  0.00000000000E+00 0. -1.
         22   -1    0    0    0    0 -0.00000000000E+00 -0.00000000000E+00 -0.33406180009E+04  0.33406180009E+04  0.00000000000E+00 0. -1.
        -24    2    1    2    0    0 -0.13599978106E+02 -0.60024307611E+02 -0.30053182056E+04  0.30074102306E+04  0.93759805061E+02 0.  0.
         25    2    1    2    0    0  0.74632523187E+01  0.77166333973E+02 -0.30955814371E+03  0.34276131080E+03  0.12509487845E+03 0.  0.
         24    2    1    2    0    0  0.61367257872E+01 -0.17142026363E+02  0.18392384236E+03  0.20011195337E+03  0.76715745597E+02 0.  0.
        -11    1    5    5    0    0  0.98107708975E+01 -0.15984163145E+02  0.28182791733E+01  0.18965426295E+02  0.00000000000E+00 0.  1.
         12    1    5    5    0    0 -0.36740451103E+01 -0.11578632172E+01  0.18110556318E+03  0.18114652707E+03  0.00000000000E+00 0. -1.
         11    1    3    3    0    0 -0.50952574490E+02 -0.44497697220E+02 -0.14650724356E+04  0.14666333732E+04  0.00000000000E+00 0. -1.
        -12    1    3    3    0    0  0.37352596384E+02 -0.15526610390E+02 -0.15402457701E+04  0.15407768574E+04  0.00000000000E+00 0.  1.
          5    1    4    4  501    0  0.19474886367E+02  0.25804482473E+02 -0.28051285183E+03  0.28240055764E+03  0.41800000000E+01 0.  1.
         -5    1    4    4    0  501 -0.12011634048E+02  0.51361851500E+02 -0.29045291874E+02  0.60360753160E+02  0.41800000000E+01 0.  1.
</event>
<event>
11    1  0.7105277E-009  0.1446035E+03  0.7561462E-02  0.1102524E+00
         22   -1    0    0    0    0  0.00000000000E+00  0.00000000000E+00  0.65860807016E+03  0.65860807016E+03  0.00000000000E+00 0. -1.
         22   -1    0    0    0    0 -0.00000000000E+00 -0.00000000000E+00 -0.10419234953E+03  0.10419234953E+03  0.00000000000E+00 0.  1.
        -24    2    1    2    0    0 -0.83928454559E+01 -0.18090480394E+02 -0.21148163444E+02  0.85636334870E+02  0.80552043408E+02 0.  0.
         25    2    1    2    0    0 -0.47413673523E+02  0.63494922763E+02  0.77023787676E+02  0.16691281780E+03  0.12509022033E+03 0.  0.
         24    2    1    2    0    0  0.55806518979E+02 -0.45404442369E+02  0.49854009640E+03  0.51025126703E+03  0.81475130227E+02 0.  0.
        -13    1    5    5    0    0 -0.21716723581E+01  0.20654239269E+02  0.10020326827E+03  0.10233283311E+03  0.00000000000E+00 0.  1.
         14    1    5    5    0    0  0.57978191337E+02 -0.66058681638E+02  0.39833682813E+03  0.40791843392E+03  0.00000000000E+00 0. -1.
         13    1    3    3    0    0  0.13414344821E+02  0.28373895802E+02 -0.46813915800E+01  0.31732286982E+02  0.00000000000E+00 0. -1.
        -14    1    3    3    0    0 -0.21807190277E+02 -0.46464376196E+02 -0.16466771864E+02  0.53904047888E+02  0.00000000000E+00 0.  1.
          5    1    4    4  501    0  0.11147019609E+02  0.77962786997E+01  0.84454899659E+02  0.85645434695E+02  0.41800000000E+01 0.  1.
         -5    1    4    4    0  501 -0.58560693133E+02  0.55698644063E+02 -0.74311119826E+01  0.81267383100E+02  0.41800000000E+01 0.  1.
</event>
<event>
11    1  0.7105277E-009  0.1501548E+03  0.7561462E-02  0.1096721E+00
         22   -1    0    0    0    0  0.00000000000E+00  0.00000000000E+00  0.56583542639E+03  0.56583542639E+03  0.00000000000E+00 0. -1.
         22   -1    0    0    0    0 -0.00000000000E+00 -0.00000000000E+00 -0.27147083501E+03  0.27147083501E+03  0.00000000000E+00 0.  1.
         24    2    1    2    0    0  0.64128368382E+02  0.23128174881E+01 -0.13901278568E+03  0.17291704364E+03  0.80361387760E+02 0.  0.
         25    2    1    2    0    0 -0.28164636195E+02 -0.78719866691E+02 -0.56791044704E+02  0.16082134063E+03  0.12509283233E+03 0.  0.
        -24    2    1    2    0    0 -0.35963732187E+02  0.76407049203E+02  0.49016842177E+03  0.50356787713E+03  0.78639035949E+02 0.  0.
        -11    1    3    3    0    0  0.44122890265E+01 -0.21611724465E+02 -0.88265892667E+02  0.90980232672E+02  0.00000000000E+00 0.  1.
         12    1    3    3    0    0  0.59716079356E+02  0.23924541953E+02 -0.50746893017E+02  0.81936810971E+02  0.00000000000E+00 0. -1.
         11    1    5    5    0    0 -0.16367061587E+02  0.33368395938E+02  0.40025305531E+03  0.40197492315E+03  0.00000000000E+00 0. -1.
        -12    1    5    5    0    0 -0.19596670600E+02  0.43038653264E+02  0.89915366455E+02  0.10159295398E+03  0.00000000000E+00 0.  1.
          5    1    4    4  501    0  0.82726128696E+01 -0.65353456978E+02  0.24688595490E+02  0.70473467419E+02  0.41800000000E+01 0. -1.
         -5    1    4    4    0  501 -0.36437249065E+02 -0.13366409712E+02 -0.81479640194E+02  0.90347873214E+02  0.41800000000E+01 0. -1.
</event>
<event>
11    1  0.7105277E-009  0.3170957E+03  0.7561462E-02  0.9932047E-01
         22   -1    0    0    0    0  0.00000000000E+00  0.00000000000E+00  0.73343873724E+03  0.73343873724E+03  0.00000000000E+00 0.  1.
         22   -1    0    0    0    0 -0.00000000000E+00 -0.00000000000E+00 -0.29681631989E+03  0.29681631989E+03  0.00000000000E+00 0.  1.
         24    2    1    2    0    0  0.18949720084E+03 -0.21096883188E+03 -0.85298995701E+02  0.30640677184E+03  0.78690240900E+02 0.  0.
         25    2    1    2    0    0 -0.25974491671E+03  0.18854947107E+03  0.25905032166E+03  0.43101370928E+03  0.12508966241E+03 0.  0.
        -24    2    1    2    0    0  0.70247715870E+02  0.22419360811E+02  0.26287109139E+03  0.29283457600E+03  0.10589385671E+03 0.  0.
        -13    1    3    3    0    0  0.19070727301E+03 -0.18840763591E+03 -0.91002280598E+02  0.28310442653E+03  0.00000000000E+00 0.  1.
         14    1    3    3    0    0 -0.12100721725E+01 -0.22561195972E+02  0.57032848976E+01  0.23302345311E+02  0.00000000000E+00 0. -1.
         13    1    5    5    0    0 -0.51976130622E+01  0.16844479452E+02 -0.16529081738E+01  0.17705473023E+02  0.00000000000E+00 0. -1.
        -14    1    5    5    0    0  0.75445328932E+02  0.55748813596E+01  0.26452399957E+03  0.27512910298E+03  0.00000000000E+00 0.  1.
          5    1    4    4  501    0 -0.15994479275E+03  0.56906320619E+02  0.18122183262E+03  0.24835356062E+03  0.41800000000E+01 0. -1.
         -5    1    4    4    0  501 -0.99800123955E+02  0.13164315045E+03  0.77828489033E+02  0.18266014866E+03  0.41800000000E+01 0. -1.
</event>
<event>
11    1  0.7105277E-009  0.1717786E+03  0.7561462E-02  0.1076494E+00
         22   -1    0    0    0    0  0.00000000000E+00  0.00000000000E+00  0.84205404959E+02  0.84205404959E+02  0.00000000000E+00 0. -1.
         22   -1    0    0    0    0 -0.00000000000E+00 -0.00000000000E+00 -0.16002149316E+04  0.16002149316E+04  0.00000000000E+00 0. -1.
        -24    2    1    2    0    0  0.19242592146E+02 -0.10750760135E+03 -0.10976415493E+04  0.11058565566E+04  0.78572203924E+02 0.  0.
         25    2    1    2    0    0 -0.46053526875E+02  0.16229872673E+03 -0.42977255690E+03  0.47834572380E+03  0.12509347217E+03 0.  0.
         24    2    1    2    0    0  0.26810934729E+02 -0.54791125377E+02  0.11404579610E+02  0.10021805615E+03  0.78693714497E+02 0.  0.
        -11    1    5    5    0    0  0.18352032513E+02 -0.23603898232E+02 -0.33495629556E+02  0.44898756202E+02  0.00000000000E+00 0.  1.
         12    1    5    5    0    0  0.84589022157E+01 -0.31187227145E+02  0.44900209166E+02  0.55319299949E+02  0.00000000000E+00 0. -1.
         11    1    3    3    0    0  0.20386036804E+02 -0.11241811018E+03 -0.79447494664E+03  0.80264803172E+03  0.00000000000E+00 0. -1.
        -12    1    3    3    0    0 -0.11434446574E+01  0.49105088246E+01 -0.30316660271E+03  0.30320852488E+03  0.00000000000E+00 0.  1.
          5    1    4    4  501    0  0.30813885583E+02  0.14925465388E+02 -0.31305516942E+02  0.46580820654E+02  0.41800000000E+01 0.  1.
         -5    1    4    4    0  501 -0.76867412458E+02  0.14737326134E+03 -0.39846703996E+03  0.43176490315E+03  0.41800000000E+01 0.  1.
</event>
<event>
11    1  0.7105277E-009  0.1580144E+03  0.7561462E-02  0.1088960E+00
         22   -1    0    0    0    0  0.00000000000E+00  0.00000000000E+00  0.21214998878E+04  0.21214998878E+04  0.00000000000E+00 0. -1.
         22   -1    0    0    0    0 -0.00000000000E+00 -0.00000000000E+00 -0.11845234003E+03  0.11845234003E+03  0.00000000000E+00 0.  1.
         24    2    1    2    0    0 -0.10784199977E+02  0.94181248041E+02 -0.69864265040E+02  0.14196432044E+03  0.79287113063E+02 0.  0.
         25    2    1    2    0    0  0.67471864841E+02 -0.15591067654E+03  0.13553411335E+04  0.13716620056E+04  0.12508588224E+03 0.  0.
        -24    2    1    2    0    0 -0.56687664865E+02  0.61729428501E+02  0.71757067935E+03  0.72632590179E+03  0.74950797599E+02 0.  0.
        -11    1    3    3    0    0 -0.59582284146E+01  0.64653011705E+02 -0.86167799141E+02  0.10789069477E+03  0.00000000000E+00 0.  1.
         12    1    3    3    0    0 -0.48259715620E+01  0.29528236336E+02  0.16303534101E+02  0.34073625677E+02  0.00000000000E+00 0. -1.
         13    1    5    5    0    0 -0.11792802334E+02  0.66196526422E+02  0.44273397429E+03  0.44781069917E+03  0.00000000000E+00 0. -1.
        -14    1    5    5    0    0 -0.44894862531E+02 -0.44670979218E+01  0.27483670505E+03  0.27851520262E+03  0.00000000000E+00 0.  1.
          5    1    4    4  501    0 -0.16729326967E+02 -0.94859160710E+02  0.44106531931E+03  0.45148003173E+03  0.41800000000E+01 0.  1.
         -5    1    4    4    0  501  0.84201191808E+02 -0.61051515832E+02  0.91427581415E+03  0.92018197387E+03  0.41800000000E+01 0.  1.
</event>
<event>
11    1  0.7105277E-009  0.1450745E+03  0.7561462E-02  0.1102021E+00
         22   -1    0    0    0    0  0.00000000000E+00  0.00000000000E+00  0.26938959535E+03  0.26938959535E+03  0.00000000000E+00 0. -1.
         22   -1    0    0    0    0 -0.00000000000E+00 -0.00000000000E+00 -0.32466715987E+03  0.32466715987E+03  0.00000000000E+00 0. -1.
        -24    2    1    2    0    0 -0.51342971819E+02  0.48224686833E+02 -0.23662398383E+03  0.25996410055E+03  0.81416845144E+02 0.  0.
         25    2    1    2    0    0 -0.38104841697E+02 -0.39425772240E+02  0.37165111805E+02  0.14154667513E+03  0.12509134753E+03 0.  0.
         24    2    1    2    0    0  0.89447813516E+02 -0.87989145927E+01  0.14418130751E+03  0.19254597954E+03  0.90594550409E+02 0.  0.
        -13    1    5    5    0    0 -0.17962542146E+02  0.16646837096E+01  0.32954850144E+02  0.37569219319E+02  0.00000000000E+00 0.  1.
         14    1    5    5    0    0  0.10741035566E+03 -0.10463598302E+02  0.11122645736E+03  0.15497676023E+03  0.00000000000E+00 0. -1.
         13    1    3    3    0    0 -0.18237990123E+02 -0.55626051816E+01 -0.15784793229E+03  0.15899539801E+03  0.00000000000E+00 0. -1.
        -14    1    3    3    0    0 -0.33104981696E+02  0.53787292015E+02 -0.78776051541E+02  0.10096870254E+03  0.00000000000E+00 0.  1.
          5    1    4    4  501    0 -0.79093824572E+02 -0.30433846638E+02  0.48691653352E+02  0.97828429471E+02  0.41800000000E+01 0.  1.
         -5    1    4    4    0  501  0.40988982875E+02 -0.89919256024E+01 -0.11526541547E+02  0.43718245656E+02  0.41800000000E+01 0.  1.
</event>
<event>
11    1  0.7105277E-009  0.1637762E+03  0.7561462E-02  0.1083578E+00
         22   -1    0    0    0    0  0.00000000000E+00  0.00000000000E+00  0.26073191237E+03  0.26073191237E+03  0.00000000000E+00 0.  1.
         22   -1    0    0    0    0 -0.00000000000E+00 -0.00000000000E+00 -0.51544608248E+03  0.51544608248E+03  0.00000000000E+00 0. -1.
         24    2    1    2    0    0 -0.82031760076E+02 -0.68691675231E+02 -0.44442122475E+03  0.46414631783E+03  0.80460073526E+02 0.  0.
         25    2    1    2    0    0  0.71318985315E+02  0.55008980000E+02  0.72005636173E+02  0.17013042415E+03  0.12508862472E+03 0.  0.
        -24    2    1    2    0    0  0.10712774761E+02  0.13682695231E+02  0.11770141848E+03  0.14190125287E+03  0.77332800039E+02 0.  0.
        -11    1    3    3    0    0 -0.95106562550E+02 -0.59037719563E+02 -0.32753697979E+03  0.34613752137E+03  0.00000000000E+00 0.  1.
         12    1    3    3    0    0  0.13074802473E+02 -0.96539556687E+01 -0.11688424496E+03  0.11800879645E+03  0.00000000000E+00 0. -1.
         11    1    5    5    0    0  0.30185252557E+02  0.94506395413E+01  0.11204405336E+02  0.33555964576E+02  0.00000000000E+00 0. -1.
        -12    1    5    5    0    0 -0.19472477796E+02  0.42320556898E+01  0.10649701314E+03  0.10834528829E+03  0.00000000000E+00 0.  1.
          5    1    4    4  501    0  0.62656379261E+02 -0.79088752150E+01  0.84188755952E+02  0.10532611831E+03  0.41800000000E+01 0. -1.
         -5    1    4    4    0  501  0.86626060545E+01  0.62917855215E+02 -0.12183119779E+02  0.64804305845E+02  0.41800000000E+01 0. -1.
</event>
<event>
11    1  0.7105277E-009  0.1322778E+03  0.7561462E-02  0.1116502E+00
         22   -1    0    0    0    0  0.00000000000E+00  0.00000000000E+00  0.89323879860E+02  0.89323879860E+02  0.00000000000E+00 0. -1.
         22   -1    0    0    0    0 -0.00000000000E+00 -0.00000000000E+00 -0.12752376224E+04  0.12752376224E+04  0.00000000000E+00 0.  1.
         24    2    1    2    0    0  0.11210949014E+02 -0.43991401393E+02 -0.91551900470E+03  0.92015801644E+03  0.80341760515E+02 0.  0.
         25    2    1    2    0    0  0.10762344960E+02  0.33083421587E+02 -0.32190808261E+03  0.34710648531E+03  0.12509099745E+03 0.  0.
        -24    2    1    2    0    0 -0.21973293974E+02  0.10907979806E+02  0.51513344758E+02  0.97297000517E+02  0.78811623191E+02 0.  0.
        -13    1    3    3    0    0  0.18968748970E+02 -0.18677848797E+02 -0.83446563423E+03  0.83489015457E+03  0.00000000000E+00 0.  1.
         14    1    3    3    0    0 -0.77577999560E+01 -0.25313552595E+02 -0.81053370463E+02  0.85267861874E+02  0.00000000000E+00 0. -1.
         11    1    5    5    0    0 -0.18304671023E+02  0.32673273588E+02  0.62330522607E+02  0.72716558202E+02  0.00000000000E+00 0. -1.
        -12    1    5    5    0    0 -0.36686229512E+01 -0.21765293782E+02 -0.10817177850E+02  0.24580442315E+02  0.00000000000E+00 0.  1.
          5    1    4    4  501    0  0.61054065567E+02  0.18852950055E+02 -0.25025625014E+03  0.25831898069E+03  0.41800000000E+01 0. -1.
         -5    1    4    4    0  501 -0.50291720607E+02  0.14230471532E+02 -0.71651832470E+02  0.88787504627E+02  0.41800000000E+01 0. -1.
</event>
<event>
11    1  0.7105277E-009  0.1318012E+03  0.7561462E-02  0.1117075E+00
         22   -1    0    0    0    0  0.00000000000E+00  0.00000000000E+00  0.21907239587E+03  0.21907239587E+03  0.00000000000E+00 0. -1.
         22   -1    0    0    0    0 -0.00000000000E+00 -0.00000000000E+00 -0.58054552158E+03  0.58054552158E+03  0.00000000000E+00 0. -1.
         24    2    1    2    0    0 -0.37174501855E+02 -0.66428138598E+01 -0.49220601403E+03  0.49996690931E+03  0.79209087804E+02 0.  0.
         25    2    1    2    0    0  0.55575694067E+01 -0.27116306193E+02 -0.13050464978E+02  0.12876772575E+03  0.12507850303E+03 0.  0.
        -24    2    1    2    0    0  0.31616932449E+02  0.33759120053E+02  0.14378335330E+03  0.17088328239E+03  0.79925808781E+02 0.  0.
        -11    1    3    3    0    0 -0.37046029010E+02 -0.32971257834E+02 -0.42341609221E+03  0.42631056666E+03  0.00000000000E+00 0.  1.
         12    1    3    3    0    0 -0.12847284581E+00  0.26328443974E+02 -0.68789921829E+02  0.73656342650E+02  0.00000000000E+00 0. -1.
         11    1    5    5    0    0  0.14569272082E+02  0.13172737388E+02  0.14279168595E+03  0.14413622125E+03  0.00000000000E+00 0. -1.
        -12    1    5    5    0    0  0.17047660367E+02  0.20586382665E+02  0.99166734468E+00  0.26747061135E+02  0.00000000000E+00 0.  1.
          5    1    4    4  501    0  0.59845167081E+02 -0.14602503513E+02 -0.32294505515E+02  0.69678437255E+02  0.41800000000E+01 0. -1.
         -5    1    4    4    0  501 -0.54287597675E+02 -0.12513802680E+02  0.19244040537E+02  0.59089288496E+02  0.41800000000E+01 0. -1.
</event>
<event>
11    1  0.7105277E-009  0.1639257E+03  0.7561462E-02  0.1083442E+00
         22   -1    0    0    0    0  0.00000000000E+00  0.00000000000E+00  0.25424299804E+04  0.25424299804E+04  0.00000000000E+00 0.  1.
         22   -1    0    0    0    0 -0.00000000000E+00 -0.00000000000E+00 -0.11305827896E+03  0.11305827896E+03  0.00000000000E+00 0.  1.
         24    2    1    2    0    0 -0.13320453797E+02  0.76414720557E+01 -0.64610763689E+02  0.10432131931E+03  0.80452223666E+02 0.  0.
         25    2    1    2    0    0  0.11441968906E+03 -0.35643149338E+02  0.25535554448E+03  0.30857349787E+03  0.12509536422E+03 0.  0.
        -24    2    1    2    0    0 -0.10109923526E+03  0.28001677282E+02  0.22386269207E+04  0.22425934422E+04  0.82278233926E+02 0.  0.
        -11    1    3    3    0    0 -0.74056969668E+01 -0.41076094559E+00 -0.83033302961E+02  0.83363915891E+02  0.00000000000E+00 0.  1.
         12    1    3    3    0    0 -0.59147568301E+01  0.80522330013E+01  0.18422539272E+02  0.20957403415E+02  0.00000000000E+00 0. -1.
         13    1    5    5    0    0 -0.90468600816E+02  0.22760710827E+02  0.11125831881E+04  0.11164873345E+04  0.00000000000E+00 0. -1.
        -14    1    5    5    0    0 -0.10630634445E+02  0.52409664554E+01  0.11260437326E+04  0.11261061078E+04  0.00000000000E+00 0.  1.
          5    1    4    4  501    0  0.42245530490E+02  0.45272930332E+02  0.11995226785E+03  0.13505681038E+03  0.41800000000E+01 0.  1.
         -5    1    4    4    0  501  0.72174158568E+02 -0.80916079670E+02  0.13540327663E+03  0.17351668749E+03  0.41800000000E+01 0.  1.
</event>
<event>
11    1  0.7105277E-009  0.1310663E+03  0.7561462E-02  0.1117966E+00
         22   -1    0    0    0    0  0.00000000000E+00  0.00000000000E+00  0.84350692080E+02  0.84350692080E+02  0.00000000000E+00 0. -1.
         22   -1    0    0    0    0 -0.00000000000E+00 -0.00000000000E+00 -0.22904297325E+04  0.22904297325E+04  0.00000000000E+00 0. -1.
        -24    2    1    2    0    0  0.97978541496E+01 -0.27696168664E+02 -0.15350258204E+04  0.15375643042E+04  0.83286520775E+02 0.  0.
         25    2    1    2    0    0 -0.10919402983E+02 -0.12332383756E+02 -0.72326991593E+03  0.73419241199E+03  0.12509118867E+03 0.  0.
         24    2    1    2    0    0  0.11215488332E+01  0.40028552420E+02  0.52216695947E+02  0.10302370836E+03  0.79270160006E+02 0.  0.
        -13    1    5    5    0    0 -0.29379902762E+02 -0.65000797530E+01  0.59691399105E+01  0.30676707033E+02  0.00000000000E+00 0.  1.
         14    1    5    5    0    0  0.30501451595E+02  0.46528632173E+02  0.46247556036E+02  0.72347001324E+02  0.00000000000E+00 0. -1.
         13    1    3    3    0    0  0.20062795351E+02 -0.29734941484E+02 -0.15101592955E+04  0.15105852443E+04  0.00000000000E+00 0. -1.
        -14    1    3    3    0    0 -0.10264941202E+02  0.20387728198E+01 -0.24866524892E+02  0.26979059893E+02  0.00000000000E+00 0.  1.
          5    1    4    4  501    0  0.68815396179E+01 -0.66967794438E+02 -0.34120773389E+03  0.34781062541E+03  0.41800000000E+01 0. -1.
         -5    1    4    4    0  501 -0.17800942601E+02  0.54635410681E+02 -0.38206218204E+03  0.38638178658E+03  0.41800000000E+01 0. -1.
</event>
<event>
11    1  0.7901444E-009  0.1708770E+03  0.7561462E-02  0.1077271E+00
         22   -1    0    0    0    0  0.00000000000E+00  0.00000000000E+00  0.10407664912E+04  0.10407664912E+04  0.00000000000E+00 0.  1.
         22   -1    0    0    0    0 -0.00000000000E+00 -0.00000000000E+00 -0.17283533657E+03  0.17283533657E+03  0.00000000000E+00 0.  1.
        -24    2    1    2    0    0 -0.12243689555E+02  0.50172649249E+02 -0.90756094316E+02  0.13154572432E+03  0.80002539114E+02 0.  0.
         25    2    1    2    0    0  0.65758565496E+02 -0.14837052840E+03  0.13127600777E+03  0.24334996304E+03  0.12509121338E+03 0.  0.
         24    2    1    2    0    0 -0.53514875941E+02  0.98197879151E+02  0.82741124120E+03  0.83870614043E+03  0.79447860324E+02 0.  0.
        -11    1    5    5    0    0 -0.68656531164E+02  0.75470618588E+02  0.50892778299E+03  0.51905396814E+03  0.00000000000E+00 0.  1.
         12    1    5    5    0    0  0.15141655222E+02  0.22727260563E+02  0.31848345821E+03  0.31965217229E+03  0.00000000000E+00 0. -1.
         13    1    3    3    0    0  0.21048321901E+02 -0.12231971024E+02 -0.20087658510E+02  0.31562113275E+02  0.00000000000E+00 0. -1.
        -14    1    3    3    0    0 -0.33292011455E+02  0.62404620273E+02 -0.70668435807E+02  0.99983611045E+02  0.00000000000E+00 0.  1.
          5    1    4    4  501    0  0.79691603600E+01 -0.21016213477E+02 -0.24807531091E+02  0.33735363413E+02  0.41800000000E+01 0. -1.
         -5    1    4    4    0  501  0.57789405136E+02 -0.12735431492E+03  0.15608353886E+03  0.20961459963E+03  0.41800000000E+01 0. -1.
</event>
<event>
11    1  0.7105277E-009  0.1458072E+03  0.7561462E-02  0.1101242E+00
         22   -1    0    0    0    0  0.00000000000E+00  0.00000000000E+00  0.75615222613E+02  0.75615222613E+02  0.00000000000E+00 0. -1.
         22   -1    0    0    0    0 -0.00000000000E+00 -0.00000000000E+00 -0.11172851065E+04  0.11172851065E+04  0.00000000000E+00 0.  1.
         24    2    1    2    0    0 -0.11629537001E+02  0.85080823106E+01 -0.77171014684E+03  0.77612560190E+03  0.81404948250E+02 0.  0.
         25    2    1    2    0    0  0.58422685926E+02  0.49822657557E+02 -0.27127683562E+03  0.30843851970E+03  0.12509073290E+03 0.  0.
        -24    2    1    2    0    0 -0.46793148924E+02 -0.58330739867E+02  0.13170985540E+01  0.10833620752E+03  0.78376814890E+02 0.  0.
        -13    1    3    3    0    0 -0.46190286658E+02  0.71049792332E+01 -0.37258625911E+03  0.37550571739E+03  0.00000000000E+00 0.  1.
         14    1    3    3    0    0  0.34560749657E+02  0.14031030774E+01 -0.39912388772E+03  0.40061988451E+03  0.00000000000E+00 0. -1.
         11    1    5    5    0    0 -0.10776182595E+01 -0.27367488912E+02  0.34398160215E+02  0.43970150519E+02  0.00000000000E+00 0. -1.
        -12    1    5    5    0    0 -0.45715530665E+02 -0.30963250955E+02 -0.33081061661E+02  0.64366057005E+02  0.00000000000E+00 0.  1.
          5    1    4    4  501    0 -0.35491405774E+02 -0.43501079164E+01 -0.46154576291E+02  0.58534439737E+02  0.41800000000E+01 0. -1.
         -5    1    4    4    0  501  0.93914091700E+02  0.54172765473E+02 -0.22512225932E+03  0.24990407996E+03  0.41800000000E+01 0. -1.
</event>
<event>
11    1  0.7105277E-009  0.1523033E+03  0.7561462E-02  0.1094548E+00
         22   -1    0    0    0    0  0.00000000000E+00  0.00000000000E+00  0.16865543072E+03  0.16865543072E+03  0.00000000000E+00 0. -1.
         22   -1    0    0    0    0 -0.00000000000E+00 -0.00000000000E+00 -0.74838168184E+03  0.74838168184E+03  0.00000000000E+00 0.  1.
         24    2    1    2    0    0 -0.42920560059E+01  0.89608072979E+02 -0.45981796119E+03  0.47504164686E+03  0.78638287892E+02 0.  0.
         25    2    1    2    0    0  0.25985545627E+02 -0.77231989545E+02 -0.24694755370E+03  0.28856679768E+03  0.12509066173E+03 0.  0.
        -24    2    1    2    0    0 -0.21693489621E+02 -0.12376083434E+02  0.12703926377E+03  0.15342866802E+03  0.82326221212E+02 0.  0.
        -13    1    3    3    0    0  0.31217392929E+02  0.39129498203E+02 -0.29147562068E+03  0.29574259196E+03  0.00000000000E+00 0.  1.
         14    1    3    3    0    0 -0.35509448935E+02  0.50478574776E+02 -0.16834234052E+03  0.17929905489E+03  0.00000000000E+00 0. -1.
         11    1    5    5    0    0 -0.23381085833E+01  0.34332838854E+02  0.63527494096E+02  0.72249242776E+02  0.00000000000E+00 0. -1.
        -12    1    5    5    0    0 -0.19355381037E+02 -0.46708922288E+02  0.63511769676E+02  0.81179425249E+02  0.00000000000E+00 0.  1.
          5    1    4    4  501    0  0.61697968802E+02 -0.91607724001E+02 -0.17988876601E+03  0.21113042174E+03  0.41800000000E+01 0.  1.
         -5    1    4    4    0  501 -0.35712423176E+02  0.14375734455E+02 -0.67058787697E+02  0.77436375933E+02  0.41800000000E+01 0.  1.
</event>
<event>
11    1  0.7105277E-009  0.1301008E+03  0.7561462E-02  0.1119145E+00
         22   -1    0    0    0    0  0.00000000000E+00  0.00000000000E+00  0.10504374017E+03  0.10504374017E+03  0.00000000000E+00 0. -1.
         22   -1    0    0    0    0 -0.00000000000E+00 -0.00000000000E+00 -0.84530052481E+03  0.84530052481E+03  0.00000000000E+00 0.  1.
        -24    2    1    2    0    0 -0.54724667669E+01  0.16980256812E+02 -0.70023051133E+03  0.70497452474E+03  0.79674553857E+02 0.  0.
         25    2    1    2    0    0 -0.18387447174E+01  0.21820398370E+02 -0.76919908977E+02  0.14846971599E+03  0.12508826245E+03 0.  0.
         24    2    1    2    0    0  0.73112114844E+01 -0.38800655182E+02  0.36893635660E+02  0.96900024249E+02  0.80433386670E+02 0.  0.
        -13    1    5    5    0    0  0.12790165327E+02 -0.29731198593E+02 -0.20647925506E+02  0.38391005803E+02  0.00000000000E+00 0.  1.
         14    1    5    5    0    0 -0.54789538424E+01 -0.90694565886E+01  0.57541561166E+02  0.58509018445E+02  0.00000000000E+00 0. -1.
         11    1    3    3    0    0 -0.25625004712E+01  0.84361479640E+00  0.14768746800E+01  0.30755899288E+01  0.00000000000E+00 0. -1.
        -12    1    3    3    0    0 -0.29099662957E+01  0.16136642015E+02 -0.70170738601E+03  0.70189893481E+03  0.00000000000E+00 0.  1.
          5    1    4    4  501    0 -0.60885620152E+02  0.93628821831E+01 -0.18699527590E+02  0.64512533946E+02  0.41800000000E+01 0. -1.
         -5    1    4    4    0  501  0.59046875434E+02  0.12457516187E+02 -0.58220381387E+02  0.83957182045E+02  0.41800000000E+01 0. -1.
</event>
<event>
11    1  0.7105277E-009  0.1997547E+03  0.7561462E-02  0.1054697E+00
         22   -1    0    0    0    0  0.00000000000E+00  0.00000000000E+00  0.34894596237E+03  0.34894596237E+03  0.00000000000E+00 0.  1.
         22   -1    0    0    0    0 -0.00000000000E+00 -0.00000000000E+00 -0.12147861648E+04  0.12147861648E+04  0.00000000000E+00 0.  1.
         24    2    1    2    0    0  0.70882476774E+01 -0.19545539949E+02 -0.99960835206E+03  0.10032054282E+04  0.82292175931E+02 0.  0.
         25    2    1    2    0    0 -0.76524009167E+01  0.17289427690E+03 -0.12654779905E+03  0.24822051481E+03  0.12509231913E+03 0.  0.
        -24    2    1    2    0    0  0.56415323933E+00 -0.15334873695E+03  0.26031594866E+03  0.31230618421E+03  0.79086068139E+02 0.  0.
        -13    1    3    3    0    0  0.43187382066E+02 -0.21157658374E+02 -0.63107282377E+03  0.63290260339E+03  0.00000000000E+00 0.  1.
         14    1    3    3    0    0 -0.36099134388E+02  0.16121184255E+01 -0.36853552828E+03  0.37030282477E+03  0.00000000000E+00 0. -1.
         11    1    5    5    0    0  0.31877958032E+02 -0.73590954379E+02  0.83239322159E+02  0.11558813749E+03  0.00000000000E+00 0. -1.
        -12    1    5    5    0    0 -0.31313804793E+02 -0.79757782572E+02  0.17707662650E+03  0.19671804672E+03  0.00000000000E+00 0.  1.
          5    1    4    4  501    0 -0.16451689939E+02  0.17548214723E+03 -0.68238718126E+02  0.18904665336E+03  0.41800000000E+01 0. -1.
         -5    1    4    4    0  501  0.87992890221E+01 -0.25878703253E+01 -0.58309080928E+02  0.59173861449E+02  0.41800000000E+01 0. -1.
</event>
<event>
11    1  0.7105277E-009  0.1448651E+03  0.7561462E-02  0.1102244E+00
         22   -1    0    0    0    0  0.00000000000E+00  0.00000000000E+00  0.13063900597E+04  0.13063900597E+04  0.00000000000E+00 0. -1.
         22   -1    0    0    0    0 -0.00000000000E+00 -0.00000000000E+00 -0.58621454200E+03  0.58621454200E+03  0.00000000000E+00 0.  1.
        -24    2    1    2    0    0 -0.62981114171E+02  0.35194364873E+02 -0.54382248244E+03  0.55436880660E+03  0.79853724142E+02 0.  0.
         25    2    1    2    0    0  0.12167766480E+03 -0.10812278382E+02  0.18602551075E+03  0.25529153903E+03  0.12508365111E+03 0.  0.
         24    2    1    2    0    0 -0.58696550625E+02 -0.24382086491E+02  0.10779724894E+04  0.10829442561E+04  0.81876752982E+02 0.  0.
        -11    1    5    5    0    0 -0.40249886774E+02  0.10929796312E+02  0.21244376602E+03  0.21649911675E+03  0.00000000000E+00 0.  1.
         12    1    5    5    0    0 -0.18446663850E+02 -0.35311882803E+02  0.86552872341E+03  0.86644513936E+03  0.00000000000E+00 0. -1.
         11    1    3    3    0    0 -0.93149676442E+01  0.10435402996E+02 -0.97848998945E+01  0.17070750535E+02  0.00000000000E+00 0. -1.
        -12    1    3    3    0    0 -0.53666146527E+02  0.24758961878E+02 -0.53403758255E+03  0.53729805606E+03  0.00000000000E+00 0.  1.
          5    1    4    4  501    0  0.12658857202E+03 -0.92534936254E+01  0.82249134631E+02  0.15130329229E+03  0.41800000000E+01 0. -1.
         -5    1    4    4    0  501 -0.49109072195E+01 -0.15587847569E+01  0.10377637612E+03  0.10398824674E+03  0.41800000000E+01 0. -1.
</event>
<event>
11    1  0.7105277E-009  0.1343785E+03  0.7561462E-02  0.1114003E+00
         22   -1    0    0    0    0  0.00000000000E+00  0.00000000000E+00  0.13872704193E+04  0.13872704193E+04  0.00000000000E+00 0.  1.
         22   -1    0    0    0    0 -0.00000000000E+00 -0.00000000000E+00 -0.89348108446E+03  0.89348108446E+03  0.00000000000E+00 0.  1.
        -24    2    1    2    0    0  0.30098472891E+02 -0.16923068311E+02 -0.86815515186E+03  0.87260717143E+03  0.80979007256E+02 0.  0.
         25    2    1    2    0    0 -0.73733053592E+02 -0.12283762127E+01  0.22784080051E+03  0.27017983733E+03  0.12509053532E+03 0.  0.
         24    2    1    2    0    0  0.43634580700E+02  0.18151444524E+02  0.11341036862E+04  0.11379644950E+04  0.80861420038E+02 0.  0.
        -13    1    5    5    0    0  0.56432996441E+02 -0.56962707508E+01  0.96887477549E+03  0.97053359611E+03  0.00000000000E+00 0.  1.
         14    1    5    5    0    0 -0.12798415741E+02  0.23847715275E+02  0.16522891067E+03  0.16743089885E+03  0.00000000000E+00 0. -1.
         11    1    3    3    0    0 -0.19381767126E+02 -0.30496854785E+02 -0.40946139775E+03  0.41105273056E+03  0.00000000000E+00 0. -1.
        -12    1    3    3    0    0  0.49480240017E+02  0.13573786473E+02 -0.45869375411E+03  0.46155444087E+03  0.00000000000E+00 0.  1.
          5    1    4    4  501    0 -0.52871495895E+02  0.31917169093E+02  0.22187036663E+03  0.23034329326E+03  0.41800000000E+01 0. -1.
         -5    1    4    4    0  501 -0.20861557697E+02 -0.33145545306E+02  0.59704338777E+01  0.39836544075E+02  0.41800000000E+01 0. -1.
</event>
<event>
11    1  0.7105277E-009  0.1398470E+03  0.7561462E-02  0.1107729E+00
         22   -1    0    0    0    0  0.00000000000E+00  0.00000000000E+00  0.20035473154E+03  0.20035473154E+03  0.00000000000E+00 0. -1.
         22   -1    0    0    0    0 -0.00000000000E+00 -0.00000000000E+00 -0.27194248672E+04  0.27194248672E+04  0.00000000000E+00 0. -1.
        -24    2    1    2    0    0 -0.54162243092E+02  0.32711509750E+01 -0.16114851887E+04  0.16144432001E+04  0.81228590781E+02 0.  0.
         25    2    1    2    0    0  0.93412281402E+02 -0.66962198262E+01 -0.10905656843E+04  0.11017040852E+04  0.12509071040E+03 0.  0.
         24    2    1    2    0    0 -0.39250038310E+02  0.34250688512E+01  0.18298073731E+03  0.20363231350E+03  0.80198954293E+02 0.  0.
        -11    1    5    5    0    0 -0.13562735049E+01 -0.26034405609E+02  0.17668296298E+02  0.31492831681E+02  0.00000000000E+00 0.  1.
         12    1    5    5    0    0 -0.37893764805E+02  0.29459474460E+02  0.16531244102E+03  0.17213948182E+03  0.00000000000E+00 0. -1.
         11    1    3    3    0    0 -0.49744649988E+00 -0.39810413063E+01 -0.11160606971E+04  0.11160679082E+04  0.00000000000E+00 0. -1.
        -12    1    3    3    0    0 -0.53664796592E+02  0.72521922813E+01 -0.49542449159E+03  0.49837529188E+03  0.00000000000E+00 0.  1.
          5    1    4    4  501    0 -0.60732110031E+01 -0.44059704139E+02 -0.46722094991E+03  0.46935171232E+03  0.41800000000E+01 0.  1.
         -5    1    4    4    0  501  0.99485492406E+02  0.37363484313E+02 -0.62334473440E+03  0.63235237286E+03  0.41800000000E+01 0.  1.
</event>
<event>
11    1  0.7105277E-009  0.1864838E+03  0.7561462E-02  0.1064516E+00
         22   -1    0    0    0    0  0.00000000000E+00  0.00000000000E+00  0.16459449502E+04  0.16459449502E+04  0.00000000000E+00 0. -1.
         22   -1    0    0    0    0 -0.00000000000E+00 -0.00000000000E+00 -0.41103798829E+03  0.41103798829E+03  0.00000000000E+00 0.  1.
        -24    2    1    2    0    0  0.75246921932E+02  0.73158285903E+02 -0.35549737419E+03  0.37938302828E+03  0.80863248969E+02 0.  0.
         25    2    1    2    0    0 -0.16028091230E+03 -0.16749357712E+03  0.40715631352E+03  0.48494048006E+03  0.12508771457E+03 0.  0.
         24    2    1    2    0    0  0.85033990363E+02  0.94335291221E+02  0.11832480226E+04  0.11926594302E+04  0.78934825689E+02 0.  0.
        -11    1    5    5    0    0 -0.44185702795E+01  0.46785066001E+02  0.30722743452E+03  0.31080067999E+03  0.00000000000E+00 0.  1.
         12    1    5    5    0    0  0.89452560643E+02  0.47550225220E+02  0.87602058806E+03  0.88185875016E+03  0.00000000000E+00 0. -1.
         11    1    3    3    0    0  0.26148459383E+02 -0.77745968479E+00 -0.18812087204E+03  0.18993106346E+03  0.00000000000E+00 0. -1.
        -12    1    3    3    0    0  0.49098462550E+02  0.73935745587E+02 -0.16737650215E+03  0.18945196482E+03  0.00000000000E+00 0.  1.
          5    1    4    4  501    0  0.14446735444E+02  0.56043257662E+01  0.14698554114E+02  0.21763191983E+02  0.41800000000E+01 0. -1.
         -5    1    4    4    0  501 -0.17472764774E+03 -0.17309790289E+03  0.39245775941E+03  0.46317728808E+03  0.41800000000E+01 0. -1.
</event>
<event>
11    1  0.7105277E-009  0.1770164E+03  0.7561462E-02  0.1072082E+00
         22   -1    0    0    0    0  0.00000000000E+00  0.00000000000E+00  0.58011330054E+03  0.58011330054E+03  0.00000000000E+00 0. -1.
         22   -1    0    0    0    0 -0.00000000000E+00 -0.00000000000E+00 -0.16735580409E+03  0.16735580409E+03  0.00000000000E+00 0.  1.
        -24    2    1    2    0    0 -0.13143914546E+02  0.39807059670E+02 -0.36512020025E+02  0.97215023217E+02  0.79751292426E+02 0.  0.
         25    2    1    2    0    0  0.13497506007E+03 -0.13598916486E+02  0.79202899304E+01  0.18469181951E+03  0.12508053337E+03 0.  0.
         24    2    1    2    0    0 -0.12183114553E+03 -0.26208143184E+02  0.44134922655E+03  0.46556226191E+03  0.80183446802E+02 0.  0.
        -13    1    5    5    0    0 -0.62390657733E+02  0.13864559796E+02  0.11632652481E+03  0.13272784397E+03  0.00000000000E+00 0.  1.
         14    1    5    5    0    0 -0.59440487795E+02 -0.40072702980E+02  0.32502270174E+03  0.33283441793E+03  0.00000000000E+00 0. -1.
         11    1    3    3    0    0  0.13902969955E+02  0.51440031114E+02 -0.41246211721E+01  0.53445129566E+02  0.00000000000E+00 0. -1.
        -12    1    3    3    0    0 -0.27046884501E+02 -0.11632971443E+02 -0.32387398853E+02  0.43769893651E+02  0.00000000000E+00 0.  1.
          5    1    4    4  501    0  0.10141124236E+03 -0.55850839375E+02  0.39052457357E+02  0.12225433800E+03  0.41800000000E+01 0. -1.
         -5    1    4    4    0  501  0.33563817718E+02  0.42251922889E+02 -0.31132167427E+02  0.62437481502E+02  0.41800000000E+01 0. -1.
</event>
<event>
11    1  0.7105277E-009  0.1287524E+03  0.7561462E-02  0.1120811E+00
         22   -1    0    0    0    0  0.00000000000E+00  0.00000000000E+00  0.77283736572E+02  0.77283736572E+02  0.00000000000E+00 0. -1.
         22   -1    0    0    0    0 -0.00000000000E+00 -0.00000000000E+00 -0.17459507393E+04  0.17459507393E+04  0.00000000000E+00 0. -1.
         24    2    1    2    0    0  0.15974391052E+02  0.93607553617E+01 -0.88835522210E+03  0.89209818044E+03  0.79506968325E+02 0.  0.
         25    2    1    2    0    0 -0.41130593516E+02  0.74570995481E+01 -0.82533986192E+03  0.83581101597E+03  0.12508730024E+03 0.  0.
        -24    2    1    2    0    0  0.25156202464E+02 -0.16817854910E+02  0.45028081311E+02  0.95325279439E+02  0.78381796531E+02 0.  0.
        -13    1    3    3    0    0  0.24538196117E+02  0.30832645629E+02 -0.23101928043E+03  0.23435588970E+03  0.00000000000E+00 0.  1.
         14    1    3    3    0    0 -0.85638050651E+01 -0.21471890268E+02 -0.65733594167E+03  0.65774229075E+03  0.00000000000E+00 0. -1.
         11    1    5    5    0    0  0.50603059303E+00  0.27228235976E+02  0.34172297235E+02  0.43696439210E+02  0.00000000000E+00 0. -1.
        -12    1    5    5    0    0  0.24650171871E+02 -0.44046090885E+02  0.10855784076E+02  0.51628840230E+02  0.00000000000E+00 0.  1.
          5    1    4    4  501    0  0.19084181169E+02  0.68621199340E+01 -0.22020456955E+02  0.30226934766E+02  0.41800000000E+01 0.  1.
         -5    1    4    4    0  501 -0.60214774685E+02  0.59497961410E+00 -0.80331940497E+03  0.80558408120E+03  0.41800000000E+01 0.  1.
</event>
<event>
11    1  0.7105277E-009  0.1344072E+03  0.7561462E-02  0.1113969E+00
         22   -1    0    0    0    0  0.00000000000E+00  0.00000000000E+00  0.13211318481E+04  0.13211318481E+04  0.00000000000E+00 0.  1.
         22   -1    0    0    0    0 -0.00000000000E+00 -0.00000000000E+00 -0.25877042504E+03  0.25877042504E+03  0.00000000000E+00 0. -1.
         24    2    1    2    0    0 -0.66024337343E+01 -0.54165966845E+02 -0.20540211249E+03  0.23377303222E+03  0.97376889876E+02 0.  0.
         25    2    1    2    0    0  0.68724276365E+01  0.77123154180E+01  0.67190597513E+02  0.14240060224E+03  0.12512651619E+03 0.  0.
        -24    2    1    2    0    0 -0.26999390215E+00  0.46453651427E+02  0.12005729381E+04  0.12037286387E+04  0.73683386310E+02 0.  0.
        -13    1    3    3    0    0 -0.36311090757E+01  0.23277980604E+02 -0.14314809849E+02  0.27567428519E+02  0.00000000000E+00 0.  1.
         14    1    3    3    0    0 -0.29713246586E+01 -0.77443947449E+02 -0.19108730264E+03  0.20620560370E+03  0.00000000000E+00 0. -1.
         13    1    5    5    0    0 -0.94263503879E+00  0.38063685694E+01  0.20090248962E+01  0.44060394387E+01  0.00000000000E+00 0. -1.
        -14    1    5    5    0    0  0.67264113664E+00  0.42647282857E+02  0.11985639132E+04  0.11993225993E+04  0.00000000000E+00 0.  1.
          5    1    4    4  501    0  0.14779632605E+02  0.54022017808E+02  0.75918177525E+02  0.94434411242E+02  0.41800000000E+01 0.  1.
         -5    1    4    4    0  501 -0.79072049689E+01 -0.46309702390E+02 -0.87275800126E+01  0.47966190997E+02  0.41800000000E+01 0.  1.
</event>
<event>
11    1  0.7105277E-009  0.1566715E+03  0.7561462E-02  0.1090250E+00
         22   -1    0    0    0    0  0.00000000000E+00  0.00000000000E+00  0.11420073275E+04  0.11420073275E+04  0.00000000000E+00 0.  1.
         22   -1    0    0    0    0 -0.00000000000E+00 -0.00000000000E+00 -0.54662877312E+02  0.54662877312E+02  0.00000000000E+00 0. -1.
         24    2    1    2    0    0 -0.26148798061E+02  0.80042730748E+02  0.71866716314E+02  0.13641288706E+03  0.79706037764E+02 0.  0.
         25    2    1    2    0    0 -0.71788788121E+02 -0.28841716964E+02  0.32696479452E+03  0.35852251699E+03  0.12508774358E+03 0.  0.
        -24    2    1    2    0    0  0.97937586182E+02 -0.51201013784E+02  0.68851293940E+03  0.70173480081E+03  0.78538833383E+02 0.  0.
        -13    1    3    3    0    0 -0.10562624432E+02 -0.15711658388E+02  0.11692441858E+02  0.22251706469E+02  0.00000000000E+00 0.  1.
         14    1    3    3    0    0 -0.15586173629E+02  0.95754389136E+02  0.60174274456E+02  0.11416118059E+03  0.00000000000E+00 0. -1.
         11    1    5    5    0    0  0.69208449724E+02 -0.29927174740E+02  0.23467191739E+03  0.24648804051E+03  0.00000000000E+00 0. -1.
        -12    1    5    5    0    0  0.28729136458E+02 -0.21273839044E+02  0.45384102201E+03  0.45524676031E+03  0.00000000000E+00 0.  1.
          5    1    4    4  501    0  0.26448948949E+02 -0.39985658958E+02  0.10703220538E+03  0.11735316447E+03  0.41800000000E+01 0.  1.
         -5    1    4    4    0  501 -0.98237737070E+02  0.11143941994E+02  0.21993258914E+03  0.24116935252E+03  0.41800000000E+01 0.  1.
</event>
<event>
11    1  0.7105277E-009  0.2324213E+03  0.7561462E-02  0.1033704E+00
         22   -1    0    0    0    0  0.00000000000E+00  0.00000000000E+00  0.11996854400E+03  0.11996854400E+03  0.00000000000E+00 0.  1.
         22   -1    0    0    0    0 -0.00000000000E+00 -0.00000000000E+00 -0.23607033185E+04  0.23607033185E+04  0.00000000000E+00 0. -1.
        -24    2    1    2    0    0 -0.10296096807E+03 -0.18111560586E+03 -0.21262406446E+04  0.21379264837E+04  0.80165751189E+02 0.  0.
         25    2    1    2    0    0  0.50617098385E+02  0.98246492846E+02 -0.13349452231E+03  0.21373355627E+03  0.12508709599E+03 0.  0.
         24    2    1    2    0    0  0.52343869684E+02  0.82869113012E+02  0.19000392410E+02  0.12901182245E+03  0.81705965730E+02 0.  0.
        -13    1    5    5    0    0  0.28109478298E+02  0.38553336772E+01  0.34766777589E+02  0.44874660911E+02  0.00000000000E+00 0.  1.
         14    1    5    5    0    0  0.24234391387E+02  0.79013779335E+02 -0.15766385179E+02  0.84137161542E+02  0.00000000000E+00 0. -1.
         13    1    3    3    0    0 -0.60017714269E+02 -0.15849891015E+03 -0.14326932192E+04  0.14426828795E+04  0.00000000000E+00 0. -1.
        -14    1    3    3    0    0 -0.42943253801E+02 -0.22616695708E+02 -0.69354742534E+03  0.69524360419E+03  0.00000000000E+00 0.  1.
          5    1    4    4  501    0 -0.40574803402E+02  0.16780719898E+02 -0.42532254633E+02  0.61272932977E+02  0.41800000000E+01 0. -1.
         -5    1    4    4    0  501  0.91191901787E+02  0.81465772948E+02 -0.90962267679E+02  0.15246062329E+03  0.41800000000E+01 0. -1.
</event>
<event>
11    1  0.7105277E-009  0.1493708E+03  0.7561462E-02  0.1097523E+00
         22   -1    0    0    0    0  0.00000000000E+00  0.00000000000E+00  0.34323088311E+03  0.34323088311E+03  0.00000000000E+00 0. -1.
         22   -1    0    0    0    0 -0.00000000000E+00 -0.00000000000E+00 -0.13273018888E+04  0.13273018888E+04  0.00000000000E+00 0.  1.
         24    2    1    2    0    0 -0.53267979834E+02  0.13461011633E+02 -0.11666182339E+04  0.11702673117E+04  0.74221294517E+02 0.  0.
         25    2    1    2    0    0 -0.26816225021E+02 -0.41345163388E+02 -0.11724612304E+03  0.17838746087E+03  0.12508757079E+03 0.  0.
        -24    2    1    2    0    0  0.80084204854E+02  0.27884151755E+02  0.29979335129E+03  0.32187799935E+03  0.80860294371E+02 0.  0.
        -13    1    3    3    0    0 -0.15024046696E+02  0.37528841577E+02 -0.77446047223E+03  0.77551477031E+03  0.00000000000E+00 0.  1.
         14    1    3    3    0    0 -0.38243933138E+02 -0.24067829944E+02 -0.39215776172E+03  0.39475254139E+03  0.00000000000E+00 0. -1.
         13    1    5    5    0    0  0.73400489241E+02  0.40898862351E+02  0.29460689725E+03  0.30635530462E+03  0.00000000000E+00 0. -1.
        -14    1    5    5    0    0  0.66837156129E+01 -0.13014710596E+02  0.51864540384E+01  0.15522694734E+02  0.00000000000E+00 0.  1.
          5    1    4    4  501    0 -0.83950305721E+01 -0.37361699214E+02 -0.14192228426E+03  0.14705706469E+03  0.41800000000E+01 0.  1.
         -5    1    4    4    0  501 -0.18421194448E+02 -0.39834641742E+01  0.24676161222E+02  0.31330396173E+02  0.41800000000E+01 0.  1.
</event>
<event>
11    1  0.7105277E-009  0.2325958E+03  0.7561462E-02  0.1033602E+00
         22   -1    0    0    0    0  0.00000000000E+00  0.00000000000E+00  0.11358518082E+03  0.11358518082E+03  0.00000000000E+00 0.  1.
         22   -1    0    0    0    0 -0.00000000000E+00 -0.00000000000E+00 -0.22272569479E+04  0.22272569479E+04  0.00000000000E+00 0.  1.
         24    2    1    2    0    0 -0.60712967792E+02  0.12498986857E+03 -0.72427779306E+03  0.74145599368E+03  0.76616821539E+02 0.  0.
         25    2    1    2    0    0  0.10701588199E+03 -0.30408602532E+03 -0.13508667159E+04  0.13944208167E+04  0.12509124700E+03 0.  0.
        -24    2    1    2    0    0 -0.46302914201E+02  0.17909615675E+03 -0.38527258174E+02  0.20496531841E+03  0.79416867868E+02 0.  0.
        -11    1    3    3    0    0 -0.12004789687E+02  0.29678439470E+02 -0.36947681661E+03  0.37086121765E+03  0.00000000000E+00 0.  1.
         12    1    3    3    0    0 -0.48708178105E+02  0.95311429101E+02 -0.35480097645E+03  0.37059477603E+03  0.00000000000E+00 0. -1.
         13    1    5    5    0    0 -0.15445679090E+02  0.40527093985E+02 -0.45463612575E+02  0.62832749564E+02  0.00000000000E+00 0. -1.
        -14    1    5    5    0    0 -0.30857235111E+02  0.13856906276E+03  0.69363544007E+01  0.14213256884E+03  0.00000000000E+00 0.  1.
          5    1    4    4  501    0  0.79551118731E+02 -0.89247852083E+02 -0.33514641567E+03  0.35585692621E+03  0.41800000000E+01 0. -1.
         -5    1    4    4    0  501  0.27464763262E+02 -0.21483817323E+03 -0.10157203002E+04  0.10385638904E+04  0.41800000000E+01 0. -1.
</event>
<event>
11    1  0.7105277E-009  0.1722981E+03  0.7561462E-02  0.1076049E+00
         22   -1    0    0    0    0  0.00000000000E+00  0.00000000000E+00  0.81080542053E+03  0.81080542053E+03  0.00000000000E+00 0. -1.
         22   -1    0    0    0    0 -0.00000000000E+00 -0.00000000000E+00 -0.91783197411E+02  0.91783197411E+02  0.00000000000E+00 0.  1.
        -24    2    1    2    0    0 -0.34076027477E+01 -0.34115514693E+02 -0.21929209469E+02  0.92130794053E+02  0.82654176456E+02 0.  0.
         25    2    1    2    0    0 -0.84300791028E+02  0.10360027930E+03  0.33894322057E+03  0.38518772562E+03  0.12508971162E+03 0.  0.
         24    2    1    2    0    0  0.87708393775E+02 -0.69484764611E+02  0.40200821202E+03  0.42527009827E+03  0.81994872433E+02 0.  0.
        -13    1    5    5    0    0  0.59630602769E+02 -0.20041959179E+02  0.10138024371E+03  0.11931237458E+03  0.00000000000E+00 0.  1.
         14    1    5    5    0    0  0.28077791006E+02 -0.49442805432E+02  0.30062796831E+03  0.30595772369E+03  0.00000000000E+00 0. -1.
         13    1    3    3    0    0  0.73753696508E+01 -0.86361451319E+01 -0.50852629643E+02  0.52105364617E+02  0.00000000000E+00 0. -1.
        -14    1    3    3    0    0 -0.10782972399E+02 -0.25479369561E+02  0.28923420174E+02  0.40025429436E+02  0.00000000000E+00 0.  1.
          5    1    4    4  501    0 -0.30635098330E+02  0.86219281123E+02  0.30668531640E+03  0.32007128797E+03  0.41800000000E+01 0. -1.
         -5    1    4    4    0  501 -0.53665692697E+02  0.17380998181E+02  0.32257904178E+02  0.65116437651E+02  0.41800000000E+01 0. -1.
</event>
<event>
11    1  0.7105277E-009  0.2262590E+03  0.7561462E-02  0.1037366E+00
         22   -1    0    0    0    0  0.00000000000E+00  0.00000000000E+00  0.20321603324E+04  0.20321603324E+04  0.00000000000E+00 0.  1.
         22   -1    0    0    0    0 -0.00000000000E+00 -0.00000000000E+00 -0.13056429223E+04  0.13056429223E+04  0.00000000000E+00 0.  1.
        -24    2    1    2    0    0  0.19000493497E+03  0.41848721335E+01 -0.12468883667E+04  0.12641071561E+04  0.84361807591E+02 0.  0.
         25    2    1    2    0    0 -0.15096947489E+03 -0.46894787634E+02  0.15950363713E+03  0.25705143148E+03  0.12507247782E+03 0.  0.
         24    2    1    2    0    0 -0.39035460075E+02  0.42709915500E+02  0.18139021397E+04  0.18166446671E+04  0.81295572315E+02 0.  0.
        -13    1    5    5    0    0 -0.35146280693E+02  0.66712149320E+02  0.13991160197E+04  0.14011464622E+04  0.00000000000E+00 0.  1.
         14    1    5    5    0    0 -0.38891793819E+01 -0.24002233820E+02  0.41478611993E+03  0.41549820485E+03  0.00000000000E+00 0. -1.
         13    1    3    3    0    0  0.65289297303E+02 -0.38528614084E+02 -0.42325016703E+03  0.42998587225E+03  0.00000000000E+00 0. -1.
        -14    1    3    3    0    0  0.12471563767E+03  0.42713486217E+02 -0.82363819966E+03  0.83412128382E+03  0.00000000000E+00 0.  1.
          5    1    4    4  501    0  0.86527866553E+01 -0.14595455869E+02 -0.11460278874E+02  0.20897570212E+02  0.41800000000E+01 0. -1.
         -5    1    4    4    0  501 -0.15962226155E+03 -0.32299331765E+02  0.17096391600E+03  0.23615386126E+03  0.41800000000E+01 0. -1.
</event>
<event>
11    1  0.7105277E-009  0.1730645E+03  0.7561462E-02  0.1075395E+00
         22   -1    0    0    0    0  0.00000000000E+00  0.00000000000E+00  0.26829228034E+03  0.26829228034E+03  0.00000000000E+00 0.  1.
         22   -1    0    0    0    0 -0.00000000000E+00 -0.00000000000E+00 -0.15852723485E+04  0.15852723485E+04  0.00000000000E+00 0.  1.
         24    2    1    2    0    0  0.96178177461E+01 -0.11872770496E+03 -0.15031572278E+04  0.15099678274E+04  0.79576491021E+02 0.  0.
         25    2    1    2    0    0 -0.23371553052E+02  0.13648325567E+03  0.63194524487E+02  0.19701623644E+03  0.12509173006E+03 0.  0.
        -24    2    1    2    0    0  0.13753735306E+02 -0.17755550705E+02  0.12298263518E+03  0.14658056499E+03  0.76529136037E+02 0.  0.
        -13    1    3    3    0    0  0.43804436699E+02 -0.82706722484E+02 -0.98082724841E+03  0.98528235641E+03  0.00000000000E+00 0.  1.
         14    1    3    3    0    0 -0.34186618953E+02 -0.36020982477E+02 -0.52232997941E+03  0.52468547100E+03  0.00000000000E+00 0. -1.
         11    1    5    5    0    0  0.39023887687E+02 -0.94097030064E+01  0.30696717989E+02  0.50534095581E+02  0.00000000000E+00 0. -1.
        -12    1    5    5    0    0 -0.25270152381E+02 -0.83458476991E+01  0.92285917187E+02  0.96046469410E+02  0.00000000000E+00 0.  1.
          5    1    4    4  501    0 -0.43662048964E+02  0.12013555789E+03 -0.69176805485E+00  0.12789400976E+03  0.41800000000E+01 0.  1.
         -5    1    4    4    0  501  0.20290495911E+02  0.16347697773E+02  0.63886292542E+02  0.69122226682E+02  0.41800000000E+01 0.  1.
</event>
<event>
11    1  0.7105277E-009  0.1389643E+03  0.7561462E-02  0.1108720E+00
         22   -1    0    0    0    0  0.00000000000E+00  0.00000000000E+00  0.16541159245E+03  0.16541159245E+03  0.00000000000E+00 0.  1.
         22   -1    0    0    0    0 -0.00000000000E+00 -0.00000000000E+00 -0.55763973532E+03  0.55763973532E+03  0.00000000000E+00 0.  1.
        -24    2    1    2    0    0 -0.65151885438E+01 -0.59324117615E+02 -0.46624593446E+03  0.47725208964E+03  0.82598347733E+02 0.  0.
         25    2    1    2    0    0  0.23498212723E+02  0.70964701615E+02  0.19647640400E+02  0.14704619051E+03  0.12509355496E+03 0.  0.
         24    2    1    2    0    0 -0.16983024179E+02 -0.11640584000E+02  0.54370151197E+02  0.98753047622E+02  0.79825589677E+02 0.  0.
        -13    1    5    5    0    0  0.84474176043E+01 -0.30719350345E+02  0.58580670091E+02  0.66683823062E+02  0.00000000000E+00 0.  1.
         14    1    5    5    0    0 -0.25430441783E+02  0.19078766345E+02 -0.42105188939E+01  0.32069224560E+02  0.00000000000E+00 0. -1.
         13    1    3    3    0    0  0.23324320649E+02 -0.13033456754E+02 -0.44350156994E+02  0.51776745302E+02  0.00000000000E+00 0. -1.
        -14    1    3    3    0    0 -0.29839509192E+02 -0.46290660861E+02 -0.42189577747E+03  0.42547534434E+03  0.00000000000E+00 0.  1.
          5    1    4    4  501    0  0.30748375664E+02  0.20770123738E+02 -0.48992488415E+02  0.61600300058E+02  0.41800000000E+01 0.  1.
         -5    1    4    4    0  501 -0.72501629413E+01  0.50194577877E+02  0.68640128816E+02  0.85445890450E+02  0.41800000000E+01 0.  1.
</event>
<event>
11    1  0.7105277E-009  0.1400451E+03  0.7561462E-02  0.1107508E+00
         22   -1    0    0    0    0  0.00000000000E+00  0.00000000000E+00  0.71642690664E+02  0.71642690664E+02  0.00000000000E+00 0. -1.
         22   -1    0    0    0    0 -0.00000000000E+00 -0.00000000000E+00 -0.26453569701E+04  0.26453569701E+04  0.00000000000E+00 0.  1.
         24    2    1    2    0    0 -0.57951760118E+02  0.31248642093E+02 -0.20237310401E+04  0.20263794165E+04  0.79945811123E+02 0.  0.
         25    2    1    2    0    0  0.50296513210E+02 -0.31050058233E+01 -0.58250118196E+03  0.59790850446E+03  0.12509025706E+03 0.  0.
        -24    2    1    2    0    0  0.76552469083E+01 -0.28143636270E+02  0.32517942663E+02  0.92711739796E+02  0.81776421010E+02 0.  0.
        -11    1    3    3    0    0 -0.70438829041E+02  0.58327910418E+00 -0.13931049573E+04  0.13948847231E+04  0.00000000000E+00 0.  1.
         12    1    3    3    0    0  0.12487068923E+02  0.30665362989E+02 -0.63062608284E+03  0.63149469336E+03  0.00000000000E+00 0. -1.
         11    1    5    5    0    0  0.14262087359E+02  0.23811933158E+02  0.29117657083E+02  0.40227518573E+02  0.00000000000E+00 0. -1.
        -12    1    5    5    0    0 -0.66068404509E+01 -0.51955569427E+02  0.34002855801E+01  0.52484221222E+02  0.00000000000E+00 0.  1.
          5    1    4    4  501    0  0.11758106464E+02 -0.33880366892E+02 -0.43027906386E+02  0.56169435250E+02  0.41800000000E+01 0. -1.
         -5    1    4    4    0  501  0.38538406746E+02  0.30775361068E+02 -0.53947327558E+03  0.54173906921E+03  0.41800000000E+01 0. -1.
</event>
<event>
11    1  0.7105277E-009  0.1609550E+03  0.7561462E-02  0.1086182E+00
         22   -1    0    0    0    0  0.00000000000E+00  0.00000000000E+00  0.13905744244E+04  0.13905744244E+04  0.00000000000E+00 0.  1.
         22   -1    0    0    0    0 -0.00000000000E+00 -0.00000000000E+00 -0.37464420122E+03  0.37464420122E+03  0.00000000000E+00 0.  1.
        -24    2    1    2    0    0  0.33646461697E+02  0.89108153992E+02 -0.24510874159E+03  0.27543541072E+03  0.81939140730E+02 0.  0.
         25    2    1    2    0    0 -0.10707081769E+03 -0.99545389038E+02 -0.29429454065E+02  0.19464492492E+03  0.12508840694E+03 0.  0.
         24    2    1    2    0    0  0.73424355996E+02  0.10437235045E+02  0.12904684188E+04  0.12951382899E+04  0.81082539619E+02 0.  0.
        -11    1    5    5    0    0  0.43082683805E+02  0.27590760325E+02  0.11186997877E+04  0.11198690025E+04  0.00000000000E+00 0.  1.
         12    1    5    5    0    0  0.30341672191E+02 -0.17153525280E+02  0.17176863110E+03  0.17526928747E+03  0.00000000000E+00 0. -1.
         13    1    3    3    0    0  0.26589884338E+02 -0.77346035689E+01 -0.41963994107E+02  0.50277458596E+02  0.00000000000E+00 0. -1.
        -14    1    3    3    0    0  0.70565773598E+01  0.96842757561E+02 -0.20314474748E+03  0.22515795212E+03  0.00000000000E+00 0.  1.
          5    1    4    4  501    0  0.23633911990E+02 -0.23895983619E+02  0.15188281672E+02  0.37117868059E+02  0.41800000000E+01 0. -1.
         -5    1    4    4    0  501 -0.13070472968E+03 -0.75649405418E+02 -0.44617735737E+02  0.15752705686E+03  0.41800000000E+01 0. -1.
</event>
<event>
11    1  0.7105277E-009  0.1342051E+03  0.7561462E-02  0.1114208E+00
         22   -1    0    0    0    0  0.00000000000E+00  0.00000000000E+00  0.31887399488E+03  0.31887399488E+03  0.00000000000E+00 0. -1.
         22   -1    0    0    0    0 -0.00000000000E+00 -0.00000000000E+00 -0.13450393105E+04  0.13450393105E+04  0.00000000000E+00 0. -1.
         24    2    1    2    0    0  0.11670857377E+01  0.48208952107E+02 -0.11191807312E+04  0.11228791001E+04  0.77243118258E+02 0.  0.
         25    2    1    2    0    0 -0.40640212077E+02 -0.51186302842E+02 -0.19425110404E+03  0.24011181554E+03  0.12509407701E+03 0.  0.
        -24    2    1    2    0    0  0.39473126339E+02  0.29773507358E+01  0.28726651961E+03  0.30092238970E+03  0.80406710003E+02 0.  0.
        -11    1    3    3    0    0 -0.10134182428E+02 -0.19716791877E+02 -0.28554394925E+03  0.28640321312E+03  0.00000000000E+00 0.  1.
         12    1    3    3    0    0  0.11301268166E+02  0.67925743984E+02 -0.83363678194E+03  0.83647588702E+03  0.00000000000E+00 0. -1.
         11    1    5    5    0    0  0.78173055935E+01 -0.35679236169E+02  0.83860158072E+02  0.91469362478E+02  0.00000000000E+00 0. -1.
        -12    1    5    5    0    0  0.31655820746E+02  0.38656586904E+02  0.20340636154E+03  0.20945302722E+03  0.00000000000E+00 0.  1.
          5    1    4    4  501    0 -0.21862038623E+02 -0.92172386276E+02 -0.11734245843E+03  0.15086557750E+03  0.41800000000E+01 0. -1.
         -5    1    4    4    0  501 -0.18778173454E+02  0.40986083434E+02 -0.76908645612E+02  0.89246238035E+02  0.41800000000E+01 0. -1.
</event>
<event>
11    1  0.7105277E-009  0.1535147E+03  0.7561462E-02  0.1093341E+00
         22   -1    0    0    0    0  0.00000000000E+00  0.00000000000E+00  0.35553446904E+03  0.35553446904E+03  0.00000000000E+00 0.  1.
         22   -1    0    0    0    0 -0.00000000000E+00 -0.00000000000E+00 -0.36254510368E+03  0.36254510368E+03  0.00000000000E+00 0.  1.
         24    2    1    2    0    0  0.19154499367E+02 -0.23350427852E+02 -0.29439615994E+03  0.30665120212E+03  0.80335069847E+02 0.  0.
         25    2    1    2    0    0  0.32831090690E+02  0.92082263575E+02  0.10871699840E+03  0.19241587607E+03  0.12508980711E+03 0.  0.
        -24    2    1    2    0    0 -0.51985590057E+02 -0.68731835722E+02  0.17866852690E+03  0.21901249453E+03  0.92830293751E+02 0.  0.
        -13    1    3    3    0    0 -0.22478162858E+02 -0.85807782258E+01 -0.21017752087E+03  0.21155020170E+03  0.00000000000E+00 0.  1.
         14    1    3    3    0    0  0.41632662225E+02 -0.14769649627E+02 -0.84218639073E+02  0.95101000423E+02  0.00000000000E+00 0. -1.
         13    1    5    5    0    0 -0.17858632421E+02 -0.54670335306E+02  0.28146933250E+02  0.64031446694E+02  0.00000000000E+00 0. -1.
        -14    1    5    5    0    0 -0.34126957636E+02 -0.14061500417E+02  0.15052159365E+03  0.15498104783E+03  0.00000000000E+00 0.  1.
          5    1    4    4  501    0 -0.40458317372E+02  0.67767116816E+02  0.38296011021E+02  0.87825477091E+02  0.41800000000E+01 0.  1.
         -5    1    4    4    0  501  0.73289408061E+02  0.24315146759E+02  0.70420987374E+02  0.10459039898E+03  0.41800000000E+01 0.  1.
</event>
<event>
11    1  0.7105277E-009  0.1354212E+03  0.7561462E-02  0.1112782E+00
         22   -1    0    0    0    0  0.00000000000E+00  0.00000000000E+00  0.56025058711E+03  0.56025058711E+03  0.00000000000E+00 0. -1.
         22   -1    0    0    0    0 -0.00000000000E+00 -0.00000000000E+00 -0.19056736481E+03  0.19056736481E+03  0.00000000000E+00 0. -1.
        -24    2    1    2    0    0  0.30598319753E+02  0.22880140367E+02 -0.13209277927E+03  0.15935884460E+03  0.80541796735E+02 0.  0.
         25    2    1    2    0    0  0.23187671084E+02 -0.33433101212E+02  0.69983186060E+02  0.14900024346E+03  0.12509190970E+03 0.  0.
         24    2    1    2    0    0 -0.53785990838E+02  0.10552960845E+02  0.43179281551E+03  0.44245886386E+03  0.79501653342E+02 0.  0.
        -13    1    5    5    0    0 -0.47075095696E+02  0.92809413682E+01  0.10334775374E+03  0.11394278701E+03  0.00000000000E+00 0.  1.
         14    1    5    5    0    0 -0.67108951417E+01  0.12720194766E+01  0.32844506177E+03  0.32851607685E+03  0.00000000000E+00 0. -1.
         11    1    3    3    0    0  0.31258811270E+02  0.21737264122E+02 -0.14319916154E+03  0.14817429534E+03  0.00000000000E+00 0. -1.
        -12    1    3    3    0    0 -0.66049151652E+00  0.11428762456E+01  0.11106382266E+02  0.11184549262E+02  0.00000000000E+00 0.  1.
          5    1    4    4  501    0 -0.28117213144E+01 -0.62943603790E+02  0.85691287577E+02  0.10644375135E+03  0.41800000000E+01 0. -1.
         -5    1    4    4    0  501  0.25999392399E+02  0.29510502578E+02 -0.15708101517E+02  0.42556492111E+02  0.41800000000E+01 0. -1.
</event>
<event>
11    1  0.7105277E-009  0.1673251E+03  0.7561462E-02  0.1080383E+00
         22   -1    0    0    0    0  0.00000000000E+00  0.00000000000E+00  0.56762200817E+03  0.56762200817E+03  0.00000000000E+00 0.  1.
         22   -1    0    0    0    0 -0.00000000000E+00 -0.00000000000E+00 -0.22615876315E+04  0.22615876315E+04  0.00000000000E+00 0.  1.
         24    2    1    2    0    0 -0.60860724866E+02 -0.92859044932E+02 -0.21715505095E+04  0.21759464045E+04  0.82366923604E+02 0.  0.
         25    2    1    2    0    0  0.14399123869E+03  0.45482179452E+02  0.42510561374E+02  0.20063344355E+03  0.12507807712E+03 0.  0.
        -24    2    1    2    0    0 -0.83130513826E+02  0.47376865480E+02  0.43507432481E+03  0.45262979154E+03  0.80179862608E+02 0.  0.
        -13    1    3    3    0    0 -0.30150464116E+02 -0.91625451064E+02 -0.11857550669E+04  0.11896719516E+04  0.00000000000E+00 0.  1.
         14    1    3    3    0    0 -0.30710260750E+02 -0.12335938680E+01 -0.98579544258E+03  0.98627445291E+03  0.00000000000E+00 0. -1.
         13    1    5    5    0    0 -0.43392615033E+02 -0.17594896170E+02  0.20491937655E+03  0.21020097596E+03  0.00000000000E+00 0. -1.
        -14    1    5    5    0    0 -0.39737898793E+02  0.64971761650E+02  0.23015494827E+03  0.24242881558E+03  0.00000000000E+00 0.  1.
          5    1    4    4  501    0  0.90088242936E+01 -0.27481639502E+02  0.36852699449E+02  0.47031832641E+02  0.41800000000E+01 0.  1.
         -5    1    4    4    0  501  0.13498241440E+03  0.72963818954E+02  0.56578619253E+01  0.15360161091E+03  0.41800000000E+01 0.  1.
</event>
<event>
11    1  0.7105277E-009  0.1831717E+03  0.7561462E-02  0.1067106E+00
         22   -1    0    0    0    0  0.00000000000E+00  0.00000000000E+00  0.61774264454E+03  0.61774264454E+03  0.00000000000E+00 0.  1.
         22   -1    0    0    0    0 -0.00000000000E+00 -0.00000000000E+00 -0.16888371006E+04  0.16888371006E+04  0.00000000000E+00 0.  1.
         24    2    1    2    0    0 -0.91377783338E+02 -0.10533897786E+03 -0.15428512707E+04  0.15512261001E+04  0.80412503146E+02 0.  0.
         25    2    1    2    0    0  0.84695429603E+02  0.25839416229E+02 -0.93156853871E+02  0.17934979890E+03  0.12508860746E+03 0.  0.
        -24    2    1    2    0    0  0.66823537354E+01  0.79499561629E+02  0.56491366848E+03  0.57600384614E+03  0.79297817023E+02 0.  0.
        -11    1    3    3    0    0 -0.97730411016E+02 -0.10222751452E+03 -0.15302793670E+04  0.15368007806E+04  0.00000000000E+00 0.  1.
         12    1    3    3    0    0  0.63526276784E+01 -0.31114633364E+01 -0.12571903609E+02  0.14425319507E+02  0.00000000000E+00 0. -1.
         13    1    5    5    0    0  0.11949526814E+02 -0.51990651072E+01  0.16316367195E+02  0.20881697908E+02  0.00000000000E+00 0. -1.
        -14    1    5    5    0    0 -0.52671730790E+01  0.84698626736E+02  0.54859730129E+03  0.55512214824E+03  0.00000000000E+00 0.  1.
          5    1    4    4  501    0  0.50963282771E+02 -0.37580342383E+02 -0.23651529993E+01  0.63502792640E+02  0.41800000000E+01 0. -1.
         -5    1    4    4    0  501  0.33732146832E+02  0.63419758612E+02 -0.90791700872E+02  0.11584700626E+03  0.41800000000E+01 0. -1.
</event>
<event>
11    1  0.7105277E-009  0.1829163E+03  0.7561462E-02  0.1067308E+00
         22   -1    0    0    0    0  0.00000000000E+00  0.00000000000E+00  0.52798770239E+03  0.52798770239E+03  0.00000000000E+00 0.  1.
         22   -1    0    0    0    0 -0.00000000000E+00 -0.00000000000E+00 -0.31742106046E+03  0.31742106046E+03  0.00000000000E+00 0.  1.
         24    2    1    2    0    0 -0.10324480074E+03 -0.83430946474E+02 -0.25672444648E+03  0.30028003343E+03  0.81488927776E+02 0.  0.
         25    2    1    2    0    0  0.95097519409E+02  0.11320748396E+03  0.33408299460E+03  0.38615873177E+03  0.12509055206E+03 0.  0.
        -24    2    1    2    0    0  0.81472813278E+01 -0.29776537491E+02  0.13320809381E+03  0.15896999764E+03  0.81080475563E+02 0.  0.
        -11    1    3    3    0    0 -0.10311803614E+03 -0.97359387343E+02 -0.23268931787E+03  0.27250045566E+03  0.00000000000E+00 0.  1.
         12    1    3    3    0    0 -0.12676459627E+00  0.13928440869E+02 -0.24035128605E+02  0.27779577775E+02  0.00000000000E+00 0. -1.
         11    1    5    5    0    0 -0.22628859502E+02  0.12483586685E+02  0.15403022891E+02  0.30085849382E+02  0.00000000000E+00 0. -1.
        -12    1    5    5    0    0  0.30776140830E+02 -0.42260124176E+02  0.11780507091E+03  0.12888414826E+03  0.00000000000E+00 0.  1.
          5    1    4    4  501    0 -0.13888264493E+02  0.48741806718E+02  0.17803636440E+03  0.18515687150E+03  0.41800000000E+01 0.  1.
         -5    1    4    4    0  501  0.10898578390E+03  0.64465677247E+02  0.15604663020E+03  0.20100186027E+03  0.41800000000E+01 0.  1.
</event>
<event>
11    1  0.7105277E-009  0.2009607E+03  0.7561462E-02  0.1053846E+00
         22   -1    0    0    0    0  0.00000000000E+00  0.00000000000E+00  0.69851376356E+03  0.69851376356E+03  0.00000000000E+00 0.  1.
         22   -1    0    0    0    0 -0.00000000000E+00 -0.00000000000E+00 -0.34101363169E+03  0.34101363169E+03  0.00000000000E+00 0. -1.
         24    2    1    2    0    0 -0.69642859196E+02  0.14983944906E+03 -0.25223554724E+03  0.31277998655E+03  0.83105717982E+02 0.  0.
         25    2    1    2    0    0  0.11132088412E+02 -0.12457617083E+03  0.92615548224E+02  0.19970415324E+03  0.12514377058E+03 0.  0.
        -24    2    1    2    0    0  0.58510770784E+02 -0.25263278226E+02  0.51712013089E+03  0.52704325547E+03  0.79370144498E+02 0.  0.
        -13    1    3    3    0    0 -0.63366990465E+02  0.70054837569E+02 -0.83705789893E+02  0.12621297480E+03  0.00000000000E+00 0.  1.
         14    1    3    3    0    0 -0.62758687308E+01  0.79784611490E+02 -0.16852975735E+03  0.18656701174E+03  0.00000000000E+00 0. -1.
         11    1    5    5    0    0  0.28364944045E+02  0.25225679784E+02  0.12816583785E+03  0.13366894540E+03  0.00000000000E+00 0. -1.
        -12    1    5    5    0    0  0.30145826739E+02 -0.50488958010E+02  0.38895429304E+03  0.39337431007E+03  0.00000000000E+00 0.  1.
          5    1    4    4  501    0  0.47915411948E+02 -0.12486339236E+03  0.49003290147E+02  0.14249753787E+03  0.41800000000E+01 0.  1.
         -5    1    4    4    0  501 -0.36783323536E+02  0.28722153112E+00  0.43612258078E+02  0.57206615362E+02  0.41800000000E+01 0.  1.
</event>
<event>
11    1  0.7105277E-009  0.1395691E+03  0.7561462E-02  0.1108041E+00
         22   -1    0    0    0    0  0.00000000000E+00  0.00000000000E+00  0.13706215168E+04  0.13706215168E+04  0.00000000000E+00 0. -1.
         22   -1    0    0    0    0 -0.00000000000E+00 -0.00000000000E+00 -0.67826635418E+02  0.67826635418E+02  0.00000000000E+00 0.  1.
        -24    2    1    2    0    0 -0.57141263053E+02 -0.32897093323E+02 -0.15260088662E+01  0.10425358204E+03  0.80741178918E+02 0.  0.
         25    2    1    2    0    0  0.41504627743E+02 -0.14549512020E+01  0.32008205175E+03  0.34615704206E+03  0.12508967546E+03 0.  0.
         24    2    1    2    0    0  0.15636635310E+02  0.34352044526E+02  0.98423883849E+03  0.98803752811E+03  0.77894148894E+02 0.  0.
        -13    1    5    5    0    0 -0.26617678332E+02 -0.65317827567E+01  0.27280702286E+03  0.27418029964E+03  0.00000000000E+00 0.  1.
         14    1    5    5    0    0  0.42254313642E+02  0.40883827282E+02  0.71143181563E+03  0.71385722847E+03  0.00000000000E+00 0. -1.
         13    1    3    3    0    0 -0.48157924610E+02 -0.16357093916E+02  0.35972898588E+02  0.62295984276E+02  0.00000000000E+00 0. -1.
        -14    1    3    3    0    0 -0.89833384429E+01 -0.16539999408E+02 -0.37498907454E+02  0.41957597766E+02  0.00000000000E+00 0.  1.
          5    1    4    4  501    0  0.58963823050E+02 -0.70340172732E+01  0.32181811984E+03  0.32727753434E+03  0.41800000000E+01 0. -1.
         -5    1    4    4    0  501 -0.17459195307E+02  0.55790660712E+01 -0.17360680954E+01  0.18879507712E+02  0.41800000000E+01 0. -1.
</event>
<event>
11    1  0.7105277E-009  0.1453788E+03  0.7561462E-02  0.1101696E+00
         22   -1    0    0    0    0  0.00000000000E+00  0.00000000000E+00  0.95372813532E+03  0.95372813532E+03  0.00000000000E+00 0. -1.
         22   -1    0    0    0    0 -0.00000000000E+00 -0.00000000000E+00 -0.38422834478E+03  0.38422834478E+03  0.00000000000E+00 0. -1.
        -24    2    1    2    0    0 -0.26127016714E+01 -0.42830792538E+02 -0.32513514484E+03  0.33756292451E+03  0.79966008999E+02 0.  0.
         25    2    1    2    0    0  0.23278730881E+02 -0.31202287026E+02  0.37727439096E+02  0.13630987780E+03  0.12506614689E+03 0.  0.
         24    2    1    2    0    0 -0.20666029210E+02  0.74033079564E+02  0.85690749629E+03  0.86408367779E+03  0.80263088583E+02 0.  0.
        -11    1    5    5    0    0  0.23186971692E+02  0.52614432674E+02  0.33491105492E+03  0.33981072509E+03  0.00000000000E+00 0.  1.
         12    1    5    5    0    0 -0.43853000902E+02  0.21418646890E+02  0.52199644138E+03  0.52427295270E+03  0.00000000000E+00 0. -1.
         13    1    3    3    0    0 -0.12556263788E+02 -0.21017988835E+02 -0.30576297118E+03  0.30674160161E+03  0.00000000000E+00 0. -1.
        -14    1    3    3    0    0  0.99435621162E+01 -0.21812803702E+02 -0.19372173660E+02  0.30821322899E+02  0.00000000000E+00 0.  1.
          5    1    4    4  501    0  0.63693263763E+02  0.12684159692E+02  0.40127302291E+02  0.76455166895E+02  0.41800000000E+01 0.  1.
         -5    1    4    4    0  501 -0.40414532882E+02 -0.43886446718E+02 -0.23998631943E+01  0.59854710900E+02  0.41800000000E+01 0.  1.
</event>
<event>
11    1  0.7105277E-009  0.2728973E+03  0.7561462E-02  0.1012362E+00
         22   -1    0    0    0    0  0.00000000000E+00  0.00000000000E+00  0.37398356191E+03  0.37398356191E+03  0.00000000000E+00 0. -1.
         22   -1    0    0    0    0 -0.00000000000E+00 -0.00000000000E+00 -0.12303851236E+04  0.12303851236E+04  0.00000000000E+00 0. -1.
         24    2    1    2    0    0  0.11234057615E+02 -0.84744279570E+01 -0.90541039040E+03  0.90898348818E+03  0.79277908389E+02 0.  0.
         25    2    1    2    0    0  0.12315993918E+03  0.21019519015E+03 -0.19908348008E+03  0.33857317866E+03  0.12508867530E+03 0.  0.
        -24    2    1    2    0    0 -0.13439399679E+03 -0.20172076220E+03  0.24809230883E+03  0.35681201861E+03  0.83737749239E+02 0.  0.
        -11    1    3    3    0    0 -0.90716166260E+01  0.10435524408E+02 -0.28936243758E+02  0.32070244787E+02  0.00000000000E+00 0.  1.
         12    1    3    3    0    0  0.20305674241E+02 -0.18909952365E+02 -0.87647414664E+03  0.87691324339E+03  0.00000000000E+00 0. -1.
         13    1    5    5    0    0 -0.10355108581E+03 -0.14878204848E+03  0.23016305433E+03  0.29297432806E+03  0.00000000000E+00 0. -1.
        -14    1    5    5    0    0 -0.30842910978E+02 -0.52938713721E+02  0.17929254502E+02  0.63837690552E+02  0.00000000000E+00 0.  1.
          5    1    4    4  501    0  0.14345312241E+03  0.19232442641E+03 -0.19813517750E+03  0.31119528320E+03  0.41800000000E+01 0. -1.
         -5    1    4    4    0  501 -0.20293183229E+02  0.17870763743E+02 -0.94830257998E+00  0.27377895466E+02  0.41800000000E+01 0. -1.
</event>
<event>
11    1  0.7105277E-009  0.1925330E+03  0.7561462E-02  0.1059933E+00
         22   -1    0    0    0    0  0.00000000000E+00  0.00000000000E+00  0.12093001811E+03  0.12093001811E+03  0.00000000000E+00 0.  1.
         22   -1    0    0    0    0 -0.00000000000E+00 -0.00000000000E+00 -0.78563914767E+03  0.78563914767E+03  0.00000000000E+00 0.  1.
         24    2    1    2    0    0  0.96123743147E+02  0.14264391764E+03 -0.30701991878E+03  0.36112815894E+03  0.81026263738E+02 0.  0.
         25    2    1    2    0    0  0.81031223833E+02 -0.10994582053E+03 -0.27552938367E+03  0.33199039201E+03  0.12508811468E+03 0.  0.
        -24    2    1    2    0    0 -0.17715496698E+03 -0.32698097113E+02 -0.82159827124E+02  0.21345061484E+03  0.79736314822E+02 0.  0.
        -13    1    3    3    0    0  0.37869355140E+01  0.19976896013E+02 -0.10731776476E+03  0.10922691925E+03  0.00000000000E+00 0.  1.
         14    1    3    3    0    0  0.92336807633E+02  0.12266702163E+03 -0.19970215401E+03  0.25190123969E+03  0.00000000000E+00 0. -1.
         11    1    5    5    0    0 -0.84689651434E+02  0.20239256792E+02 -0.56688376994E+02  0.10390157199E+03  0.00000000000E+00 0. -1.
        -12    1    5    5    0    0 -0.92465315546E+02 -0.52937353905E+02 -0.25471450130E+02  0.10954904285E+03  0.00000000000E+00 0.  1.
          5    1    4    4  501    0  0.55558899281E+02 -0.11294764528E+03 -0.11883776593E+03  0.17315845020E+03  0.41800000000E+01 0. -1.
         -5    1    4    4    0  501  0.25472324552E+02  0.30018247534E+01 -0.15669161773E+03  0.15883194181E+03  0.41800000000E+01 0. -1.
</event>
<event>
11    1  0.7105277E-009  0.5353912E+03  0.7561462E-02  0.9317740E-01
         22   -1    0    0    0    0  0.00000000000E+00  0.00000000000E+00  0.13262655924E+04  0.13262655924E+04  0.00000000000E+00 0.  1.
         22   -1    0    0    0    0 -0.00000000000E+00 -0.00000000000E+00 -0.35378723245E+03  0.35378723245E+03  0.00000000000E+00 0. -1.
        -24    2    1    2    0    0  0.30132084872E+02 -0.11773239655E+03 -0.90204417320E+02  0.17201057707E+03  0.81743146416E+02 0.  0.
         25    2    1    2    0    0 -0.25347303538E+03 -0.40118271448E+03  0.39615311172E+03  0.63069839024E+03  0.12508805487E+03 0.  0.
         24    2    1    2    0    0  0.22334095051E+03  0.51891511103E+03  0.66652966560E+03  0.87734385758E+03  0.79475635757E+02 0.  0.
        -13    1    5    5    0    0  0.15453947223E+03  0.40869724891E+03  0.55311923788E+03  0.70488068570E+03  0.00000000000E+00 0.  1.
         14    1    5    5    0    0  0.68801478271E+02  0.11021786212E+03  0.11341042772E+03  0.17246317189E+03  0.00000000000E+00 0. -1.
         13    1    3    3    0    0  0.16431084769E+02 -0.68086247856E+02 -0.22380427520E+01  0.70076576180E+02  0.00000000000E+00 0. -1.
        -14    1    3    3    0    0  0.13701000103E+02 -0.49646148692E+02 -0.87966374568E+02  0.10193400089E+03  0.00000000000E+00 0.  1.
          5    1    4    4  501    0 -0.98951536294E+02 -0.10967984590E+03  0.59481297894E+02  0.15930025841E+03  0.41800000000E+01 0.  1.
         -5    1    4    4    0  501 -0.15452149908E+03 -0.29150286858E+03  0.33667181382E+03  0.47139813183E+03  0.41800000000E+01 0.  1.
</event>
<event>
11    1  0.7105277E-009  0.1592153E+03  0.7561462E-02  0.1087818E+00
         22   -1    0    0    0    0  0.00000000000E+00  0.00000000000E+00  0.40854715257E+03  0.40854715257E+03  0.00000000000E+00 0. -1.
         22   -1    0    0    0    0 -0.00000000000E+00 -0.00000000000E+00 -0.28464275341E+03  0.28464275341E+03  0.00000000000E+00 0. -1.
         24    2    1    2    0    0  0.50905177417E+02  0.63958989013E+02 -0.17101197897E+03  0.20522350822E+03  0.78673388207E+02 0.  0.
         25    2    1    2    0    0  0.53581293597E+02 -0.70521236065E+02 -0.11857300698E+02  0.15372878772E+03  0.12509094626E+03 0.  0.
        -24    2    1    2    0    0 -0.10448647101E+03  0.65622470513E+01  0.30677367883E+03  0.33423761004E+03  0.81511988264E+02 0.  0.
        -11    1    3    3    0    0 -0.48712039023E+01 -0.15343783630E+02 -0.18734718827E+02  0.24701214809E+02  0.00000000000E+00 0.  1.
         12    1    3    3    0    0  0.55776381319E+02  0.79302772643E+02 -0.15227726015E+03  0.18052229342E+03  0.00000000000E+00 0. -1.
         13    1    5    5    0    0 -0.41784191250E+02  0.39646254517E+02  0.17994689384E+03  0.18894080750E+03  0.00000000000E+00 0. -1.
        -14    1    5    5    0    0 -0.62702279763E+02 -0.33084007466E+02  0.12682678498E+03  0.14529680254E+03  0.00000000000E+00 0.  1.
          5    1    4    4  501    0  0.70138152759E+02  0.16272603626E+01 -0.31517078729E+02  0.77024717463E+02  0.41800000000E+01 0. -1.
         -5    1    4    4    0  501 -0.16556859162E+02 -0.72148496427E+02  0.19659778030E+02  0.76704070259E+02  0.41800000000E+01 0. -1.
</event>
<event>
11    1  0.7105277E-009  0.1351926E+03  0.7561462E-02  0.1113049E+00
         22   -1    0    0    0    0  0.00000000000E+00  0.00000000000E+00  0.23411440962E+04  0.23411440962E+04  0.00000000000E+00 0. -1.
         22   -1    0    0    0    0 -0.00000000000E+00 -0.00000000000E+00 -0.37224352526E+03  0.37224352526E+03  0.00000000000E+00 0.  1.
        -24    2    1    2    0    0 -0.36082129779E+01 -0.50012744000E+02 -0.31502980639E+03  0.32904046981E+03  0.80681832488E+02 0.  0.
         25    2    1    2    0    0 -0.47756093370E+02  0.50166870405E+02  0.54793586475E+02  0.15311673327E+03  0.12508012451E+03 0.  0.
         24    2    1    2    0    0  0.51364306347E+02 -0.15412640469E+00  0.22291367908E+04  0.22312304184E+04  0.81853722490E+02 0.  0.
        -11    1    5    5    0    0 -0.98853980245E+01 -0.13091967132E+02  0.12431936945E+04  0.12433019274E+04  0.00000000000E+00 0.  1.
         12    1    5    5    0    0  0.61249704372E+02  0.12937840727E+02  0.98594309637E+03  0.98792849098E+03  0.00000000000E+00 0. -1.
         11    1    3    3    0    0 -0.40136449809E+02 -0.16782875003E+02 -0.18238919852E+03  0.18750578453E+03  0.00000000000E+00 0. -1.
        -12    1    3    3    0    0  0.36528236831E+02 -0.33229868997E+02 -0.13264060787E+03  0.14153468527E+03  0.00000000000E+00 0.  1.
          5    1    4    4  501    0 -0.53335431183E+02  0.54272834707E+02  0.89459681314E+02  0.11751900181E+03  0.41800000000E+01 0.  1.
         -5    1    4    4    0  501  0.55793378133E+01 -0.41059643020E+01 -0.34666094838E+02  0.35597731453E+02  0.41800000000E+01 0.  1.
</event>
<event>
11    1  0.7105277E-009  0.1571386E+03  0.7561462E-02  0.1089800E+00
         22   -1    0    0    0    0  0.00000000000E+00  0.00000000000E+00  0.18942700994E+03  0.18942700994E+03  0.00000000000E+00 0.  1.
         22   -1    0    0    0    0 -0.00000000000E+00 -0.00000000000E+00 -0.19974346686E+04  0.19974346686E+04  0.00000000000E+00 0. -1.
        -24    2    1    2    0    0  0.45831591228E+02 -0.67133399132E+02 -0.17577641696E+04  0.17616516601E+04  0.84108664535E+02 0.  0.
         25    2    1    2    0    0  0.39790177942E+02  0.10937652165E+02 -0.19424561374E+03  0.23469236860E+03  0.12508500680E+03 0.  0.
         24    2    1    2    0    0 -0.85621769171E+02  0.56195746967E+02  0.14400212468E+03  0.19051764987E+03  0.71213156557E+02 0.  0.
        -11    1    5    5    0    0 -0.66155089093E+02  0.61144017337E+02  0.70703102320E+02  0.11451644138E+03  0.00000000000E+00 0.  1.
         12    1    5    5    0    0 -0.19466680078E+02 -0.49482703700E+01  0.73299022361E+02  0.76001208490E+02  0.00000000000E+00 0. -1.
         11    1    3    3    0    0  0.66198197093E+02 -0.51706813138E+02 -0.10227717468E+04  0.10262153000E+04  0.00000000000E+00 0. -1.
        -12    1    3    3    0    0 -0.20366605864E+02 -0.15426585994E+02 -0.73499242280E+03  0.73543636011E+03  0.00000000000E+00 0.  1.
          5    1    4    4  501    0 -0.42258181037E+02  0.21068334020E+02 -0.54134150060E+02  0.71955591621E+02  0.41800000000E+01 0.  1.
         -5    1    4    4    0  501  0.82048358979E+02 -0.10130681855E+02 -0.14011146368E+03  0.16273677698E+03  0.41800000000E+01 0.  1.
</event>
<event>
11    1  0.7105277E-009  0.1969521E+03  0.7561462E-02  0.1056700E+00
         22   -1    0    0    0    0  0.00000000000E+00  0.00000000000E+00  0.14344557702E+04  0.14344557702E+04  0.00000000000E+00 0. -1.
         22   -1    0    0    0    0 -0.00000000000E+00 -0.00000000000E+00 -0.11319053860E+04  0.11319053860E+04  0.00000000000E+00 0. -1.
         24    2    1    2    0    0  0.72612665086E+01  0.80784280859E+02 -0.10780234597E+04  0.10840313694E+04  0.80066248784E+02 0.  0.
         25    2    1    2    0    0 -0.13466890960E+03 -0.15260902169E+03  0.27510236081E+03  0.36435155920E+03  0.12508205730E+03 0.  0.
        -24    2    1    2    0    0  0.12740764309E+03  0.71824740829E+02  0.11054714831E+04  0.11179782276E+04  0.80103786799E+02 0.  0.
        -11    1    3    3    0    0 -0.23485396649E+02  0.32897561238E+02 -0.19336936885E+03  0.19754879448E+03  0.00000000000E+00 0.  1.
         12    1    3    3    0    0  0.30746663157E+02  0.47886719621E+02 -0.88465409086E+03  0.88648257495E+03  0.00000000000E+00 0. -1.
         11    1    5    5    0    0  0.12122867852E+03  0.87066220101E+02  0.10281501334E+04  0.10389271467E+04  0.00000000000E+00 0. -1.
        -12    1    5    5    0    0  0.61789645716E+01 -0.15241479272E+02  0.77321349645E+02  0.79051080982E+02  0.00000000000E+00 0.  1.
          5    1    4    4  501    0 -0.87403889760E+02 -0.46061663966E+02  0.49959069773E+02  0.11079033299E+03  0.41800000000E+01 0. -1.
         -5    1    4    4    0  501 -0.47265019838E+02 -0.10654735772E+03  0.22514329104E+03  0.25356122621E+03  0.41800000000E+01 0. -1.
</event>
<event>
11    1  0.7105277E-009  0.1615046E+03  0.7561462E-02  0.1085671E+00
         22   -1    0    0    0    0  0.00000000000E+00  0.00000000000E+00  0.33038939140E+03  0.33038939140E+03  0.00000000000E+00 0. -1.
         22   -1    0    0    0    0 -0.00000000000E+00 -0.00000000000E+00 -0.68111842567E+03  0.68111842567E+03  0.00000000000E+00 0.  1.
         24    2    1    2    0    0 -0.12524712377E+02  0.26337126060E+02 -0.37213790368E+03  0.38183593064E+03  0.80383741769E+02 0.  0.
         25    2    1    2    0    0  0.95031642652E+02 -0.84600907892E+02 -0.26299063922E+03  0.31780564085E+03  0.12509205536E+03 0.  0.
        -24    2    1    2    0    0 -0.82506930275E+02  0.58263781832E+02  0.28439950863E+03  0.31186624558E+03  0.78583794820E+02 0.  0.
        -11    1    3    3    0    0 -0.39145605155E+02  0.32929179242E+02 -0.30585894422E+03  0.31010708313E+03  0.00000000000E+00 0.  1.
         12    1    3    3    0    0  0.26620892778E+02 -0.65920531820E+01 -0.66278959463E+02  0.71728847509E+02  0.00000000000E+00 0. -1.
         11    1    5    5    0    0 -0.95548040390E+02  0.62483115321E+02  0.25761248961E+03  0.28177608580E+03  0.00000000000E+00 0. -1.
        -12    1    5    5    0    0  0.13041110115E+02 -0.42193334888E+01  0.26787019017E+02  0.30090159786E+02  0.00000000000E+00 0.  1.
          5    1    4    4  501    0  0.87723596312E+02 -0.15041421693E+02 -0.21540850060E+03  0.23310934826E+03  0.41800000000E+01 0.  1.
         -5    1    4    4    0  501  0.73080463393E+01 -0.69559486199E+02 -0.47582138623E+02  0.84696292584E+02  0.41800000000E+01 0.  1.
</event>
<event>
11    1  0.7105277E-009  0.2983819E+03  0.7561462E-02  0.1000878E+00
         22   -1    0    0    0    0  0.00000000000E+00  0.00000000000E+00  0.14175709531E+04  0.14175709531E+04  0.00000000000E+00 0.  1.
         22   -1    0    0    0    0 -0.00000000000E+00 -0.00000000000E+00 -0.85288921165E+03  0.85288921165E+03  0.00000000000E+00 0. -1.
        -24    2    1    2    0    0 -0.15122422464E+03  0.22833958011E+03 -0.78681705497E+03  0.83681384144E+03  0.78540418083E+02 0.  0.
         25    2    1    2    0    0  0.15254766972E+03 -0.16247877488E+03  0.39017133519E+03  0.46642392855E+03  0.12508983371E+03 0.  0.
         24    2    1    2    0    0 -0.13234450731E+01 -0.65860805228E+02  0.96132746122E+03  0.96722239475E+03  0.83840777956E+02 0.  0.
        -13    1    5    5    0    0 -0.31650011358E+02 -0.45466434125E+02  0.79497093530E+03  0.79689880652E+03  0.00000000000E+00 0.  1.
         14    1    5    5    0    0  0.30326566285E+02 -0.20394371104E+02  0.16635652592E+03  0.17032358824E+03  0.00000000000E+00 0. -1.
         13    1    3    3    0    0 -0.14499887492E+03  0.23438818280E+03 -0.75152473849E+03  0.80046981612E+03  0.00000000000E+00 0. -1.
        -14    1    3    3    0    0 -0.62253497260E+01 -0.60486026908E+01 -0.35292316480E+02  0.36344025318E+02  0.00000000000E+00 0.  1.
          5    1    4    4  501    0  0.13781452115E+03 -0.70025028168E+02  0.18683041592E+03  0.24252716038E+03  0.41800000000E+01 0. -1.
         -5    1    4    4    0  501  0.14733148567E+02 -0.92453746712E+02  0.20334091927E+03  0.22389676817E+03  0.41800000000E+01 0. -1.
</event>
<event>
11    1  0.7105277E-009  0.1505063E+03  0.7561462E-02  0.1096363E+00
         22   -1    0    0    0    0  0.00000000000E+00  0.00000000000E+00  0.47441631997E+03  0.47441631997E+03  0.00000000000E+00 0.  1.
         22   -1    0    0    0    0 -0.00000000000E+00 -0.00000000000E+00 -0.15254001642E+03  0.15254001642E+03  0.00000000000E+00 0. -1.
        -24    2    1    2    0    0  0.73939934052E+02  0.27688157118E+02 -0.80879304978E+02  0.13027027604E+03  0.64769861452E+02 0.  0.
         25    2    1    2    0    0 -0.12083818152E+03 -0.33533649585E+02  0.17883290903E+03  0.25170471065E+03  0.12509068808E+03 0.  0.
         24    2    1    2    0    0  0.46898247471E+02  0.58454924671E+01  0.22392269949E+03  0.24498134970E+03  0.87412075574E+02 0.  0.
        -13    1    5    5    0    0  0.50699406996E+02 -0.29230970937E+02  0.17597917874E+03  0.18545498344E+03  0.00000000000E+00 0.  1.
         14    1    5    5    0    0 -0.38011595246E+01  0.35076463404E+02  0.47943520754E+02  0.59526366267E+02  0.00000000000E+00 0. -1.
         11    1    3    3    0    0  0.72657484544E+02 -0.16983213356E+01 -0.58999395159E+02  0.93610485443E+02  0.00000000000E+00 0. -1.
        -12    1    3    3    0    0  0.12824495078E+01  0.29386478454E+02 -0.21879909818E+02  0.36659790593E+02  0.00000000000E+00 0.  1.
          5    1    4    4  501    0 -0.37812079242E+02 -0.31196920798E+02  0.15868240167E+03  0.16613421744E+03  0.41800000000E+01 0.  1.
         -5    1    4    4    0  501 -0.83026102281E+02 -0.23367287871E+01  0.20150507353E+02  0.85570493208E+02  0.41800000000E+01 0.  1.
</event>
<event>
11    1  0.7105277E-009  0.1417037E+03  0.7561462E-02  0.1105671E+00
         22   -1    0    0    0    0  0.00000000000E+00  0.00000000000E+00  0.22670766476E+04  0.22670766476E+04  0.00000000000E+00 0. -1.
         22   -1    0    0    0    0 -0.00000000000E+00 -0.00000000000E+00 -0.61866139312E+03  0.61866139312E+03  0.00000000000E+00 0.  1.
        -24    2    1    2    0    0 -0.35562194197E+02 -0.16022766082E+01 -0.59952175270E+03  0.60589452187E+03  0.80091215061E+02 0.  0.
         25    2    1    2    0    0  0.81904054799E+02 -0.43014159075E+02  0.40240762494E+03  0.43143648399E+03  0.12508817302E+03 0.  0.
         24    2    1    2    0    0 -0.46341860602E+02  0.44616435683E+02  0.18455293823E+04  0.18484070349E+04  0.80570909584E+02 0.  0.
        -11    1    5    5    0    0 -0.44401251025E+02  0.21414499700E+02  0.45147982074E+03  0.45416305489E+03  0.00000000000E+00 0.  1.
         12    1    5    5    0    0 -0.19406095770E+01  0.23201935983E+02  0.13940495615E+04  0.13942439800E+04  0.00000000000E+00 0. -1.
         11    1    3    3    0    0  0.19715377910E+01  0.10771545819E+02 -0.93447150748E+01  0.14395723685E+02  0.00000000000E+00 0. -1.
        -12    1    3    3    0    0 -0.37533731988E+02 -0.12373822427E+02 -0.59017703763E+03  0.59149879819E+03  0.00000000000E+00 0.  1.
          5    1    4    4  501    0  0.27483810637E+02  0.61955104445E+01  0.70966461025E+01  0.29352665684E+02  0.41800000000E+01 0. -1.
         -5    1    4    4    0  501  0.54420244161E+02 -0.49209669520E+02  0.39531097884E+03  0.40208381830E+03  0.41800000000E+01 0. -1.
</event>
<event>
11    1  0.7105277E-009  0.1433765E+03  0.7561462E-02  0.1103845E+00
         22   -1    0    0    0    0  0.00000000000E+00  0.00000000000E+00  0.42518507872E+03  0.42518507872E+03  0.00000000000E+00 0. -1.
         22   -1    0    0    0    0 -0.00000000000E+00 -0.00000000000E+00 -0.52272405701E+03  0.52272405701E+03  0.00000000000E+00 0. -1.
        -24    2    1    2    0    0 -0.51801512726E+02  0.29113911918E+02 -0.29731411076E+03  0.31423679601E+03  0.82571586664E+02 0.  0.
         25    2    1    2    0    0  0.10550352120E+03 -0.41123630278E+02 -0.17683410583E+03  0.24442327706E+03  0.12510112482E+03 0.  0.
         24    2    1    2    0    0 -0.53702008476E+02  0.12009718360E+02  0.37660923829E+03  0.38924906266E+03  0.81560869062E+02 0.  0.
        -11    1    5    5    0    0  0.10222590292E+02 -0.22426102389E+02  0.71853414285E+02  0.75962784079E+02  0.00000000000E+00 0.  1.
         12    1    5    5    0    0 -0.63924598768E+02  0.34435820749E+02  0.30475582401E+03  0.31328627858E+03  0.00000000000E+00 0. -1.
         13    1    3    3    0    0 -0.65698251509E+02 -0.36004342997E+01 -0.20581900728E+03  0.21608027938E+03  0.00000000000E+00 0. -1.
        -14    1    3    3    0    0  0.13896738783E+02  0.32714346217E+02 -0.91495103478E+02  0.98156516634E+02  0.00000000000E+00 0.  1.
          5    1    4    4  501    0  0.11459129741E+03 -0.69346585980E+02 -0.11864110624E+03  0.17897848730E+03  0.41800000000E+01 0. -1.
         -5    1    4    4    0  501 -0.90877762054E+01  0.28222955701E+02 -0.58192999590E+02  0.65444789756E+02  0.41800000000E+01 0. -1.
</event>
<event>
11    1  0.7105277E-009  0.2268147E+03  0.7561462E-02  0.1037031E+00
         22   -1    0    0    0    0  0.00000000000E+00  0.00000000000E+00  0.58108610480E+03  0.58108610480E+03  0.00000000000E+00 0. -1.
         22   -1    0    0    0    0 -0.00000000000E+00 -0.00000000000E+00 -0.24711514755E+03  0.24711514755E+03  0.00000000000E+00 0.  1.
        -24    2    1    2    0    0  0.15687071564E+03 -0.19664770648E+03  0.42547092960E+02  0.26676464105E+03  0.77938287796E+02 0.  0.
         25    2    1    2    0    0 -0.45775934764E+02  0.15338979132E+03 -0.34485148549E+02  0.20606082156E+03  0.12509185596E+03 0.  0.
         24    2    1    2    0    0 -0.11109478088E+03  0.43257915159E+02  0.32590901284E+03  0.35537578974E+03  0.76563501189E+02 0.  0.
        -13    1    5    5    0    0 -0.20631692149E+02  0.46575945792E+02  0.10794816329E+03  0.11936411272E+03  0.00000000000E+00 0.  1.
         14    1    5    5    0    0 -0.90463088730E+02 -0.33180306336E+01  0.21796084955E+03  0.23601167702E+03  0.00000000000E+00 0. -1.
         13    1    3    3    0    0  0.12898894576E+03 -0.12475762407E+03  0.15974044046E+01  0.17945797444E+03  0.00000000000E+00 0. -1.
        -14    1    3    3    0    0  0.27881769887E+02 -0.71890082409E+02  0.40949688555E+02  0.87306666605E+02  0.00000000000E+00 0.  1.
          5    1    4    4  501    0  0.33333965058E+02  0.31486931931E+02 -0.39392023633E+02  0.60595247626E+02  0.41800000000E+01 0. -1.
         -5    1    4    4    0  501 -0.79109899822E+02  0.12190285939E+03  0.49068750839E+01  0.14546557394E+03  0.41800000000E+01 0. -1.
</event>
<event>
11    1  0.7105277E-009  0.3498438E+03  0.7561462E-02  0.9810565E-01
         22   -1    0    0    0    0  0.00000000000E+00  0.00000000000E+00  0.73327636330E+03  0.73327636330E+03  0.00000000000E+00 0. -1.
         22   -1    0    0    0    0 -0.00000000000E+00 -0.00000000000E+00 -0.56740267403E+03  0.56740267403E+03  0.00000000000E+00 0.  1.
         24    2    1    2    0    0  0.20967460547E+02  0.20125092426E+01 -0.39973660646E+03  0.40801167774E+03  0.78996772303E+02 0.  0.
         25    2    1    2    0    0 -0.27337180953E+02  0.32521068883E+03  0.23792399110E+03  0.42280591174E+03  0.12509076655E+03 0.  0.
        -24    2    1    2    0    0  0.63697204055E+01 -0.32722319807E+03  0.32768630463E+03  0.46986144784E+03  0.79220396551E+02 0.  0.
        -11    1    3    3    0    0  0.94963831200E+01 -0.17554184135E+01 -0.39487904343E+03  0.39499711610E+03  0.00000000000E+00 0.  1.
         12    1    3    3    0    0  0.11471077427E+02  0.37679276561E+01 -0.48575630296E+01  0.13014561643E+02  0.00000000000E+00 0. -1.
         13    1    5    5    0    0  0.19842474574E+02 -0.17037051738E+03  0.12036361291E+03  0.20954053618E+03  0.00000000000E+00 0. -1.
        -14    1    5    5    0    0 -0.13472754169E+02 -0.15685268069E+03  0.20732269172E+03  0.26032091166E+03  0.00000000000E+00 0.  1.
          5    1    4    4  501    0 -0.10819132163E+02  0.49928932277E+02 -0.96752827722E+01  0.52163544701E+02  0.41800000000E+01 0.  1.
         -5    1    4    4    0  501 -0.16518048789E+02  0.27528175655E+03  0.24759927387E+03  0.37064236704E+03  0.41800000000E+01 0.  1.
</event>
<event>
11    1  0.7105277E-009  0.1376384E+03  0.7561462E-02  0.1110225E+00
         22   -1    0    0    0    0  0.00000000000E+00  0.00000000000E+00  0.26029657255E+03  0.26029657255E+03  0.00000000000E+00 0. -1.
         22   -1    0    0    0    0 -0.00000000000E+00 -0.00000000000E+00 -0.96318601153E+03  0.96318601153E+03  0.00000000000E+00 0. -1.
        -24    2    1    2    0    0 -0.39013871202E+02  0.67535849928E+00 -0.87511572440E+03  0.87967542670E+03  0.80490912471E+02 0.  0.
         25    2    1    2    0    0  0.45989183862E+02  0.55353157311E+02 -0.67010823844E+00  0.14431454592E+03  0.12508901655E+03 0.  0.
         24    2    1    2    0    0 -0.69753126599E+01 -0.56028515811E+02  0.17289639366E+03  0.19949261147E+03  0.81952971379E+02 0.  0.
        -11    1    5    5    0    0  0.15749951827E+02 -0.63368410956E+02  0.78424815431E+02  0.10204934182E+03  0.00000000000E+00 0.  1.
         12    1    5    5    0    0 -0.22725264487E+02  0.73398951457E+01  0.94471578232E+02  0.97443269651E+02  0.00000000000E+00 0. -1.
         13    1    3    3    0    0 -0.20938147094E+02 -0.39751383377E+02 -0.47275011509E+03  0.47488024786E+03  0.00000000000E+00 0. -1.
        -14    1    3    3    0    0 -0.18075724108E+02  0.40426741876E+02 -0.40236560931E+03  0.40479517885E+03  0.00000000000E+00 0.  1.
          5    1    4    4  501    0  0.59009764947E+02  0.70570508303E+02  0.38745767221E+02  0.99905234491E+02  0.41800000000E+01 0.  1.
         -5    1    4    4    0  501 -0.13020581085E+02 -0.15217350992E+02 -0.39415875460E+02  0.44409311425E+02  0.41800000000E+01 0.  1.
</event>
<event>
11    1  0.7105277E-009  0.1311685E+03  0.7561462E-02  0.1117842E+00
         22   -1    0    0    0    0  0.00000000000E+00  0.00000000000E+00  0.16345649334E+04  0.16345649334E+04  0.00000000000E+00 0. -1.
         22   -1    0    0    0    0 -0.00000000000E+00 -0.00000000000E+00 -0.10899918098E+03  0.10899918098E+03  0.00000000000E+00 0.  1.
        -24    2    1    2    0    0  0.89581813934E+01 -0.35220477109E+02 -0.83255102868E+02  0.11814103384E+03  0.75532514207E+02 0.  0.
         25    2    1    2    0    0 -0.16027786895E+02 -0.13538964537E+02  0.68496519728E+03  0.69660983778E+03  0.12509097129E+03 0.  0.
         24    2    1    2    0    0  0.70696055018E+01  0.48759441646E+02  0.92385565804E+03  0.92881324279E+03  0.82202801809E+02 0.  0.
        -13    1    5    5    0    0  0.24642223937E+02  0.68872790741E+01  0.85940797498E+02  0.89668804432E+02  0.00000000000E+00 0.  1.
         14    1    5    5    0    0 -0.17572618435E+02  0.41872162572E+02  0.83791486054E+03  0.83914443836E+03  0.00000000000E+00 0. -1.
         13    1    3    3    0    0 -0.10260984922E+02 -0.16209531290E-01  0.11400584019E+02  0.15338232959E+02  0.00000000000E+00 0. -1.
        -14    1    3    3    0    0  0.19219166316E+02 -0.35204267578E+02 -0.94655686888E+02  0.10280280088E+03  0.00000000000E+00 0.  1.
          5    1    4    4  501    0 -0.65850263673E+02  0.11974363096E+02  0.28853377951E+03  0.29622433545E+03  0.41800000000E+01 0.  1.
         -5    1    4    4    0  501  0.49822476778E+02 -0.25513327633E+02  0.39643141777E+03  0.40038550233E+03  0.41800000000E+01 0.  1.
</event>
<event>
11    1  0.7105277E-009  0.2454722E+03  0.7561462E-02  0.1026339E+00
         22   -1    0    0    0    0  0.00000000000E+00  0.00000000000E+00  0.27896909493E+03  0.27896909493E+03  0.00000000000E+00 0.  1.
         22   -1    0    0    0    0 -0.00000000000E+00 -0.00000000000E+00 -0.92653811167E+03  0.92653811167E+03  0.00000000000E+00 0. -1.
        -24    2    1    2    0    0 -0.13569044296E+02 -0.91394220363E+02 -0.69813208986E+03  0.70872320742E+03  0.79769338473E+02 0.  0.
         25    2    1    2    0    0  0.20179984361E+02  0.24728074828E+03  0.12677453045E+03  0.30540824630E+03  0.12508962827E+03 0.  0.
         24    2    1    2    0    0 -0.66109400647E+01 -0.15588652791E+03 -0.76211457318E+02  0.19137575288E+03  0.80449850534E+02 0.  0.
        -11    1    5    5    0    0 -0.38030139164E+02 -0.11725426845E+03 -0.39263456454E+02  0.12936952488E+03  0.00000000000E+00 0.  1.
         12    1    5    5    0    0  0.31419199099E+02 -0.38632259463E+02 -0.36948000864E+02  0.62006228003E+02  0.00000000000E+00 0. -1.
         13    1    3    3    0    0 -0.66746688161E+01 -0.97220204414E+02 -0.68909190186E+03  0.69594825135E+03  0.00000000000E+00 0. -1.
        -14    1    3    3    0    0 -0.68943754799E+01  0.58259840505E+01 -0.90401880014E+01  0.12774956067E+02  0.00000000000E+00 0.  1.
          5    1    4    4  501    0 -0.17586715914E+00  0.19039911573E+03  0.14804880684E+03  0.24122142484E+03  0.41800000000E+01 0. -1.
         -5    1    4    4    0  501  0.20355851520E+02  0.56881632552E+02 -0.21274276386E+02  0.64186821456E+02  0.41800000000E+01 0. -1.
</event>
<event>
11    1  0.7105277E-009  0.1548308E+03  0.7561462E-02  0.1092042E+00
         22   -1    0    0    0    0  0.00000000000E+00  0.00000000000E+00  0.76768555906E+02  0.76768555906E+02  0.00000000000E+00 0. -1.
         22   -1    0    0    0    0 -0.00000000000E+00 -0.00000000000E+00 -0.96228843940E+03  0.96228843940E+03  0.00000000000E+00 0.  1.
         24    2    1    2    0    0 -0.36287786593E+02 -0.85565981510E+02 -0.68685652296E+03  0.69783927499E+03  0.81052019987E+02 0.  0.
         25    2    1    2    0    0 -0.11289984497E+02  0.92516534874E+02 -0.19183413676E+03  0.24724983264E+03  0.12508145641E+03 0.  0.
        -24    2    1    2    0    0  0.47577771090E+02 -0.69505533638E+01 -0.68292237746E+01  0.93967887674E+02  0.80444832790E+02 0.  0.
        -11    1    3    3    0    0 -0.17221785271E+01 -0.64733596044E+02 -0.58019894737E+03  0.58380152696E+03  0.00000000000E+00 0.  1.
         12    1    3    3    0    0 -0.34565608066E+02 -0.20832385466E+02 -0.10665757559E+03  0.11403774803E+03  0.00000000000E+00 0. -1.
         11    1    5    5    0    0  0.64099672639E+02  0.90755194478E+01 -0.19605113044E+02  0.67642394570E+02  0.00000000000E+00 0. -1.
        -12    1    5    5    0    0 -0.16521901549E+02 -0.16026072812E+02  0.12775889269E+02  0.26325493104E+02  0.00000000000E+00 0.  1.
          5    1    4    4  501    0 -0.45359057782E+02  0.10882837947E+03 -0.14613232377E+03  0.18781157779E+03  0.41800000000E+01 0. -1.
         -5    1    4    4    0  501  0.34069073284E+02 -0.16311844601E+02 -0.45701812991E+02  0.59438254849E+02  0.41800000000E+01 0. -1.
</event>
<event>
11    1  0.7105277E-009  0.2014522E+03  0.7561462E-02  0.1053501E+00
         22   -1    0    0    0    0  0.00000000000E+00  0.00000000000E+00  0.42339346908E+03  0.42339346908E+03  0.00000000000E+00 0.  1.
         22   -1    0    0    0    0 -0.00000000000E+00 -0.00000000000E+00 -0.42427018436E+03  0.42427018436E+03  0.00000000000E+00 0. -1.
         24    2    1    2    0    0  0.10313675040E+03 -0.29431515157E+02 -0.24778202676E+03  0.28191053584E+03  0.81081527292E+02 0.  0.
         25    2    1    2    0    0 -0.24157557821E+03  0.57193313938E+02  0.91206705786E+01  0.27813808996E+03  0.12509106806E+03 0.  0.
        -24    2    1    2    0    0  0.13843882781E+03 -0.27761798781E+02  0.23778464090E+03  0.28761502764E+03  0.79024313729E+02 0.  0.
        -13    1    3    3    0    0  0.39595343349E+02 -0.33577143432E+02 -0.42854982489E+02  0.67318387533E+02  0.00000000000E+00 0.  1.
         14    1    3    3    0    0  0.63541407052E+02  0.41456282745E+01 -0.20492704427E+03  0.21459214831E+03  0.00000000000E+00 0. -1.
         13    1    5    5    0    0  0.12535233800E+03 -0.15590061281E+02  0.14147574825E+03  0.18966192553E+03  0.00000000000E+00 0. -1.
        -14    1    5    5    0    0  0.13086489803E+02 -0.12171737500E+02  0.96308892649E+02  0.97953102107E+02  0.00000000000E+00 0.  1.
          5    1    4    4  501    0 -0.49239205015E+02  0.51804734765E+02 -0.36480024323E+02  0.80352314398E+02  0.41800000000E+01 0. -1.
         -5    1    4    4    0  501 -0.19233637319E+03  0.53885791729E+01  0.45600694901E+02  0.19778577556E+03  0.41800000000E+01 0. -1.
</event>
<event>
11    1  0.7105277E-009  0.2103890E+03  0.7561462E-02  0.1047411E+00
         22   -1    0    0    0    0  0.00000000000E+00  0.00000000000E+00  0.37596250526E+03  0.37596250526E+03  0.00000000000E+00 0. -1.
         22   -1    0    0    0    0 -0.00000000000E+00 -0.00000000000E+00 -0.17962644833E+04  0.17962644833E+04  0.00000000000E+00 0. -1.
         24    2    1    2    0    0 -0.16545895921E+03 -0.99779860485E+01 -0.14288092180E+04  0.14405522720E+04  0.78859617985E+02 0.  0.
         25    2    1    2    0    0  0.18875565521E+03  0.30715752493E+02 -0.31936407844E+03  0.39269979997E+03  0.12509022134E+03 0.  0.
        -24    2    1    2    0    0 -0.23296696000E+02 -0.20737766444E+02  0.32787131845E+03  0.33897491660E+03  0.80197266940E+02 0.  0.
        -11    1    3    3    0    0 -0.26860252135E+01 -0.51122534136E+01 -0.30016359377E+03  0.30021914145E+03  0.00000000000E+00 0.  1.
         12    1    3    3    0    0 -0.16277293400E+03 -0.48657326348E+01 -0.11286456243E+04  0.11403331305E+04  0.00000000000E+00 0. -1.
         11    1    5    5    0    0 -0.43363235349E+02 -0.80901014965E+01  0.93243911475E+02  0.10315157269E+03  0.00000000000E+00 0. -1.
        -12    1    5    5    0    0  0.20066539349E+02 -0.12647664948E+02  0.23462740697E+03  0.23582334391E+03  0.00000000000E+00 0.  1.
          5    1    4    4  501    0  0.19143472668E+03  0.24316768323E+02 -0.21863582177E+03  0.29164645508E+03  0.41800000000E+01 0.  1.
         -5    1    4    4    0  501 -0.26790714661E+01  0.63989841702E+01 -0.10072825667E+03  0.10105334489E+03  0.41800000000E+01 0.  1.
</event>
<event>
11    1  0.7105277E-009  0.1414782E+03  0.7561462E-02  0.1105919E+00
         22   -1    0    0    0    0  0.00000000000E+00  0.00000000000E+00  0.14750493170E+03  0.14750493170E+03  0.00000000000E+00 0. -1.
         22   -1    0    0    0    0 -0.00000000000E+00 -0.00000000000E+00 -0.33105366756E+03  0.33105366756E+03  0.00000000000E+00 0. -1.
        -24    2    1    2    0    0  0.34292158987E+02  0.28478980256E+02 -0.19220518848E+03  0.21292475648E+03  0.80044443635E+02 0.  0.
         25    2    1    2    0    0 -0.65827544185E+02 -0.72726586962E+02 -0.26157756424E+02  0.16110127332E+03  0.12508784921E+03 0.  0.
         24    2    1    2    0    0  0.31535385198E+02  0.44247606705E+02  0.34814209058E+02  0.10453256946E+03  0.82235623100E+02 0.  0.
        -13    1    5    5    0    0  0.14390574160E+02 -0.20649359673E+02  0.27071219408E+02  0.36963977056E+02  0.00000000000E+00 0.  1.
         14    1    5    5    0    0  0.17144811039E+02  0.64896966378E+02  0.77429896497E+01  0.67568592403E+02  0.00000000000E+00 0. -1.
         11    1    3    3    0    0  0.59360612257E+02  0.29988042069E+02 -0.13972168702E+03  0.15474209116E+03  0.00000000000E+00 0. -1.
        -12    1    3    3    0    0 -0.25068453271E+02 -0.15090618128E+01 -0.52483501467E+02  0.58182665315E+02  0.00000000000E+00 0.  1.
          5    1    4    4  501    0 -0.33105712724E+02  0.29779411833E+02 -0.29134580351E+02  0.53376940305E+02  0.41800000000E+01 0. -1.
         -5    1    4    4    0  501 -0.32721831461E+02 -0.10250599879E+03  0.29768239266E+01  0.10772433302E+03  0.41800000000E+01 0. -1.
</event>
