<event>
11    1  0.8974665E-009  0.1321357E+03  0.7561462E-02  0.1116672E+00
         22   -1    0    0    0    0  0.00000000000E+00  0.00000000000E+00  0.25715197045E+03  0.25715197045E+03  0.00000000000E+00 0. -1.
         22   -1    0    0    0    0 -0.00000000000E+00 -0.00000000000E+00 -0.93102312856E+03  0.93102312856E+03  0.00000000000E+00 0.  1.
         24    2    1    2    0    0 -0.45033039206E+02  0.17452513375E+01 -0.66495257468E+03  0.67127439998E+03  0.80102265679E+02 0.  0.
         25    2    1    2    0    0  0.24408769750E+02 -0.40532042576E+02 -0.23638150484E+03  0.27158995332E+03  0.12508498069E+03 0.  0.
        -24    2    1    2    0    0  0.20624269456E+02  0.38786791239E+02  0.22746292142E+03  0.24531074572E+03  0.80673450914E+02 0.  0.
        -13    1    3    3    0    0 -0.64447833751E+02  0.10986150952E+01 -0.60073248277E+03  0.60418064027E+03  0.00000000000E+00 0.  1.
         14    1    3    3    0    0  0.19414794545E+02  0.64663624229E+00 -0.64220091916E+02  0.67093759705E+02  0.00000000000E+00 0. -1.
         11    1    5    5    0    0  0.11955402072E+02  0.49528529349E+02  0.22571843615E+03  0.23139753516E+03  0.00000000000E+00 0. -1.
        -12    1    5    5    0    0  0.86688673842E+01 -0.10741738110E+02  0.17444852637E+01  0.13913210564E+02  0.00000000000E+00 0.  1.
          5    1    4    4  501    0  0.51231232484E+02  0.28160512608E+02 -0.12333248712E+03  0.13655046112E+03  0.41800000000E+01 0.  1.
         -5    1    4    4    0  501 -0.26822462734E+02 -0.68692555185E+02 -0.11304901772E+03  0.13503949220E+03  0.41800000000E+01 0.  1.
</event>
<event>
11    1  0.8974665E-009  0.2067531E+03  0.7561462E-02  0.1049848E+00
         22   -1    0    0    0    0  0.00000000000E+00  0.00000000000E+00  0.70409024163E+02  0.70409024163E+02  0.00000000000E+00 0.  1.
         22   -1    0    0    0    0 -0.00000000000E+00 -0.00000000000E+00 -0.29061050146E+04  0.29061050146E+04  0.00000000000E+00 0. -1.
        -24    2    1    2    0    0 -0.76240263186E+01  0.54085616605E+01 -0.15096108828E+04  0.15118149994E+04  0.81069085260E+02 0.  0.
         25    2    1    2    0    0 -0.14007262263E+03 -0.79106815865E+02 -0.12521288673E+04  0.12686000256E+04  0.12506437030E+03 0.  0.
         24    2    1    2    0    0  0.14769664895E+03  0.73698254205E+02 -0.73956240334E+02  0.19609901376E+03  0.75759916390E+02 0.  0.
        -13    1    5    5    0    0  0.15408882358E+03  0.79139379516E+02 -0.70642493243E+02  0.18707423338E+03  0.00000000000E+00 0.  1.
         14    1    5    5    0    0 -0.63921746331E+01 -0.54411253119E+01 -0.33137470909E+01  0.90247803841E+01  0.00000000000E+00 0. -1.
         11    1    3    3    0    0  0.13098501301E+01 -0.20059068699E+01 -0.14801085175E+04  0.14801104563E+04  0.00000000000E+00 0. -1.
        -12    1    3    3    0    0 -0.89338764487E+01  0.74144685304E+01 -0.29502365311E+02  0.31704543065E+02  0.00000000000E+00 0.  1.
          5    1    4    4  501    0 -0.11296363262E+02 -0.73834944884E+02 -0.45922565895E+03  0.46527936248E+03  0.41800000000E+01 0. -1.
         -5    1    4    4    0  501 -0.12877625937E+03 -0.52718709816E+01 -0.79290320835E+03  0.80332066313E+03  0.41800000000E+01 0. -1.
</event>
<event>
11    1  0.8974665E-009  0.1478053E+03  0.7561462E-02  0.1099143E+00
         22   -1    0    0    0    0  0.00000000000E+00  0.00000000000E+00  0.23961858092E+03  0.23961858092E+03  0.00000000000E+00 0. -1.
         22   -1    0    0    0    0 -0.00000000000E+00 -0.00000000000E+00 -0.11327480103E+04  0.11327480103E+04  0.00000000000E+00 0.  1.
        -24    2    1    2    0    0 -0.10278541564E+03 -0.22114387999E+02 -0.58528703129E+03  0.60315764314E+03  0.10091751909E+03 0.  0.
         25    2    1    2    0    0  0.18619959753E+02  0.74088238096E+02 -0.50962790779E+03  0.53028548828E+03  0.12508526991E+03 0.  0.
         24    2    1    2    0    0  0.84165455884E+02 -0.51973850097E+02  0.20178550969E+03  0.23892345982E+03  0.81129049500E+02 0.  0.
        -13    1    5    5    0    0  0.65583978626E+01  0.66563483426E+01 -0.48593378811E+01  0.10532460321E+02  0.00000000000E+00 0.  1.
         14    1    5    5    0    0  0.77607058022E+02 -0.58630198440E+02  0.20664484757E+03  0.22839099949E+03  0.00000000000E+00 0. -1.
         13    1    3    3    0    0 -0.32805562970E+02 -0.34066336980E+02 -0.80203349624E+02  0.93109062759E+02  0.00000000000E+00 0. -1.
        -14    1    3    3    0    0 -0.69979852668E+02  0.11951948981E+02 -0.50508368167E+03  0.51004858038E+03  0.00000000000E+00 0.  1.
          5    1    4    4  501    0 -0.35764267670E+02 -0.17384348056E+02 -0.13130720543E+03  0.13726016537E+03  0.41800000000E+01 0. -1.
         -5    1    4    4    0  501  0.54384227423E+02  0.91472586153E+02 -0.37832070237E+03  0.39302532291E+03  0.41800000000E+01 0. -1.
</event>
<event>
11    1  0.8974665E-009  0.1311020E+03  0.7561462E-02  0.1117922E+00
         22   -1    0    0    0    0  0.00000000000E+00  0.00000000000E+00  0.86419670109E+02  0.86419670109E+02  0.00000000000E+00 0.  1.
         22   -1    0    0    0    0 -0.00000000000E+00 -0.00000000000E+00 -0.15725522267E+04  0.15725522267E+04  0.00000000000E+00 0. -1.
         24    2    1    2    0    0 -0.33252082067E+02 -0.66885500017E+01 -0.98468968768E+03  0.98853893034E+03  0.80280745590E+02 0.  0.
         25    2    1    2    0    0  0.62611321577E+02  0.10989258715E+02 -0.55295447886E+03  0.57047905242E+03  0.12508697838E+03 0.  0.
        -24    2    1    2    0    0 -0.29359239510E+02 -0.43007087130E+01  0.51511609989E+02  0.99953914010E+02  0.80354700685E+02 0.  0.
        -13    1    3    3    0    0 -0.57730073003E+01 -0.38791970812E+02 -0.30096398747E+03  0.30350859356E+03  0.00000000000E+00 0.  1.
         14    1    3    3    0    0 -0.27479074767E+02  0.32103420810E+02 -0.68372570021E+03  0.68503033678E+03  0.00000000000E+00 0. -1.
         13    1    5    5    0    0 -0.52839956019E+01 -0.96682375783E+01 -0.20807157308E+02  0.23544282164E+02  0.00000000000E+00 0. -1.
        -14    1    5    5    0    0 -0.24075243908E+02  0.53675288652E+01  0.72318767297E+02  0.76409631845E+02  0.00000000000E+00 0.  1.
          5    1    4    4  501    0  0.68814378037E+02 -0.41746504318E+02 -0.24398284269E+03  0.25694997407E+03  0.41800000000E+01 0.  1.
         -5    1    4    4    0  501 -0.62030564604E+01  0.52735763032E+02 -0.30897163617E+03  0.31352907835E+03  0.41800000000E+01 0.  1.
</event>
<event>
11    1  0.8974665E-009  0.1431752E+03  0.7561462E-02  0.1104064E+00
         22   -1    0    0    0    0  0.00000000000E+00  0.00000000000E+00  0.46039593462E+03  0.46039593462E+03  0.00000000000E+00 0. -1.
         22   -1    0    0    0    0 -0.00000000000E+00 -0.00000000000E+00 -0.12581327388E+04  0.12581327388E+04  0.00000000000E+00 0. -1.
         24    2    1    2    0    0  0.42609516136E+02  0.42911100046E+02 -0.95955127820E+03  0.96467184691E+03  0.78715839249E+02 0.  0.
         25    2    1    2    0    0 -0.90129273353E+02  0.80690766408E+01 -0.26909218141E+03  0.31023592285E+03  0.12508928738E+03 0.  0.
        -24    2    1    2    0    0  0.47519757217E+02 -0.50980176686E+02  0.43090665547E+03  0.44362090362E+03  0.79131881456E+02 0.  0.
        -13    1    3    3    0    0  0.18835133865E+00 -0.29174001911E+01  0.16294901254E+00  0.29280116944E+01  0.00000000000E+00 0.  1.
         14    1    3    3    0    0  0.42421164798E+02  0.45828500237E+02 -0.95971422721E+03  0.96174383521E+03  0.00000000000E+00 0. -1.
         11    1    5    5    0    0  0.46697891827E+02 -0.63970181206E+02  0.41745919923E+03  0.42490594278E+03  0.00000000000E+00 0. -1.
        -12    1    5    5    0    0  0.82186539015E+00  0.12990004520E+02  0.13447456234E+02  0.18714960842E+02  0.00000000000E+00 0.  1.
          5    1    4    4  501    0  0.21147494079E+02  0.31588827593E+02 -0.93111254066E+02  0.10065907097E+03  0.41800000000E+01 0. -1.
         -5    1    4    4    0  501 -0.11127676743E+03 -0.23519750952E+02 -0.17598092734E+03  0.20957685188E+03  0.41800000000E+01 0. -1.
</event>
<event>
11    1  0.8974665E-009  0.1564953E+03  0.7561462E-02  0.1090421E+00
         22   -1    0    0    0    0  0.00000000000E+00  0.00000000000E+00  0.10378764816E+04  0.10378764816E+04  0.00000000000E+00 0.  1.
         22   -1    0    0    0    0 -0.00000000000E+00 -0.00000000000E+00 -0.20594446101E+04  0.20594446101E+04  0.00000000000E+00 0. -1.
        -24    2    1    2    0    0  0.87323323330E+02 -0.32984105375E+02 -0.19910265807E+04  0.19950102997E+04  0.84651856819E+02 0.  0.
         25    2    1    2    0    0 -0.15401553427E+03  0.10761691214E+02  0.89988124863E+02  0.21813109838E+03  0.12508682853E+03 0.  0.
         24    2    1    2    0    0  0.66692210942E+02  0.22222414161E+02  0.87947032736E+03  0.88417969355E+03  0.57999888674E+02 0.  0.
        -11    1    5    5    0    0  0.64268379441E+02  0.21765583185E+02  0.87906524978E+03  0.88168014528E+03  0.00000000000E+00 0.  1.
         12    1    5    5    0    0  0.24238315010E+01  0.45683097606E+00  0.40507757392E+00  0.24995482645E+01  0.00000000000E+00 0. -1.
         11    1    3    3    0    0  0.76712345753E+02  0.78140730311E+00 -0.17162291762E+04  0.17179429501E+04  0.00000000000E+00 0. -1.
        -12    1    3    3    0    0  0.10610977577E+02 -0.33765512678E+02 -0.27479740456E+03  0.27706734966E+03  0.00000000000E+00 0.  1.
          5    1    4    4  501    0 -0.54387705345E+02 -0.37064243457E+02 -0.12763770491E+02  0.67172664625E+02  0.41800000000E+01 0. -1.
         -5    1    4    4    0  501 -0.99627828927E+02  0.47825934670E+02  0.10275189535E+03  0.15095843376E+03  0.41800000000E+01 0. -1.
</event>
<event>
11    1  0.8974665E-009  0.1293935E+03  0.7561462E-02  0.1120016E+00
         22   -1    0    0    0    0  0.00000000000E+00  0.00000000000E+00  0.74156518850E+03  0.74156518850E+03  0.00000000000E+00 0. -1.
         22   -1    0    0    0    0 -0.00000000000E+00 -0.00000000000E+00 -0.35438993830E+03  0.35438993830E+03  0.00000000000E+00 0.  1.
         24    2    1    2    0    0  0.29627156888E+02 -0.13678144402E+02 -0.31080028043E+03  0.32253541838E+03  0.79796126041E+02 0.  0.
         25    2    1    2    0    0 -0.40035226879E+02  0.15521843344E+02  0.89586185076E+02  0.15974050494E+03  0.12509035674E+03 0.  0.
        -24    2    1    2    0    0  0.10408069990E+02 -0.18436989423E+01  0.60838934556E+03  0.61367920348E+03  0.79704716587E+02 0.  0.
        -13    1    3    3    0    0  0.18818304226E+02  0.71114047874E+01 -0.29145915848E+03  0.29215260005E+03  0.00000000000E+00 0.  1.
         14    1    3    3    0    0  0.10808852663E+02 -0.20789549190E+02 -0.19341121955E+02  0.30382818333E+02  0.00000000000E+00 0. -1.
         11    1    5    5    0    0 -0.33719020593E+02 -0.10724893405E+02  0.26373826684E+03  0.26610123841E+03  0.00000000000E+00 0. -1.
        -12    1    5    5    0    0  0.44127090583E+02  0.88811944628E+01  0.34465107872E+03  0.34757796507E+03  0.00000000000E+00 0.  1.
          5    1    4    4  501    0 -0.75252535117E+02  0.30348652041E+02  0.25763666243E+02  0.85236281128E+02  0.41800000000E+01 0. -1.
         -5    1    4    4    0  501  0.35217308238E+02 -0.14826808697E+02  0.63822518833E+02  0.74504223812E+02  0.41800000000E+01 0. -1.
</event>
<event>
11    1  0.8974665E-009  0.3548615E+03  0.7561462E-02  0.9793214E-01
         22   -1    0    0    0    0  0.00000000000E+00  0.00000000000E+00  0.36072965370E+03  0.36072965370E+03  0.00000000000E+00 0. -1.
         22   -1    0    0    0    0 -0.00000000000E+00 -0.00000000000E+00 -0.24696816128E+04  0.24696816128E+04  0.00000000000E+00 0. -1.
         24    2    1    2    0    0  0.10099889132E+03 -0.31803097062E+03 -0.22855476516E+04  0.23111927283E+04  0.80865847274E+02 0.  0.
         25    2    1    2    0    0 -0.63822796469E+02  0.30490162178E+03  0.17386023885E+02  0.33613750941E+03  0.12509117914E+03 0.  0.
        -24    2    1    2    0    0 -0.37176094848E+02  0.13129348843E+02  0.15920966858E+03  0.18308102882E+03  0.81341887826E+02 0.  0.
        -11    1    3    3    0    0 -0.64448991242E+01 -0.18840143304E+01 -0.10640306935E+03  0.10661472413E+03  0.00000000000E+00 0.  1.
         12    1    3    3    0    0  0.10744379044E+03 -0.31614695629E+03 -0.21791445822E+04  0.22045780041E+04  0.00000000000E+00 0. -1.
         13    1    5    5    0    0 -0.17110430293E+02  0.24783710525E+02  0.15689717098E+03  0.15976145152E+03  0.00000000000E+00 0. -1.
        -14    1    5    5    0    0 -0.20065664555E+02 -0.11654361681E+02  0.23124976061E+01  0.23319577299E+02  0.00000000000E+00 0.  1.
          5    1    4    4  501    0 -0.61493102921E+02  0.31202560624E+03  0.31508723029E+02  0.31961172175E+03  0.41800000000E+01 0.  1.
         -5    1    4    4    0  501 -0.23296935474E+01 -0.71239844632E+01 -0.14122699144E+02  0.16525787659E+02  0.41800000000E+01 0.  1.
</event>
<event>
11    1  0.8974665E-009  0.1934746E+03  0.7561462E-02  0.1059236E+00
         22   -1    0    0    0    0  0.00000000000E+00  0.00000000000E+00  0.84848397545E+03  0.84848397545E+03  0.00000000000E+00 0. -1.
         22   -1    0    0    0    0 -0.00000000000E+00 -0.00000000000E+00 -0.25664547004E+03  0.25664547004E+03  0.00000000000E+00 0.  1.
         24    2    1    2    0    0  0.85068891952E+02 -0.11087869679E+03 -0.14211748153E+03  0.21486527932E+03  0.80242806035E+02 0.  0.
         25    2    1    2    0    0  0.69133363060E+02  0.54057917358E+02  0.20565487908E+02  0.15419030386E+03  0.12510008072E+03 0.  0.
        -24    2    1    2    0    0 -0.15420225501E+03  0.56820779435E+02  0.71339049904E+03  0.73607386230E+03  0.76627607407E+02 0.  0.
        -13    1    3    3    0    0 -0.54437463395E+01 -0.46769540316E+02 -0.62868933550E+02  0.78546337160E+02  0.00000000000E+00 0.  1.
         14    1    3    3    0    0  0.90512638291E+02 -0.64109156477E+02 -0.79248547983E+02  0.13631894216E+03  0.00000000000E+00 0. -1.
         11    1    5    5    0    0 -0.75518661994E+02  0.58939108929E+02  0.28951893559E+03  0.30495589998E+03  0.00000000000E+00 0. -1.
        -12    1    5    5    0    0 -0.78683593017E+02 -0.21183294946E+01  0.42387156345E+03  0.43111796232E+03  0.00000000000E+00 0.  1.
          5    1    4    4  501    0  0.13658595586E+02 -0.14277050538E+02 -0.41673642144E+02  0.46309353860E+02  0.41800000000E+01 0.  1.
         -5    1    4    4    0  501  0.55474767474E+02  0.68334967896E+02  0.62239130051E+02  0.10788095000E+03  0.41800000000E+01 0.  1.
</event>
<event>
11    1  0.8974665E-009  0.1301471E+03  0.7561462E-02  0.1119088E+00
         22   -1    0    0    0    0  0.00000000000E+00  0.00000000000E+00  0.36093706202E+02  0.36093706202E+02  0.00000000000E+00 0.  1.
         22   -1    0    0    0    0 -0.00000000000E+00 -0.00000000000E+00 -0.10626753646E+04  0.10626753646E+04  0.00000000000E+00 0. -1.
        -24    2    1    2    0    0 -0.15382549169E+01 -0.43826871756E+02 -0.64977948862E+03  0.65613662985E+03  0.79866966203E+02 0.  0.
         25    2    1    2    0    0 -0.10009971243E+02  0.41460837664E+01 -0.29660252939E+03  0.32208541248E+03  0.12509421633E+03 0.  0.
         24    2    1    2    0    0  0.11548226160E+02  0.39680787990E+02 -0.80199640421E+02  0.12054702849E+03  0.79947966155E+02 0.  0.
        -13    1    5    5    0    0  0.45134214026E+02  0.30733895666E+02 -0.41904368260E+02  0.68830557878E+02  0.00000000000E+00 0.  1.
         14    1    5    5    0    0 -0.33585987866E+02  0.89468923238E+01 -0.38295272161E+02  0.51716470617E+02  0.00000000000E+00 0. -1.
         13    1    3    3    0    0 -0.35130743685E+02 -0.23352346797E+02 -0.48039904464E+03  0.48224759548E+03  0.00000000000E+00 0. -1.
        -14    1    3    3    0    0  0.33592488768E+02 -0.20474524959E+02 -0.16938044398E+03  0.17388903437E+03  0.00000000000E+00 0.  1.
          5    1    4    4  501    0 -0.46702878847E+02  0.48747595206E+02 -0.16249943966E+03  0.17601428130E+03  0.41800000000E+01 0. -1.
         -5    1    4    4    0  501  0.36692907603E+02 -0.44601511440E+02 -0.13410308973E+03  0.14607113119E+03  0.41800000000E+01 0. -1.
</event>
<event>
11    1  0.8974665E-009  0.1364233E+03  0.7561462E-02  0.1111619E+00
         22   -1    0    0    0    0  0.00000000000E+00  0.00000000000E+00  0.15164606022E+03  0.15164606022E+03  0.00000000000E+00 0. -1.
         22   -1    0    0    0    0 -0.00000000000E+00 -0.00000000000E+00 -0.45870334881E+03  0.45870334881E+03  0.00000000000E+00 0. -1.
        -24    2    1    2    0    0  0.11333309562E+02  0.53277271150E+02 -0.29094943902E+03  0.30707011512E+03  0.81691909064E+02 0.  0.
         25    2    1    2    0    0  0.34701726702E+02 -0.59143994111E+02 -0.10316224698E+03  0.17605172176E+03  0.12509811212E+03 0.  0.
         24    2    1    2    0    0 -0.46035036263E+02  0.58667229605E+01  0.87054397408E+02  0.12722757215E+03  0.80341421483E+02 0.  0.
        -13    1    5    5    0    0  0.14129519692E+02  0.20328337617E+02  0.63987358516E+01  0.25570069563E+02  0.00000000000E+00 0.  1.
         14    1    5    5    0    0 -0.60164555955E+02 -0.14461614656E+02  0.80655661556E+02  0.10165750259E+03  0.00000000000E+00 0. -1.
         11    1    3    3    0    0 -0.20266490751E+02  0.36378107298E+02 -0.24641335701E+03  0.24990726250E+03  0.00000000000E+00 0. -1.
        -12    1    3    3    0    0  0.31599800313E+02  0.16899163852E+02 -0.44536082012E+02  0.57162852620E+02  0.00000000000E+00 0.  1.
          5    1    4    4  501    0 -0.66882159377E+01  0.32570076510E+02 -0.55034959822E+02  0.64434938651E+02  0.41800000000E+01 0. -1.
         -5    1    4    4    0  501  0.41389942640E+02 -0.91714070621E+02 -0.48127287163E+02  0.11161678311E+03  0.41800000000E+01 0. -1.
</event>
<event>
11    1  0.8974665E-009  0.1542022E+03  0.7561462E-02  0.1092661E+00
         22   -1    0    0    0    0  0.00000000000E+00  0.00000000000E+00  0.20963281310E+03  0.20963281310E+03  0.00000000000E+00 0. -1.
         22   -1    0    0    0    0 -0.00000000000E+00 -0.00000000000E+00 -0.22766339141E+04  0.22766339141E+04  0.00000000000E+00 0. -1.
         24    2    1    2    0    0 -0.58670789587E+02  0.36180471487E+02 -0.21375492709E+04  0.21401970011E+04  0.81086560024E+02 0.  0.
         25    2    1    2    0    0  0.10999105961E+03 -0.95497969886E+02 -0.32011404321E+02  0.19465425784E+03  0.12509058574E+03 0.  0.
        -24    2    1    2    0    0 -0.51320270020E+02  0.59317498399E+02  0.10255957419E+03  0.15141546823E+03  0.79093881112E+02 0.  0.
        -13    1    3    3    0    0  0.19330462422E+02  0.15829908089E+02 -0.62805003946E+03  0.62854681992E+03  0.00000000000E+00 0.  1.
         14    1    3    3    0    0 -0.78001252009E+02  0.20350563398E+02 -0.15094992314E+04  0.15116501812E+04  0.00000000000E+00 0. -1.
         11    1    5    5    0    0 -0.58231950807E+02  0.58985593828E+02  0.11223268435E+03  0.13952216960E+03  0.00000000000E+00 0. -1.
        -12    1    5    5    0    0  0.69116807873E+01  0.33190457100E+00 -0.96731101621E+01  0.11893298624E+02  0.00000000000E+00 0.  1.
          5    1    4    4  501    0  0.43543109983E+01  0.27392147166E+01  0.34940768236E+02  0.35563928446E+02  0.41800000000E+01 0. -1.
         -5    1    4    4    0  501  0.10563674861E+03 -0.98237184602E+02 -0.66952172557E+02  0.15909032939E+03  0.41800000000E+01 0. -1.
</event>
<event>
11    1  0.8974665E-009  0.1866940E+03  0.7561462E-02  0.1064353E+00
         22   -1    0    0    0    0  0.00000000000E+00  0.00000000000E+00  0.18701818599E+04  0.18701818599E+04  0.00000000000E+00 0.  1.
         22   -1    0    0    0    0 -0.00000000000E+00 -0.00000000000E+00 -0.11555125112E+03  0.11555125112E+03  0.00000000000E+00 0. -1.
         24    2    1    2    0    0 -0.20521602210E+02  0.49851609459E+02 -0.23694224879E+02  0.10001323018E+03  0.80838795120E+02 0.  0.
         25    2    1    2    0    0 -0.11911751692E+03 -0.57355807676E+02  0.11656179297E+03  0.21613022375E+03  0.12508777129E+03 0.  0.
        -24    2    1    2    0    0  0.13963911913E+03  0.75041982176E+01  0.16617630407E+04  0.16695896571E+04  0.80733035887E+02 0.  0.
        -13    1    3    3    0    0  0.34650247168E+01 -0.78314659326E+01  0.21344943876E+02  0.22998801795E+02  0.00000000000E+00 0.  1.
         14    1    3    3    0    0 -0.23986626927E+02  0.57683075391E+02 -0.45039168756E+02  0.77014428389E+02  0.00000000000E+00 0. -1.
         11    1    5    5    0    0  0.32094338440E+02  0.31735558035E+02  0.30059422221E+03  0.30396394298E+03  0.00000000000E+00 0. -1.
        -12    1    5    5    0    0  0.10754478069E+03 -0.24231359817E+02  0.13611688185E+04  0.13656257141E+04  0.00000000000E+00 0.  1.
          5    1    4    4  501    0 -0.77669894518E+02 -0.37856725544E+02 -0.45026887875E+01  0.86622692117E+02  0.41800000000E+01 0.  1.
         -5    1    4    4    0  501 -0.41447622403E+02 -0.19499082132E+02  0.12106448176E+03  0.12950753164E+03  0.41800000000E+01 0.  1.
</event>
<event>
11    1  0.8974665E-009  0.1472467E+03  0.7561462E-02  0.1099726E+00
         22   -1    0    0    0    0  0.00000000000E+00  0.00000000000E+00  0.12009082034E+03  0.12009082034E+03  0.00000000000E+00 0. -1.
         22   -1    0    0    0    0 -0.00000000000E+00 -0.00000000000E+00 -0.20934937247E+04  0.20934937247E+04  0.00000000000E+00 0. -1.
         24    2    1    2    0    0 -0.35946518430E+02  0.38275725801E+02 -0.17496964784E+04  0.17521473581E+04  0.76324405157E+02 0.  0.
         25    2    1    2    0    0  0.51590690635E+01  0.37841373666E+02 -0.29771560649E+03  0.32517814363E+03  0.12509059595E+03 0.  0.
        -24    2    1    2    0    0  0.30787449366E+02 -0.76117099467E+02  0.74009180557E+02  0.13625904322E+03  0.79671125143E+02 0.  0.
        -13    1    3    3    0    0  0.19879712314E+02 -0.36400832695E+01 -0.24493292988E+03  0.24576532161E+03  0.00000000000E+00 0.  1.
         14    1    3    3    0    0 -0.55826230744E+02  0.41915809071E+02 -0.15047635485E+04  0.15063820365E+04  0.00000000000E+00 0. -1.
         13    1    5    5    0    0  0.19896945560E+02 -0.73354167251E+02  0.89311866860E+02  0.11727460022E+03  0.00000000000E+00 0. -1.
        -14    1    5    5    0    0  0.10890503806E+02 -0.27629322161E+01 -0.15302686303E+02  0.18984442991E+02  0.00000000000E+00 0.  1.
          5    1    4    4  501    0 -0.18542294124E+02  0.66337086927E+02 -0.86297716315E+02  0.11049522168E+03  0.41800000000E+01 0.  1.
         -5    1    4    4    0  501  0.23701363188E+02 -0.28495713261E+02 -0.21141789018E+03  0.21468292195E+03  0.41800000000E+01 0.  1.
</event>
<event>
11    1  0.8974665E-009  0.1622070E+03  0.7561462E-02  0.1085020E+00
         22   -1    0    0    0    0  0.00000000000E+00  0.00000000000E+00  0.41605018826E+03  0.41605018826E+03  0.00000000000E+00 0. -1.
         22   -1    0    0    0    0 -0.00000000000E+00 -0.00000000000E+00 -0.45091447771E+03  0.45091447771E+03  0.00000000000E+00 0.  1.
         24    2    1    2    0    0  0.11142364941E+03  0.14580112009E+02 -0.25694039420E+03  0.29141584148E+03  0.79227628898E+02 0.  0.
         25    2    1    2    0    0 -0.71249412098E+02 -0.64878613377E+02 -0.13217113601E+03  0.20591853726E+03  0.12509005394E+03 0.  0.
        -24    2    1    2    0    0 -0.40174237312E+02  0.50298501368E+02  0.35424724075E+03  0.36963028723E+03  0.83615387769E+02 0.  0.
        -13    1    3    3    0    0  0.11969733982E+03  0.26294788558E+02 -0.22073572326E+03  0.25247401567E+03  0.00000000000E+00 0.  1.
         14    1    3    3    0    0 -0.82736904108E+01 -0.11714676549E+02 -0.36204670942E+02  0.38941825813E+02  0.00000000000E+00 0. -1.
         13    1    5    5    0    0 -0.52568021082E+02  0.65349344775E+02  0.25348879100E+03  0.26700281059E+03  0.00000000000E+00 0. -1.
        -14    1    5    5    0    0  0.12393783771E+02 -0.15050843407E+02  0.10075844975E+03  0.10262747663E+03  0.00000000000E+00 0.  1.
          5    1    4    4  501    0 -0.35776061482E+02 -0.16885844263E+02 -0.14003698050E+03  0.14557776828E+03  0.41800000000E+01 0. -1.
         -5    1    4    4    0  501 -0.35473350616E+02 -0.47992769114E+02  0.78658444879E+01  0.60340768976E+02  0.41800000000E+01 0. -1.
</event>
<event>
11    1  0.8974665E-009  0.1551218E+03  0.7561462E-02  0.1091757E+00
         22   -1    0    0    0    0  0.00000000000E+00  0.00000000000E+00  0.45052296916E+03  0.45052296916E+03  0.00000000000E+00 0.  1.
         22   -1    0    0    0    0 -0.00000000000E+00 -0.00000000000E+00 -0.82604842489E+03  0.82604842489E+03  0.00000000000E+00 0. -1.
        -24    2    1    2    0    0  0.87623124088E+02  0.26513548799E+02 -0.77430062044E+03  0.78383190842E+03  0.80437738009E+02 0.  0.
         25    2    1    2    0    0 -0.99030204042E+02 -0.96392859632E+01  0.11464087643E+03  0.19670095485E+03  0.12509531544E+03 0.  0.
         24    2    1    2    0    0  0.11407079954E+02 -0.16874262836E+02  0.28413428827E+03  0.29603853078E+03  0.80570811788E+02 0.  0.
        -13    1    5    5    0    0  0.33890822914E+02 -0.16590185141E+02  0.26123200283E+03  0.26394314051E+03  0.00000000000E+00 0.  1.
         14    1    5    5    0    0 -0.22483742960E+02 -0.28407769531E+00  0.22902285441E+02  0.32095390262E+02  0.00000000000E+00 0. -1.
         13    1    3    3    0    0  0.97866666824E+02  0.21047921122E+02 -0.53721249487E+03  0.54645966375E+03  0.00000000000E+00 0. -1.
        -14    1    3    3    0    0 -0.10243542736E+02  0.54656276774E+01 -0.23708812557E+03  0.23737224467E+03  0.00000000000E+00 0.  1.
          5    1    4    4  501    0 -0.57557418530E+02 -0.17512641852E+02 -0.13432258995E+02  0.61785492101E+02  0.41800000000E+01 0. -1.
         -5    1    4    4    0  501 -0.41472785512E+02  0.78733558886E+01  0.12807313543E+03  0.13491546275E+03  0.41800000000E+01 0. -1.
</event>
<event>
11    1  0.8974665E-009  0.1314486E+03  0.7561462E-02  0.1117502E+00
         22   -1    0    0    0    0  0.00000000000E+00  0.00000000000E+00  0.11605979276E+04  0.11605979276E+04  0.00000000000E+00 0.  1.
         22   -1    0    0    0    0 -0.00000000000E+00 -0.00000000000E+00 -0.11796292488E+04  0.11796292488E+04  0.00000000000E+00 0. -1.
         24    2    1    2    0    0  0.80448579889E+00 -0.38733810693E+02 -0.99752060156E+03  0.10015274569E+04  0.80678008275E+02 0.  0.
         25    2    1    2    0    0 -0.10933212545E+02  0.61939050660E+02 -0.15109266296E+03  0.20600104286E+03  0.12510577814E+03 0.  0.
        -24    2    1    2    0    0  0.10128726746E+02 -0.23205239967E+02  0.11295819433E+04  0.11326986768E+04  0.80061547812E+02 0.  0.
        -11    1    3    3    0    0  0.16114068376E+02  0.11172846413E+02 -0.74673659667E+02  0.77205253349E+02  0.00000000000E+00 0.  1.
         12    1    3    3    0    0 -0.15309582577E+02 -0.49906657106E+02 -0.92284694189E+03  0.92432220351E+03  0.00000000000E+00 0. -1.
         11    1    5    5    0    0 -0.27305268817E+02 -0.82009339824E+00  0.17486410432E+03  0.17698504241E+03  0.00000000000E+00 0. -1.
        -12    1    5    5    0    0  0.37433995563E+02 -0.22385146569E+02  0.95471783900E+03  0.95571363437E+03  0.00000000000E+00 0.  1.
          5    1    4    4  501    0  0.78099206569E+01 -0.69282380755E+01  0.18671373869E+02  0.21796512236E+02  0.41800000000E+01 0. -1.
         -5    1    4    4    0  501 -0.18743133202E+02  0.68867288736E+02 -0.16976403683E+03  0.18420453062E+03  0.41800000000E+01 0. -1.
</event>
<event>
11    1  0.8974665E-009  0.1512517E+03  0.7561462E-02  0.1095607E+00
         22   -1    0    0    0    0  0.00000000000E+00  0.00000000000E+00  0.10065233179E+03  0.10065233179E+03  0.00000000000E+00 0.  1.
         22   -1    0    0    0    0 -0.00000000000E+00 -0.00000000000E+00 -0.12242856023E+04  0.12242856023E+04  0.00000000000E+00 0. -1.
        -24    2    1    2    0    0  0.10909132543E+02  0.24515571936E+02 -0.10231452823E+04  0.10265472770E+04  0.79076044402E+02 0.  0.
         25    2    1    2    0    0 -0.39559998766E+02  0.61789392750E+02 -0.10014984932E+03  0.17623901602E+03  0.12508907183E+03 0.  0.
         24    2    1    2    0    0  0.28650866224E+02 -0.86304964685E+02 -0.33813885068E+00  0.12215164103E+03  0.81556667436E+02 0.  0.
        -11    1    5    5    0    0  0.36546349573E+02 -0.87808625524E+02  0.22674436683E+02  0.97775868508E+02  0.00000000000E+00 0.  1.
         12    1    5    5    0    0 -0.78954833495E+01  0.15036608388E+01 -0.23012575534E+02  0.24375772520E+02  0.00000000000E+00 0. -1.
         13    1    3    3    0    0  0.41005612268E+02  0.17355280416E+02 -0.80364598969E+03  0.80487858882E+03  0.00000000000E+00 0. -1.
        -14    1    3    3    0    0 -0.30096479725E+02  0.71602915202E+01 -0.21949929262E+03  0.22166868819E+03  0.00000000000E+00 0.  1.
          5    1    4    4  501    0 -0.11017320670E+02 -0.37437962386E+02 -0.42738392398E+02  0.58026071443E+02  0.41800000000E+01 0.  1.
         -5    1    4    4    0  501 -0.28542678097E+02  0.99227355135E+02 -0.57411456923E+02  0.11821294458E+03  0.41800000000E+01 0.  1.
</event>
<event>
11    1  0.8974665E-009  0.1515743E+03  0.7561462E-02  0.1095281E+00
         22   -1    0    0    0    0  0.00000000000E+00  0.00000000000E+00  0.58437652897E+03  0.58437652897E+03  0.00000000000E+00 0.  1.
         22   -1    0    0    0    0 -0.00000000000E+00 -0.00000000000E+00 -0.28402348923E+03  0.28402348923E+03  0.00000000000E+00 0.  1.
         24    2    1    2    0    0  0.65855422423E+02  0.30035262524E+02 -0.16714361938E+03  0.19911482125E+03  0.80440467958E+02 0.  0.
         25    2    1    2    0    0  0.22562933017E+02 -0.10729095537E+02 -0.50576620157E+02  0.13721947692E+03  0.12508793268E+03 0.  0.
        -24    2    1    2    0    0 -0.88418355440E+02 -0.19306166987E+02  0.51807327928E+03  0.53206572002E+03  0.80644119769E+02 0.  0.
        -13    1    3    3    0    0  0.69877884855E+02  0.14593928606E+02 -0.16860204863E+03  0.18309165012E+03  0.00000000000E+00 0.  1.
         14    1    3    3    0    0 -0.40224624325E+01  0.15441333918E+02  0.14584292443E+01  0.16023171130E+02  0.00000000000E+00 0. -1.
         11    1    5    5    0    0 -0.16692039342E+02 -0.42466872358E+02  0.18019076930E+03  0.18587838165E+03  0.00000000000E+00 0. -1.
        -12    1    5    5    0    0 -0.71726316098E+02  0.23160705372E+02  0.33788250999E+03  0.34618733837E+03  0.00000000000E+00 0.  1.
          5    1    4    4  501    0  0.40356919378E+02  0.37520367091E+02 -0.63349858401E+02  0.84066258676E+02  0.41800000000E+01 0. -1.
         -5    1    4    4    0  501 -0.17793986361E+02 -0.48249462628E+02  0.12773238245E+02  0.53153218244E+02  0.41800000000E+01 0. -1.
</event>
<event>
11    1  0.8974665E-009  0.1378415E+03  0.7561462E-02  0.1109993E+00
         22   -1    0    0    0    0  0.00000000000E+00  0.00000000000E+00  0.30163185755E+03  0.30163185755E+03  0.00000000000E+00 0.  1.
         22   -1    0    0    0    0 -0.00000000000E+00 -0.00000000000E+00 -0.27766018866E+04  0.27766018866E+04  0.00000000000E+00 0. -1.
        -24    2    1    2    0    0  0.58711189892E+02  0.14206606680E+01 -0.25401845725E+04  0.25421664466E+04  0.81385242611E+02 0.  0.
         25    2    1    2    0    0 -0.41049958431E+02  0.27041625580E+02 -0.20893964524E+03  0.24844265405E+03  0.12510646825E+03 0.  0.
         24    2    1    2    0    0 -0.17661231461E+02 -0.28462286248E+02  0.27415418864E+03  0.28762464356E+03  0.80283221181E+02 0.  0.
        -11    1    5    5    0    0 -0.16021281022E+02 -0.39164130263E+02  0.27352600129E+03  0.27677966675E+03  0.00000000000E+00 0.  1.
         12    1    5    5    0    0 -0.16399504395E+01  0.10701844015E+02  0.62818734824E+00  0.10844976815E+02  0.00000000000E+00 0. -1.
         13    1    3    3    0    0 -0.15955483647E+02 -0.12005651509E+02 -0.90824580925E+03  0.90846527900E+03  0.00000000000E+00 0. -1.
        -14    1    3    3    0    0  0.74666673539E+02  0.13426312177E+02 -0.16319387632E+04  0.16337011676E+04  0.00000000000E+00 0.  1.
          5    1    4    4  501    0 -0.51393063062E+02  0.36459462008E+02 -0.22078701494E+03  0.22964084495E+03  0.41800000000E+01 0. -1.
         -5    1    4    4    0  501  0.10343104632E+02 -0.94178364288E+01  0.11847369708E+02  0.18801809100E+02  0.41800000000E+01 0. -1.
</event>
<event>
11    1  0.8974665E-009  0.1282192E+03  0.7561462E-02  0.1121477E+00
         22   -1    0    0    0    0  0.00000000000E+00  0.00000000000E+00  0.67308164606E+03  0.67308164606E+03  0.00000000000E+00 0.  1.
         22   -1    0    0    0    0 -0.00000000000E+00 -0.00000000000E+00 -0.30039371446E+03  0.30039371446E+03  0.00000000000E+00 0.  1.
        -24    2    1    2    0    0  0.11405253938E+02  0.17530910211E+02 -0.17213819602E+03  0.19009247032E+03  0.77885660522E+02 0.  0.
         25    2    1    2    0    0 -0.33502234276E+02 -0.13688128657E-01 -0.80406601905E+02  0.15243044528E+03  0.12508964437E+03 0.  0.
         24    2    1    2    0    0  0.22096980339E+02 -0.17517222082E+02  0.62523272953E+03  0.63095244492E+03  0.79936800478E+02 0.  0.
        -11    1    5    5    0    0  0.45932161510E+02 -0.13206579730E+02  0.54630675407E+03  0.54839333215E+03  0.00000000000E+00 0.  1.
         12    1    5    5    0    0 -0.23835181172E+02 -0.43106423523E+01  0.78925975460E+02  0.82559112769E+02  0.00000000000E+00 0. -1.
         11    1    3    3    0    0  0.43924296298E+02  0.75008524266E+01 -0.11815254743E+03  0.12627601141E+03  0.00000000000E+00 0. -1.
        -12    1    3    3    0    0 -0.32519042361E+02  0.10030057784E+02 -0.53985648586E+02  0.63816458915E+02  0.00000000000E+00 0.  1.
          5    1    4    4  501    0 -0.63039227868E+02  0.42740999549E+02 -0.57321684516E+02  0.95414806023E+02  0.41800000000E+01 0.  1.
         -5    1    4    4    0  501  0.29536993592E+02 -0.42754687677E+02 -0.23084917390E+02  0.57015639255E+02  0.41800000000E+01 0.  1.
</event>
<event>
11    1  0.8974665E-009  0.1338347E+03  0.7561462E-02  0.1114645E+00
         22   -1    0    0    0    0  0.00000000000E+00  0.00000000000E+00  0.47150715933E+03  0.47150715933E+03  0.00000000000E+00 0.  1.
         22   -1    0    0    0    0 -0.00000000000E+00 -0.00000000000E+00 -0.12246124897E+04  0.12246124897E+04  0.00000000000E+00 0.  1.
        -24    2    1    2    0    0  0.10826385930E+02 -0.53544795904E+02 -0.11724834014E+04  0.11759526325E+04  0.71854098402E+02 0.  0.
         25    2    1    2    0    0 -0.54051006987E+02  0.29919248220E+02  0.68378429237E+02  0.15536983935E+03  0.12508998610E+03 0.  0.
         24    2    1    2    0    0  0.43224621057E+02  0.23625547684E+02  0.35099964182E+03  0.36479717719E+03  0.86311630499E+02 0.  0.
        -11    1    5    5    0    0  0.43445938656E+02 -0.70376109097E+01  0.31247193864E+03  0.31555631825E+03  0.00000000000E+00 0.  1.
         12    1    5    5    0    0 -0.22131759938E+00  0.30663158594E+02  0.38527703182E+02  0.49240858938E+02  0.00000000000E+00 0. -1.
         13    1    3    3    0    0  0.60371332273E+01  0.15686465669E+02 -0.11837338007E+03  0.11956073474E+03  0.00000000000E+00 0. -1.
        -14    1    3    3    0    0  0.47892527028E+01 -0.69231261573E+02 -0.10541100214E+04  0.10563918978E+04  0.00000000000E+00 0.  1.
          5    1    4    4  501    0 -0.58290163284E+02  0.70232780608E+02  0.22676980244E+02  0.94138751004E+02  0.41800000000E+01 0. -1.
         -5    1    4    4    0  501  0.42391562974E+01 -0.40313532388E+02  0.45701448993E+02  0.61231088343E+02  0.41800000000E+01 0. -1.
</event>
<event>
11    1  0.8974665E-009  0.1616847E+03  0.7561462E-02  0.1085503E+00
         22   -1    0    0    0    0  0.00000000000E+00  0.00000000000E+00  0.14263207703E+04  0.14263207703E+04  0.00000000000E+00 0. -1.
         22   -1    0    0    0    0 -0.00000000000E+00 -0.00000000000E+00 -0.20678161347E+04  0.20678161347E+04  0.00000000000E+00 0.  1.
        -24    2    1    2    0    0  0.99695868221E+01  0.22987560611E+02 -0.18370700309E+04  0.18389972339E+04  0.80353637384E+02 0.  0.
         25    2    1    2    0    0  0.92088254628E+02 -0.32964258590E+02 -0.19890183416E+03  0.25451214203E+03  0.12509037462E+03 0.  0.
         24    2    1    2    0    0 -0.10205784145E+03  0.99766979791E+01  0.13944765006E+04  0.14006275291E+04  0.81715524781E+02 0.  0.
        -13    1    5    5    0    0 -0.51119065200E+02  0.18273512486E+02  0.29585053071E+03  0.30078998754E+03  0.00000000000E+00 0.  1.
         14    1    5    5    0    0 -0.50938776249E+02 -0.82968145064E+01  0.10986259699E+04  0.10998375416E+04  0.00000000000E+00 0. -1.
         11    1    3    3    0    0 -0.29799233283E+02  0.28343606239E+02 -0.68914889122E+03  0.69037493334E+03  0.00000000000E+00 0. -1.
        -12    1    3    3    0    0  0.39768820105E+02 -0.53560456283E+01 -0.11479211397E+04  0.11486223005E+04  0.00000000000E+00 0.  1.
          5    1    4    4  501    0  0.83468963627E+01 -0.61560948683E+01  0.17570160132E+02  0.20826692248E+02  0.41800000000E+01 0.  1.
         -5    1    4    4    0  501  0.83741358265E+02 -0.26808163721E+02 -0.21647199430E+03  0.23368544978E+03  0.41800000000E+01 0.  1.
</event>
<event>
11    1  0.8974665E-009  0.1989583E+03  0.7561462E-02  0.1055263E+00
         22   -1    0    0    0    0  0.00000000000E+00  0.00000000000E+00  0.50034882108E+03  0.50034882108E+03  0.00000000000E+00 0. -1.
         22   -1    0    0    0    0 -0.00000000000E+00 -0.00000000000E+00 -0.62710183317E+03  0.62710183317E+03  0.00000000000E+00 0. -1.
         24    2    1    2    0    0 -0.49567726446E+02  0.75535722402E+02 -0.47275570765E+03  0.48795860403E+03  0.80268519826E+02 0.  0.
         25    2    1    2    0    0  0.23018442093E+01 -0.16697850951E+03  0.42869742854E+03  0.47677743141E+03  0.12509241678E+03 0.  0.
        -24    2    1    2    0    0  0.47265882237E+02  0.91442787110E+02 -0.82694732986E+02  0.16271461881E+03  0.95088281994E+02 0.  0.
        -13    1    3    3    0    0 -0.44606204286E+02 -0.27010270929E+00 -0.19117455151E+03  0.19630969299E+03  0.00000000000E+00 0.  1.
         14    1    3    3    0    0 -0.49615221596E+01  0.75805825112E+02 -0.28158115614E+03  0.29164891105E+03  0.00000000000E+00 0. -1.
         13    1    5    5    0    0  0.70236026879E+01  0.29522203783E+02  0.19911990528E+02  0.36295714316E+02  0.00000000000E+00 0. -1.
        -14    1    5    5    0    0  0.40242279549E+02  0.61920583327E+02 -0.10260672351E+03  0.12641890449E+03  0.00000000000E+00 0.  1.
          5    1    4    4  501    0 -0.53871843622E+02 -0.36578573479E+02  0.16118144183E+03  0.17388817431E+03  0.41800000000E+01 0.  1.
         -5    1    4    4    0  501  0.56173687831E+02 -0.13039993603E+03  0.26751598671E+03  0.30288925710E+03  0.41800000000E+01 0.  1.
</event>
<event>
11    1  0.8974665E-009  0.1365707E+03  0.7561462E-02  0.1111449E+00
         22   -1    0    0    0    0  0.00000000000E+00  0.00000000000E+00  0.46361617452E+03  0.46361617452E+03  0.00000000000E+00 0.  1.
         22   -1    0    0    0    0 -0.00000000000E+00 -0.00000000000E+00 -0.97405033401E+03  0.97405033401E+03  0.00000000000E+00 0.  1.
        -24    2    1    2    0    0 -0.24928608439E+02  0.49050325683E+02 -0.93089576619E+03  0.93592035061E+03  0.79703232072E+02 0.  0.
         25    2    1    2    0    0 -0.13208039459E+02 -0.55399840451E+02  0.99834838537E+02  0.16987539437E+03  0.12508820887E+03 0.  0.
         24    2    1    2    0    0  0.38136647897E+02  0.63495147681E+01  0.32062676816E+03  0.33187076356E+03  0.76432708906E+02 0.  0.
        -11    1    5    5    0    0  0.46029697932E+02  0.29698844805E+02  0.15446198963E+03  0.16388795171E+03  0.00000000000E+00 0.  1.
         12    1    5    5    0    0 -0.78930500348E+01 -0.23349330037E+02  0.16616477853E+03  0.16798281184E+03  0.00000000000E+00 0. -1.
         13    1    3    3    0    0  0.10578226716E+02  0.28442335903E+02 -0.11326783148E+03  0.11726238528E+03  0.00000000000E+00 0. -1.
        -14    1    3    3    0    0 -0.35506835155E+02  0.20607989780E+02 -0.81762793471E+03  0.81865796533E+03  0.00000000000E+00 0.  1.
          5    1    4    4  501    0 -0.44327211789E+02  0.59198907189E+01 -0.41860082266E+01  0.45110330036E+02  0.41800000000E+01 0. -1.
         -5    1    4    4    0  501  0.31119172330E+02 -0.61319731170E+02  0.10402084676E+03  0.12476506434E+03  0.41800000000E+01 0. -1.
</event>
<event>
11    1  0.1573616E-008  0.1841832E+03  0.7561462E-02  0.1066308E+00
         22   -1    0    0    0    0  0.00000000000E+00  0.00000000000E+00  0.45942022452E+03  0.45942022452E+03  0.00000000000E+00 0. -1.
         22   -1    0    0    0    0 -0.00000000000E+00 -0.00000000000E+00 -0.65891741442E+03  0.65891741442E+03  0.00000000000E+00 0.  1.
         24    2    1    2    0    0 -0.56084490178E+02  0.31129798393E+02 -0.43289339981E+03  0.44477644216E+03  0.79466052566E+02 0.  0.
         25    2    1    2    0    0  0.14717769616E+03  0.67258928801E+02 -0.15417375718E+03  0.25613115614E+03  0.12509430041E+03 0.  0.
        -24    2    1    2    0    0 -0.91093205981E+02 -0.98388727195E+02  0.38756996709E+03  0.41743004064E+03  0.77839871663E+02 0.  0.
        -13    1    3    3    0    0 -0.11614332323E+02 -0.52403289338E+01 -0.29655594289E+03  0.29682954877E+03  0.00000000000E+00 0.  1.
         14    1    3    3    0    0 -0.44470157855E+02  0.36370127327E+02 -0.13633745692E+03  0.14794689338E+03  0.00000000000E+00 0. -1.
         11    1    5    5    0    0 -0.86801102412E+02 -0.10664492201E+03  0.38325010871E+03  0.40717099184E+03  0.00000000000E+00 0. -1.
        -12    1    5    5    0    0 -0.42921035691E+01  0.82561948124E+01  0.43198583847E+01  0.10259048801E+02  0.00000000000E+00 0.  1.
          5    1    4    4  501    0  0.14310550509E+03  0.27069068190E+02 -0.15849492733E+03  0.21529058137E+03  0.41800000000E+01 0.  1.
         -5    1    4    4    0  501  0.40721910681E+01  0.40189860611E+02  0.43211701483E+01  0.40840574770E+02  0.41800000000E+01 0.  1.
</event>
<event>
11    1  0.8974665E-009  0.1311919E+03  0.7561462E-02  0.1117813E+00
         22   -1    0    0    0    0  0.00000000000E+00  0.00000000000E+00  0.39871883607E+03  0.39871883607E+03  0.00000000000E+00 0. -1.
         22   -1    0    0    0    0 -0.00000000000E+00 -0.00000000000E+00 -0.13305980322E+04  0.13305980322E+04  0.00000000000E+00 0. -1.
        -24    2    1    2    0    0 -0.11881657000E+02  0.24187240000E+02 -0.77328710360E+03  0.78053207120E+03  0.10262150469E+03 0.  0.
         25    2    1    2    0    0 -0.83720041843E+01 -0.80370144533E+02 -0.53707174449E+03  0.55733673736E+03  0.12509488193E+03 0.  0.
         24    2    1    2    0    0  0.20253661185E+02  0.56182904533E+02  0.37847965199E+03  0.39144805968E+03  0.80112464131E+02 0.  0.
        -13    1    5    5    0    0  0.51332313761E+02  0.35898170307E+02  0.22641441337E+03  0.23491950036E+03  0.00000000000E+00 0.  1.
         14    1    5    5    0    0 -0.31078652577E+02  0.20284734226E+02  0.15206523862E+03  0.15652855933E+03  0.00000000000E+00 0. -1.
         13    1    3    3    0    0  0.36550038694E+02  0.23476846619E+02 -0.56584810913E+03  0.56751312783E+03  0.00000000000E+00 0. -1.
        -14    1    3    3    0    0 -0.48431695694E+02  0.71039338141E+00 -0.20743899447E+03  0.21301894337E+03  0.00000000000E+00 0.  1.
          5    1    4    4  501    0  0.16775350207E+00 -0.11316914538E+03 -0.44343210157E+03  0.45766448924E+03  0.41800000000E+01 0.  1.
         -5    1    4    4    0  501 -0.85397576864E+01  0.32799000846E+02 -0.93639642927E+02  0.99672248120E+02  0.41800000000E+01 0.  1.
</event>
<event>
11    1  0.8974665E-009  0.2531291E+03  0.7561462E-02  0.1022245E+00
         22   -1    0    0    0    0  0.00000000000E+00  0.00000000000E+00  0.18575791190E+04  0.18575791190E+04  0.00000000000E+00 0.  1.
         22   -1    0    0    0    0 -0.00000000000E+00 -0.00000000000E+00 -0.19815722050E+03  0.19815722050E+03  0.00000000000E+00 0.  1.
        -24    2    1    2    0    0 -0.21640203827E+03 -0.31060831796E+02 -0.71525270310E+02  0.24416557901E+03  0.81892296591E+02 0.  0.
         25    2    1    2    0    0  0.22240642464E+03  0.49387796802E+02  0.39355852241E+03  0.47163526661E+03  0.12509093474E+03 0.  0.
         24    2    1    2    0    0 -0.60043863694E+01 -0.18326965006E+02  0.13373886465E+04  0.13399354939E+04  0.80292004152E+02 0.  0.
        -13    1    5    5    0    0  0.33051924867E+02  0.57090030576E+01  0.75469310605E+03  0.75543808930E+03  0.00000000000E+00 0.  1.
         14    1    5    5    0    0 -0.39056311237E+02 -0.24035968064E+02  0.58269554040E+03  0.58449740462E+03  0.00000000000E+00 0. -1.
         13    1    3    3    0    0 -0.44143674058E+02 -0.41580546933E+02 -0.13858585780E+02  0.62206641465E+02  0.00000000000E+00 0. -1.
        -14    1    3    3    0    0 -0.17225836421E+03  0.10519715137E+02 -0.57666684530E+02  0.18195893754E+03  0.00000000000E+00 0.  1.
          5    1    4    4  501    0 -0.21657188001E+01 -0.24824419644E+01  0.91534126948E+02  0.91688721510E+02  0.41800000000E+01 0.  1.
         -5    1    4    4    0  501  0.22457214344E+03  0.51870238767E+02  0.30202439546E+03  0.37994654510E+03  0.41800000000E+01 0.  1.
</event>
<event>
11    1  0.8974665E-009  0.1472475E+03  0.7561462E-02  0.1099725E+00
         22   -1    0    0    0    0  0.00000000000E+00  0.00000000000E+00  0.34532063991E+04  0.34532063991E+04  0.00000000000E+00 0. -1.
         22   -1    0    0    0    0 -0.00000000000E+00 -0.00000000000E+00 -0.56772714525E+03  0.56772714525E+03  0.00000000000E+00 0. -1.
         24    2    1    2    0    0  0.28196199592E+02  0.28185318576E+02 -0.43879742541E+03  0.44748783369E+03  0.78184032262E+02 0.  0.
         25    2    1    2    0    0  0.46189120452E+02 -0.49410615399E+01 -0.87654478340E+02  0.15965734375E+03  0.12509720581E+03 0.  0.
        -24    2    1    2    0    0 -0.74385320044E+02 -0.23244257036E+02  0.34119311576E+04  0.34137883669E+04  0.81260805996E+02 0.  0.
        -11    1    3    3    0    0  0.24505524863E+02  0.20773706040E+02 -0.55696848178E+02  0.64297795517E+02  0.00000000000E+00 0.  1.
         12    1    3    3    0    0  0.36906747299E+01  0.74116125356E+01 -0.38310057723E+03  0.38319003817E+03  0.00000000000E+00 0. -1.
         11    1    5    5    0    0 -0.72193047211E+02 -0.23731896247E+02  0.34099407454E+04  0.34107874349E+04  0.00000000000E+00 0. -1.
        -12    1    5    5    0    0 -0.21922728327E+01  0.48763921083E+00  0.19904121707E+01  0.30009319857E+01  0.00000000000E+00 0.  1.
          5    1    4    4  501    0 -0.39961248466E+02 -0.20447877443E+02 -0.37808253940E+02  0.58838367898E+02  0.41800000000E+01 0.  1.
         -5    1    4    4    0  501  0.86150368918E+02  0.15506815903E+02 -0.49846224400E+02  0.10081897585E+03  0.41800000000E+01 0.  1.
</event>
<event>
11    1  0.8974665E-009  0.1965272E+03  0.7561462E-02  0.1057007E+00
         22   -1    0    0    0    0  0.00000000000E+00  0.00000000000E+00  0.63973002449E+03  0.63973002449E+03  0.00000000000E+00 0.  1.
         22   -1    0    0    0    0 -0.00000000000E+00 -0.00000000000E+00 -0.19226399218E+04  0.19226399218E+04  0.00000000000E+00 0. -1.
        -24    2    1    2    0    0 -0.35972160540E+02  0.14662258280E+03 -0.18236219311E+04  0.18316321284E+04  0.80542709925E+02 0.  0.
         25    2    1    2    0    0 -0.96415902003E+01 -0.17877461550E+03  0.41847390514E+02  0.22237745145E+03  0.12508878211E+03 0.  0.
         24    2    1    2    0    0  0.45613750740E+02  0.32152032701E+02  0.49886464324E+03  0.50836036646E+03  0.80311658202E+02 0.  0.
        -11    1    5    5    0    0  0.60141568996E+02 -0.17966863694E+01  0.27874686384E+03  0.28516670652E+03  0.00000000000E+00 0.  1.
         12    1    5    5    0    0 -0.14527818255E+02  0.33948719071E+02  0.22011777940E+03  0.22319365994E+03  0.00000000000E+00 0. -1.
         13    1    3    3    0    0 -0.60824712637E+02  0.11632205748E+03 -0.14682122666E+04  0.14740684267E+04  0.00000000000E+00 0. -1.
        -14    1    3    3    0    0  0.24852552097E+02  0.30300525325E+02 -0.35540966452E+03  0.35756370176E+03  0.00000000000E+00 0.  1.
          5    1    4    4  501    0  0.17306579123E+02 -0.42666491111E+02 -0.40083272282E+02  0.61188955389E+02  0.41800000000E+01 0.  1.
         -5    1    4    4    0  501 -0.26948169323E+02 -0.13610812439E+03  0.81930662797E+02  0.16118849606E+03  0.41800000000E+01 0.  1.
</event>
<event>
11    1  0.8974665E-009  0.2128936E+03  0.7561462E-02  0.1045763E+00
         22   -1    0    0    0    0  0.00000000000E+00  0.00000000000E+00  0.22368414169E+03  0.22368414169E+03  0.00000000000E+00 0.  1.
         22   -1    0    0    0    0 -0.00000000000E+00 -0.00000000000E+00 -0.49946508430E+03  0.49946508430E+03  0.00000000000E+00 0. -1.
        -24    2    1    2    0    0 -0.17241943807E+03  0.70039662725E+02 -0.37257704054E+03  0.42344902128E+03  0.76559816510E+02 0.  0.
         25    2    1    2    0    0  0.10947820003E+03 -0.36908779421E+02  0.35368230095E+02  0.17391541626E+03  0.12509167051E+03 0.  0.
         24    2    1    2    0    0  0.62941238036E+02 -0.33130883304E+02  0.61427867838E+02  0.12578478845E+03  0.83601286981E+02 0.  0.
        -13    1    5    5    0    0  0.79931970980E+02 -0.10964787739E+02  0.37335903843E+02  0.88900597696E+02  0.00000000000E+00 0.  1.
         14    1    5    5    0    0 -0.16990732944E+02 -0.22166095565E+02  0.24091963995E+02  0.36884190756E+02  0.00000000000E+00 0. -1.
         13    1    3    3    0    0 -0.18018246233E+03  0.65517600180E+02 -0.36142150850E+03  0.40912563165E+03  0.00000000000E+00 0. -1.
        -14    1    3    3    0    0  0.77630242624E+01  0.45220625456E+01 -0.11155532042E+02  0.14323389630E+02  0.00000000000E+00 0.  1.
          5    1    4    4  501    0  0.63830855802E+02 -0.69795913082E+02 -0.17869293799E+02  0.96346415067E+02  0.41800000000E+01 0. -1.
         -5    1    4    4    0  501  0.45647344231E+02  0.32887133661E+02  0.53237523894E+02  0.77569001193E+02  0.41800000000E+01 0. -1.
</event>
<event>
11    1  0.8974665E-009  0.1891978E+03  0.7561462E-02  0.1062437E+00
         22   -1    0    0    0    0  0.00000000000E+00  0.00000000000E+00  0.44886826507E+03  0.44886826507E+03  0.00000000000E+00 0. -1.
         22   -1    0    0    0    0 -0.00000000000E+00 -0.00000000000E+00 -0.53552857000E+03  0.53552857000E+03  0.00000000000E+00 0. -1.
        -24    2    1    2    0    0 -0.17625533502E+02 -0.51351873478E+02 -0.45063941235E+03  0.46102025648E+03  0.80722503564E+02 0.  0.
         25    2    1    2    0    0  0.10355458249E+03 -0.73097544565E+02  0.88514006321E+02  0.19886565353E+03  0.12508403680E+03 0.  0.
         24    2    1    2    0    0 -0.85929048991E+02  0.12444941804E+03  0.27546510111E+03  0.32451092506E+03  0.80962086476E+02 0.  0.
        -13    1    5    5    0    0 -0.20763138193E+02 -0.53458327441E+01  0.67714670921E+02  0.71027899401E+02  0.00000000000E+00 0.  1.
         14    1    5    5    0    0 -0.65165910798E+02  0.12979525079E+03  0.20775043018E+03  0.25348302566E+03  0.00000000000E+00 0. -1.
         11    1    3    3    0    0 -0.27727522710E+02 -0.26378945603E+02 -0.41280495150E+03  0.41457519495E+03  0.00000000000E+00 0. -1.
        -12    1    3    3    0    0  0.10101989207E+02 -0.24972927875E+02 -0.37834460850E+02  0.46445061528E+02  0.00000000000E+00 0.  1.
          5    1    4    4  501    0  0.97007298189E+02 -0.85245352779E+02  0.11220778809E+03  0.17112932589E+03  0.41800000000E+01 0.  1.
         -5    1    4    4    0  501  0.65472843044E+01  0.12147808214E+02 -0.23693781769E+02  0.27736327635E+02  0.41800000000E+01 0.  1.
</event>
<event>
11    1  0.8974665E-009  0.2284861E+03  0.7561462E-02  0.1036028E+00
         22   -1    0    0    0    0  0.00000000000E+00  0.00000000000E+00  0.12674538666E+04  0.12674538666E+04  0.00000000000E+00 0.  1.
         22   -1    0    0    0    0 -0.00000000000E+00 -0.00000000000E+00 -0.43703454851E+03  0.43703454851E+03  0.00000000000E+00 0.  1.
        -24    2    1    2    0    0 -0.30828899549E+02  0.65164503571E+02 -0.31574540192E+03  0.33398052644E+03  0.81553661079E+02 0.  0.
         25    2    1    2    0    0 -0.13720391283E+03 -0.15551623730E+03  0.40467445955E+02  0.24555140755E+03  0.12509063037E+03 0.  0.
         24    2    1    2    0    0  0.16803281238E+03  0.90351733726E+02  0.11056972741E+04  0.11249564812E+04  0.81007164880E+02 0.  0.
        -11    1    5    5    0    0  0.13589971721E+03  0.92725770184E+02  0.75155606971E+03  0.76935253786E+03  0.00000000000E+00 0.  1.
         12    1    5    5    0    0  0.32133095170E+02 -0.23740364580E+01  0.35414120439E+03  0.35560394332E+03  0.00000000000E+00 0. -1.
         13    1    3    3    0    0 -0.21060101756E+02  0.28219700011E+02 -0.31709220651E+02  0.47385166761E+02  0.00000000000E+00 0. -1.
        -14    1    3    3    0    0 -0.97687977930E+01  0.36944803560E+02 -0.28403618127E+03  0.28659535968E+03  0.00000000000E+00 0.  1.
          5    1    4    4  501    0 -0.97095611415E+02 -0.11144951236E+03 -0.32349667556E+02  0.15136883746E+03  0.41800000000E+01 0. -1.
         -5    1    4    4    0  501 -0.40108301413E+02 -0.44066724935E+02  0.72817113510E+02  0.94182570090E+02  0.41800000000E+01 0. -1.
</event>
<event>
11    1  0.8974665E-009  0.1617768E+03  0.7561462E-02  0.1085418E+00
         22   -1    0    0    0    0  0.00000000000E+00  0.00000000000E+00  0.23857368702E+04  0.23857368702E+04  0.00000000000E+00 0. -1.
         22   -1    0    0    0    0 -0.00000000000E+00 -0.00000000000E+00 -0.21600497984E+03  0.21600497984E+03  0.00000000000E+00 0. -1.
         24    2    1    2    0    0 -0.80114029941E+02 -0.62433913861E+02 -0.17749055733E+03  0.21999066877E+03  0.81097133177E+02 0.  0.
         25    2    1    2    0    0  0.71786169825E+02  0.11551239337E+03  0.51811861861E+03  0.55008361981E+03  0.12509483856E+03 0.  0.
        -24    2    1    2    0    0  0.83278601164E+01 -0.53078479508E+02  0.18291038291E+04  0.18316675615E+04  0.80613645803E+02 0.  0.
        -11    1    3    3    0    0 -0.48782682425E+02  0.87475898015E+01 -0.48341144890E+02  0.69232483136E+02  0.00000000000E+00 0.  1.
         12    1    3    3    0    0 -0.31331347516E+02 -0.71181503663E+02 -0.12914941244E+03  0.15075818563E+03  0.00000000000E+00 0. -1.
         13    1    5    5    0    0  0.41758183344E+02 -0.17003001041E+02  0.10877530610E+04  0.10886870853E+04  0.00000000000E+00 0. -1.
        -14    1    5    5    0    0 -0.33430323228E+02 -0.36075478467E+02  0.74135076809E+03  0.74298047619E+03  0.00000000000E+00 0.  1.
          5    1    4    4  501    0  0.19242119721E+02  0.93423255530E+02  0.15176754714E+03  0.17930149082E+03  0.41800000000E+01 0. -1.
         -5    1    4    4    0  501  0.52544050104E+02  0.22089137839E+02  0.36635107147E+03  0.37078212899E+03  0.41800000000E+01 0. -1.
</event>
<event>
11    1  0.9934823E-009  0.1540528E+03  0.7561462E-02  0.1092808E+00
         22   -1    0    0    0    0  0.00000000000E+00  0.00000000000E+00  0.69300354910E+03  0.69300354910E+03  0.00000000000E+00 0. -1.
         22   -1    0    0    0    0 -0.00000000000E+00 -0.00000000000E+00 -0.36407033670E+03  0.36407033670E+03  0.00000000000E+00 0. -1.
        -24    2    1    2    0    0 -0.22866760292E+02  0.51672351078E+02 -0.30214776722E+03  0.31762305096E+03  0.79988803423E+02 0.  0.
         25    2    1    2    0    0  0.17965306334E+02  0.44580964631E+02  0.46982914806E+02  0.14200521637E+03  0.12509145675E+03 0.  0.
         24    2    1    2    0    0  0.49014539574E+01 -0.96253315709E+02  0.58409806482E+03  0.59744561848E+03  0.80510823381E+02 0.  0.
        -11    1    5    5    0    0 -0.35612526762E+02 -0.41737452034E+02  0.20004100749E+03  0.20742871460E+03  0.00000000000E+00 0.  1.
         12    1    5    5    0    0  0.40513980720E+02 -0.54515863676E+02  0.38405705732E+03  0.39001690387E+03  0.00000000000E+00 0. -1.
         13    1    3    3    0    0  0.39877580645E+01  0.56423732718E+01 -0.21741833601E+03  0.21752809342E+03  0.00000000000E+00 0. -1.
        -14    1    3    3    0    0 -0.26854518356E+02  0.46029977806E+02 -0.84729431202E+02  0.10009495754E+03  0.00000000000E+00 0.  1.
          5    1    4    4  501    0  0.45770007924E+02  0.50391206796E+02  0.75357661521E+02  0.10163865848E+03  0.41800000000E+01 0.  1.
         -5    1    4    4    0  501 -0.27804701589E+02 -0.58102421648E+01 -0.28374746715E+02  0.40366557887E+02  0.41800000000E+01 0.  1.
</event>
<event>
11    1  0.8974665E-009  0.1582309E+03  0.7561462E-02  0.1088753E+00
         22   -1    0    0    0    0  0.00000000000E+00  0.00000000000E+00  0.22744978854E+03  0.22744978854E+03  0.00000000000E+00 0.  1.
         22   -1    0    0    0    0 -0.00000000000E+00 -0.00000000000E+00 -0.85084265696E+03  0.85084265696E+03  0.00000000000E+00 0.  1.
        -24    2    1    2    0    0 -0.77959098907E+02  0.38520826660E+02 -0.50237731360E+03  0.51608053887E+03  0.79966756778E+02 0.  0.
         25    2    1    2    0    0  0.10641871004E+03 -0.87566247198E+02 -0.30117968488E+03  0.35404817776E+03  0.12509244620E+03 0.  0.
         24    2    1    2    0    0 -0.28459611136E+02  0.49045420538E+02  0.18016413005E+03  0.20816372888E+03  0.87507836918E+02 0.  0.
        -11    1    5    5    0    0 -0.32490750235E+02  0.25363980730E+02  0.17945848498E+03  0.18413127980E+03  0.00000000000E+00 0.  1.
         12    1    5    5    0    0  0.40311390989E+01  0.23681439807E+02  0.70564507012E+00  0.24032449079E+02  0.00000000000E+00 0. -1.
         13    1    3    3    0    0 -0.56927339237E+02  0.23826887047E+02 -0.14249022971E+03  0.15528009551E+03  0.00000000000E+00 0. -1.
        -14    1    3    3    0    0 -0.21031759670E+02  0.14693939613E+02 -0.35988708389E+03  0.36080044336E+03  0.00000000000E+00 0.  1.
          5    1    4    4  501    0  0.20792229802E+02  0.46027708123E+01  0.56304435326E+01  0.22420450791E+02  0.41800000000E+01 0. -1.
         -5    1    4    4    0  501  0.85626480241E+02 -0.92169018010E+02 -0.30681012841E+03  0.33162772697E+03  0.41800000000E+01 0. -1.
</event>
<event>
11    1  0.8974665E-009  0.1280145E+03  0.7561462E-02  0.1121733E+00
         22   -1    0    0    0    0  0.00000000000E+00  0.00000000000E+00  0.32948523118E+03  0.32948523118E+03  0.00000000000E+00 0. -1.
         22   -1    0    0    0    0 -0.00000000000E+00 -0.00000000000E+00 -0.15957932819E+03  0.15957932819E+03  0.00000000000E+00 0. -1.
         24    2    1    2    0    0 -0.70151533569E+01 -0.25368330652E+02 -0.10950776990E+03  0.13807087262E+03  0.79867700746E+02 0.  0.
         25    2    1    2    0    0  0.85426998859E+01  0.37680596436E+02  0.16943730582E+03  0.21412898566E+03  0.12509762919E+03 0.  0.
        -24    2    1    2    0    0 -0.15275465290E+01 -0.12312265784E+02  0.10997636706E+03  0.13686470107E+03  0.80518443852E+02 0.  0.
        -11    1    3    3    0    0  0.10974320385E+01 -0.22972977366E+02  0.47632149725E+01  0.23487236173E+02  0.00000000000E+00 0.  1.
         12    1    3    3    0    0 -0.81125853954E+01 -0.23953532859E+01 -0.11427098487E+03  0.11458363645E+03  0.00000000000E+00 0. -1.
         11    1    5    5    0    0 -0.21867360227E+02 -0.33743057453E+02  0.96198696621E+02  0.10426391802E+03  0.00000000000E+00 0. -1.
        -12    1    5    5    0    0  0.20339813698E+02  0.21430791669E+02  0.13777670444E+02  0.32600783053E+02  0.00000000000E+00 0.  1.
          5    1    4    4  501    0  0.34131691926E+02  0.47414254402E+02  0.19614568928E+02  0.61768014607E+02  0.41800000000E+01 0.  1.
         -5    1    4    4    0  501 -0.25588992040E+02 -0.97336579656E+01  0.14982273689E+03  0.15236097106E+03  0.41800000000E+01 0.  1.
</event>
<event>
11    1  0.8974665E-009  0.1918282E+03  0.7561462E-02  0.1060458E+00
         22   -1    0    0    0    0  0.00000000000E+00  0.00000000000E+00  0.79375907550E+03  0.79375907550E+03  0.00000000000E+00 0. -1.
         22   -1    0    0    0    0 -0.00000000000E+00 -0.00000000000E+00 -0.12301411980E+03  0.12301411980E+03  0.00000000000E+00 0. -1.
        -24    2    1    2    0    0  0.63991830981E+02 -0.13442445792E+03 -0.10744638642E+02  0.17300136958E+03  0.87459346548E+02 0.  0.
         25    2    1    2    0    0 -0.26592928866E+02  0.13222983721E+03  0.29893960987E+03  0.35101001402E+03  0.12510485955E+03 0.  0.
         24    2    1    2    0    0 -0.37398902115E+02  0.21946207034E+01  0.38254998446E+03  0.39276181170E+03  0.80708462216E+02 0.  0.
        -13    1    5    5    0    0 -0.24874155035E+02  0.14913730908E+02  0.38263608284E+02  0.48012984465E+02  0.00000000000E+00 0.  1.
         14    1    5    5    0    0 -0.12524747081E+02 -0.12719110205E+02  0.34428637618E+03  0.34474882723E+03  0.00000000000E+00 0. -1.
         11    1    3    3    0    0  0.68070000464E+02 -0.53854071349E+02 -0.26605465928E+02  0.90783460946E+02  0.00000000000E+00 0. -1.
        -12    1    3    3    0    0 -0.40781694829E+01 -0.80570386568E+02  0.15860827286E+02  0.82217908634E+02  0.00000000000E+00 0.  1.
          5    1    4    4  501    0  0.18491981602E+02 -0.18450861608E+02  0.48587087866E+02  0.55322375084E+02  0.41800000000E+01 0.  1.
         -5    1    4    4    0  501 -0.45084910468E+02  0.15068069882E+03  0.25035252200E+03  0.29568763894E+03  0.41800000000E+01 0.  1.
</event>
<event>
11    1  0.8974665E-009  0.1475960E+03  0.7561462E-02  0.1099361E+00
         22   -1    0    0    0    0  0.00000000000E+00  0.00000000000E+00  0.24044632949E+03  0.24044632949E+03  0.00000000000E+00 0. -1.
         22   -1    0    0    0    0 -0.00000000000E+00 -0.00000000000E+00 -0.20530773908E+04  0.20530773908E+04  0.00000000000E+00 0.  1.
        -24    2    1    2    0    0  0.78012300876E+02  0.10541589041E+02 -0.17773521118E+04  0.17809387667E+04  0.81026643835E+02 0.  0.
         25    2    1    2    0    0 -0.65488996583E+02 -0.57341251889E+02 -0.24163699132E+03  0.28567869835E+03  0.12508819000E+03 0.  0.
         24    2    1    2    0    0 -0.12523304292E+02  0.46799662847E+02  0.20635804184E+03  0.22690625527E+03  0.80967682783E+02 0.  0.
        -13    1    5    5    0    0 -0.40820200018E+02  0.40398351703E+02  0.88285324669E+02  0.10532147977E+03  0.00000000000E+00 0.  1.
         14    1    5    5    0    0  0.28296895726E+02  0.64013111445E+01  0.11807271718E+03  0.12158477550E+03  0.00000000000E+00 0. -1.
         13    1    3    3    0    0  0.71150094070E+02  0.44393924479E+01 -0.71461655528E+03  0.71816353651E+03  0.00000000000E+00 0. -1.
        -14    1    3    3    0    0  0.68622068060E+01  0.61021965936E+01 -0.10627355566E+04  0.10627752302E+04  0.00000000000E+00 0.  1.
          5    1    4    4  501    0 -0.61855649565E+02  0.36492931206E+01 -0.37487160439E+02  0.72541011305E+02  0.41800000000E+01 0.  1.
         -5    1    4    4    0  501 -0.36333470188E+01 -0.60990545009E+02 -0.20414983088E+03  0.21313768705E+03  0.41800000000E+01 0.  1.
</event>
<event>
11    1  0.8974665E-009  0.1512138E+03  0.7561462E-02  0.1095645E+00
         22   -1    0    0    0    0  0.00000000000E+00  0.00000000000E+00  0.33478046981E+03  0.33478046981E+03  0.00000000000E+00 0.  1.
         22   -1    0    0    0    0 -0.00000000000E+00 -0.00000000000E+00 -0.55710516658E+03  0.55710516658E+03  0.00000000000E+00 0. -1.
         24    2    1    2    0    0  0.23173676600E+02 -0.13804149036E+02 -0.43654615585E+03  0.44469918514E+03  0.80356986334E+02 0.  0.
         25    2    1    2    0    0  0.49863791898E+02  0.59584736436E+02 -0.52404489169E+02  0.15630482096E+03  0.12509287754E+03 0.  0.
        -24    2    1    2    0    0 -0.73037468498E+02 -0.45780587400E+02  0.26662594825E+03  0.29088163030E+03  0.78053780026E+02 0.  0.
        -13    1    3    3    0    0  0.39173544328E+02  0.21895294932E+02 -0.26270128649E+03  0.26650691631E+03  0.00000000000E+00 0.  1.
         14    1    3    3    0    0 -0.15999867728E+02 -0.35699443968E+02 -0.17384486936E+03  0.17819226883E+03  0.00000000000E+00 0. -1.
         13    1    5    5    0    0 -0.99353462573E+01 -0.51919500793E+02  0.12427661020E+03  0.13505192154E+03  0.00000000000E+00 0. -1.
        -14    1    5    5    0    0 -0.63102122241E+02  0.61389133930E+01  0.14234933805E+03  0.15582970876E+03  0.00000000000E+00 0.  1.
          5    1    4    4  501    0  0.77995849598E+02  0.19700266097E+02 -0.67445892481E+02  0.10506128617E+03  0.41800000000E+01 0.  1.
         -5    1    4    4    0  501 -0.28132057700E+02  0.39884470338E+02  0.15041403311E+02  0.51243534794E+02  0.41800000000E+01 0.  1.
</event>
<event>
11    1  0.8974665E-009  0.2544273E+03  0.7561462E-02  0.1021567E+00
         22   -1    0    0    0    0  0.00000000000E+00  0.00000000000E+00  0.15708321287E+04  0.15708321287E+04  0.00000000000E+00 0. -1.
         22   -1    0    0    0    0 -0.00000000000E+00 -0.00000000000E+00 -0.73434771530E+03  0.73434771530E+03  0.00000000000E+00 0. -1.
        -24    2    1    2    0    0  0.19299810031E+03  0.10333431600E+03 -0.66236799867E+03  0.70200972036E+03  0.78485885560E+02 0.  0.
         25    2    1    2    0    0 -0.34682291379E+03 -0.63881952075E+02  0.82471905743E+03  0.90563552797E+03  0.12508856262E+03 0.  0.
         24    2    1    2    0    0  0.15382481347E+03 -0.39452363922E+02  0.67413335466E+03  0.69753459570E+03  0.82946790650E+02 0.  0.
        -13    1    5    5    0    0  0.90664699026E+01  0.13610953564E+02  0.21935960636E+02  0.27361383416E+02  0.00000000000E+00 0.  1.
         14    1    5    5    0    0  0.14475834357E+03 -0.53063317486E+02  0.65219739402E+03  0.67017321229E+03  0.00000000000E+00 0. -1.
         11    1    3    3    0    0  0.12654747561E+03  0.35800595292E+02 -0.46228997821E+03  0.48063288502E+03  0.00000000000E+00 0. -1.
        -12    1    3    3    0    0  0.66450624700E+02  0.67533720705E+02 -0.20007802046E+03  0.22137683534E+03  0.00000000000E+00 0.  1.
          5    1    4    4  501    0 -0.97377845587E+01  0.13696282785E+02  0.88202763953E+01  0.19434049653E+02  0.41800000000E+01 0. -1.
         -5    1    4    4    0  501 -0.33708512923E+03 -0.77578234860E+02  0.81589878104E+03  0.88620147832E+03  0.41800000000E+01 0. -1.
</event>
<event>
11    1  0.8974665E-009  0.1321114E+03  0.7561462E-02  0.1116702E+00
         22   -1    0    0    0    0  0.00000000000E+00  0.00000000000E+00  0.81528391902E+02  0.81528391902E+02  0.00000000000E+00 0.  1.
         22   -1    0    0    0    0 -0.00000000000E+00 -0.00000000000E+00 -0.61117192681E+03  0.61117192681E+03  0.00000000000E+00 0. -1.
         24    2    1    2    0    0 -0.38477354840E+02 -0.56273754669E+01 -0.36205975006E+03  0.37257305874E+03  0.78811466756E+02 0.  0.
         25    2    1    2    0    0  0.58533647720E+02 -0.22714023740E+01 -0.19128965913E+03  0.23594548472E+03  0.12508873206E+03 0.  0.
        -24    2    1    2    0    0 -0.20056292880E+02  0.78987778409E+01  0.23705874284E+02  0.84181775247E+02  0.77845727132E+02 0.  0.
        -11    1    3    3    0    0 -0.29263665979E+02 -0.21052894689E+02 -0.60125419597E+02  0.70104583324E+02  0.00000000000E+00 0.  1.
         12    1    3    3    0    0 -0.92136888614E+01  0.15425519223E+02 -0.30193433047E+03  0.30246847542E+03  0.00000000000E+00 0. -1.
         13    1    5    5    0    0  0.25035893149E+02  0.26015863569E+01 -0.10564112799E+02  0.27297704603E+02  0.00000000000E+00 0. -1.
        -14    1    5    5    0    0 -0.45092186029E+02  0.52971914840E+01  0.34269987083E+02  0.56884070645E+02  0.00000000000E+00 0.  1.
          5    1    4    4  501    0  0.16382877855E+01  0.52613107932E+02 -0.11239633079E+03  0.12418224788E+03  0.41800000000E+01 0. -1.
         -5    1    4    4    0  501  0.56895359935E+02 -0.54884510306E+02 -0.78893328333E+02  0.11176323684E+03  0.41800000000E+01 0. -1.
</event>
<event>
11    1  0.8974665E-009  0.1430031E+03  0.7561462E-02  0.1104251E+00
         22   -1    0    0    0    0  0.00000000000E+00  0.00000000000E+00  0.19940169329E+04  0.19940169329E+04  0.00000000000E+00 0. -1.
         22   -1    0    0    0    0 -0.00000000000E+00 -0.00000000000E+00 -0.43274966388E+02  0.43274966388E+02  0.00000000000E+00 0.  1.
        -24    2    1    2    0    0  0.20422085821E+02  0.65152042929E+02  0.39734116811E+02  0.10930806053E+03  0.75548671537E+02 0.  0.
         25    2    1    2    0    0 -0.24907433777E+01 -0.92709949250E+02  0.14458257426E+04  0.14541867611E+04  0.12508285145E+03 0.  0.
         24    2    1    2    0    0 -0.17931342444E+02  0.27557906321E+02  0.46518210703E+03  0.47379707758E+03  0.83715630437E+02 0.  0.
        -13    1    5    5    0    0 -0.48109377017E+02  0.33957204807E+02  0.32012034534E+03  0.32549138148E+03  0.00000000000E+00 0.  1.
         14    1    5    5    0    0  0.30178034574E+02 -0.63992984862E+01  0.14506176169E+03  0.14830569610E+03  0.00000000000E+00 0. -1.
         11    1    3    3    0    0  0.35438357246E+02  0.37972068451E+02 -0.78079277124E+01  0.52523507898E+02  0.00000000000E+00 0. -1.
        -12    1    3    3    0    0 -0.15016271425E+02  0.27179974478E+02  0.47542044524E+02  0.56784552632E+02  0.00000000000E+00 0.  1.
          5    1    4    4  501    0  0.85554097238E+01 -0.60869084899E+01  0.83410173300E+01  0.14046012267E+02  0.41800000000E+01 0.  1.
         -5    1    4    4    0  501 -0.11046153102E+02 -0.86623040760E+02  0.14374847253E+04  0.14401407489E+04  0.41800000000E+01 0.  1.
</event>
<event>
11    1  0.8974665E-009  0.2721076E+03  0.7561462E-02  0.1012740E+00
         22   -1    0    0    0    0  0.00000000000E+00  0.00000000000E+00  0.68855726564E+03  0.68855726564E+03  0.00000000000E+00 0. -1.
         22   -1    0    0    0    0 -0.00000000000E+00 -0.00000000000E+00 -0.99040989871E+03  0.99040989871E+03  0.00000000000E+00 0. -1.
        -24    2    1    2    0    0 -0.48359219451E+02  0.50151406693E+01 -0.84980929617E+03  0.85472603628E+03  0.77569269030E+02 0.  0.
         25    2    1    2    0    0  0.27835078352E+03  0.11776488242E+02  0.11326957736E+03  0.32570605515E+03  0.12504636279E+03 0.  0.
         24    2    1    2    0    0 -0.22999156407E+03 -0.16791628911E+02  0.43468708574E+03  0.49853507292E+03  0.80039228378E+02 0.  0.
        -13    1    5    5    0    0 -0.48086024309E+02  0.85126756352E+01  0.39689009334E+02  0.62928124414E+02  0.00000000000E+00 0.  1.
         14    1    5    5    0    0 -0.18190553976E+03 -0.25304304546E+02  0.39499807640E+03  0.43560694850E+03  0.00000000000E+00 0. -1.
         13    1    3    3    0    0 -0.42154372600E+02  0.60512101762E+01 -0.84658805789E+03  0.84765850909E+03  0.00000000000E+00 0. -1.
        -14    1    3    3    0    0 -0.62048468502E+01 -0.10360695069E+01 -0.32212382730E+01  0.70675271821E+01  0.00000000000E+00 0.  1.
          5    1    4    4  501    0  0.11900077505E+02  0.34887279690E+02  0.63112047129E+01  0.37630278151E+02  0.41800000000E+01 0. -1.
         -5    1    4    4    0  501  0.26645070601E+03 -0.23110791448E+02  0.10695837264E+03  0.28807577700E+03  0.41800000000E+01 0. -1.
</event>
<event>
11    1  0.8974665E-009  0.1395947E+03  0.7561462E-02  0.1108012E+00
         22   -1    0    0    0    0  0.00000000000E+00  0.00000000000E+00  0.78661619835E+03  0.78661619835E+03  0.00000000000E+00 0. -1.
         22   -1    0    0    0    0 -0.00000000000E+00 -0.00000000000E+00 -0.15922408552E+03  0.15922408552E+03  0.00000000000E+00 0. -1.
        -24    2    1    2    0    0 -0.22946006021E+02  0.24112741288E+02 -0.12064792153E+03  0.14896996800E+03  0.80797196181E+02 0.  0.
         25    2    1    2    0    0  0.34548691678E+02 -0.78888507808E+02  0.27849857003E+03  0.31721471656E+03  0.12508682639E+03 0.  0.
         24    2    1    2    0    0 -0.11602685657E+02  0.54775766520E+02  0.46954146434E+03  0.47965559931E+03  0.80407091127E+02 0.  0.
        -13    1    5    5    0    0 -0.43021158063E+02  0.38090597049E+02  0.21122717200E+03  0.21890324762E+03  0.00000000000E+00 0.  1.
         14    1    5    5    0    0  0.31418472407E+02  0.16685169471E+02  0.25831429234E+03  0.26075235169E+03  0.00000000000E+00 0. -1.
         13    1    3    3    0    0 -0.20782723704E+02  0.30010463504E+02 -0.13147708978E+03  0.13645063085E+03  0.00000000000E+00 0. -1.
        -14    1    3    3    0    0 -0.21632823170E+01 -0.58977222162E+01  0.10829168243E+02  0.12519337146E+02  0.00000000000E+00 0.  1.
          5    1    4    4  501    0  0.45406132113E+02 -0.36550354533E+02  0.31586569965E+02  0.66429128040E+02  0.41800000000E+01 0.  1.
         -5    1    4    4    0  501 -0.10857440435E+02 -0.42338153275E+02  0.24691200006E+03  0.25078558852E+03  0.41800000000E+01 0.  1.
</event>
<event>
11    1  0.8974665E-009  0.1376858E+03  0.7561462E-02  0.1110170E+00
         22   -1    0    0    0    0  0.00000000000E+00  0.00000000000E+00  0.42047147893E+03  0.42047147893E+03  0.00000000000E+00 0. -1.
         22   -1    0    0    0    0 -0.00000000000E+00 -0.00000000000E+00 -0.41998917587E+03  0.41998917587E+03  0.00000000000E+00 0.  1.
        -24    2    1    2    0    0 -0.56789754114E+02  0.15335102111E+02 -0.37632709093E+03  0.38910517684E+03  0.79501683881E+02 0.  0.
         25    2    1    2    0    0  0.24395909085E+02 -0.23440264432E+02  0.10802569809E+03  0.16870253994E+03  0.12508552736E+03 0.  0.
         24    2    1    2    0    0  0.32393845029E+02  0.81051623206E+01  0.26878369590E+03  0.28265293803E+03  0.80826687069E+02 0.  0.
        -13    1    5    5    0    0 -0.16420499125E+02 -0.84412115553E+01  0.15290009290E+02  0.23972301268E+02  0.00000000000E+00 0.  1.
         14    1    5    5    0    0  0.48814344154E+02  0.16546373876E+02  0.25349368661E+03  0.25868063676E+03  0.00000000000E+00 0. -1.
         13    1    3    3    0    0 -0.38041392044E+02 -0.29454918273E+02 -0.14625334025E+03  0.15396356470E+03  0.00000000000E+00 0. -1.
        -14    1    3    3    0    0 -0.18748362070E+02  0.44790020384E+02 -0.23007375068E+03  0.23514161214E+03  0.00000000000E+00 0.  1.
          5    1    4    4  501    0  0.15280214160E+01  0.26542843830E+02  0.11029510077E+03  0.11353122505E+03  0.41800000000E+01 0. -1.
         -5    1    4    4    0  501  0.22867887669E+02 -0.49983108262E+02 -0.22694026731E+01  0.55171314888E+02  0.41800000000E+01 0. -1.
</event>
<event>
11    1  0.8974665E-009  0.1631869E+03  0.7561462E-02  0.1084118E+00
         22   -1    0    0    0    0  0.00000000000E+00  0.00000000000E+00  0.17698228520E+04  0.17698228520E+04  0.00000000000E+00 0.  1.
         22   -1    0    0    0    0 -0.00000000000E+00 -0.00000000000E+00 -0.69401824037E+03  0.69401824037E+03  0.00000000000E+00 0.  1.
        -24    2    1    2    0    0 -0.37608386088E+02 -0.26974606149E+02 -0.67622322896E+03  0.68264893437E+03  0.81176918705E+02 0.  0.
         25    2    1    2    0    0 -0.68912790119E+02 -0.21934194376E+02  0.48233340297E+03  0.50351062718E+03  0.12508940218E+03 0.  0.
         24    2    1    2    0    0  0.10652117621E+03  0.48908800525E+02  0.12696944376E+04  0.12776815308E+04  0.81285284833E+02 0.  0.
        -11    1    5    5    0    0  0.15026903273E+02  0.27025126424E+02  0.66448921892E+03  0.66520830372E+03  0.00000000000E+00 0.  1.
         12    1    5    5    0    0  0.91494272935E+02  0.21883674100E+02  0.60520521873E+03  0.61247322713E+03  0.00000000000E+00 0. -1.
         13    1    3    3    0    0 -0.77366289707E+01  0.15355648555E+02 -0.31838530612E+02  0.36184850448E+02  0.00000000000E+00 0. -1.
        -14    1    3    3    0    0 -0.29871757118E+02 -0.42330254704E+02 -0.64438469835E+03  0.64646408392E+03  0.00000000000E+00 0.  1.
          5    1    4    4  501    0 -0.91202296676E+02  0.80531469400E+01  0.21750429431E+03  0.23602606326E+03  0.41800000000E+01 0.  1.
         -5    1    4    4    0  501  0.22289506557E+02 -0.29987341316E+02  0.26482910865E+03  0.26748456391E+03  0.41800000000E+01 0.  1.
</event>
<event>
11    1  0.8974665E-009  0.2092352E+03  0.7561462E-02  0.1048178E+00
         22   -1    0    0    0    0  0.00000000000E+00  0.00000000000E+00  0.15714276544E+04  0.15714276544E+04  0.00000000000E+00 0. -1.
         22   -1    0    0    0    0 -0.00000000000E+00 -0.00000000000E+00 -0.15808481902E+04  0.15808481902E+04  0.00000000000E+00 0.  1.
         24    2    1    2    0    0  0.64258662288E+02  0.52385501241E+02 -0.13677465739E+04  0.13728215873E+04  0.83874928659E+02 0.  0.
         25    2    1    2    0    0 -0.21901495449E+03  0.93442816261E+01 -0.12705792409E+03  0.28257084432E+03  0.12509076744E+03 0.  0.
        -24    2    1    2    0    0  0.15475629220E+03 -0.61729782867E+02  0.14853839622E+04  0.14968834130E+04  0.80835393146E+02 0.  0.
        -11    1    3    3    0    0  0.20311165562E+02  0.56427762653E+02 -0.10845468516E+04  0.10862037144E+04  0.00000000000E+00 0.  1.
         12    1    3    3    0    0  0.43947496726E+02 -0.40422614122E+01 -0.28319972232E+03  0.28661787291E+03  0.00000000000E+00 0. -1.
         11    1    5    5    0    0  0.13704873875E+03 -0.72729149663E+02  0.10942708568E+04  0.11052151799E+04  0.00000000000E+00 0. -1.
        -12    1    5    5    0    0  0.17707553446E+02  0.10999366795E+02  0.39111310547E+03  0.39166823306E+03  0.00000000000E+00 0.  1.
          5    1    4    4  501    0 -0.15431953460E+03  0.62148463782E+02 -0.65953149971E+02  0.17900905201E+03  0.41800000000E+01 0. -1.
         -5    1    4    4    0  501 -0.64695419885E+02 -0.52804182156E+02 -0.61104774117E+02  0.10356179231E+03  0.41800000000E+01 0. -1.
</event>
<event>
11    1  0.8974665E-009  0.1322977E+03  0.7561462E-02  0.1116478E+00
         22   -1    0    0    0    0  0.00000000000E+00  0.00000000000E+00  0.13869585569E+04  0.13869585569E+04  0.00000000000E+00 0.  1.
         22   -1    0    0    0    0 -0.00000000000E+00 -0.00000000000E+00 -0.37231956445E+02  0.37231956445E+02  0.00000000000E+00 0. -1.
         24    2    1    2    0    0 -0.23627156190E+02  0.43464064704E+02  0.69525506308E+02  0.11683519464E+03  0.79807889640E+02 0.  0.
         25    2    1    2    0    0  0.34009354569E+02  0.78925613999E+00  0.36176688851E+03  0.38428652539E+03  0.12507434930E+03 0.  0.
        -24    2    1    2    0    0 -0.10382198379E+02 -0.44253320844E+02  0.91843420567E+03  0.92306879335E+03  0.80426740932E+02 0.  0.
        -11    1    3    3    0    0  0.26563325396E+02  0.98285571365E+00  0.30139678811E+02  0.40186770215E+02  0.00000000000E+00 0.  1.
         12    1    3    3    0    0 -0.50190481587E+02  0.42481208990E+02  0.39385827497E+02  0.76648424425E+02  0.00000000000E+00 0. -1.
         11    1    5    5    0    0 -0.10419609373E+02  0.21925790009E+02  0.33886881836E+03  0.33973722873E+03  0.00000000000E+00 0. -1.
        -12    1    5    5    0    0  0.37410994662E-01 -0.66179110853E+02  0.57956538731E+03  0.58333156462E+03  0.00000000000E+00 0.  1.
          5    1    4    4  501    0  0.52453174887E+02  0.44127570539E+02  0.12290628254E+03  0.14079064147E+03  0.41800000000E+01 0. -1.
         -5    1    4    4    0  501 -0.18443820318E+02 -0.43338314399E+02  0.23886060598E+03  0.24349588393E+03  0.41800000000E+01 0. -1.
</event>
<event>
11    1  0.8974665E-009  0.1646923E+03  0.7561462E-02  0.1082745E+00
         22   -1    0    0    0    0  0.00000000000E+00  0.00000000000E+00  0.98553420363E+02  0.98553420363E+02  0.00000000000E+00 0. -1.
         22   -1    0    0    0    0 -0.00000000000E+00 -0.00000000000E+00 -0.74379159083E+03  0.74379159083E+03  0.00000000000E+00 0. -1.
         24    2    1    2    0    0  0.12156152718E+02  0.21993020569E+02 -0.49106323425E+03  0.49841679855E+03  0.81515274891E+02 0.  0.
         25    2    1    2    0    0  0.44380064134E+01  0.91949710947E+02 -0.12683021298E+03  0.20051883913E+03  0.12508979446E+03 0.  0.
        -24    2    1    2    0    0 -0.16594159132E+02 -0.11394273152E+03 -0.27344723236E+02  0.14340937351E+03  0.80995076024E+02 0.  0.
        -13    1    3    3    0    0  0.95177270446E+00 -0.28212509047E+02 -0.97440646352E+02  0.10144718379E+03  0.00000000000E+00 0.  1.
         14    1    3    3    0    0  0.11204380014E+02  0.50205529616E+02 -0.39362258790E+03  0.39696961475E+03  0.00000000000E+00 0. -1.
         13    1    5    5    0    0  0.78747179663E+00 -0.11949902608E+03 -0.13016825818E+02  0.12020846518E+03  0.00000000000E+00 0. -1.
        -14    1    5    5    0    0 -0.17381630928E+02  0.55562945674E+01 -0.14327897418E+02  0.23200908333E+02  0.00000000000E+00 0.  1.
          5    1    4    4  501    0  0.43881642818E+02  0.92956668271E+02 -0.50752886307E+02  0.11471647057E+03  0.41800000000E+01 0.  1.
         -5    1    4    4    0  501 -0.39443636405E+02 -0.10069573244E+01 -0.76077326675E+02  0.85802368556E+02  0.41800000000E+01 0.  1.
</event>
<event>
11    1  0.8974665E-009  0.1389722E+03  0.7561462E-02  0.1108712E+00
         22   -1    0    0    0    0  0.00000000000E+00  0.00000000000E+00  0.70360024644E+03  0.70360024644E+03  0.00000000000E+00 0.  1.
         22   -1    0    0    0    0 -0.00000000000E+00 -0.00000000000E+00 -0.37385329737E+03  0.37385329737E+03  0.00000000000E+00 0.  1.
        -24    2    1    2    0    0  0.19418151619E+02  0.58790915989E+02 -0.31733210653E+03  0.33281067726E+03  0.78929364924E+02 0.  0.
         25    2    1    2    0    0 -0.32464585419E+01 -0.44559594134E+02  0.50993614329E+02  0.14228269355E+03  0.12509164344E+03 0.  0.
         24    2    1    2    0    0 -0.16171693077E+02 -0.14231321856E+02  0.59608544127E+03  0.60236017300E+03  0.83999229442E+02 0.  0.
        -11    1    5    5    0    0  0.93896891156E+01  0.27285564942E+02  0.36760392834E+03  0.36873475080E+03  0.00000000000E+00 0.  1.
         12    1    5    5    0    0 -0.25561382193E+02 -0.41516886798E+02  0.22848151293E+03  0.23362542220E+03  0.00000000000E+00 0. -1.
         13    1    3    3    0    0 -0.11232854238E+02 -0.10373080615E+02 -0.16014818618E+02  0.22141640209E+02  0.00000000000E+00 0. -1.
        -14    1    3    3    0    0  0.30651005858E+02  0.69163996605E+02 -0.30131728791E+03  0.31066903705E+03  0.00000000000E+00 0.  1.
          5    1    4    4  501    0  0.39495763863E+02  0.66935018254E+01  0.62578179545E+02  0.74419213144E+02  0.41800000000E+01 0. -1.
         -5    1    4    4    0  501 -0.42742222405E+02 -0.51253095959E+02 -0.11584565215E+02  0.67863480405E+02  0.41800000000E+01 0. -1.
</event>
<event>
11    1  0.8974665E-009  0.2099034E+03  0.7561462E-02  0.1047733E+00
         22   -1    0    0    0    0  0.00000000000E+00  0.00000000000E+00  0.14896252440E+04  0.14896252440E+04  0.00000000000E+00 0. -1.
         22   -1    0    0    0    0 -0.00000000000E+00 -0.00000000000E+00 -0.18328693917E+03  0.18328693917E+03  0.00000000000E+00 0.  1.
        -24    2    1    2    0    0 -0.75995815745E+02 -0.15619745270E+03 -0.10102040502E+03  0.21832282197E+03  0.85362310893E+02 0.  0.
         25    2    1    2    0    0 -0.43094511363E+01  0.14428199318E+03  0.42584233454E+03  0.46671748898E+03  0.12509058998E+03 0.  0.
         24    2    1    2    0    0  0.80305266881E+02  0.11915459512E+02  0.98151637535E+03  0.98787187228E+03  0.76977444032E+02 0.  0.
        -13    1    5    5    0    0  0.87655723030E+02  0.83555837076E+01  0.61571568899E+03  0.62198002478E+03  0.00000000000E+00 0.  1.
         14    1    5    5    0    0 -0.73504561489E+01  0.35598758041E+01  0.36580068636E+03  0.36589184750E+03  0.00000000000E+00 0. -1.
         13    1    3    3    0    0 -0.50602012939E+02 -0.31086312675E+02 -0.70509651967E+01  0.59805005304E+02  0.00000000000E+00 0. -1.
        -14    1    3    3    0    0 -0.25393802806E+02 -0.12511114002E+03 -0.93969439824E+02  0.15851781666E+03  0.00000000000E+00 0.  1.
          5    1    4    4  501    0 -0.43503159098E+02  0.12904132023E+03  0.23852477557E+03  0.27469206057E+03  0.41800000000E+01 0. -1.
         -5    1    4    4    0  501  0.39193707962E+02  0.15240672949E+02  0.18731755897E+03  0.19202542841E+03  0.41800000000E+01 0. -1.
</event>
<event>
11    1  0.8974665E-009  0.1351386E+03  0.7561462E-02  0.1113112E+00
         22   -1    0    0    0    0  0.00000000000E+00  0.00000000000E+00  0.10911294636E+04  0.10911294636E+04  0.00000000000E+00 0.  1.
         22   -1    0    0    0    0 -0.00000000000E+00 -0.00000000000E+00 -0.78859229562E+02  0.78859229562E+02  0.00000000000E+00 0.  1.
        -24    2    1    2    0    0 -0.31383891126E+02  0.44868843558E+02 -0.24624276529E+02  0.98814964148E+02  0.78484905558E+02 0.  0.
         25    2    1    2    0    0  0.62207799442E+02 -0.74958453137E+00  0.33969533782E+03  0.36730043715E+03  0.12508523656E+03 0.  0.
         24    2    1    2    0    0 -0.30823908317E+02 -0.44119259027E+02  0.69719917276E+03  0.70387329188E+03  0.80338671755E+02 0.  0.
        -13    1    5    5    0    0 -0.47036926483E+02 -0.50996279558E+02  0.64631122882E+03  0.65002407454E+03  0.00000000000E+00 0.  1.
         14    1    5    5    0    0  0.16213018166E+02  0.68770205312E+01  0.50887943942E+02  0.53849217340E+02  0.00000000000E+00 0. -1.
         13    1    3    3    0    0 -0.22733341609E+02  0.15280891279E+02  0.27144330880E+02  0.38563261764E+02  0.00000000000E+00 0. -1.
        -14    1    3    3    0    0 -0.86505495162E+01  0.29587952279E+02 -0.51768607409E+02  0.60251702383E+02  0.00000000000E+00 0.  1.
          5    1    4    4  501    0  0.28559667635E+02 -0.54973045567E+02  0.24700256616E+03  0.25468692633E+03  0.41800000000E+01 0.  1.
         -5    1    4    4    0  501  0.33648131808E+02  0.54223461036E+02  0.92692771658E+02  0.11261351082E+03  0.41800000000E+01 0.  1.
</event>
<event>
11    1  0.8974665E-009  0.1377032E+03  0.7561462E-02  0.1110151E+00
         22   -1    0    0    0    0  0.00000000000E+00  0.00000000000E+00  0.27796052887E+04  0.27796052887E+04  0.00000000000E+00 0.  1.
         22   -1    0    0    0    0 -0.00000000000E+00 -0.00000000000E+00 -0.17715019574E+03  0.17715019574E+03  0.00000000000E+00 0. -1.
        -24    2    1    2    0    0 -0.53550076807E+01  0.44135464886E+02 -0.91318174341E+02  0.12946353772E+03  0.80281898739E+02 0.  0.
         25    2    1    2    0    0  0.60828752077E+02 -0.28222813595E+02  0.10629030930E+02  0.14230971430E+03  0.12506963740E+03 0.  0.
         24    2    1    2    0    0 -0.55473744396E+02 -0.15912651290E+02  0.26831442363E+04  0.26849822324E+04  0.80845818908E+02 0.  0.
        -11    1    5    5    0    0 -0.13404292398E+02 -0.17650640290E+02  0.21700803785E+04  0.21701935557E+04  0.00000000000E+00 0.  1.
         12    1    5    5    0    0 -0.42069451998E+02  0.17379889997E+01  0.51306385786E+03  0.51478867668E+03  0.00000000000E+00 0. -1.
         11    1    3    3    0    0  0.18800095309E+02  0.57384808347E+02 -0.44023750962E+02  0.74729849869E+02  0.00000000000E+00 0. -1.
        -12    1    3    3    0    0 -0.24155102990E+02 -0.13249343461E+02 -0.47294423379E+02  0.54733687848E+02  0.00000000000E+00 0.  1.
          5    1    4    4  501    0 -0.15928071343E+02 -0.15908417346E+02  0.50056289783E+02  0.55044397953E+02  0.41800000000E+01 0.  1.
         -5    1    4    4    0  501  0.76756823420E+02 -0.12314396250E+02 -0.39427258854E+02  0.87265316348E+02  0.41800000000E+01 0.  1.
</event>
<event>
11    1  0.8974665E-009  0.1836802E+03  0.7561462E-02  0.1066704E+00
         22   -1    0    0    0    0  0.00000000000E+00  0.00000000000E+00  0.19517348624E+03  0.19517348624E+03  0.00000000000E+00 0. -1.
         22   -1    0    0    0    0 -0.00000000000E+00 -0.00000000000E+00 -0.13985369467E+04  0.13985369467E+04  0.00000000000E+00 0.  1.
        -24    2    1    2    0    0  0.67753393602E+02  0.12153802005E+03 -0.11671423749E+04  0.11781880232E+04  0.80893028009E+02 0.  0.
         25    2    1    2    0    0 -0.10163459957E+03 -0.60942348755E+02 -0.17200289006E+03  0.24346624836E+03  0.12508900111E+03 0.  0.
         24    2    1    2    0    0  0.33881205967E+02 -0.60595671299E+02  0.13578180449E+03  0.17205616143E+03  0.79667137238E+02 0.  0.
        -13    1    5    5    0    0  0.15036465467E+02 -0.77528068073E+02  0.11378225479E+03  0.13850306184E+03  0.00000000000E+00 0.  1.
         14    1    5    5    0    0  0.18844740500E+02  0.16932396774E+02  0.21999549700E+02  0.33553099589E+02  0.00000000000E+00 0. -1.
         13    1    3    3    0    0  0.16986588353E+02  0.71336060355E+00 -0.40154287593E+02  0.43605273527E+02  0.00000000000E+00 0. -1.
        -14    1    3    3    0    0  0.50766805249E+02  0.12082465945E+03 -0.11269880873E+04  0.11345827497E+04  0.00000000000E+00 0.  1.
          5    1    4    4  501    0 -0.57358279972E+02 -0.19533359317E+02  0.32542821139E+00  0.60737984088E+02  0.41800000000E+01 0.  1.
         -5    1    4    4    0  501 -0.44276319597E+02 -0.41408989438E+02 -0.17232831827E+03  0.18272826427E+03  0.41800000000E+01 0.  1.
</event>
<event>
11    1  0.8974665E-009  0.1690733E+03  0.7561462E-02  0.1078841E+00
         22   -1    0    0    0    0  0.00000000000E+00  0.00000000000E+00  0.14657978274E+04  0.14657978274E+04  0.00000000000E+00 0. -1.
         22   -1    0    0    0    0 -0.00000000000E+00 -0.00000000000E+00 -0.61719395951E+03  0.61719395951E+03  0.00000000000E+00 0.  1.
         24    2    1    2    0    0  0.32038781938E+02  0.17070611162E+02 -0.50358495877E+03  0.51112241939E+03  0.79563984264E+02 0.  0.
         25    2    1    2    0    0 -0.13503479485E+03 -0.62546629083E+02 -0.17515267529E+02  0.19519983635E+03  0.12509882047E+03 0.  0.
        -24    2    1    2    0    0  0.10299601292E+03  0.45476017921E+02  0.13697040942E+04  0.13766695312E+04  0.80333340096E+02 0.  0.
        -13    1    3    3    0    0 -0.10855597933E+02  0.37947936901E+02 -0.24847571729E+03  0.25159108093E+03  0.00000000000E+00 0.  1.
         14    1    3    3    0    0  0.42894379870E+02 -0.20877325739E+02 -0.25510924148E+03  0.25953133846E+03  0.00000000000E+00 0. -1.
         13    1    5    5    0    0  0.60061801340E+02  0.23024220790E+02  0.11448100530E+04  0.11466157125E+04  0.00000000000E+00 0. -1.
        -14    1    5    5    0    0  0.42934211577E+02  0.22451797130E+02  0.22489404120E+03  0.23005381867E+03  0.00000000000E+00 0.  1.
          5    1    4    4  501    0 -0.27564022982E+02 -0.74663373690E+02  0.17205432437E+02  0.81534618654E+02  0.41800000000E+01 0.  1.
         -5    1    4    4    0  501 -0.10747077187E+03  0.12116744607E+02 -0.34720699967E+02  0.11366521769E+03  0.41800000000E+01 0.  1.
</event>
<event>
11    1  0.8974665E-009  0.1273445E+03  0.7561462E-02  0.1122575E+00
         22   -1    0    0    0    0  0.00000000000E+00  0.00000000000E+00  0.55013398066E+03  0.55013398066E+03  0.00000000000E+00 0. -1.
         22   -1    0    0    0    0 -0.00000000000E+00 -0.00000000000E+00 -0.74634074177E+03  0.74634074177E+03  0.00000000000E+00 0.  1.
        -24    2    1    2    0    0 -0.26311939004E+02 -0.50222875471E+01 -0.59832535552E+03  0.60471939604E+03  0.83515120746E+02 0.  0.
         25    2    1    2    0    0 -0.41632202045E+01  0.12274654930E+02 -0.11312800631E+03  0.16914948904E+03  0.12508238994E+03 0.  0.
         24    2    1    2    0    0  0.30475159209E+02 -0.72523673828E+01  0.51524660072E+03  0.52260583736E+03  0.81587189716E+02 0.  0.
        -13    1    5    5    0    0 -0.19672211113E+02  0.16678954519E+02  0.86186328119E+02  0.89962584271E+02  0.00000000000E+00 0.  1.
         14    1    5    5    0    0  0.50147370321E+02 -0.23931321902E+02  0.42906027260E+03  0.43264325309E+03  0.00000000000E+00 0. -1.
         11    1    3    3    0    0 -0.24312123056E+02 -0.38387523365E+02 -0.20495432924E+03  0.20993084183E+03  0.00000000000E+00 0. -1.
        -12    1    3    3    0    0 -0.19998159478E+01  0.33365235818E+02 -0.39337102628E+03  0.39478855421E+03  0.00000000000E+00 0.  1.
          5    1    4    4  501    0  0.56985857095E+02  0.26078304811E+02 -0.60195194862E+02  0.86996550364E+02  0.41800000000E+01 0. -1.
         -5    1    4    4    0  501 -0.61149077299E+02 -0.13803649881E+02 -0.52932811450E+02  0.82152938673E+02  0.41800000000E+01 0. -1.
</event>
<event>
11    1  0.1028337E-008  0.1453507E+03  0.7561462E-02  0.1101726E+00
         22   -1    0    0    0    0  0.00000000000E+00  0.00000000000E+00  0.14729734229E+04  0.14729734229E+04  0.00000000000E+00 0.  1.
         22   -1    0    0    0    0 -0.00000000000E+00 -0.00000000000E+00 -0.56919161111E+03  0.56919161111E+03  0.00000000000E+00 0. -1.
         24    2    1    2    0    0 -0.56903270386E+02  0.29480202253E+01 -0.30388296651E+03  0.31981148116E+03  0.81779295326E+02 0.  0.
         25    2    1    2    0    0  0.13037705025E+03 -0.66187388799E+01 -0.22331849452E+03  0.28733633438E+03  0.12509610754E+03 0.  0.
        -24    2    1    2    0    0 -0.73473779869E+02  0.36707186546E+01  0.14309832728E+04  0.14350172184E+04  0.78418235645E+02 0.  0.
        -11    1    3    3    0    0 -0.16204626526E+02 -0.37398421005E+02 -0.15531023314E+03  0.16056930071E+03  0.00000000000E+00 0.  1.
         12    1    3    3    0    0 -0.40698643860E+02  0.40346441230E+02 -0.14857273337E+03  0.15924218045E+03  0.00000000000E+00 0. -1.
         13    1    5    5    0    0 -0.11732400027E+02  0.26361625229E+02  0.17931838978E+03  0.18162507924E+03  0.00000000000E+00 0. -1.
        -14    1    5    5    0    0 -0.61741379842E+02 -0.22690906575E+02  0.12516648830E+04  0.12533921392E+04  0.00000000000E+00 0.  1.
          5    1    4    4  501    0 -0.91285622815E+01  0.33443314020E+02 -0.33911429306E+02  0.48674873801E+02  0.41800000000E+01 0. -1.
         -5    1    4    4    0  501  0.13950561254E+03 -0.40062052900E+02 -0.18940706522E+03  0.23866146058E+03  0.41800000000E+01 0. -1.
</event>
<event>
11    1  0.8974665E-009  0.1688846E+03  0.7561462E-02  0.1079006E+00
         22   -1    0    0    0    0  0.00000000000E+00  0.00000000000E+00  0.78983883014E+02  0.78983883014E+02  0.00000000000E+00 0. -1.
         22   -1    0    0    0    0 -0.00000000000E+00 -0.00000000000E+00 -0.54678460327E+03  0.54678460327E+03  0.00000000000E+00 0.  1.
         24    2    1    2    0    0  0.71163557011E+02  0.10037832780E+03 -0.30711718747E+03  0.34038286456E+03  0.79996669355E+02 0.  0.
         25    2    1    2    0    0 -0.55209558778E+02 -0.73091857632E+02 -0.12001213886E+03  0.19606328521E+03  0.12508950116E+03 0.  0.
        -24    2    1    2    0    0 -0.15953998232E+02 -0.27286470173E+02 -0.40671393925E+02  0.89322336512E+02  0.72974214638E+02 0.  0.
        -13    1    3    3    0    0  0.47165890487E+01  0.40334827355E+02 -0.18225327513E+03  0.18672279134E+03  0.00000000000E+00 0.  1.
         14    1    3    3    0    0  0.66446967962E+02  0.60043500450E+02 -0.12486391234E+03  0.15366007322E+03  0.00000000000E+00 0. -1.
         11    1    5    5    0    0 -0.19004249426E+02 -0.25434797795E+02  0.13881857763E+02  0.34652509434E+02  0.00000000000E+00 0. -1.
        -12    1    5    5    0    0  0.30502511933E+01 -0.18516723781E+01 -0.54553251689E+02  0.54669827078E+02  0.00000000000E+00 0.  1.
          5    1    4    4  501    0 -0.14254884060E+02 -0.90963834632E+02 -0.11983887736E+03  0.15118349730E+03  0.41800000000E+01 0.  1.
         -5    1    4    4    0  501 -0.40954674718E+02  0.17871977000E+02 -0.17326150396E+00  0.44879787909E+02  0.41800000000E+01 0.  1.
</event>
<event>
11    1  0.8974665E-009  0.1455629E+03  0.7561462E-02  0.1101501E+00
         22   -1    0    0    0    0  0.00000000000E+00  0.00000000000E+00  0.30013218961E+03  0.30013218961E+03  0.00000000000E+00 0.  1.
         22   -1    0    0    0    0 -0.00000000000E+00 -0.00000000000E+00 -0.19111359068E+03  0.19111359068E+03  0.00000000000E+00 0.  1.
         24    2    1    2    0    0  0.83676374138E+02 -0.11433964966E+02 -0.38136761084E+02  0.12226930279E+03  0.79767779936E+02 0.  0.
         25    2    1    2    0    0  0.12233738118E+01 -0.65489784599E+01 -0.53200292963E+02  0.13609593737E+03  0.12508975671E+03 0.  0.
        -24    2    1    2    0    0 -0.84899747949E+02  0.17982943426E+02  0.20035565297E+03  0.23288054014E+03  0.80991387437E+02 0.  0.
        -11    1    3    3    0    0  0.96103685695E+02 -0.11130465185E+02 -0.46445460651E+02  0.10731722357E+03  0.00000000000E+00 0.  1.
         12    1    3    3    0    0 -0.12427311557E+02 -0.30349978123E+00  0.83086995671E+01  0.14952079225E+02  0.00000000000E+00 0. -1.
         13    1    5    5    0    0  0.58528240561E+01  0.75923832658E+01 -0.29223517636E+01  0.10021974502E+02  0.00000000000E+00 0. -1.
        -14    1    5    5    0    0 -0.90752572005E+02  0.10390560161E+02  0.20327800474E+03  0.22285856563E+03  0.00000000000E+00 0.  1.
          5    1    4    4  501    0 -0.78812007387E+01  0.28128891301E+02 -0.83756636249E+02  0.88803121379E+02  0.41800000000E+01 0. -1.
         -5    1    4    4    0  501  0.91045745505E+01 -0.34677869761E+02  0.30556343286E+02  0.47292815986E+02  0.41800000000E+01 0. -1.
</event>
<event>
11    1  0.8974665E-009  0.1306633E+03  0.7561462E-02  0.1118457E+00
         22   -1    0    0    0    0  0.00000000000E+00  0.00000000000E+00  0.59002647897E+02  0.59002647897E+02  0.00000000000E+00 0. -1.
         22   -1    0    0    0    0 -0.00000000000E+00 -0.00000000000E+00 -0.12006178472E+04  0.12006178472E+04  0.00000000000E+00 0. -1.
         24    2    1    2    0    0 -0.60556744858E+01 -0.40611829675E+02 -0.91394144725E+03  0.91833886634E+03  0.79820501844E+02 0.  0.
         25    2    1    2    0    0  0.19865769190E+02  0.87855247429E+01 -0.21922046488E+03  0.25333132182E+03  0.12508921681E+03 0.  0.
        -24    2    1    2    0    0 -0.13810094705E+02  0.31826304932E+02 -0.84532871305E+01  0.87950306900E+02  0.80375157972E+02 0.  0.
        -13    1    3    3    0    0 -0.12280769945E+02  0.22475725711E+02 -0.21228569938E+03  0.21382514754E+03  0.00000000000E+00 0.  1.
         14    1    3    3    0    0  0.62250954588E+01 -0.63087555386E+02 -0.70165574787E+03  0.70451371880E+03  0.00000000000E+00 0. -1.
         11    1    5    5    0    0  0.13844014452E+02 -0.16555494211E+02  0.16228200519E+02  0.27001770624E+02  0.00000000000E+00 0. -1.
        -12    1    5    5    0    0 -0.27654109156E+02  0.48381799144E+02 -0.24681487650E+02  0.60948536276E+02  0.00000000000E+00 0.  1.
          5    1    4    4  501    0  0.68343606309E+02  0.19156309893E+02 -0.88886761881E+02  0.11382504808E+03  0.41800000000E+01 0. -1.
         -5    1    4    4    0  501 -0.48477837119E+02 -0.10370785150E+02 -0.13033370299E+03  0.13950627374E+03  0.41800000000E+01 0. -1.
</event>
<event>
11    1  0.8974665E-009  0.1273084E+03  0.7561462E-02  0.1122621E+00
         22   -1    0    0    0    0  0.00000000000E+00  0.00000000000E+00  0.21268715407E+03  0.21268715407E+03  0.00000000000E+00 0.  1.
         22   -1    0    0    0    0 -0.00000000000E+00 -0.00000000000E+00 -0.11116427934E+04  0.11116427934E+04  0.00000000000E+00 0. -1.
         24    2    1    2    0    0 -0.14124786005E+02  0.43200612703E+01 -0.99630500425E+03  0.99986720282E+03  0.83021619291E+02 0.  0.
         25    2    1    2    0    0 -0.49498852898E+01 -0.19544128507E+02 -0.64226455892E+02  0.14205229929E+03  0.12508934316E+03 0.  0.
        -24    2    1    2    0    0  0.19074671295E+02  0.15224067237E+02  0.16157582086E+03  0.18241044532E+03  0.81062996296E+02 0.  0.
        -11    1    3    3    0    0 -0.91058986370E+01  0.14057045189E+02 -0.38329131333E+02  0.41828700891E+02  0.00000000000E+00 0.  1.
         12    1    3    3    0    0 -0.50188873685E+01 -0.97369839183E+01 -0.95797587291E+03  0.95803850193E+03  0.00000000000E+00 0. -1.
         11    1    5    5    0    0 -0.23955336818E+02  0.25891069801E+02  0.41803416688E+02  0.54696721148E+02  0.00000000000E+00 0. -1.
        -12    1    5    5    0    0  0.43030008114E+02 -0.10667002564E+02  0.11977240417E+03  0.12771372417E+03  0.00000000000E+00 0.  1.
          5    1    4    4  501    0 -0.48007893420E+02 -0.51541408572E+02 -0.49736079518E+02  0.86327426893E+02  0.41800000000E+01 0.  1.
         -5    1    4    4    0  501  0.43058008130E+02  0.31997280065E+02 -0.14490376374E+02  0.55724872393E+02  0.41800000000E+01 0.  1.
</event>
<event>
11    1  0.8974665E-009  0.1589298E+03  0.7561462E-02  0.1088088E+00
         22   -1    0    0    0    0  0.00000000000E+00  0.00000000000E+00  0.48715334205E+02  0.48715334205E+02  0.00000000000E+00 0.  1.
         22   -1    0    0    0    0 -0.00000000000E+00 -0.00000000000E+00 -0.20772766013E+04  0.20772766013E+04  0.00000000000E+00 0. -1.
        -24    2    1    2    0    0 -0.14958349337E+02 -0.97273489453E+02 -0.16572113314E+04  0.16620297444E+04  0.79420339860E+02 0.  0.
         25    2    1    2    0    0  0.83204916813E+02  0.80090716318E+02 -0.25057693434E+03  0.30294166429E+03  0.12508905195E+03 0.  0.
         24    2    1    2    0    0 -0.68246567475E+02  0.17182773134E+02 -0.12077300135E+03  0.16102052681E+03  0.79929034359E+02 0.  0.
        -11    1    5    5    0    0 -0.61578863409E+02  0.32135761828E+02 -0.43331918293E+02  0.81867690513E+02  0.00000000000E+00 0.  1.
         12    1    5    5    0    0 -0.66677040669E+01 -0.14952988694E+02 -0.77441083058E+02  0.79152836295E+02  0.00000000000E+00 0. -1.
         13    1    3    3    0    0 -0.45057947354E+02 -0.70024626404E+02 -0.94476029047E+03  0.94842272926E+03  0.00000000000E+00 0. -1.
        -14    1    3    3    0    0  0.30099598017E+02 -0.27248863048E+02 -0.71245104097E+03  0.71360701519E+03  0.00000000000E+00 0.  1.
          5    1    4    4  501    0 -0.12185821301E+02  0.67456173320E+02 -0.14243991263E+03  0.15813105536E+03  0.41800000000E+01 0.  1.
         -5    1    4    4    0  501  0.95390738113E+02  0.12634542998E+02 -0.10813702171E+03  0.14481060893E+03  0.41800000000E+01 0.  1.
</event>
<event>
11    1  0.8974665E-009  0.1426145E+03  0.7561462E-02  0.1104674E+00
         22   -1    0    0    0    0  0.00000000000E+00  0.00000000000E+00  0.54560044556E+03  0.54560044556E+03  0.00000000000E+00 0.  1.
         22   -1    0    0    0    0 -0.00000000000E+00 -0.00000000000E+00 -0.12818670032E+03  0.12818670032E+03  0.00000000000E+00 0.  1.
        -24    2    1    2    0    0 -0.25084134782E+02  0.20861512707E+02 -0.66188425182E+02  0.10620932115E+03  0.76387798375E+02 0.  0.
         25    2    1    2    0    0 -0.36105503434E+01 -0.81272055939E+02  0.12620181636E+03  0.19541824827E+03  0.12507281940E+03 0.  0.
         24    2    1    2    0    0  0.28694685125E+02  0.60410543232E+02  0.35740035406E+03  0.37215957646E+03  0.79340522939E+02 0.  0.
        -11    1    5    5    0    0  0.53160958631E+01  0.48176863093E+01  0.24061194815E+03  0.24071888287E+03  0.00000000000E+00 0.  1.
         12    1    5    5    0    0  0.23378589262E+02  0.55592856923E+02  0.11678840591E+03  0.13144069359E+03  0.00000000000E+00 0. -1.
         13    1    3    3    0    0  0.18258884530E+02 -0.14678891496E+02 -0.64654939597E+01  0.24303483947E+02  0.00000000000E+00 0. -1.
        -14    1    3    3    0    0 -0.43343019312E+02  0.35540404202E+02 -0.59722931222E+02  0.81905837201E+02  0.00000000000E+00 0.  1.
          5    1    4    4  501    0  0.18803269787E+02 -0.10248416600E+03  0.12692511981E+03  0.16426815173E+03  0.41800000000E+01 0.  1.
         -5    1    4    4    0  501 -0.22413820131E+02  0.21212110060E+02 -0.72330345253E+00  0.31150096531E+02  0.41800000000E+01 0.  1.
</event>
<event>
11    1  0.8974665E-009  0.1674810E+03  0.7561462E-02  0.1080245E+00
         22   -1    0    0    0    0  0.00000000000E+00  0.00000000000E+00  0.86435988568E+03  0.86435988568E+03  0.00000000000E+00 0. -1.
         22   -1    0    0    0    0 -0.00000000000E+00 -0.00000000000E+00 -0.53445069131E+03  0.53445069131E+03  0.00000000000E+00 0.  1.
         24    2    1    2    0    0  0.49936414335E+02  0.10284763318E+03 -0.39689054359E+03  0.42028704081E+03  0.77767679387E+02 0.  0.
         25    2    1    2    0    0 -0.10060947474E+02 -0.10274407195E+03 -0.70193102108E+02  0.17672757577E+03  0.12509195605E+03 0.  0.
        -24    2    1    2    0    0 -0.39875466861E+02 -0.10356122906E+00  0.79699284006E+03  0.80179596042E+03  0.78032758860E+02 0.  0.
        -11    1    3    3    0    0  0.31539685232E+02  0.11282282285E+03 -0.34438347445E+03  0.36376327272E+03  0.00000000000E+00 0.  1.
         12    1    3    3    0    0  0.18396729104E+02 -0.99751896689E+01 -0.52507069131E+02  0.56523768092E+02  0.00000000000E+00 0. -1.
         13    1    5    5    0    0  0.11781215308E+01 -0.34122175056E+02  0.28699365897E+03  0.28901742351E+03  0.00000000000E+00 0. -1.
        -14    1    5    5    0    0 -0.41053588392E+02  0.34018613827E+02  0.50999918109E+03  0.51277853692E+03  0.00000000000E+00 0.  1.
          5    1    4    4  501    0 -0.23602190255E+01 -0.11533945703E+03 -0.93683495098E+02  0.14867020763E+03  0.41800000000E+01 0.  1.
         -5    1    4    4    0  501 -0.77007284489E+01  0.12595385081E+02  0.23490392991E+02  0.28057368138E+02  0.41800000000E+01 0.  1.
</event>
<event>
11    1  0.8974665E-009  0.1415742E+03  0.7561462E-02  0.1105813E+00
         22   -1    0    0    0    0  0.00000000000E+00  0.00000000000E+00  0.36240547410E+03  0.36240547410E+03  0.00000000000E+00 0. -1.
         22   -1    0    0    0    0 -0.00000000000E+00 -0.00000000000E+00 -0.85034129257E+03  0.85034129257E+03  0.00000000000E+00 0.  1.
        -24    2    1    2    0    0  0.63247964636E+02 -0.55973833515E+01 -0.75619550377E+03  0.76290576550E+03  0.78497970634E+02 0.  0.
         25    2    1    2    0    0 -0.76809531738E+02 -0.58207932013E+02 -0.54614699391E+01  0.15800606151E+03  0.12509284674E+03 0.  0.
         24    2    1    2    0    0  0.13561567102E+02  0.63805315365E+02  0.27372115523E+03  0.29183493966E+03  0.77390741127E+02 0.  0.
        -11    1    5    5    0    0 -0.26882203876E+02  0.28134252505E+01  0.56836310058E+02  0.62935954652E+02  0.00000000000E+00 0.  1.
         12    1    5    5    0    0  0.40443770978E+02  0.60991890114E+02  0.21688484518E+03  0.22889898501E+03  0.00000000000E+00 0. -1.
         13    1    3    3    0    0  0.56596466569E+02 -0.30639566828E+02 -0.34884050640E+03  0.35472756023E+03  0.00000000000E+00 0. -1.
        -14    1    3    3    0    0  0.66514980673E+01  0.25042183477E+02 -0.40735499737E+03  0.40817820527E+03  0.00000000000E+00 0.  1.
          5    1    4    4  501    0  0.18261167693E+02 -0.22870836637E+02 -0.40917667178E+02  0.50480424932E+02  0.41800000000E+01 0. -1.
         -5    1    4    4    0  501 -0.95070699431E+02 -0.35337095376E+02  0.35456197239E+02  0.10752563658E+03  0.41800000000E+01 0. -1.
</event>
<event>
11    1  0.8974665E-009  0.1426768E+03  0.7561462E-02  0.1104606E+00
         22   -1    0    0    0    0  0.00000000000E+00  0.00000000000E+00  0.15837545671E+04  0.15837545671E+04  0.00000000000E+00 0.  1.
         22   -1    0    0    0    0 -0.00000000000E+00 -0.00000000000E+00 -0.47478510595E+03  0.47478510595E+03  0.00000000000E+00 0.  1.
        -24    2    1    2    0    0  0.60899703981E+02 -0.30256815039E+02 -0.43471258304E+03  0.44720143371E+03  0.79936497679E+02 0.  0.
         25    2    1    2    0    0 -0.98426576113E+02 -0.10403801127E+01  0.16559703404E+03  0.22969425857E+03  0.12509277142E+03 0.  0.
         24    2    1    2    0    0  0.37526872131E+02  0.31297195151E+02  0.13780850102E+04  0.13816439808E+04  0.86220727537E+02 0.  0.
        -11    1    5    5    0    0  0.42106076493E+02  0.58174773035E+02  0.98448752868E+03  0.98710329755E+03  0.00000000000E+00 0.  1.
         12    1    5    5    0    0 -0.45792043619E+01 -0.26877577884E+02  0.39359748149E+03  0.39454068326E+03  0.00000000000E+00 0. -1.
         13    1    3    3    0    0 -0.72242460332E+01  0.68275673316E+01 -0.61770093991E+01  0.11703027452E+02  0.00000000000E+00 0. -1.
        -14    1    3    3    0    0  0.68123950015E+02 -0.37084382370E+02 -0.42853557364E+03  0.43549840626E+03  0.00000000000E+00 0.  1.
          5    1    4    4  501    0 -0.10843113662E+02 -0.54651532390E+02  0.67422340549E+02  0.87564876015E+02  0.41800000000E+01 0. -1.
         -5    1    4    4    0  501 -0.87583462451E+02  0.53611152277E+02  0.98174693489E+02  0.14212938255E+03  0.41800000000E+01 0. -1.
</event>
<event>
11    1  0.8974665E-009  0.1730431E+03  0.7561462E-02  0.1075413E+00
         22   -1    0    0    0    0  0.00000000000E+00  0.00000000000E+00  0.44802790970E+03  0.44802790970E+03  0.00000000000E+00 0.  1.
         22   -1    0    0    0    0 -0.00000000000E+00 -0.00000000000E+00 -0.51333289457E+03  0.51333289457E+03  0.00000000000E+00 0. -1.
         24    2    1    2    0    0  0.37074049251E+02  0.55799236762E+02 -0.44352553580E+03  0.45576106511E+03  0.80716836003E+02 0.  0.
         25    2    1    2    0    0 -0.11806982651E+03 -0.11270664944E+03  0.20312905606E+03  0.28905618175E+03  0.12509512393E+03 0.  0.
        -24    2    1    2    0    0  0.80995777263E+02  0.56907412681E+02  0.17509149487E+03  0.21654355740E+03  0.80220390944E+02 0.  0.
        -13    1    3    3    0    0 -0.15149852472E+01  0.28560797058E+02 -0.38345349666E+02  0.47837016523E+02  0.00000000000E+00 0.  1.
         14    1    3    3    0    0  0.38589034498E+02  0.27238439704E+02 -0.40518018614E+03  0.40792404859E+03  0.00000000000E+00 0. -1.
         13    1    5    5    0    0  0.11006458237E+02  0.32326760813E+02  0.10049304486E+02  0.35597051960E+02  0.00000000000E+00 0. -1.
        -14    1    5    5    0    0  0.69989319026E+02  0.24580651868E+02  0.16504219039E+03  0.18094650544E+03  0.00000000000E+00 0.  1.
          5    1    4    4  501    0 -0.87847415900E+02 -0.69402320457E+01  0.53075258919E+02  0.10295528549E+03  0.41800000000E+01 0. -1.
         -5    1    4    4    0  501 -0.30222410613E+02 -0.10576641740E+03  0.15005379715E+03  0.18610089626E+03  0.41800000000E+01 0. -1.
</event>
<event>
11    1  0.8974665E-009  0.1428947E+03  0.7561462E-02  0.1104368E+00
         22   -1    0    0    0    0  0.00000000000E+00  0.00000000000E+00  0.44994808370E+03  0.44994808370E+03  0.00000000000E+00 0. -1.
         22   -1    0    0    0    0 -0.00000000000E+00 -0.00000000000E+00 -0.16636382083E+03  0.16636382083E+03  0.00000000000E+00 0. -1.
        -24    2    1    2    0    0  0.51675821084E+02 -0.39240278829E+02 -0.85363554697E+02  0.13481371322E+03  0.81716649675E+02 0.  0.
         25    2    1    2    0    0 -0.43998242118E+02  0.89266854052E+02  0.82480698665E+02  0.17987481285E+03  0.12508983214E+03 0.  0.
         24    2    1    2    0    0 -0.76775789663E+01 -0.50026575224E+02  0.28646711890E+03  0.30162337846E+03  0.79697231930E+02 0.  0.
        -11    1    5    5    0    0  0.29147130846E+02 -0.11228879789E+02  0.48275363351E+02  0.57499162468E+02  0.00000000000E+00 0.  1.
         12    1    5    5    0    0 -0.36824709812E+02 -0.38797695434E+02  0.23819175555E+03  0.24412421599E+03  0.00000000000E+00 0. -1.
         11    1    3    3    0    0  0.27497208667E+02  0.16134949329E+02 -0.62587810383E+02  0.70240067503E+02  0.00000000000E+00 0. -1.
        -12    1    3    3    0    0  0.24178612418E+02 -0.55375228158E+02 -0.22775744313E+02  0.64573645715E+02  0.00000000000E+00 0.  1.
          5    1    4    4  501    0 -0.26574411936E+02  0.10584858256E+03  0.17689685427E+02  0.11063687979E+03  0.41800000000E+01 0. -1.
         -5    1    4    4    0  501 -0.17423830182E+02 -0.16581728503E+02  0.64791013238E+02  0.69237933062E+02  0.41800000000E+01 0. -1.
</event>
<event>
11    1  0.9629976E-009  0.1469988E+03  0.7561462E-02  0.1099985E+00
         22   -1    0    0    0    0  0.00000000000E+00  0.00000000000E+00  0.73849811621E+03  0.73849811621E+03  0.00000000000E+00 0.  1.
         22   -1    0    0    0    0 -0.00000000000E+00 -0.00000000000E+00 -0.77671946519E+03  0.77671946519E+03  0.00000000000E+00 0. -1.
         24    2    1    2    0    0  0.47253043019E+02 -0.37959170037E+01 -0.46716026515E+03  0.47708782054E+03  0.84420472087E+02 0.  0.
         25    2    1    2    0    0  0.15799886958E+02  0.49350546419E+02 -0.28438604530E+03  0.31497349194E+03  0.12509102686E+03 0.  0.
        -24    2    1    2    0    0 -0.63052929976E+02 -0.45554629415E+02  0.71332496148E+03  0.72315626892E+03  0.89842041237E+02 0.  0.
        -13    1    3    3    0    0  0.20166048407E+02 -0.12569091476E+02 -0.26837791756E+02  0.35845761747E+02  0.00000000000E+00 0.  1.
         14    1    3    3    0    0  0.27086994611E+02  0.87731744726E+01 -0.44032247340E+03  0.44124205879E+03  0.00000000000E+00 0. -1.
         13    1    5    5    0    0  0.21285164178E+02 -0.15212182339E+02  0.10229888373E+03  0.10559133638E+03  0.00000000000E+00 0. -1.
        -14    1    5    5    0    0 -0.84338094155E+02 -0.30342447077E+02  0.61102607775E+03  0.61756493254E+03  0.00000000000E+00 0.  1.
          5    1    4    4  501    0  0.48330279177E+02  0.50145614141E+02 -0.72709913606E+02  0.10077004733E+03  0.41800000000E+01 0.  1.
         -5    1    4    4    0  501 -0.32530392220E+02 -0.79506772179E+00 -0.21167613170E+03  0.21420344460E+03  0.41800000000E+01 0.  1.
</event>
<event>
11    1  0.8974665E-009  0.1481617E+03  0.7561462E-02  0.1098772E+00
         22   -1    0    0    0    0  0.00000000000E+00  0.00000000000E+00  0.97655588441E+02  0.97655588441E+02  0.00000000000E+00 0. -1.
         22   -1    0    0    0    0 -0.00000000000E+00 -0.00000000000E+00 -0.19005600067E+04  0.19005600067E+04  0.00000000000E+00 0. -1.
         24    2    1    2    0    0  0.16954951916E+02 -0.45939967010E+02 -0.13464368835E+04  0.13505208576E+04  0.92824322375E+02 0.  0.
         25    2    1    2    0    0 -0.91111711046E+02  0.67795774691E+02 -0.49962991595E+03  0.52742307088E+03  0.12508969512E+03 0.  0.
        -24    2    1    2    0    0  0.74156759130E+02 -0.21855807681E+02  0.43162381169E+02  0.12027166660E+03  0.81396445776E+02 0.  0.
        -11    1    3    3    0    0 -0.21890178525E+02 -0.49414523917E+02 -0.44966113368E+03  0.45289746106E+03  0.00000000000E+00 0.  1.
         12    1    3    3    0    0  0.38845130441E+02  0.34745569072E+01 -0.89677574977E+03  0.89762339657E+03  0.00000000000E+00 0. -1.
         13    1    5    5    0    0  0.86200926692E+02 -0.34824652255E+02  0.43331736619E+02  0.10257190437E+03  0.00000000000E+00 0. -1.
        -14    1    5    5    0    0 -0.12044167563E+02  0.12968844574E+02 -0.16935545029E+00  0.17699762233E+02  0.00000000000E+00 0.  1.
          5    1    4    4  501    0 -0.91750667575E+02 -0.55373660819E+01 -0.32965350130E+03  0.34225392729E+03  0.41800000000E+01 0.  1.
         -5    1    4    4    0  501  0.63895652898E+00  0.73333140773E+02 -0.16997641465E+03  0.18516914359E+03  0.41800000000E+01 0.  1.
</event>
<event>
11    1  0.8974665E-009  0.1376239E+03  0.7561462E-02  0.1110241E+00
         22   -1    0    0    0    0  0.00000000000E+00  0.00000000000E+00  0.32034368650E+03  0.32034368650E+03  0.00000000000E+00 0. -1.
         22   -1    0    0    0    0 -0.00000000000E+00 -0.00000000000E+00 -0.73113155491E+03  0.73113155491E+03  0.00000000000E+00 0. -1.
         24    2    1    2    0    0  0.37019045403E+02  0.76773033237E+01 -0.65730023051E+03  0.66312976564E+03  0.79171600626E+02 0.  0.
         25    2    1    2    0    0 -0.81617927330E+02  0.21405974483E+02  0.34034138646E+02  0.15467688657E+03  0.12508762864E+03 0.  0.
        -24    2    1    2    0    0  0.44598881928E+02 -0.29083277807E+02  0.21247822345E+03  0.23366858921E+03  0.81357954898E+02 0.  0.
        -11    1    3    3    0    0 -0.19645853580E+02  0.16097561310E+02 -0.11279284988E+03  0.11561711823E+03  0.00000000000E+00 0.  1.
         12    1    3    3    0    0  0.56664898982E+02 -0.84202579863E+01 -0.54450738063E+03  0.54751264741E+03  0.00000000000E+00 0. -1.
         11    1    5    5    0    0  0.28103013014E+02 -0.35412573251E+02  0.40230705488E+02  0.60517264882E+02  0.00000000000E+00 0. -1.
        -12    1    5    5    0    0  0.16495868914E+02  0.63292954446E+01  0.17224751796E+03  0.17315132433E+03  0.00000000000E+00 0.  1.
          5    1    4    4  501    0  0.26509855739E+02 -0.18217550478E+02  0.21152593938E+02  0.38724103954E+02  0.41800000000E+01 0.  1.
         -5    1    4    4    0  501 -0.10812778307E+03  0.39623524961E+02  0.12881544708E+02  0.11595278261E+03  0.41800000000E+01 0.  1.
</event>
<event>
11    1  0.8974665E-009  0.1865214E+03  0.7561462E-02  0.1064487E+00
         22   -1    0    0    0    0  0.00000000000E+00  0.00000000000E+00  0.26438898870E+03  0.26438898870E+03  0.00000000000E+00 0.  1.
         22   -1    0    0    0    0 -0.00000000000E+00 -0.00000000000E+00 -0.10186915999E+04  0.10186915999E+04  0.00000000000E+00 0. -1.
         24    2    1    2    0    0  0.94640852501E+02  0.29697455172E+02 -0.78559705169E+03  0.79608623427E+03  0.82168941616E+02 0.  0.
         25    2    1    2    0    0 -0.32331286077E+02 -0.15493559766E+03 -0.14450422209E+03  0.24813162199E+03  0.12504991063E+03 0.  0.
        -24    2    1    2    0    0 -0.62309566425E+02  0.12523814248E+03  0.17579866258E+03  0.23886273235E+03  0.81136679367E+02 0.  0.
        -11    1    3    3    0    0  0.10442931763E+02  0.31213743556E+02 -0.98633503314E+02  0.10398038559E+03  0.00000000000E+00 0.  1.
         12    1    3    3    0    0  0.84197920738E+02 -0.15162883844E+01 -0.68696354837E+03  0.69210584868E+03  0.00000000000E+00 0. -1.
         13    1    5    5    0    0 -0.35737564465E+02  0.96004896340E+02  0.65222967766E+02  0.12144195799E+03  0.00000000000E+00 0. -1.
        -14    1    5    5    0    0 -0.26572001960E+02  0.29233246145E+02  0.11057569481E+03  0.11742077436E+03  0.00000000000E+00 0.  1.
          5    1    4    4  501    0 -0.41098680533E+02 -0.15773848103E+03 -0.77803683741E+02  0.18066935419E+03  0.41800000000E+01 0.  1.
         -5    1    4    4    0  501  0.87673944559E+01  0.28028833746E+01 -0.66700538352E+02  0.67462267804E+02  0.41800000000E+01 0.  1.
</event>
<event>
11    1  0.8974665E-009  0.1331187E+03  0.7561462E-02  0.1115495E+00
         22   -1    0    0    0    0  0.00000000000E+00  0.00000000000E+00  0.92632628866E+03  0.92632628866E+03  0.00000000000E+00 0.  1.
         22   -1    0    0    0    0 -0.00000000000E+00 -0.00000000000E+00 -0.38820685983E+03  0.38820685983E+03  0.00000000000E+00 0.  1.
         24    2    1    2    0    0  0.40317392075E+01 -0.17034967483E+02 -0.36290289325E+03  0.37136192475E+03  0.76842203152E+02 0.  0.
         25    2    1    2    0    0 -0.47686911335E+02  0.37301745238E+01  0.23339175440E+03  0.26908325471E+03  0.12508449637E+03 0.  0.
        -24    2    1    2    0    0  0.43655172128E+02  0.13304792959E+02  0.66763056768E+03  0.67408796904E+03  0.81124740562E+02 0.  0.
        -13    1    3    3    0    0  0.24408048809E+02 -0.17953478730E+02 -0.33715567690E+03  0.33851444683E+03  0.00000000000E+00 0.  1.
         14    1    3    3    0    0 -0.20376309602E+02  0.91851124684E+00 -0.25747216345E+02  0.32847477915E+02  0.00000000000E+00 0. -1.
         13    1    5    5    0    0 -0.11800486055E+02  0.28341712215E+02  0.34651558472E+03  0.34787290004E+03  0.00000000000E+00 0. -1.
        -14    1    5    5    0    0  0.55455658183E+02 -0.15036919256E+02  0.32111498295E+03  0.32621506900E+03  0.00000000000E+00 0.  1.
          5    1    4    4  501    0 -0.31945757420E+02  0.56058621822E+02  0.63715386059E+02  0.90775675808E+02  0.41800000000E+01 0.  1.
         -5    1    4    4    0  501 -0.15741153915E+02 -0.52328447298E+02  0.16967636834E+03  0.17830757891E+03  0.41800000000E+01 0.  1.
</event>
<event>
11    1  0.8974665E-009  0.1782891E+03  0.7561462E-02  0.1071035E+00
         22   -1    0    0    0    0  0.00000000000E+00  0.00000000000E+00  0.14284960718E+04  0.14284960718E+04  0.00000000000E+00 0.  1.
         22   -1    0    0    0    0 -0.00000000000E+00 -0.00000000000E+00 -0.17239895509E+03  0.17239895509E+03  0.00000000000E+00 0. -1.
        -24    2    1    2    0    0 -0.46262074680E+02  0.55077096769E+02 -0.12800636883E+03  0.16746392272E+03  0.80528683138E+02 0.  0.
         25    2    1    2    0    0 -0.91174549895E+02 -0.56384547852E+02  0.34479913972E+03  0.38213332547E+03  0.12508963146E+03 0.  0.
         24    2    1    2    0    0  0.13743662457E+03  0.13074510830E+01  0.10393043458E+04  0.10512977787E+04  0.78631806942E+02 0.  0.
        -11    1    5    5    0    0  0.14286170867E+03  0.65204249039E+01  0.10267488761E+04  0.10366606187E+04  0.00000000000E+00 0.  1.
         12    1    5    5    0    0 -0.54250840948E+01 -0.52129738209E+01  0.12555469662E+02  0.14637159968E+02  0.00000000000E+00 0. -1.
         13    1    3    3    0    0 -0.41378997085E+02 -0.98660841603E+01 -0.56845181601E+02  0.70999547095E+02  0.00000000000E+00 0. -1.
        -14    1    3    3    0    0 -0.48830775944E+01  0.64943180929E+02 -0.71161187233E+02  0.96464375623E+02  0.00000000000E+00 0.  1.
          5    1    4    4  501    0 -0.12009639273E+03 -0.61269629540E+02  0.27471690957E+03  0.30604568916E+03  0.41800000000E+01 0. -1.
         -5    1    4    4    0  501  0.28921842835E+02  0.48850816888E+01  0.70082230154E+02  0.76087636311E+02  0.41800000000E+01 0. -1.
</event>
<event>
11    1  0.8974665E-009  0.1533957E+03  0.7561462E-02  0.1093459E+00
         22   -1    0    0    0    0  0.00000000000E+00  0.00000000000E+00  0.36241611149E+03  0.36241611149E+03  0.00000000000E+00 0. -1.
         22   -1    0    0    0    0 -0.00000000000E+00 -0.00000000000E+00 -0.13584605487E+04  0.13584605487E+04  0.00000000000E+00 0. -1.
         24    2    1    2    0    0  0.10085499994E+03 -0.18427455245E+02 -0.12948194448E+04  0.13013717781E+04  0.80621387449E+02 0.  0.
         25    2    1    2    0    0  0.44465944997E+01  0.68628643626E+02  0.95926347688E+02  0.17200734878E+03  0.12511994615E+03 0.  0.
        -24    2    1    2    0    0 -0.10530159444E+03 -0.50201188381E+02  0.20284865994E+03  0.24749753327E+03  0.80615538401E+02 0.  0.
        -11    1    3    3    0    0  0.88008245405E+02 -0.24840782749E+02 -0.65091655294E+03  0.65730881223E+03  0.00000000000E+00 0.  1.
         12    1    3    3    0    0  0.12846754532E+02  0.64133275047E+01 -0.64390289186E+03  0.64406296588E+03  0.00000000000E+00 0. -1.
         13    1    5    5    0    0 -0.95266942427E+01 -0.13968786379E+02  0.10333420316E+03  0.10470836852E+03  0.00000000000E+00 0. -1.
        -14    1    5    5    0    0 -0.95774900194E+02 -0.36232402002E+02  0.99514456777E+02  0.14278916475E+03  0.00000000000E+00 0.  1.
          5    1    4    4  501    0 -0.46988246811E+02  0.31879152233E+02  0.92429887053E+02  0.10855842715E+03  0.41800000000E+01 0.  1.
         -5    1    4    4    0  501  0.51434841311E+02  0.36749491393E+02  0.34964606356E+01  0.63448921624E+02  0.41800000000E+01 0.  1.
</event>
<event>
11    1  0.8974665E-009  0.1394422E+03  0.7561462E-02  0.1108183E+00
         22   -1    0    0    0    0  0.00000000000E+00  0.00000000000E+00  0.52357606956E+03  0.52357606956E+03  0.00000000000E+00 0. -1.
         22   -1    0    0    0    0 -0.00000000000E+00 -0.00000000000E+00 -0.14734669742E+04  0.14734669742E+04  0.00000000000E+00 0.  1.
         24    2    1    2    0    0 -0.37988651373E+02 -0.49294679445E+02 -0.14322866732E+04  0.14358477638E+04  0.79627780412E+02 0.  0.
         25    2    1    2    0    0  0.36564477460E+00  0.25445464184E+02  0.84697955193E+02  0.15319525906E+03  0.12508972156E+03 0.  0.
        -24    2    1    2    0    0  0.37623006599E+02  0.23849215261E+02  0.39769781338E+03  0.40800002094E+03  0.79474465237E+02 0.  0.
        -13    1    3    3    0    0  0.45608325942E+01 -0.16304008866E+02 -0.10100923396E+04  0.10102342087E+04  0.00000000000E+00 0.  1.
         14    1    3    3    0    0 -0.42549483968E+02 -0.32990670579E+02 -0.42219433363E+03  0.42561355509E+03  0.00000000000E+00 0. -1.
         13    1    5    5    0    0  0.47389439757E+02 -0.78132022291E+01  0.31923515069E+03  0.32282795196E+03  0.00000000000E+00 0. -1.
        -14    1    5    5    0    0 -0.97664331582E+01  0.31662417491E+02  0.78462662687E+02  0.85172068978E+02  0.00000000000E+00 0.  1.
          5    1    4    4  501    0  0.20190100887E+02  0.67813794803E+02  0.78598672094E+02  0.10583749144E+03  0.41800000000E+01 0.  1.
         -5    1    4    4    0  501 -0.19824456112E+02 -0.42368330619E+02  0.60992830986E+01  0.47357767620E+02  0.41800000000E+01 0.  1.
</event>
<event>
11    1  0.8974665E-009  0.1371571E+03  0.7561462E-02  0.1110775E+00
         22   -1    0    0    0    0  0.00000000000E+00  0.00000000000E+00  0.13842674819E+04  0.13842674819E+04  0.00000000000E+00 0. -1.
         22   -1    0    0    0    0 -0.00000000000E+00 -0.00000000000E+00 -0.43927836909E+03  0.43927836909E+03  0.00000000000E+00 0.  1.
        -24    2    1    2    0    0  0.12080505078E+02 -0.49035950486E+02 -0.40481960849E+03  0.41582336012E+03  0.80496511522E+02 0.  0.
         25    2    1    2    0    0 -0.23254328015E+02 -0.93626293874E+01  0.12420543023E+03  0.17805290479E+03  0.12508966945E+03 0.  0.
         24    2    1    2    0    0  0.11173822937E+02  0.58398579874E+02  0.12256032911E+04  0.12296695861E+04  0.80303271468E+02 0.  0.
        -11    1    5    5    0    0 -0.11192886654E+02  0.23785712632E+01  0.24370054319E+02  0.26922813011E+02  0.00000000000E+00 0.  1.
         12    1    5    5    0    0  0.22366709591E+02  0.56020008610E+02  0.12012332368E+04  0.12027467731E+04  0.00000000000E+00 0. -1.
         13    1    3    3    0    0  0.32398957790E+01  0.15157631317E+02 -0.20872209172E+03  0.20929682818E+03  0.00000000000E+00 0. -1.
        -14    1    3    3    0    0  0.88406092989E+01 -0.64193581803E+02 -0.19609751676E+03  0.20652653195E+03  0.00000000000E+00 0.  1.
          5    1    4    4  501    0  0.11051643027E+02  0.28107162251E+02 -0.11888847078E+02  0.32725654588E+02  0.41800000000E+01 0.  1.
         -5    1    4    4    0  501 -0.34305971042E+02 -0.37469791638E+02  0.13609427731E+03  0.14532725020E+03  0.41800000000E+01 0.  1.
</event>
<event>
11    1  0.8974665E-009  0.2154728E+03  0.7561462E-02  0.1044091E+00
         22   -1    0    0    0    0  0.00000000000E+00  0.00000000000E+00  0.13135170488E+04  0.13135170488E+04  0.00000000000E+00 0. -1.
         22   -1    0    0    0    0 -0.00000000000E+00 -0.00000000000E+00 -0.50789331051E+03  0.50789331051E+03  0.00000000000E+00 0.  1.
         24    2    1    2    0    0  0.66374732625E+02  0.15639083390E+03 -0.31412474712E+03  0.36584913225E+03  0.79419977069E+02 0.  0.
         25    2    1    2    0    0 -0.84715311235E+02 -0.17304516024E+03 -0.87207322568E+02  0.24571000801E+03  0.12508788704E+03 0.  0.
        -24    2    1    2    0    0  0.18340578609E+02  0.16654326340E+02  0.12069558080E+04  0.12098512191E+04  0.79899352023E+02 0.  0.
        -13    1    3    3    0    0  0.29986997782E+02  0.14596998642E+03 -0.26228312779E+03  0.30166023287E+03  0.00000000000E+00 0.  1.
         14    1    3    3    0    0  0.36387734843E+02  0.10420847481E+02 -0.51841619322E+02  0.64188899377E+02  0.00000000000E+00 0. -1.
         13    1    5    5    0    0  0.19572025118E+02  0.18881327234E+02  0.12069997153E+04  0.12073060430E+04  0.00000000000E+00 0. -1.
        -14    1    5    5    0    0 -0.12314465087E+01 -0.22270008945E+01 -0.43907314238E-01  0.25451760921E+01  0.00000000000E+00 0.  1.
          5    1    4    4  501    0 -0.11563876859E+03 -0.12783996939E+03 -0.50611936125E+02  0.17970649140E+03  0.41800000000E+01 0. -1.
         -5    1    4    4    0  501  0.30923457356E+02 -0.45205190857E+02 -0.36595386443E+02  0.66003516605E+02  0.41800000000E+01 0. -1.
</event>
<event>
11    1  0.8974665E-009  0.1353455E+03  0.7561462E-02  0.1112870E+00
         22   -1    0    0    0    0  0.00000000000E+00  0.00000000000E+00  0.20661390717E+03  0.20661390717E+03  0.00000000000E+00 0. -1.
         22   -1    0    0    0    0 -0.00000000000E+00 -0.00000000000E+00 -0.15453465238E+04  0.15453465238E+04  0.00000000000E+00 0.  1.
         24    2    1    2    0    0 -0.18056859180E+02 -0.19243896580E+02 -0.11842067818E+04  0.11872555290E+04  0.80830756496E+02 0.  0.
         25    2    1    2    0    0  0.67315375470E+02  0.51767473515E+01 -0.33317776779E+03  0.36224019888E+03  0.12510946504E+03 0.  0.
        -24    2    1    2    0    0 -0.49258516290E+02  0.14067149228E+02  0.17865193303E+03  0.20246470309E+03  0.80319093046E+02 0.  0.
        -11    1    3    3    0    0  0.88002542797E+01 -0.42119942273E+02 -0.87215585534E+03  0.87321667988E+03  0.00000000000E+00 0.  1.
         12    1    3    3    0    0 -0.26857113460E+02  0.22876045693E+02 -0.31205092648E+03  0.31403884907E+03  0.00000000000E+00 0. -1.
         13    1    5    5    0    0 -0.71349987163E+02  0.63963051405E+01  0.12821414218E+03  0.14686932846E+03  0.00000000000E+00 0. -1.
        -14    1    5    5    0    0  0.22091470873E+02  0.76708440877E+01  0.50437790857E+02  0.55595374636E+02  0.00000000000E+00 0.  1.
          5    1    4    4  501    0  0.77282693543E+01  0.51245451670E+02 -0.22116788575E+03  0.22719711387E+03  0.41800000000E+01 0.  1.
         -5    1    4    4    0  501  0.59587106115E+02 -0.46068704318E+02 -0.11200988204E+03  0.13504308500E+03  0.41800000000E+01 0.  1.
</event>
<event>
11    1  0.8974665E-009  0.1468911E+03  0.7561462E-02  0.1100098E+00
         22   -1    0    0    0    0  0.00000000000E+00  0.00000000000E+00  0.22715693983E+03  0.22715693983E+03  0.00000000000E+00 0.  1.
         22   -1    0    0    0    0 -0.00000000000E+00 -0.00000000000E+00 -0.26645644409E+03  0.26645644409E+03  0.00000000000E+00 0.  1.
         24    2    1    2    0    0 -0.15645276428E+02  0.13063356924E+02 -0.14526735974E+03  0.16759219317E+03  0.81050055148E+02 0.  0.
         25    2    1    2    0    0  0.19876911166E+02  0.66017000084E+02 -0.33018029473E+02  0.14659552717E+03  0.12508685950E+03 0.  0.
        -24    2    1    2    0    0 -0.42316347380E+01 -0.79080357009E+02  0.13898588495E+03  0.17942566358E+03  0.81270430902E+02 0.  0.
        -11    1    3    3    0    0 -0.30734650860E+02  0.23770420983E+02 -0.14388467948E+03  0.14903842681E+03  0.00000000000E+00 0.  1.
         12    1    3    3    0    0  0.15089374432E+02 -0.10707064059E+02 -0.13826802545E+01  0.18553766361E+02  0.00000000000E+00 0. -1.
         11    1    5    5    0    0 -0.24614288837E+02  0.65246985375E+01  0.30108535519E+02  0.39432966120E+02  0.00000000000E+00 0. -1.
        -12    1    5    5    0    0  0.20382654099E+02 -0.85605055546E+02  0.10887734943E+03  0.13999269746E+03  0.00000000000E+00 0.  1.
          5    1    4    4  501    0 -0.19548464858E+02  0.90701451545E+02 -0.36432120541E+02  0.99768069029E+02  0.41800000000E+01 0.  1.
         -5    1    4    4    0  501  0.39425376024E+02 -0.24684451460E+02  0.34140910683E+01  0.46827458146E+02  0.41800000000E+01 0.  1.
</event>
<event>
11    1  0.8974665E-009  0.1437482E+03  0.7561462E-02  0.1103444E+00
         22   -1    0    0    0    0  0.00000000000E+00  0.00000000000E+00  0.34523425938E+03  0.34523425938E+03  0.00000000000E+00 0.  1.
         22   -1    0    0    0    0 -0.00000000000E+00 -0.00000000000E+00 -0.23241121153E+03  0.23241121153E+03  0.00000000000E+00 0.  1.
         24    2    1    2    0    0  0.48245244262E+02 -0.43778820229E+02 -0.11888142491E+03  0.15789743619E+03  0.80960598272E+02 0.  0.
         25    2    1    2    0    0 -0.87933150444E+02  0.37475962644E+02 -0.13916626073E+02  0.15804487061E+03  0.12509125438E+03 0.  0.
        -24    2    1    2    0    0  0.39687906181E+02  0.63028575845E+01  0.24562109883E+03  0.26170316410E+03  0.80894783482E+02 0.  0.
        -11    1    3    3    0    0  0.38277142127E+02 -0.36783277070E+02 -0.13061234057E+03  0.14098841297E+03  0.00000000000E+00 0.  1.
         12    1    3    3    0    0  0.99681021351E+01 -0.69955431589E+01  0.11730915659E+02  0.16909023226E+02  0.00000000000E+00 0. -1.
         11    1    5    5    0    0 -0.66893957211E+01  0.27514443514E+02  0.35123764517E+02  0.45116199429E+02  0.00000000000E+00 0. -1.
        -12    1    5    5    0    0  0.46377301902E+02 -0.21211585930E+02  0.21049733432E+03  0.21658696467E+03  0.00000000000E+00 0.  1.
          5    1    4    4  501    0 -0.44807794533E+02  0.56697695626E+02  0.42828177708E+02  0.84107623590E+02  0.41800000000E+01 0.  1.
         -5    1    4    4    0  501 -0.43125355910E+02 -0.19221732981E+02 -0.56744803781E+02  0.73937247023E+02  0.41800000000E+01 0.  1.
</event>
<event>
11    1  0.8974665E-009  0.1400346E+03  0.7561462E-02  0.1107520E+00
         22   -1    0    0    0    0  0.00000000000E+00  0.00000000000E+00  0.33418706337E+03  0.33418706337E+03  0.00000000000E+00 0.  1.
         22   -1    0    0    0    0 -0.00000000000E+00 -0.00000000000E+00 -0.19091388451E+04  0.19091388451E+04  0.00000000000E+00 0.  1.
         24    2    1    2    0    0  0.11878196929E+02 -0.53358398862E+02 -0.15018224853E+04  0.15047763628E+04  0.76765320058E+02 0.  0.
         25    2    1    2    0    0 -0.72045478129E+02  0.69912002038E+02 -0.38093558494E+03  0.41332281360E+03  0.12508233059E+03 0.  0.
        -24    2    1    2    0    0  0.60167281200E+02 -0.16553603175E+02  0.30780628857E+03  0.32522673202E+03  0.84460596893E+02 0.  0.
        -13    1    3    3    0    0 -0.11040734775E+02 -0.65861668392E+02 -0.95582264454E+03  0.95815269400E+03  0.00000000000E+00 0.  1.
         14    1    3    3    0    0  0.22918931703E+02  0.12503269530E+02 -0.54599984077E+03  0.54662366881E+03  0.00000000000E+00 0. -1.
         13    1    5    5    0    0  0.72559740017E+00  0.24231575846E+02  0.14721177642E+03  0.14919451356E+03  0.00000000000E+00 0. -1.
        -14    1    5    5    0    0  0.59441683800E+02 -0.40785179022E+02  0.16059451215E+03  0.17603221845E+03  0.00000000000E+00 0.  1.
          5    1    4    4  501    0 -0.51154322488E+02  0.36991662256E+02 -0.36589481752E+03  0.37132416791E+03  0.41800000000E+01 0.  1.
         -5    1    4    4    0  501 -0.20891155641E+02  0.32920339782E+02 -0.15040767411E+02  0.41998645688E+02  0.41800000000E+01 0.  1.
</event>
<event>
11    1  0.8974665E-009  0.1319639E+03  0.7561462E-02  0.1116879E+00
         22   -1    0    0    0    0  0.00000000000E+00  0.00000000000E+00  0.59008402282E+02  0.59008402282E+02  0.00000000000E+00 0.  1.
         22   -1    0    0    0    0 -0.00000000000E+00 -0.00000000000E+00 -0.52080575905E+03  0.52080575905E+03  0.00000000000E+00 0.  1.
         24    2    1    2    0    0  0.34087776718E+02  0.81656198615E+00 -0.14108847081E+03  0.16645723595E+03  0.81482584099E+02 0.  0.
         25    2    1    2    0    0 -0.48619615761E+02 -0.17977217493E+02 -0.31887729033E+03  0.34643489065E+03  0.12508940718E+03 0.  0.
        -24    2    1    2    0    0  0.14531839043E+02  0.17160655507E+02 -0.18315956293E+01  0.66922034722E+02  0.63004297833E+02 0.  0.
        -11    1    3    3    0    0  0.54442662693E+02 -0.17400627756E+02 -0.70439137010E+02  0.90710844942E+02  0.00000000000E+00 0.  1.
         12    1    3    3    0    0 -0.20354885975E+02  0.18217189742E+02 -0.70649333798E+02  0.75746391012E+02  0.00000000000E+00 0. -1.
         13    1    5    5    0    0  0.38495035057E+02  0.17613920276E+02 -0.54505963717E+01  0.42682864388E+02  0.00000000000E+00 0. -1.
        -14    1    5    5    0    0 -0.23963196014E+02 -0.45326476905E+00  0.36190007424E+01  0.24239170335E+02  0.00000000000E+00 0.  1.
          5    1    4    4  501    0 -0.90859980080E+02 -0.13047699242E+02 -0.19962346871E+03  0.21975618329E+03  0.41800000000E+01 0. -1.
         -5    1    4    4    0  501  0.42240364320E+02 -0.49295182507E+01 -0.11925382162E+03  0.12667870736E+03  0.41800000000E+01 0. -1.
</event>
<event>
11    1  0.8974665E-009  0.1376962E+03  0.7561462E-02  0.1110159E+00
         22   -1    0    0    0    0  0.00000000000E+00  0.00000000000E+00  0.27540318157E+03  0.27540318157E+03  0.00000000000E+00 0.  1.
         22   -1    0    0    0    0 -0.00000000000E+00 -0.00000000000E+00 -0.18161902022E+04  0.18161902022E+04  0.00000000000E+00 0.  1.
         24    2    1    2    0    0  0.16150594072E+01 -0.77138029302E+01 -0.11019623571E+04  0.11048837644E+04  0.79906102574E+02 0.  0.
         25    2    1    2    0    0  0.53307232074E+02  0.24887051403E+02 -0.69687560612E+03  0.71045364864E+03  0.12509096745E+03 0.  0.
        -24    2    1    2    0    0 -0.54922291481E+02 -0.17173248473E+02  0.25805094264E+03  0.27625597066E+03  0.80098025971E+02 0.  0.
        -11    1    3    3    0    0 -0.11151068147E+02 -0.32898671515E+02 -0.92758459045E+03  0.92823479861E+03  0.00000000000E+00 0.  1.
         12    1    3    3    0    0  0.12766127554E+02  0.25184868585E+02 -0.17437776667E+03  0.17664896583E+03  0.00000000000E+00 0. -1.
         13    1    5    5    0    0 -0.15167177699E+02  0.22293264210E+02  0.25706874563E+02  0.37254211954E+02  0.00000000000E+00 0. -1.
        -14    1    5    5    0    0 -0.39755113781E+02 -0.39466512683E+02  0.23234406808E+03  0.23900175871E+03  0.00000000000E+00 0.  1.
          5    1    4    4  501    0 -0.25355277796E+02 -0.24253178989E+02 -0.93076604376E+02  0.99558191453E+02  0.41800000000E+01 0.  1.
         -5    1    4    4    0  501  0.78662509870E+02  0.49140230392E+02 -0.60379900174E+03  0.61089545718E+03  0.41800000000E+01 0.  1.
</event>
<event>
11    1  0.8974665E-009  0.4009982E+03  0.7561462E-02  0.9646817E-01
         22   -1    0    0    0    0  0.00000000000E+00  0.00000000000E+00  0.12456154303E+04  0.12456154303E+04  0.00000000000E+00 0.  1.
         22   -1    0    0    0    0 -0.00000000000E+00 -0.00000000000E+00 -0.48265367078E+03  0.48265367078E+03  0.00000000000E+00 0. -1.
         24    2    1    2    0    0  0.28975057336E+03  0.28921463894E+03 -0.27390407467E+03  0.50161640418E+03  0.94842356991E+02 0.  0.
         25    2    1    2    0    0 -0.22869913729E+03 -0.20263951980E+03  0.21442328682E+03  0.39368949913E+03  0.12509198780E+03 0.  0.
        -24    2    1    2    0    0 -0.61051436071E+02 -0.86575119140E+02  0.82244254738E+03  0.83296319779E+03  0.78698259480E+02 0.  0.
        -13    1    3    3    0    0  0.76516788107E+02  0.13063106330E+03 -0.12923281909E+03  0.19904877566E+03  0.00000000000E+00 0.  1.
         14    1    3    3    0    0  0.21323378525E+03  0.15858357564E+03 -0.14467125557E+03  0.30256762852E+03  0.00000000000E+00 0. -1.
         13    1    5    5    0    0 -0.61602668837E+02 -0.78357663527E+02  0.47132014052E+03  0.48174421336E+03  0.00000000000E+00 0. -1.
        -14    1    5    5    0    0  0.55123276579E+00 -0.82174556121E+01  0.35112240685E+03  0.35121898444E+03  0.00000000000E+00 0.  1.
          5    1    4    4  501    0 -0.20335373146E+03 -0.21037768970E+03  0.22023287325E+03  0.36623968010E+03  0.41800000000E+01 0.  1.
         -5    1    4    4    0  501 -0.25345405835E+02  0.77381699023E+01 -0.58095864242E+01  0.27449819030E+02  0.41800000000E+01 0.  1.
</event>
<event>
11    1  0.8974665E-009  0.1363661E+03  0.7561462E-02  0.1111685E+00
         22   -1    0    0    0    0  0.00000000000E+00  0.00000000000E+00  0.98097326194E+02  0.98097326194E+02  0.00000000000E+00 0. -1.
         22   -1    0    0    0    0 -0.00000000000E+00 -0.00000000000E+00 -0.16565744775E+04  0.16565744775E+04  0.00000000000E+00 0. -1.
         24    2    1    2    0    0 -0.16406543203E+02 -0.37094931475E+02 -0.12466895947E+04  0.12486954178E+04  0.57966302301E+02 0.  0.
         25    2    1    2    0    0  0.52982618897E+02  0.73643187521E+02 -0.36534916461E+03  0.39668426781E+03  0.12509164350E+03 0.  0.
        -24    2    1    2    0    0 -0.36576075694E+02 -0.36548256047E+02  0.53561608073E+02  0.10929211805E+03  0.80014604140E+02 0.  0.
        -11    1    3    3    0    0  0.24021442134E+01  0.12378337051E+02 -0.48752004770E+03  0.48768308402E+03  0.00000000000E+00 0.  1.
         12    1    3    3    0    0 -0.18808687416E+02 -0.49473268526E+02 -0.75916954703E+03  0.76101233377E+03  0.00000000000E+00 0. -1.
         11    1    5    5    0    0 -0.10085306489E+02 -0.48545557210E+02  0.14357130567E+01  0.49602881003E+02  0.00000000000E+00 0. -1.
        -12    1    5    5    0    0 -0.26490769206E+02  0.11997301163E+02  0.52125895016E+02  0.59689237050E+02  0.00000000000E+00 0.  1.
          5    1    4    4  501    0 -0.21597917536E+02  0.35085120181E+02 -0.30464157040E+02  0.51409852793E+02  0.41800000000E+01 0. -1.
         -5    1    4    4    0  501  0.74580536434E+02  0.38558067341E+02 -0.33488500757E+03  0.34527441502E+03  0.41800000000E+01 0. -1.
</event>
<event>
11    1  0.8974665E-009  0.1375986E+03  0.7561462E-02  0.1110270E+00
         22   -1    0    0    0    0  0.00000000000E+00  0.00000000000E+00  0.35770681344E+03  0.35770681344E+03  0.00000000000E+00 0. -1.
         22   -1    0    0    0    0 -0.00000000000E+00 -0.00000000000E+00 -0.50414258458E+03  0.50414258458E+03  0.00000000000E+00 0. -1.
        -24    2    1    2    0    0  0.22146921644E+01  0.55641227992E+02 -0.39459701281E+03  0.40698141820E+03  0.82620948471E+02 0.  0.
         25    2    1    2    0    0 -0.26236922446E+02 -0.70578591588E+02 -0.39175865451E+02  0.15117190598E+03  0.12509389687E+03 0.  0.
         24    2    1    2    0    0  0.24022230281E+02  0.14937363596E+02  0.28733710712E+03  0.30369607384E+03  0.94172712381E+02 0.  0.
        -11    1    5    5    0    0  0.38852142396E+02  0.24164346955E+02  0.58855258148E+02  0.74547609245E+02  0.00000000000E+00 0.  1.
         12    1    5    5    0    0 -0.14829912114E+02 -0.92269833597E+01  0.22848184897E+03  0.22914846459E+03  0.00000000000E+00 0. -1.
         11    1    3    3    0    0  0.13364731614E+02  0.70192780684E+02 -0.36672274318E+03  0.37361907457E+03  0.00000000000E+00 0. -1.
        -12    1    3    3    0    0 -0.11150039450E+02 -0.14551552692E+02 -0.27874269629E+02  0.33362343635E+02  0.00000000000E+00 0.  1.
          5    1    4    4  501    0 -0.41948119133E+02 -0.88405395063E+02  0.79137947770E+01  0.98261178106E+02  0.41800000000E+01 0.  1.
         -5    1    4    4    0  501  0.15711196687E+02  0.17826803475E+02 -0.47089660228E+02  0.52910727872E+02  0.41800000000E+01 0.  1.
</event>
<event>
11    1  0.8974665E-009  0.1827931E+03  0.7561462E-02  0.1067406E+00
         22   -1    0    0    0    0  0.00000000000E+00  0.00000000000E+00  0.34242659638E+03  0.34242659638E+03  0.00000000000E+00 0.  1.
         22   -1    0    0    0    0 -0.00000000000E+00 -0.00000000000E+00 -0.78971208742E+03  0.78971208742E+03  0.00000000000E+00 0. -1.
         24    2    1    2    0    0  0.11059124686E+03  0.27641577566E+02 -0.34359018810E+03  0.37414623875E+03  0.94534173267E+02 0.  0.
         25    2    1    2    0    0 -0.17153304889E+03  0.14149249499E+02 -0.39435291313E+03  0.44809719569E+03  0.12511230382E+03 0.  0.
        -24    2    1    2    0    0  0.60941802027E+02 -0.41790827065E+02  0.29065761019E+03  0.30989524936E+03  0.78056663728E+02 0.  0.
        -11    1    3    3    0    0  0.13234554096E+01  0.26596662473E+02 -0.22141154351E+02  0.34631845243E+02  0.00000000000E+00 0.  1.
         12    1    3    3    0    0  0.10926779145E+03  0.10449150922E+01 -0.32144903375E+03  0.33951439350E+03  0.00000000000E+00 0. -1.
         13    1    5    5    0    0  0.15540991386E+02  0.46710222049E+01  0.50533186377E+01  0.16996378760E+02  0.00000000000E+00 0. -1.
        -14    1    5    5    0    0  0.45400810641E+02 -0.46461849269E+02  0.28560429156E+03  0.29289887060E+03  0.00000000000E+00 0.  1.
          5    1    4    4  501    0 -0.11495984844E+03 -0.46800924652E+02 -0.18526003670E+03  0.22303552834E+03  0.41800000000E+01 0. -1.
         -5    1    4    4    0  501 -0.56573200451E+02  0.60950174151E+02 -0.20909287643E+03  0.22506166735E+03  0.41800000000E+01 0. -1.
</event>
<event>
11    1  0.8974665E-009  0.1369552E+03  0.7561462E-02  0.1111007E+00
         22   -1    0    0    0    0  0.00000000000E+00  0.00000000000E+00  0.45068282854E+03  0.45068282854E+03  0.00000000000E+00 0. -1.
         22   -1    0    0    0    0 -0.00000000000E+00 -0.00000000000E+00 -0.30398257596E+04  0.30398257596E+04  0.00000000000E+00 0. -1.
        -24    2    1    2    0    0 -0.18401411078E+02 -0.44802346430E+02 -0.28701523068E+04  0.28716913296E+04  0.80566534090E+02 0.  0.
         25    2    1    2    0    0  0.34155699527E+02 -0.10091620769E+02 -0.13687856895E+03  0.18881722991E+03  0.12509097111E+03 0.  0.
         24    2    1    2    0    0 -0.15754288449E+02  0.54893967199E+02  0.41788794462E+03  0.43000002865E+03  0.83714665069E+02 0.  0.
        -13    1    5    5    0    0  0.18041796111E+02  0.57095270732E+02  0.33747683977E+03  0.34274771148E+03  0.00000000000E+00 0.  1.
         14    1    5    5    0    0 -0.33796084560E+02 -0.22013035335E+01  0.80411104847E+02  0.87252317170E+02  0.00000000000E+00 0. -1.
         11    1    3    3    0    0 -0.38899872110E+02 -0.56637787291E+02 -0.23440755594E+04  0.23450823582E+04  0.00000000000E+00 0. -1.
        -12    1    3    3    0    0  0.20498461032E+02  0.11835440861E+02 -0.52607674741E+03  0.52660897137E+03  0.00000000000E+00 0.  1.
          5    1    4    4  501    0 -0.40897656950E+02  0.23857687927E+02 -0.47537129072E+02  0.67223944080E+02  0.41800000000E+01 0. -1.
         -5    1    4    4    0  501  0.75053356477E+02 -0.33949308696E+02 -0.89341439874E+02  0.12159328583E+03  0.41800000000E+01 0. -1.
</event>
<event>
11    1  0.8974665E-009  0.1478120E+03  0.7561462E-02  0.1099136E+00
         22   -1    0    0    0    0  0.00000000000E+00  0.00000000000E+00  0.63411225066E+03  0.63411225066E+03  0.00000000000E+00 0. -1.
         22   -1    0    0    0    0 -0.00000000000E+00 -0.00000000000E+00 -0.22582424801E+03  0.22582424801E+03  0.00000000000E+00 0.  1.
         24    2    1    2    0    0 -0.22546819906E+02 -0.24568879334E+02 -0.18215173780E+03  0.20140209631E+03  0.79193180849E+02 0.  0.
         25    2    1    2    0    0 -0.22549198424E+02  0.86808895444E+02  0.19945399786E+03  0.25193994015E+03  0.12509030940E+03 0.  0.
        -24    2    1    2    0    0  0.45096018330E+02 -0.62240016110E+02  0.39098574259E+03  0.40659446220E+03  0.80880994737E+02 0.  0.
        -11    1    3    3    0    0 -0.13858119590E+02 -0.23206425974E+02 -0.18858075272E+03  0.19050796829E+03  0.00000000000E+00 0.  1.
         12    1    3    3    0    0 -0.86887003162E+01 -0.13624533600E+01  0.64290149214E+01  0.10894128015E+02  0.00000000000E+00 0. -1.
         13    1    5    5    0    0 -0.18176391027E+01 -0.51241942087E+02  0.29241615493E+03  0.29687749680E+03  0.00000000000E+00 0. -1.
        -14    1    5    5    0    0  0.46913657433E+02 -0.10998074023E+02  0.98569587661E+02  0.10971696540E+03  0.00000000000E+00 0.  1.
          5    1    4    4  501    0 -0.71201674496E+02  0.68219266350E+02  0.15273450196E+03  0.18184841831E+03  0.41800000000E+01 0.  1.
         -5    1    4    4    0  501  0.48652476072E+02  0.18589629095E+02  0.46719495895E+02  0.70091521844E+02  0.41800000000E+01 0.  1.
</event>
<event>
11    1  0.8974665E-009  0.1417280E+03  0.7561462E-02  0.1105644E+00
         22   -1    0    0    0    0  0.00000000000E+00  0.00000000000E+00  0.13020497355E+04  0.13020497355E+04  0.00000000000E+00 0. -1.
         22   -1    0    0    0    0 -0.00000000000E+00 -0.00000000000E+00 -0.13460496586E+03  0.13460496586E+03  0.00000000000E+00 0.  1.
        -24    2    1    2    0    0 -0.69606451385E+01  0.17551499667E+02 -0.61174704537E+02  0.10221892512E+03  0.79685999121E+02 0.  0.
         25    2    1    2    0    0 -0.59693938984E+02 -0.22792813537E+02  0.46771063149E+02  0.14804794153E+03  0.12509109458E+03 0.  0.
         24    2    1    2    0    0  0.66654584123E+02  0.52413138705E+01  0.11818484110E+04  0.11863878347E+04  0.79247225626E+02 0.  0.
        -11    1    5    5    0    0 -0.70375527237E+00  0.30907115214E+02  0.29529921525E+03  0.29691307073E+03  0.00000000000E+00 0.  1.
         12    1    5    5    0    0  0.67358339395E+02 -0.25665801344E+02  0.88654919575E+03  0.88947476397E+03  0.00000000000E+00 0. -1.
         11    1    3    3    0    0  0.20690195390E+02 -0.74187173713E+01  0.82106870458E+01  0.23463523488E+02  0.00000000000E+00 0. -1.
        -12    1    3    3    0    0 -0.27650840529E+02  0.24970217038E+02 -0.69385391583E+02  0.78755401631E+02  0.00000000000E+00 0.  1.
          5    1    4    4  501    0 -0.78354851172E+02  0.47756779040E-01 -0.14614919443E+02  0.79815745647E+02  0.41800000000E+01 0. -1.
         -5    1    4    4    0  501  0.18660912188E+02 -0.22840570316E+02  0.61385982592E+02  0.68232195882E+02  0.41800000000E+01 0. -1.
</event>
<event>
11    1  0.8974665E-009  0.1602481E+03  0.7561462E-02  0.1086844E+00
         22   -1    0    0    0    0  0.00000000000E+00  0.00000000000E+00  0.28763344024E+03  0.28763344024E+03  0.00000000000E+00 0. -1.
         22   -1    0    0    0    0 -0.00000000000E+00 -0.00000000000E+00 -0.13687368593E+04  0.13687368593E+04  0.00000000000E+00 0.  1.
        -24    2    1    2    0    0  0.77231740323E+01 -0.30253348435E+01 -0.12316616616E+04  0.12343527727E+04  0.81040230050E+02 0.  0.
         25    2    1    2    0    0  0.41164846041E+02  0.90603377610E+02 -0.63892343703E+02  0.17214374760E+03  0.12509085367E+03 0.  0.
         24    2    1    2    0    0 -0.48888020073E+02 -0.87578042767E+02  0.21445058622E+03  0.24987377920E+03  0.79924336204E+02 0.  0.
        -11    1    5    5    0    0 -0.11615237306E+02 -0.20976237744E+02  0.19195144940E+01  0.24054122795E+02  0.00000000000E+00 0.  1.
         12    1    5    5    0    0 -0.37272782767E+02 -0.66601805023E+02  0.21253107173E+03  0.22581965640E+03  0.00000000000E+00 0. -1.
         11    1    3    3    0    0  0.37771609618E+02  0.43064689183E+01 -0.33368534909E+03  0.33584394049E+03  0.00000000000E+00 0. -1.
        -12    1    3    3    0    0 -0.30048435586E+02 -0.73318037618E+01 -0.89797631250E+03  0.89850883225E+03  0.00000000000E+00 0.  1.
          5    1    4    4  501    0 -0.79124340685E+01  0.30794712204E+02  0.34371326708E+02  0.47008312162E+02  0.41800000000E+01 0. -1.
         -5    1    4    4    0  501  0.49077280109E+02  0.59808665406E+02 -0.98263670411E+02  0.12513543544E+03  0.41800000000E+01 0. -1.
</event>
<event>
11    1  0.8974665E-009  0.2116907E+03  0.7561462E-02  0.1046551E+00
         22   -1    0    0    0    0  0.00000000000E+00  0.00000000000E+00  0.37629698569E+03  0.37629698569E+03  0.00000000000E+00 0. -1.
         22   -1    0    0    0    0 -0.00000000000E+00 -0.00000000000E+00 -0.15812626800E+04  0.15812626800E+04  0.00000000000E+00 0.  1.
         24    2    1    2    0    0 -0.16105044427E+03 -0.81652093522E+02 -0.84588257472E+03  0.86900403269E+03  0.83942650848E+02 0.  0.
         25    2    1    2    0    0  0.59708732425E+02  0.17990257465E+03 -0.68396581447E+03  0.72068477924E+03  0.12508895461E+03 0.  0.
        -24    2    1    2    0    0  0.10134171185E+03 -0.98250481128E+02  0.32488269493E+03  0.36787085372E+03  0.99281921579E+02 0.  0.
        -13    1    3    3    0    0 -0.12162060005E+03 -0.67778231806E+02 -0.45325524080E+03  0.47415796142E+03  0.00000000000E+00 0.  1.
         14    1    3    3    0    0 -0.39429844225E+02 -0.13873861716E+02 -0.39262733392E+03  0.39484607127E+03  0.00000000000E+00 0. -1.
         13    1    5    5    0    0  0.76412944290E+02 -0.65832073144E+01  0.16371734621E+03  0.18079172028E+03  0.00000000000E+00 0. -1.
        -14    1    5    5    0    0  0.24928767560E+02 -0.91667273813E+02  0.16116534872E+03  0.18707913344E+03  0.00000000000E+00 0.  1.
          5    1    4    4  501    0  0.72458381635E+02  0.96311363573E+02 -0.23861930162E+03  0.26736256156E+03  0.41800000000E+01 0. -1.
         -5    1    4    4    0  501 -0.12749649210E+02  0.83591211076E+02 -0.44534651285E+03  0.45332221767E+03  0.41800000000E+01 0. -1.
</event>
<event>
11    1  0.8974665E-009  0.1298983E+03  0.7561462E-02  0.1119394E+00
         22   -1    0    0    0    0  0.00000000000E+00  0.00000000000E+00  0.61171392900E+03  0.61171392900E+03  0.00000000000E+00 0. -1.
         22   -1    0    0    0    0 -0.00000000000E+00 -0.00000000000E+00 -0.15639196315E+04  0.15639196315E+04  0.00000000000E+00 0. -1.
        -24    2    1    2    0    0  0.14452561559E+02 -0.17647332373E+02 -0.10382935150E+04  0.10415976515E+04  0.79699054747E+02 0.  0.
         25    2    1    2    0    0  0.19752108066E+02  0.96522788566E+01 -0.51304109741E+03  0.52852802495E+03  0.12508954099E+03 0.  0.
         24    2    1    2    0    0 -0.34204669625E+02  0.79950535163E+01  0.59912890990E+03  0.60550788411E+03  0.80314797737E+02 0.  0.
        -11    1    5    5    0    0 -0.33048923017E+02  0.22821989485E+02  0.12819579929E+03  0.13434000696E+03  0.00000000000E+00 0.  1.
         12    1    5    5    0    0 -0.11557466082E+01 -0.14826935969E+02  0.47093311062E+03  0.47116787715E+03  0.00000000000E+00 0. -1.
         13    1    3    3    0    0 -0.99507432631E+01 -0.20832157975E+02 -0.93954593566E+03  0.93982953844E+03  0.00000000000E+00 0. -1.
        -14    1    3    3    0    0  0.24403304822E+02  0.31848256024E+01 -0.98747579372E+02  0.10176811304E+03  0.00000000000E+00 0.  1.
          5    1    4    4  501    0  0.65883485315E+02  0.30145767159E+02 -0.23642881946E+03  0.24731651782E+03  0.41800000000E+01 0. -1.
         -5    1    4    4    0  501 -0.46131377248E+02 -0.20493488303E+02 -0.27661227795E+03  0.28121150713E+03  0.41800000000E+01 0. -1.
</event>
<event>
11    1  0.8974665E-009  0.1609545E+03  0.7561462E-02  0.1086183E+00
         22   -1    0    0    0    0  0.00000000000E+00  0.00000000000E+00  0.26623408727E+03  0.26623408727E+03  0.00000000000E+00 0.  1.
         22   -1    0    0    0    0 -0.00000000000E+00 -0.00000000000E+00 -0.82185902741E+03  0.82185902741E+03  0.00000000000E+00 0.  1.
         24    2    1    2    0    0  0.46354172421E+01 -0.57605961603E+02 -0.45106248532E+03  0.46162478553E+03  0.79373440441E+02 0.  0.
         25    2    1    2    0    0  0.60324828162E+02  0.13264982457E+03 -0.32084560880E+03  0.37393153565E+03  0.12509127796E+03 0.  0.
        -24    2    1    2    0    0 -0.64960245405E+02 -0.75043862967E+02  0.21628315398E+03  0.25253679350E+03  0.84528187742E+02 0.  0.
        -13    1    3    3    0    0 -0.15980443471E+01 -0.77222657630E+02 -0.37135248913E+03  0.37930009726E+03  0.00000000000E+00 0.  1.
         14    1    3    3    0    0  0.62334615892E+01  0.19616696028E+02 -0.79709996197E+02  0.82324688278E+02  0.00000000000E+00 0. -1.
         11    1    5    5    0    0 -0.24885085469E+02 -0.29357537851E+02  0.13406990755E+02  0.40753894398E+02  0.00000000000E+00 0. -1.
        -12    1    5    5    0    0 -0.40075159935E+02 -0.45686325116E+02  0.20287616323E+03  0.21178289910E+03  0.00000000000E+00 0.  1.
          5    1    4    4  501    0 -0.14946556424E+01  0.11442438108E+03 -0.26449371130E+03  0.28821791877E+03  0.41800000000E+01 0.  1.
         -5    1    4    4    0  501  0.61819483805E+02  0.18225443485E+02 -0.56351897496E+02  0.85713616885E+02  0.41800000000E+01 0.  1.
</event>
<event>
11    1  0.8974665E-009  0.1937986E+03  0.7561462E-02  0.1058998E+00
         22   -1    0    0    0    0  0.00000000000E+00  0.00000000000E+00  0.22048948780E+04  0.22048948780E+04  0.00000000000E+00 0.  1.
         22   -1    0    0    0    0 -0.00000000000E+00 -0.00000000000E+00 -0.74450277992E+02  0.74450277992E+02  0.00000000000E+00 0.  1.
        -24    2    1    2    0    0 -0.12301793184E+03 -0.94291993041E+02  0.10566055676E+03  0.20216062689E+03  0.75368257927E+02 0.  0.
         25    2    1    2    0    0  0.40144719954E+02  0.14734553878E+03  0.38671563522E+03  0.43418513283E+03  0.12508173610E+03 0.  0.
         24    2    1    2    0    0  0.82873211891E+02 -0.53053545738E+02  0.16380684080E+04  0.16429993963E+04  0.80599372280E+02 0.  0.
        -11    1    5    5    0    0 -0.12738893565E+02 -0.18165946259E+02  0.46306057760E+03  0.46359182428E+03  0.00000000000E+00 0.  1.
         12    1    5    5    0    0  0.95612105456E+02 -0.34887599479E+02  0.11750078304E+04  0.11794075720E+04  0.00000000000E+00 0. -1.
         13    1    3    3    0    0 -0.12982688693E+02  0.13204759104E+02  0.11775658442E+02  0.21944976656E+02  0.00000000000E+00 0. -1.
        -14    1    3    3    0    0 -0.11003524315E+03 -0.10749675215E+03  0.93884898315E+02  0.18021565023E+03  0.00000000000E+00 0.  1.
          5    1    4    4  501    0  0.82751137671E+02  0.98916882795E+02  0.21553632670E+03  0.25120844137E+03  0.41800000000E+01 0. -1.
         -5    1    4    4    0  501 -0.42606417717E+02  0.48428655984E+02  0.17117930852E+03  0.18297669146E+03  0.41800000000E+01 0. -1.
</event>
<event>
11    1  0.8974665E-009  0.1383355E+03  0.7561462E-02  0.1109431E+00
         22   -1    0    0    0    0  0.00000000000E+00  0.00000000000E+00  0.47330960606E+03  0.47330960606E+03  0.00000000000E+00 0.  1.
         22   -1    0    0    0    0 -0.00000000000E+00 -0.00000000000E+00 -0.17316438459E+03  0.17316438459E+03  0.00000000000E+00 0. -1.
         24    2    1    2    0    0 -0.51397599265E+01 -0.98200389191E+01 -0.75501123755E+02  0.11026654421E+03  0.79595482206E+02 0.  0.
         25    2    1    2    0    0 -0.53287101378E+02  0.20213354271E+02 -0.99667490694E+01  0.13781579799E+03  0.12508302532E+03 0.  0.
        -24    2    1    2    0    0  0.58426861304E+02 -0.10393315352E+02  0.38561309429E+03  0.39839164845E+03  0.80602282473E+02 0.  0.
        -11    1    3    3    0    0  0.18225821336E+02 -0.84378068805E+01  0.94164891826E+01  0.22182141845E+02  0.00000000000E+00 0.  1.
         12    1    3    3    0    0 -0.23365581262E+02 -0.13822320386E+01 -0.84917612938E+02  0.88084402366E+02  0.00000000000E+00 0. -1.
         13    1    5    5    0    0  0.32324547861E+02 -0.33511657891E+02  0.96089020249E+02  0.10677550010E+03  0.00000000000E+00 0. -1.
        -14    1    5    5    0    0  0.26102313443E+02  0.23118342539E+02  0.28952407404E+03  0.29161614835E+03  0.00000000000E+00 0.  1.
          5    1    4    4  501    0  0.36530827853E+02 -0.13537499932E+02  0.83041337588E+01  0.40052419722E+02  0.41800000000E+01 0.  1.
         -5    1    4    4    0  501 -0.89817929231E+02  0.33750854204E+02 -0.18270882828E+02  0.97763378267E+02  0.41800000000E+01 0.  1.
</event>
<event>
11    1  0.8974665E-009  0.1325359E+03  0.7561462E-02  0.1116192E+00
         22   -1    0    0    0    0  0.00000000000E+00  0.00000000000E+00  0.40193281255E+03  0.40193281255E+03  0.00000000000E+00 0. -1.
         22   -1    0    0    0    0 -0.00000000000E+00 -0.00000000000E+00 -0.86316428865E+03  0.86316428865E+03  0.00000000000E+00 0. -1.
         24    2    1    2    0    0  0.12422398267E+02 -0.19057311118E+02 -0.50595124320E+03  0.51295379725E+03  0.81347652292E+02 0.  0.
         25    2    1    2    0    0 -0.54952409140E+02  0.28403544747E+02 -0.33430225207E+03  0.36226003424E+03  0.12509119889E+03 0.  0.
        -24    2    1    2    0    0  0.42530010873E+02 -0.93462336285E+01  0.37902201918E+03  0.38988326971E+03  0.80343755652E+02 0.  0.
        -13    1    3    3    0    0 -0.59481706608E+01  0.24668963399E+01 -0.23215847018E+00  0.64436177196E+01  0.00000000000E+00 0.  1.
         14    1    3    3    0    0  0.18370568928E+02 -0.21524207458E+02 -0.50571908473E+03  0.50651017953E+03  0.00000000000E+00 0. -1.
         13    1    5    5    0    0  0.19544928387E+02  0.35757050839E+02  0.16578930951E+03  0.17072394694E+03  0.00000000000E+00 0. -1.
        -14    1    5    5    0    0  0.22985082487E+02 -0.45103284467E+02  0.21323270967E+03  0.21915932278E+03  0.00000000000E+00 0.  1.
          5    1    4    4  501    0  0.25396743782E+02  0.41848583848E+02 -0.69027710188E+02  0.84726594046E+02  0.41800000000E+01 0.  1.
         -5    1    4    4    0  501 -0.80349152922E+02 -0.13445039102E+02 -0.26527454189E+03  0.27753344019E+03  0.41800000000E+01 0.  1.
</event>
<event>
11    1  0.8974665E-009  0.1431352E+03  0.7561462E-02  0.1104107E+00
         22   -1    0    0    0    0  0.00000000000E+00  0.00000000000E+00  0.22316299534E+03  0.22316299534E+03  0.00000000000E+00 0.  1.
         22   -1    0    0    0    0 -0.00000000000E+00 -0.00000000000E+00 -0.10746245329E+04  0.10746245329E+04  0.00000000000E+00 0.  1.
         24    2    1    2    0    0 -0.17207561923E+01 -0.28897737175E+01 -0.99556447439E+03  0.99895859972E+03  0.82209181399E+02 0.  0.
         25    2    1    2    0    0  0.65722357181E+02 -0.23581003357E+02  0.12546905345E+03  0.19043612398E+03  0.12509173431E+03 0.  0.
        -24    2    1    2    0    0 -0.64001600989E+02  0.26470777075E+02  0.18633883353E+02  0.10839280456E+03  0.81270360543E+02 0.  0.
        -13    1    3    3    0    0  0.31302521212E+02 -0.50574716862E+01 -0.79890201281E+03  0.79953101999E+03  0.00000000000E+00 0.  1.
         14    1    3    3    0    0 -0.33023277404E+02  0.21676979687E+01 -0.19666246158E+03  0.19942757973E+03  0.00000000000E+00 0. -1.
         11    1    5    5    0    0  0.19598840066E+02  0.70777003274E+01  0.57012265584E+01  0.21603526520E+02  0.00000000000E+00 0. -1.
        -12    1    5    5    0    0 -0.83600441055E+02  0.19393076747E+02  0.12932656794E+02  0.86789278036E+02  0.00000000000E+00 0.  1.
          5    1    4    4  501    0  0.98132559275E+02 -0.37775640417E+02  0.77547851024E+02  0.13072161182E+03  0.41800000000E+01 0.  1.
         -5    1    4    4    0  501 -0.32410202094E+02  0.14194637060E+02  0.47921202422E+02  0.59714512161E+02  0.41800000000E+01 0.  1.
</event>
<event>
11    1  0.8974665E-009  0.1468380E+03  0.7561462E-02  0.1100154E+00
         22   -1    0    0    0    0  0.00000000000E+00  0.00000000000E+00  0.53649659438E+02  0.53649659438E+02  0.00000000000E+00 0. -1.
         22   -1    0    0    0    0 -0.00000000000E+00 -0.00000000000E+00 -0.13410623184E+04  0.13410623184E+04  0.00000000000E+00 0.  1.
         24    2    1    2    0    0 -0.50005456023E+01  0.78554674189E+02 -0.10906741197E+04  0.10965509298E+04  0.81596961392E+02 0.  0.
         25    2    1    2    0    0  0.17469401603E+02 -0.56653235730E+02 -0.12328910853E+03  0.18537136362E+03  0.12509024365E+03 0.  0.
        -24    2    1    2    0    0 -0.12468856001E+02 -0.21901438458E+02 -0.73449430805E+02  0.11278968443E+03  0.81801886602E+02 0.  0.
        -13    1    3    3    0    0  0.35728412931E+02  0.18042918812E+02 -0.34314357512E+03  0.34547008489E+03  0.00000000000E+00 0.  1.
         14    1    3    3    0    0 -0.40728958533E+02  0.60511755377E+02 -0.74753054454E+03  0.75108084493E+03  0.00000000000E+00 0. -1.
         13    1    5    5    0    0  0.22327559492E+02 -0.29994470306E+02 -0.80205413635E+01  0.38242871827E+02  0.00000000000E+00 0. -1.
        -14    1    5    5    0    0 -0.34796415493E+02  0.80930318478E+01 -0.65428889442E+02  0.74546812603E+02  0.00000000000E+00 0.  1.
          5    1    4    4  501    0  0.48613708521E+02  0.15122246300E+02 -0.82507097064E+02  0.97040550571E+02  0.41800000000E+01 0.  1.
         -5    1    4    4    0  501 -0.31144306917E+02 -0.71775482030E+02 -0.40782011465E+02  0.88330813045E+02  0.41800000000E+01 0.  1.
</event>
<event>
11    1  0.8974665E-009  0.1416043E+03  0.7561462E-02  0.1105780E+00
         22   -1    0    0    0    0  0.00000000000E+00  0.00000000000E+00  0.28255238884E+03  0.28255238884E+03  0.00000000000E+00 0.  1.
         22   -1    0    0    0    0 -0.00000000000E+00 -0.00000000000E+00 -0.30008817853E+03  0.30008817853E+03  0.00000000000E+00 0.  1.
        -24    2    1    2    0    0 -0.60777577703E+02  0.38195736892E+02 -0.21038739753E+03  0.23747647354E+03  0.83542744629E+02 0.  0.
         25    2    1    2    0    0  0.41555625990E+02 -0.90869300213E+01 -0.10839140831E+01  0.13211772981E+03  0.12507788498E+03 0.  0.
         24    2    1    2    0    0  0.19221951713E+02 -0.29108806870E+02  0.19393552192E+03  0.21304636403E+03  0.80999756164E+02 0.  0.
        -13    1    5    5    0    0  0.50706607001E+02 -0.11366149583E+02  0.10969798712E+03  0.12138367982E+03  0.00000000000E+00 0.  1.
         14    1    5    5    0    0 -0.31484655288E+02 -0.17742657287E+02  0.84237534801E+02  0.91662684204E+02  0.00000000000E+00 0. -1.
         11    1    3    3    0    0 -0.41542980383E+02 -0.13541149141E+02 -0.43327391524E+02  0.61534094578E+02  0.00000000000E+00 0. -1.
        -12    1    3    3    0    0 -0.19234597320E+02  0.51736886033E+02 -0.16706000600E+03  0.17594237897E+03  0.00000000000E+00 0.  1.
          5    1    4    4  501    0 -0.78874399632E+00  0.54195668645E+02  0.93144553638E+01  0.55154547371E+02  0.41800000000E+01 0. -1.
         -5    1    4    4    0  501  0.42344369986E+02 -0.63282598667E+02 -0.10398369447E+02  0.76963182436E+02  0.41800000000E+01 0. -1.
</event>
<event>
11    1  0.8974665E-009  0.1430864E+03  0.7561462E-02  0.1104160E+00
         22   -1    0    0    0    0  0.00000000000E+00  0.00000000000E+00  0.44797958416E+03  0.44797958416E+03  0.00000000000E+00 0. -1.
         22   -1    0    0    0    0 -0.00000000000E+00 -0.00000000000E+00 -0.89164492761E+03  0.89164492761E+03  0.00000000000E+00 0.  1.
         24    2    1    2    0    0 -0.69511014586E+02  0.61076075201E+01 -0.85191662872E+03  0.85947872142E+03  0.89847906314E+02 0.  0.
         25    2    1    2    0    0  0.57302528030E+02  0.22741743419E+02  0.13827097618E+03  0.19639010475E+03  0.12509773689E+03 0.  0.
        -24    2    1    2    0    0  0.12208486556E+02 -0.28849350939E+02  0.26998030909E+03  0.28375568559E+03  0.81526619075E+02 0.  0.
        -11    1    3    3    0    0 -0.72970980350E+02  0.37100235307E+02 -0.65760096336E+03  0.66267655643E+03  0.00000000000E+00 0.  1.
         12    1    3    3    0    0  0.34599657643E+01 -0.30992627787E+02 -0.19431566536E+03  0.19680216499E+03  0.00000000000E+00 0. -1.
         11    1    5    5    0    0  0.14212854563E+02 -0.51979305693E+02  0.23923667452E+03  0.24523058515E+03  0.00000000000E+00 0. -1.
        -12    1    5    5    0    0 -0.20043680072E+01  0.23129954754E+02  0.30743634563E+02  0.38525100444E+02  0.00000000000E+00 0.  1.
          5    1    4    4  501    0 -0.25511268902E+02  0.42832804100E+02  0.29248602267E+02  0.57951937695E+02  0.41800000000E+01 0. -1.
         -5    1    4    4    0  501  0.82813796933E+02 -0.20091060681E+02  0.10902237392E+03  0.13843816705E+03  0.41800000000E+01 0. -1.
</event>
<event>
11    1  0.8974665E-009  0.1772311E+03  0.7561462E-02  0.1071905E+00
         22   -1    0    0    0    0  0.00000000000E+00  0.00000000000E+00  0.29975530692E+03  0.29975530692E+03  0.00000000000E+00 0.  1.
         22   -1    0    0    0    0 -0.00000000000E+00 -0.00000000000E+00 -0.29317973676E+04  0.29317973676E+04  0.00000000000E+00 0. -1.
        -24    2    1    2    0    0  0.12223589053E+02  0.24061004364E+02 -0.27108074860E+04  0.27121751101E+04  0.81781743282E+02 0.  0.
         25    2    1    2    0    0 -0.99582422124E+02 -0.11070571231E+03 -0.15115125819E+03  0.24630585894E+03  0.12508980678E+03 0.  0.
         24    2    1    2    0    0  0.87358833071E+02  0.86644707950E+02  0.22991668356E+03  0.27307170544E+03  0.81040753940E+02 0.  0.
        -13    1    5    5    0    0  0.95906034562E+02  0.79377241555E+02  0.16239182337E+03  0.20462115785E+03  0.00000000000E+00 0.  1.
         14    1    5    5    0    0 -0.85472014905E+01  0.72674663950E+01  0.67524860194E+02  0.68450547590E+02  0.00000000000E+00 0. -1.
         13    1    3    3    0    0  0.90524546241E+01 -0.79114106005E+01 -0.23252966744E+04  0.23253277535E+04  0.00000000000E+00 0. -1.
        -14    1    3    3    0    0  0.31711344285E+01  0.31972414964E+02 -0.38551081160E+03  0.38684735655E+03  0.00000000000E+00 0.  1.
          5    1    4    4  501    0 -0.54935754494E+02 -0.88507450511E+02 -0.20297248760E+02  0.10621184786E+03  0.41800000000E+01 0.  1.
         -5    1    4    4    0  501 -0.44646667630E+02 -0.22198261803E+02 -0.13085400943E+03  0.14009401109E+03  0.41800000000E+01 0.  1.
</event>
<event>
11    1  0.8974665E-009  0.1351969E+03  0.7561462E-02  0.1113044E+00
         22   -1    0    0    0    0  0.00000000000E+00  0.00000000000E+00  0.26104267397E+03  0.26104267397E+03  0.00000000000E+00 0. -1.
         22   -1    0    0    0    0 -0.00000000000E+00 -0.00000000000E+00 -0.66126197231E+03  0.66126197231E+03  0.00000000000E+00 0. -1.
        -24    2    1    2    0    0 -0.47731641695E+02 -0.23580398467E+02 -0.54369820252E+03  0.55220703058E+03  0.80563790795E+02 0.  0.
         25    2    1    2    0    0  0.24682674272E+02  0.23720352397E+02 -0.64391905136E+02  0.14480027412E+03  0.12509561307E+03 0.  0.
         24    2    1    2    0    0  0.23048967423E+02 -0.13995392929E+00  0.20787080931E+03  0.22529734158E+03  0.83769590387E+02 0.  0.
        -11    1    5    5    0    0  0.10813610937E+02 -0.29261223739E+02  0.25728778096E+02  0.40436659339E+02  0.00000000000E+00 0.  1.
         12    1    5    5    0    0  0.12235356486E+02  0.29121269810E+02  0.18214203122E+03  0.18486068224E+03  0.00000000000E+00 0. -1.
         13    1    3    3    0    0 -0.18360274417E+02  0.74284498073E+01 -0.43452901218E+03  0.43498016503E+03  0.00000000000E+00 0. -1.
        -14    1    3    3    0    0 -0.29371367278E+02 -0.31008848275E+02 -0.10916919034E+03  0.11722686555E+03  0.00000000000E+00 0.  1.
          5    1    4    4  501    0  0.36403705249E+00 -0.18861491287E+02  0.31535781797E+02  0.36984676693E+02  0.41800000000E+01 0.  1.
         -5    1    4    4    0  501  0.24318637220E+02  0.42581843683E+02 -0.95927686933E+02  0.10781559742E+03  0.41800000000E+01 0.  1.
</event>
<event>
11    1  0.8974665E-009  0.1264590E+03  0.7561462E-02  0.1123698E+00
         22   -1    0    0    0    0  0.00000000000E+00  0.00000000000E+00  0.16846117749E+03  0.16846117749E+03  0.00000000000E+00 0. -1.
         22   -1    0    0    0    0 -0.00000000000E+00 -0.00000000000E+00 -0.71104288441E+03  0.71104288441E+03  0.00000000000E+00 0.  1.
         24    2    1    2    0    0 -0.16944907344E+02 -0.80033853825E+01 -0.62363824261E+03  0.62919600038E+03  0.81312761486E+02 0.  0.
         25    2    1    2    0    0  0.12221820312E+00  0.28405383282E+02 -0.77161495042E+01  0.12851646295E+03  0.12510020603E+03 0.  0.
        -24    2    1    2    0    0  0.16822689141E+02 -0.20401997900E+02  0.88772685188E+02  0.12179159857E+03  0.79078185732E+02 0.  0.
        -13    1    3    3    0    0 -0.14414203806E+02 -0.44192769706E+02 -0.30979545041E+03  0.31326345344E+03  0.00000000000E+00 0.  1.
         14    1    3    3    0    0 -0.25307035374E+01  0.36189384323E+02 -0.31384279220E+03  0.31593254694E+03  0.00000000000E+00 0. -1.
         11    1    5    5    0    0 -0.31682240632E+02 -0.94227064388E+01  0.42695627107E+02  0.53995077018E+02  0.00000000000E+00 0. -1.
        -12    1    5    5    0    0  0.48504929773E+02 -0.10979291461E+02  0.46077058081E+02  0.67796521553E+02  0.00000000000E+00 0.  1.
          5    1    4    4  501    0 -0.78658550365E+01  0.65666716675E+02 -0.40848618353E+02  0.77846460264E+02  0.41800000000E+01 0. -1.
         -5    1    4    4    0  501  0.79880732396E+01 -0.37261333393E+02  0.33132468849E+02  0.50670002687E+02  0.41800000000E+01 0. -1.
</event>
<event>
11    1  0.8974665E-009  0.2263812E+03  0.7561462E-02  0.1037292E+00
         22   -1    0    0    0    0  0.00000000000E+00  0.00000000000E+00  0.16132761468E+04  0.16132761468E+04  0.00000000000E+00 0. -1.
         22   -1    0    0    0    0 -0.00000000000E+00 -0.00000000000E+00 -0.40063949307E+03  0.40063949307E+03  0.00000000000E+00 0. -1.
        -24    2    1    2    0    0 -0.93155130654E+02 -0.95501657117E+01 -0.12933305009E+03  0.18544715116E+03  0.94310784079E+02 0.  0.
         25    2    1    2    0    0  0.16204562201E+03 -0.16531361593E+03 -0.16307938688E+03  0.30956409551E+03  0.12509063747E+03 0.  0.
         24    2    1    2    0    0 -0.68890491354E+02  0.17486378164E+03  0.15050490907E+04  0.15189043932E+04  0.81083588600E+02 0.  0.
        -11    1    5    5    0    0 -0.23315534998E+02  0.15031471818E+03  0.10611067720E+04  0.10719541549E+04  0.00000000000E+00 0.  1.
         12    1    5    5    0    0 -0.45574956356E+02  0.24549063461E+02  0.44394231869E+03  0.44695023827E+03  0.00000000000E+00 0. -1.
         11    1    3    3    0    0 -0.68506896619E+02 -0.43649949855E+02 -0.11540400225E+03  0.14112617313E+03  0.00000000000E+00 0. -1.
        -12    1    3    3    0    0 -0.24648234035E+02  0.34099784143E+02 -0.13929047845E+02  0.44320978030E+02  0.00000000000E+00 0.  1.
          5    1    4    4  501    0  0.14190527582E+03 -0.57550955563E+02 -0.88636349985E+02  0.17698331766E+03  0.41800000000E+01 0. -1.
         -5    1    4    4    0  501  0.20140346185E+02 -0.10776266037E+03 -0.74443036891E+02  0.13258077785E+03  0.41800000000E+01 0. -1.
</event>
<event>
11    1  0.8974665E-009  0.2904585E+03  0.7561462E-02  0.1004312E+00
         22   -1    0    0    0    0  0.00000000000E+00  0.00000000000E+00  0.63773681155E+03  0.63773681155E+03  0.00000000000E+00 0. -1.
         22   -1    0    0    0    0 -0.00000000000E+00 -0.00000000000E+00 -0.22799687107E+04  0.22799687107E+04  0.00000000000E+00 0.  1.
         24    2    1    2    0    0  0.23741448430E+03 -0.13315091245E+03 -0.19396590174E+04  0.19602876518E+04  0.79723089688E+02 0.  0.
         25    2    1    2    0    0 -0.20202693328E+03  0.78974549711E+02 -0.27712619841E+03  0.37349486931E+03  0.12509047239E+03 0.  0.
        -24    2    1    2    0    0 -0.35387551013E+02  0.54176362741E+02  0.57455331666E+03  0.58392300117E+03  0.81652927497E+02 0.  0.
        -11    1    3    3    0    0  0.86767311261E+02 -0.47912893701E+02 -0.99301168440E+03  0.99794609926E+03  0.00000000000E+00 0.  1.
         12    1    3    3    0    0  0.15064717304E+03 -0.85238018751E+02 -0.94664733304E+03  0.96234155254E+03  0.00000000000E+00 0. -1.
         13    1    5    5    0    0 -0.78410175811E+01  0.69912135533E+02  0.33732408617E+03  0.34458196030E+03  0.00000000000E+00 0. -1.
        -14    1    5    5    0    0 -0.27546533432E+02 -0.15735772792E+02  0.23722923049E+03  0.23934104088E+03  0.00000000000E+00 0.  1.
          5    1    4    4  501    0 -0.17835713268E+03  0.42128634460E+02 -0.14346004372E+03  0.23277531047E+03  0.41800000000E+01 0.  1.
         -5    1    4    4    0  501 -0.23669800603E+02  0.36845915251E+02 -0.13366615469E+03  0.14071955885E+03  0.41800000000E+01 0.  1.
</event>
<event>
11    1  0.8974665E-009  0.1388141E+03  0.7561462E-02  0.1108890E+00
         22   -1    0    0    0    0  0.00000000000E+00  0.00000000000E+00  0.47111571795E+03  0.47111571795E+03  0.00000000000E+00 0. -1.
         22   -1    0    0    0    0 -0.00000000000E+00 -0.00000000000E+00 -0.17175002970E+04  0.17175002970E+04  0.00000000000E+00 0. -1.
         24    2    1    2    0    0 -0.25664648278E+02  0.54401171361E+02 -0.16537700491E+04  0.16567544971E+04  0.79132338519E+02 0.  0.
         25    2    1    2    0    0  0.79982552115E+01 -0.64447600302E+02  0.28242349791E+02  0.14374631535E+03  0.12509159677E+03 0.  0.
        -24    2    1    2    0    0  0.17666393066E+02  0.10046428941E+02  0.37914312018E+03  0.38811520251E+03  0.80441734560E+02 0.  0.
        -11    1    3    3    0    0 -0.39823835895E+02  0.30075967550E+02 -0.46852713587E+03  0.47117743874E+03  0.00000000000E+00 0.  1.
         12    1    3    3    0    0  0.14159187618E+02  0.24325203811E+02 -0.11852429132E+04  0.11855770584E+04  0.00000000000E+00 0. -1.
         11    1    5    5    0    0  0.28351779162E+02  0.41211202886E+02  0.22980868042E+03  0.23518974515E+03  0.00000000000E+00 0. -1.
        -12    1    5    5    0    0 -0.10685386096E+02 -0.31164773945E+02  0.14933443976E+03  0.15292545736E+03  0.00000000000E+00 0.  1.
          5    1    4    4  501    0  0.28778057596E+02 -0.58157650075E+02  0.70590542102E+02  0.95973881319E+02  0.41800000000E+01 0.  1.
         -5    1    4    4    0  501 -0.20779802385E+02 -0.62899502270E+01 -0.42348192311E+02  0.47772434029E+02  0.41800000000E+01 0.  1.
</event>
<event>
11    1  0.8974665E-009  0.1751396E+03  0.7561462E-02  0.1073644E+00
         22   -1    0    0    0    0  0.00000000000E+00  0.00000000000E+00  0.36061318833E+03  0.36061318833E+03  0.00000000000E+00 0. -1.
         22   -1    0    0    0    0 -0.00000000000E+00 -0.00000000000E+00 -0.57068609248E+03  0.57068609248E+03  0.00000000000E+00 0. -1.
        -24    2    1    2    0    0 -0.29742839205E+02  0.36690528531E+02 -0.24457231561E+03  0.26202498560E+03  0.81305867873E+02 0.  0.
         25    2    1    2    0    0 -0.92475336748E+02 -0.56338302483E+02 -0.27812737704E+03  0.32361754409E+03  0.12509110581E+03 0.  0.
         24    2    1    2    0    0  0.12221817595E+03  0.19647773952E+02  0.31262678849E+03  0.34565675112E+03  0.80123424531E+02 0.  0.
        -11    1    5    5    0    0  0.56915454388E+01  0.11365710392E+02  0.11784865004E+03  0.11853217866E+03  0.00000000000E+00 0.  1.
         12    1    5    5    0    0  0.11652663051E+03  0.82820635596E+01  0.19477813845E+03  0.22712457246E+03  0.00000000000E+00 0. -1.
         13    1    3    3    0    0 -0.15137328209E+02  0.40734658562E+02 -0.24292427258E+03  0.24678057728E+03  0.00000000000E+00 0. -1.
        -14    1    3    3    0    0 -0.14605510996E+02 -0.40441300310E+01 -0.16480430212E+01  0.15244408318E+02  0.00000000000E+00 0.  1.
          5    1    4    4  501    0 -0.10149961804E+03 -0.65691505837E+02 -0.28404790830E+03  0.30873651065E+03  0.41800000000E+01 0.  1.
         -5    1    4    4    0  501  0.90242812956E+01  0.93532033537E+01  0.59205312594E+01  0.14881033441E+02  0.41800000000E+01 0.  1.
</event>
<event>
11    1  0.8974665E-009  0.1495197E+03  0.7561462E-02  0.1097371E+00
         22   -1    0    0    0    0  0.00000000000E+00  0.00000000000E+00  0.36130967087E+04  0.36130967087E+04  0.00000000000E+00 0. -1.
         22   -1    0    0    0    0 -0.00000000000E+00 -0.00000000000E+00 -0.35014908385E+02  0.35014908385E+02  0.00000000000E+00 0.  1.
         24    2    1    2    0    0  0.41518802970E+02 -0.72273536570E+02  0.76529548604E+02  0.13930258326E+03  0.81247540296E+02 0.  0.
         25    2    1    2    0    0 -0.20232823269E+02  0.53225137267E+02  0.19263159995E+04  0.19312125072E+04  0.12508451435E+03 0.  0.
        -24    2    1    2    0    0 -0.21285979701E+02  0.19048399302E+02  0.15752362522E+04  0.15775965266E+04  0.81397887229E+02 0.  0.
        -13    1    3    3    0    0  0.13377007027E+01 -0.74461644967E+02  0.38074701562E+02  0.83642147948E+02  0.00000000000E+00 0.  1.
         14    1    3    3    0    0  0.40181102267E+02  0.21881083971E+01  0.38454847042E+02  0.55660435309E+02  0.00000000000E+00 0. -1.
         13    1    5    5    0    0  0.28569528079E+02 -0.52664692256E+01  0.70155379405E+03  0.70215502532E+03  0.00000000000E+00 0. -1.
        -14    1    5    5    0    0 -0.49855507779E+02  0.24314868528E+02  0.87368245813E+03  0.87544150126E+03  0.00000000000E+00 0.  1.
          5    1    4    4  501    0 -0.57541846063E+02  0.56798687135E+02  0.16871594352E+04  0.16891008221E+04  0.41800000000E+01 0.  1.
         -5    1    4    4    0  501  0.37309022794E+02 -0.35735498679E+01  0.23915656426E+03  0.24211168512E+03  0.41800000000E+01 0.  1.
</event>
<event>
11    1  0.8974665E-009  0.1653048E+03  0.7561462E-02  0.1082191E+00
         22   -1    0    0    0    0  0.00000000000E+00  0.00000000000E+00  0.53091990407E+03  0.53091990407E+03  0.00000000000E+00 0.  1.
         22   -1    0    0    0    0 -0.00000000000E+00 -0.00000000000E+00 -0.33553247570E+04  0.33553247570E+04  0.00000000000E+00 0. -1.
         24    2    1    2    0    0 -0.10332924620E+03  0.34580895156E+02 -0.29386345971E+04  0.29417731793E+04  0.81137978898E+02 0.  0.
         25    2    1    2    0    0  0.86674144551E+02 -0.52522444057E+02 -0.39599409828E+03  0.42746917069E+03  0.12509017370E+03 0.  0.
        -24    2    1    2    0    0  0.16655101650E+02  0.17941548901E+02  0.51022384244E+03  0.51700231111E+03  0.79772982303E+02 0.  0.
        -11    1    3    3    0    0 -0.11356156650E+01  0.26265943964E+02 -0.30082306466E+03  0.30196970985E+03  0.00000000000E+00 0.  1.
         12    1    3    3    0    0 -0.10219363054E+03  0.83149511918E+01 -0.26378115325E+04  0.26398034695E+04  0.00000000000E+00 0. -1.
         11    1    5    5    0    0 -0.76966005587E+01 -0.51003443705E+01  0.46862735444E+01  0.10354338829E+02  0.00000000000E+00 0. -1.
        -12    1    5    5    0    0  0.24351702209E+02  0.23041893271E+02  0.50553756890E+03  0.50664797228E+03  0.00000000000E+00 0.  1.
          5    1    4    4  501    0 -0.14850595773E+02 -0.36473733468E+02 -0.37618086392E+02  0.54621115438E+02  0.41800000000E+01 0. -1.
         -5    1    4    4    0  501  0.10152474032E+03 -0.16048710589E+02 -0.35837601189E+03  0.37284805525E+03  0.41800000000E+01 0. -1.
</event>
<event>
11    1  0.8974665E-009  0.1297696E+03  0.7561462E-02  0.1119552E+00
         22   -1    0    0    0    0  0.00000000000E+00  0.00000000000E+00  0.61935669158E+03  0.61935669158E+03  0.00000000000E+00 0. -1.
         22   -1    0    0    0    0 -0.00000000000E+00 -0.00000000000E+00 -0.36406681762E+03  0.36406681762E+03  0.00000000000E+00 0. -1.
        -24    2    1    2    0    0 -0.37418149055E+00 -0.27469555503E+02 -0.32066164416E+03  0.33198255963E+03  0.81448225088E+02 0.  0.
         25    2    1    2    0    0 -0.61545976483E+01 -0.98167240659E+01  0.86002451698E+02  0.15224371340E+03  0.12508988539E+03 0.  0.
         24    2    1    2    0    0  0.65287791388E+01  0.37286279569E+02  0.48994906643E+03  0.49919723617E+03  0.87834510923E+02 0.  0.
        -13    1    5    5    0    0  0.17948609202E+02  0.58886473222E+02  0.22978768054E+03  0.23789104108E+03  0.00000000000E+00 0.  1.
         14    1    5    5    0    0 -0.11419830063E+02 -0.21600193652E+02  0.26016138589E+03  0.26130619509E+03  0.00000000000E+00 0. -1.
         11    1    3    3    0    0  0.49415909661E+00 -0.49826822390E+02 -0.28869497559E+03  0.29296372703E+03  0.00000000000E+00 0. -1.
        -12    1    3    3    0    0 -0.86834058716E+00  0.22357266887E+02 -0.31966668570E+02  0.39018832600E+02  0.00000000000E+00 0.  1.
          5    1    4    4  501    0  0.57727277593E+02 -0.81930774075E+01  0.24265698579E+02  0.63291876439E+02  0.41800000000E+01 0.  1.
         -5    1    4    4    0  501 -0.63881875241E+02 -0.16236466584E+01  0.61736753119E+02  0.88951836960E+02  0.41800000000E+01 0.  1.
</event>
<event>
11    1  0.8974665E-009  0.1438753E+03  0.7561462E-02  0.1103307E+00
         22   -1    0    0    0    0  0.00000000000E+00  0.00000000000E+00  0.13543151510E+04  0.13543151510E+04  0.00000000000E+00 0. -1.
         22   -1    0    0    0    0 -0.00000000000E+00 -0.00000000000E+00 -0.58016704221E+03  0.58016704221E+03  0.00000000000E+00 0.  1.
        -24    2    1    2    0    0  0.54728551478E+02 -0.50988770504E+02 -0.50127541976E+03  0.51377471742E+03  0.84216059829E+02 0.  0.
         25    2    1    2    0    0  0.24591238865E+01  0.49649668682E+02 -0.66867481947E+01  0.13477274990E+03  0.12509134512E+03 0.  0.
         24    2    1    2    0    0 -0.57187675364E+02  0.13391018218E+01  0.12821102767E+04  0.12859347259E+04  0.80926720508E+02 0.  0.
        -11    1    5    5    0    0 -0.24183283802E+02 -0.27921581079E+02  0.23406801432E+03  0.23696472572E+03  0.00000000000E+00 0.  1.
         12    1    5    5    0    0 -0.33004391562E+02  0.29260682901E+02  0.10480422624E+04  0.10489700001E+04  0.00000000000E+00 0. -1.
         11    1    3    3    0    0  0.42113472495E+02  0.91731055028E+01 -0.11850064502E+03  0.12609557209E+03  0.00000000000E+00 0. -1.
        -12    1    3    3    0    0  0.12615078983E+02 -0.60161876007E+02 -0.38277477474E+03  0.38767914533E+03  0.00000000000E+00 0.  1.
          5    1    4    4  501    0  0.31522274045E+02 -0.12431747174E+02  0.39348418167E+02  0.52095801280E+02  0.41800000000E+01 0. -1.
         -5    1    4    4    0  501 -0.29063150158E+02  0.62081415856E+02 -0.46035166362E+02  0.82676948624E+02  0.41800000000E+01 0. -1.
</event>
<event>
11    1  0.8974665E-009  0.1401384E+03  0.7561462E-02  0.1107404E+00
         22   -1    0    0    0    0  0.00000000000E+00  0.00000000000E+00  0.14715510704E+04  0.14715510704E+04  0.00000000000E+00 0.  1.
         22   -1    0    0    0    0 -0.00000000000E+00 -0.00000000000E+00 -0.26760631615E+03  0.26760631615E+03  0.00000000000E+00 0. -1.
        -24    2    1    2    0    0 -0.20230389372E+02  0.84000014181E+01 -0.20177515336E+03  0.21782078538E+03  0.79074985611E+02 0.  0.
         25    2    1    2    0    0  0.59123618842E+02  0.41117173233E+02  0.37515157616E+02  0.14913598949E+03  0.12509169465E+03 0.  0.
         24    2    1    2    0    0 -0.38893229470E+02 -0.49517174652E+02  0.13682047500E+04  0.13722006117E+04  0.83580182626E+02 0.  0.
        -13    1    5    5    0    0 -0.64273613622E+02 -0.42979976659E+02  0.92751965325E+03  0.93073684947E+03  0.00000000000E+00 0.  1.
         14    1    5    5    0    0  0.25380384151E+02 -0.65371979921E+01  0.44068509671E+03  0.44146376219E+03  0.00000000000E+00 0. -1.
         13    1    3    3    0    0  0.62208680889E+01 -0.24264452413E+02 -0.14517960561E+03  0.14732474584E+03  0.00000000000E+00 0. -1.
        -14    1    3    3    0    0 -0.26451257461E+02  0.32664453831E+02 -0.56595547749E+02  0.70496039537E+02  0.00000000000E+00 0.  1.
          5    1    4    4  501    0  0.13882309559E+02  0.76657189579E+02  0.46401617776E+02  0.90772384375E+02  0.41800000000E+01 0.  1.
         -5    1    4    4    0  501  0.45241309283E+02 -0.35540016346E+02 -0.88864601602E+01  0.58363605112E+02  0.41800000000E+01 0.  1.
</event>
<event>
11    1  0.8974665E-009  0.1378036E+03  0.7561462E-02  0.1110036E+00
         22   -1    0    0    0    0  0.00000000000E+00  0.00000000000E+00  0.10803047130E+04  0.10803047130E+04  0.00000000000E+00 0.  1.
         22   -1    0    0    0    0 -0.00000000000E+00 -0.00000000000E+00 -0.37895529163E+03  0.37895529163E+03  0.00000000000E+00 0.  1.
        -24    2    1    2    0    0  0.32162646619E+02 -0.52662203943E+00 -0.35904966681E+03  0.36982889914E+03  0.82595630819E+02 0.  0.
         25    2    1    2    0    0  0.31557984573E+02 -0.19714251685E+02  0.40617731209E+03  0.42662840375E+03  0.12508888009E+03 0.  0.
         24    2    1    2    0    0 -0.63720631192E+02  0.20240873724E+02  0.65422177605E+03  0.66280270170E+03  0.82651541506E+02 0.  0.
        -13    1    5    5    0    0 -0.62160409387E+02 -0.15638516294E+02  0.30035624546E+03  0.30711944562E+03  0.00000000000E+00 0.  1.
         14    1    5    5    0    0 -0.15602218052E+01  0.35879390019E+02  0.35386553059E+03  0.35568325608E+03  0.00000000000E+00 0. -1.
         13    1    3    3    0    0 -0.73854518166E+01 -0.45275429569E+01 -0.77994606905E-01  0.86631187756E+01  0.00000000000E+00 0. -1.
        -14    1    3    3    0    0  0.39548098435E+02  0.40009209174E+01 -0.35897167220E+03  0.36116578036E+03  0.00000000000E+00 0.  1.
          5    1    4    4  501    0  0.57183198334E+02 -0.50308156810E+02  0.34594216810E+03  0.35425172531E+03  0.41800000000E+01 0.  1.
         -5    1    4    4    0  501 -0.25625213761E+02  0.30593905125E+02  0.60235143988E+02  0.72376678443E+02  0.41800000000E+01 0.  1.
</event>
<event>
11    1  0.8974665E-009  0.2040389E+03  0.7561462E-02  0.1051704E+00
         22   -1    0    0    0    0  0.00000000000E+00  0.00000000000E+00  0.15287486967E+04  0.15287486967E+04  0.00000000000E+00 0. -1.
         22   -1    0    0    0    0 -0.00000000000E+00 -0.00000000000E+00 -0.10526898293E+03  0.10526898293E+03  0.00000000000E+00 0.  1.
         24    2    1    2    0    0  0.11622383430E+02 -0.38343199255E+02 -0.31883453224E+02  0.94808264502E+02  0.79792052879E+02 0.  0.
         25    2    1    2    0    0  0.14619128092E+03 -0.89743382064E+01  0.22994841089E+03  0.29996111596E+03  0.12509184647E+03 0.  0.
        -24    2    1    2    0    0 -0.15781366435E+03  0.47317537462E+02  0.12254147561E+04  0.12392482992E+04  0.83372180660E+02 0.  0.
        -13    1    3    3    0    0 -0.31628361301E+02 -0.23972382557E+02 -0.28977773565E+02  0.49140001270E+02  0.00000000000E+00 0.  1.
         14    1    3    3    0    0  0.43250744731E+02 -0.14370816698E+02 -0.29056796584E+01  0.45668263232E+02  0.00000000000E+00 0. -1.
         13    1    5    5    0    0 -0.12785756045E+03  0.70429590941E+02  0.10177652747E+04  0.10281799635E+04  0.00000000000E+00 0. -1.
        -14    1    5    5    0    0 -0.29956103899E+02 -0.23112053479E+02  0.20764948144E+03  0.21106833566E+03  0.00000000000E+00 0.  1.
          5    1    4    4  501    0  0.79569377337E+02  0.13759656813E+01  0.21701406714E+03  0.23118338354E+03  0.41800000000E+01 0. -1.
         -5    1    4    4    0  501  0.66621903586E+02 -0.10350303888E+02  0.12934343755E+02  0.68777732416E+02  0.41800000000E+01 0. -1.
</event>
<event>
11    1  0.8974665E-009  0.2003186E+03  0.7561462E-02  0.1054299E+00
         22   -1    0    0    0    0  0.00000000000E+00  0.00000000000E+00  0.14636904802E+04  0.14636904802E+04  0.00000000000E+00 0.  1.
         22   -1    0    0    0    0 -0.00000000000E+00 -0.00000000000E+00 -0.72815088653E+03  0.72815088653E+03  0.00000000000E+00 0. -1.
        -24    2    1    2    0    0 -0.61103799497E+01  0.15621836209E+03 -0.69223931601E+03  0.71425902290E+03  0.80803265870E+02 0.  0.
         25    2    1    2    0    0 -0.37266710067E+02 -0.16326890075E+03  0.45766313462E+03  0.50313881034E+03  0.12509027163E+03 0.  0.
         24    2    1    2    0    0  0.43377090017E+02  0.70505386658E+01  0.97011577506E+03  0.97444353347E+03  0.80525156750E+02 0.  0.
        -13    1    5    5    0    0  0.15689440442E+02  0.20165945295E+02  0.85313241134E+03  0.85351492967E+03  0.00000000000E+00 0.  1.
         14    1    5    5    0    0  0.27687649575E+02 -0.13115406629E+02  0.11698336372E+03  0.12092860380E+03  0.00000000000E+00 0. -1.
         13    1    3    3    0    0  0.36183027282E+02  0.76829304134E+02 -0.37631794293E+03  0.38578121728E+03  0.00000000000E+00 0. -1.
        -14    1    3    3    0    0 -0.42293407232E+02  0.79389057951E+02 -0.31592137308E+03  0.32847780562E+03  0.00000000000E+00 0.  1.
          5    1    4    4  501    0 -0.71805532110E+02 -0.15437031439E+03  0.40548373939E+03  0.43979627524E+03  0.41800000000E+01 0. -1.
         -5    1    4    4    0  501  0.34538822043E+02 -0.88985863652E+01  0.52179395229E+02  0.63342535108E+02  0.41800000000E+01 0. -1.
</event>
<event>
11    1  0.8974665E-009  0.1779187E+03  0.7561462E-02  0.1071339E+00
         22   -1    0    0    0    0  0.00000000000E+00  0.00000000000E+00  0.91234824385E+03  0.91234824385E+03  0.00000000000E+00 0.  1.
         22   -1    0    0    0    0 -0.00000000000E+00 -0.00000000000E+00 -0.71736113395E+03  0.71736113395E+03  0.00000000000E+00 0. -1.
        -24    2    1    2    0    0 -0.34540686293E+02 -0.11928199013E+03 -0.55350435331E+03  0.57318130424E+03  0.82149170505E+02 0.  0.
         25    2    1    2    0    0  0.43282080155E+02  0.13353900150E+03 -0.93915317723E+02  0.21017683455E+03  0.12509281152E+03 0.  0.
         24    2    1    2    0    0 -0.87413938623E+01 -0.14257011365E+02  0.84240678093E+03  0.84635123902E+03  0.79884672499E+02 0.  0.
        -13    1    5    5    0    0  0.13443023987E+01  0.10374731902E+02  0.75285443415E+03  0.75292711548E+03  0.00000000000E+00 0.  1.
         14    1    5    5    0    0 -0.10085696261E+02 -0.24631743267E+02  0.89552346782E+02  0.93424123542E+02  0.00000000000E+00 0. -1.
         13    1    3    3    0    0 -0.57427116362E+02 -0.61559969842E+02 -0.36997169991E+03  0.37942925864E+03  0.00000000000E+00 0. -1.
        -14    1    3    3    0    0  0.22886430069E+02 -0.57722020290E+02 -0.18353265340E+03  0.19375204559E+03  0.00000000000E+00 0.  1.
          5    1    4    4  501    0 -0.27062885849E+02  0.83070912574E+02 -0.86769832300E+02  0.12320573243E+03  0.41800000000E+01 0. -1.
         -5    1    4    4    0  501  0.70344966003E+02  0.50468088924E+02 -0.71454854229E+01  0.86971102118E+02  0.41800000000E+01 0. -1.
</event>
<event>
11    1  0.8974665E-009  0.1389989E+03  0.7561462E-02  0.1108682E+00
         22   -1    0    0    0    0  0.00000000000E+00  0.00000000000E+00  0.11297292474E+04  0.11297292474E+04  0.00000000000E+00 0. -1.
         22   -1    0    0    0    0 -0.00000000000E+00 -0.00000000000E+00 -0.37044296315E+03  0.37044296315E+03  0.00000000000E+00 0.  1.
         24    2    1    2    0    0 -0.17953778278E+02 -0.57449310083E+02 -0.34975332077E+03  0.36374422268E+03  0.79747807241E+02 0.  0.
         25    2    1    2    0    0  0.15896940029E+02  0.98039509068E+02  0.66407217800E+03  0.68301309063E+03  0.12510222355E+03 0.  0.
        -24    2    1    2    0    0  0.20568382491E+01 -0.40590198985E+02  0.44496742704E+03  0.45341489725E+03  0.77053637740E+02 0.  0.
        -11    1    3    3    0    0  0.90460442087E+01 -0.29083728705E+02 -0.29421640708E+03  0.29578875636E+03  0.00000000000E+00 0.  1.
         12    1    3    3    0    0 -0.26999822487E+02 -0.28365581377E+02 -0.55536913693E+02  0.67955466327E+02  0.00000000000E+00 0. -1.
         13    1    5    5    0    0  0.32741472592E+01 -0.21073415562E+02  0.42475999301E+03  0.42529502765E+03  0.00000000000E+00 0. -1.
        -14    1    5    5    0    0 -0.12173090102E+01 -0.19516783423E+02  0.20207434031E+02  0.28119869604E+02  0.00000000000E+00 0.  1.
          5    1    4    4  501    0 -0.51602605431E+02  0.26871771034E+02  0.18473101934E+03  0.19372130206E+03  0.41800000000E+01 0. -1.
         -5    1    4    4    0  501  0.67499545460E+02  0.71167738034E+02  0.47934115867E+03  0.48929178857E+03  0.41800000000E+01 0. -1.
</event>
<event>
11    1  0.8974665E-009  0.1652751E+03  0.7561462E-02  0.1082218E+00
         22   -1    0    0    0    0  0.00000000000E+00  0.00000000000E+00  0.49508775862E+03  0.49508775862E+03  0.00000000000E+00 0.  1.
         22   -1    0    0    0    0 -0.00000000000E+00 -0.00000000000E+00 -0.36532885678E+03  0.36532885678E+03  0.00000000000E+00 0.  1.
        -24    2    1    2    0    0 -0.28168903013E+02  0.10614644396E+02 -0.24547913612E+03  0.26097009837E+03  0.83302029969E+02 0.  0.
         25    2    1    2    0    0 -0.21105443528E+02  0.87974621788E+02 -0.41794672495E+02  0.15993406826E+03  0.12508851953E+03 0.  0.
         24    2    1    2    0    0  0.49274346541E+02 -0.98589266184E+02  0.41703271046E+03  0.43951244876E+03  0.84303655863E+02 0.  0.
        -13    1    5    5    0    0  0.61626772439E+01 -0.32473063584E+02  0.27535664105E+03  0.27733329807E+03  0.00000000000E+00 0.  1.
         14    1    5    5    0    0  0.43111669297E+02 -0.66116202600E+02  0.14167606941E+03  0.16217915069E+03  0.00000000000E+00 0. -1.
         13    1    3    3    0    0  0.62122801108E+01 -0.12187312870E+02 -0.17694873021E+01  0.13793263010E+02  0.00000000000E+00 0. -1.
        -14    1    3    3    0    0 -0.34381183124E+02  0.22801957266E+02 -0.24370964882E+03  0.24717683536E+03  0.00000000000E+00 0.  1.
          5    1    4    4  501    0 -0.52333532239E+02  0.49273749429E+02  0.25298516618E+02  0.76316369951E+02  0.41800000000E+01 0.  1.
         -5    1    4    4    0  501  0.31228088711E+02  0.38700872358E+02 -0.67093189113E+02  0.83617698313E+02  0.41800000000E+01 0.  1.
</event>
<event>
11    1  0.8974665E-009  0.1354136E+03  0.7561462E-02  0.1112791E+00
         22   -1    0    0    0    0  0.00000000000E+00  0.00000000000E+00  0.35310876972E+03  0.35310876972E+03  0.00000000000E+00 0. -1.
         22   -1    0    0    0    0 -0.00000000000E+00 -0.00000000000E+00 -0.15895563368E+04  0.15895563368E+04  0.00000000000E+00 0. -1.
         24    2    1    2    0    0  0.39201576078E+02 -0.34614874473E+02 -0.15397086634E+04  0.15426780285E+04  0.80111036936E+02 0.  0.
         25    2    1    2    0    0 -0.36801106884E+02 -0.11936690416E+02  0.69635206242E+02  0.14830109836E+03  0.12508935918E+03 0.  0.
        -24    2    1    2    0    0 -0.24004691940E+01  0.46551564889E+02  0.23362589014E+03  0.25168597965E+03  0.81190919224E+02 0.  0.
        -13    1    3    3    0    0 -0.20229993913E+02 -0.10995128810E+01 -0.15915303343E+03  0.16043736981E+03  0.00000000000E+00 0.  1.
         14    1    3    3    0    0  0.59431569991E+02 -0.33515361592E+02 -0.13805556300E+04  0.13822406587E+04  0.00000000000E+00 0. -1.
         11    1    5    5    0    0  0.20051001265E+02  0.11719837953E+02  0.19037493340E+03  0.19178637209E+03  0.00000000000E+00 0. -1.
        -12    1    5    5    0    0 -0.22451470459E+02  0.34831726936E+02  0.43250956741E+02  0.59899607562E+02  0.00000000000E+00 0.  1.
          5    1    4    4  501    0  0.72909496593E+01  0.34834389854E+02  0.75549081776E+02  0.83616558292E+02  0.41800000000E+01 0. -1.
         -5    1    4    4    0  501 -0.44092056544E+02 -0.46771080270E+02 -0.59138755338E+01  0.64684540067E+02  0.41800000000E+01 0. -1.
</event>
<event>
11    1  0.8974665E-009  0.1903287E+03  0.7561462E-02  0.1061582E+00
         22   -1    0    0    0    0  0.00000000000E+00  0.00000000000E+00  0.28202022744E+03  0.28202022744E+03  0.00000000000E+00 0.  1.
         22   -1    0    0    0    0 -0.00000000000E+00 -0.00000000000E+00 -0.60172679633E+03  0.60172679633E+03  0.00000000000E+00 0.  1.
         24    2    1    2    0    0  0.24140216206E+02  0.28307051415E+02 -0.41006280087E+03  0.41965529658E+03  0.81086546932E+02 0.  0.
         25    2    1    2    0    0  0.86251054827E+02  0.72589652572E+02 -0.11048466988E+03  0.20140345515E+03  0.12509191559E+03 0.  0.
        -24    2    1    2    0    0 -0.11039127103E+03 -0.10089670399E+03  0.20084090186E+03  0.26268827204E+03  0.79383139338E+02 0.  0.
        -11    1    3    3    0    0  0.50566182449E+02  0.35334122738E+02 -0.27146929092E+03  0.27839004104E+03  0.00000000000E+00 0.  1.
         12    1    3    3    0    0 -0.26425966243E+02 -0.70270713230E+01 -0.13859350995E+03  0.14126525554E+03  0.00000000000E+00 0. -1.
         11    1    5    5    0    0 -0.65297855661E+00 -0.38908815800E+02  0.24669904664E+02  0.46075226794E+02  0.00000000000E+00 0. -1.
        -12    1    5    5    0    0 -0.10973829248E+03 -0.61987888187E+02  0.17617099720E+03  0.21661304525E+03  0.00000000000E+00 0.  1.
          5    1    4    4  501    0  0.49952911567E+02  0.17902019446E+02 -0.12338767433E+03  0.13437918831E+03  0.41800000000E+01 0. -1.
         -5    1    4    4    0  501  0.36298143260E+02  0.54687633126E+02  0.12903004448E+02  0.67024266835E+02  0.41800000000E+01 0. -1.
</event>
<event>
11    1  0.8974665E-009  0.1455433E+03  0.7561462E-02  0.1101522E+00
         22   -1    0    0    0    0  0.00000000000E+00  0.00000000000E+00  0.26200372927E+03  0.26200372927E+03  0.00000000000E+00 0.  1.
         22   -1    0    0    0    0 -0.00000000000E+00 -0.00000000000E+00 -0.96329650509E+03  0.96329650509E+03  0.00000000000E+00 0. -1.
        -24    2    1    2    0    0 -0.15953212480E+02 -0.23746056777E+02 -0.87654271341E+03  0.88064407650E+03  0.79927972894E+02 0.  0.
         25    2    1    2    0    0 -0.59182490315E+02 -0.53124903806E+00  0.40903100787E+01  0.13844572688E+03  0.12509052430E+03 0.  0.
         24    2    1    2    0    0  0.75135702795E+02  0.24277305815E+02  0.17115962751E+03  0.20621043097E+03  0.83620346451E+02 0.  0.
        -11    1    5    5    0    0 -0.15644347315E+02 -0.44490732747E+01  0.47059442494E+02  0.49790872495E+02  0.00000000000E+00 0.  1.
         12    1    5    5    0    0  0.90780050110E+02  0.28726379089E+02  0.12410018502E+03  0.15641955848E+03  0.00000000000E+00 0. -1.
         13    1    3    3    0    0 -0.31895861465E+02 -0.10129083924E+02 -0.81386167545E+03  0.81454942826E+03  0.00000000000E+00 0. -1.
        -14    1    3    3    0    0  0.15942648985E+02 -0.13616972852E+02 -0.62681037958E+02  0.66094648239E+02  0.00000000000E+00 0.  1.
          5    1    4    4  501    0 -0.21677743325E+02  0.53206625568E+02 -0.29466015539E+02  0.64703848662E+02  0.41800000000E+01 0. -1.
         -5    1    4    4    0  501 -0.37504746990E+02 -0.53737874606E+02  0.33556325617E+02  0.73741878216E+02  0.41800000000E+01 0. -1.
</event>
<event>
11    1  0.8974665E-009  0.1434943E+03  0.7561462E-02  0.1103718E+00
         22   -1    0    0    0    0  0.00000000000E+00  0.00000000000E+00  0.89207480565E+03  0.89207480565E+03  0.00000000000E+00 0.  1.
         22   -1    0    0    0    0 -0.00000000000E+00 -0.00000000000E+00 -0.83415086376E+03  0.83415086376E+03  0.00000000000E+00 0. -1.
        -24    2    1    2    0    0 -0.22609186956E+02  0.20759603270E+02 -0.78055309306E+03  0.78525902393E+03  0.80165248808E+02 0.  0.
         25    2    1    2    0    0 -0.47943885694E+02 -0.31356314330E+02  0.49242842096E+02  0.14613260846E+03  0.12509215457E+03 0.  0.
         24    2    1    2    0    0  0.70553072650E+02  0.10596711060E+02  0.78923419286E+03  0.79483403702E+03  0.61485842934E+02 0.  0.
        -11    1    5    5    0    0  0.62522359054E+02  0.19098044023E+02  0.76636362903E+03  0.76914692521E+03  0.00000000000E+00 0.  1.
         12    1    5    5    0    0  0.80307135958E+01 -0.85013329632E+01  0.22870563827E+02  0.25687111803E+02  0.00000000000E+00 0. -1.
         13    1    3    3    0    0 -0.17951112699E+02  0.95316337735E+01 -0.76611748916E+03  0.76638704431E+03  0.00000000000E+00 0. -1.
        -14    1    3    3    0    0 -0.46580742567E+01  0.11227969497E+02 -0.14435603895E+02  0.18871979616E+02  0.00000000000E+00 0.  1.
          5    1    4    4  501    0  0.24371226161E+02  0.32520050074E+02  0.17837175230E+02  0.44577433098E+02  0.41800000000E+01 0.  1.
         -5    1    4    4    0  501 -0.72315111855E+02 -0.63876364404E+02  0.31405666866E+02  0.10155517537E+03  0.41800000000E+01 0.  1.
</event>
<event>
11    1  0.8974665E-009  0.1901286E+03  0.7561462E-02  0.1061732E+00
         22   -1    0    0    0    0  0.00000000000E+00  0.00000000000E+00  0.22468135106E+04  0.22468135106E+04  0.00000000000E+00 0.  1.
         22   -1    0    0    0    0 -0.00000000000E+00 -0.00000000000E+00 -0.43492604770E+03  0.43492604770E+03  0.00000000000E+00 0. -1.
         24    2    1    2    0    0 -0.10962676649E+03  0.82251227304E+02 -0.35030797349E+03  0.38505464247E+03  0.82268518128E+02 0.  0.
         25    2    1    2    0    0  0.18253867981E+03 -0.18513210274E+03  0.25930321546E+03  0.38791745299E+03  0.12509007831E+03 0.  0.
        -24    2    1    2    0    0 -0.72911913321E+02  0.10288087543E+03  0.19028922209E+04  0.19087674628E+04  0.80584124569E+02 0.  0.
        -11    1    3    3    0    0 -0.12072310466E+03  0.68255207906E+02 -0.27930880454E+03  0.31184330953E+03  0.00000000000E+00 0.  1.
         12    1    3    3    0    0  0.11096338170E+02  0.13996019398E+02 -0.70999168946E+02  0.73211332939E+02  0.00000000000E+00 0. -1.
         11    1    5    5    0    0 -0.18929533066E+01  0.37723990058E+02  0.22825700124E+03  0.23136106265E+03  0.00000000000E+00 0. -1.
        -12    1    5    5    0    0 -0.71018960015E+02  0.65156885377E+02  0.16746352197E+04  0.16774064002E+04  0.00000000000E+00 0.  1.
          5    1    4    4  501    0  0.74458500692E+02 -0.56217351520E+01  0.40964591374E+02  0.85271580130E+02  0.41800000000E+01 0. -1.
         -5    1    4    4    0  501  0.10808017912E+03 -0.17951036759E+03  0.21833862409E+03  0.30264587286E+03  0.41800000000E+01 0. -1.
</event>
<event>
11    1  0.8974665E-009  0.1717052E+03  0.7561462E-02  0.1076557E+00
         22   -1    0    0    0    0  0.00000000000E+00  0.00000000000E+00  0.57718718051E+03  0.57718718051E+03  0.00000000000E+00 0. -1.
         22   -1    0    0    0    0 -0.00000000000E+00 -0.00000000000E+00 -0.35075903994E+03  0.35075903994E+03  0.00000000000E+00 0.  1.
         24    2    1    2    0    0 -0.19184222177E+02  0.12425016739E+03 -0.22942417484E+03  0.27433537566E+03  0.82573045612E+02 0.  0.
         25    2    1    2    0    0  0.26044049309E+02 -0.91175453156E+02 -0.30095278011E+02  0.15982501788E+03  0.12508818817E+03 0.  0.
        -24    2    1    2    0    0 -0.68598271324E+01 -0.33074714230E+02  0.48594759343E+03  0.49378582690E+03  0.80860282818E+02 0.  0.
        -13    1    3    3    0    0 -0.47298211926E+02  0.42810876713E+02 -0.10834842957E+03  0.12573493630E+03  0.00000000000E+00 0.  1.
         14    1    3    3    0    0  0.28113989750E+02  0.81439290674E+02 -0.12107574527E+03  0.14860043936E+03  0.00000000000E+00 0. -1.
         11    1    5    5    0    0 -0.41426314932E+02 -0.22542446627E+02  0.34811041774E+03  0.35129071210E+03  0.00000000000E+00 0. -1.
        -12    1    5    5    0    0  0.34566487799E+02 -0.10532267603E+02  0.13783717569E+03  0.14249511480E+03  0.00000000000E+00 0.  1.
          5    1    4    4  501    0  0.75438769297E+02 -0.46078428671E+02 -0.27836620909E+02  0.92771651734E+02  0.41800000000E+01 0.  1.
         -5    1    4    4    0  501 -0.49394719987E+02 -0.45097024485E+02 -0.22586571024E+01  0.67053366150E+02  0.41800000000E+01 0.  1.
</event>
<event>
11    1  0.8974665E-009  0.1505830E+03  0.7561462E-02  0.1096285E+00
         22   -1    0    0    0    0  0.00000000000E+00  0.00000000000E+00  0.70234855252E+03  0.70234855252E+03  0.00000000000E+00 0. -1.
         22   -1    0    0    0    0 -0.00000000000E+00 -0.00000000000E+00 -0.41014479744E+03  0.41014479744E+03  0.00000000000E+00 0.  1.
        -24    2    1    2    0    0 -0.41457101840E+02 -0.77893071714E+02 -0.28788494954E+03  0.31442531194E+03  0.90551149643E+02 0.  0.
         25    2    1    2    0    0  0.14027586436E+01  0.73892726601E+02 -0.56207040120E+02  0.15578458349E+03  0.12508997689E+03 0.  0.
         24    2    1    2    0    0  0.40054343197E+02  0.40003451129E+01  0.63629574474E+03  0.64228345454E+03  0.77687888562E+02 0.  0.
        -13    1    5    5    0    0  0.63245879970E+02  0.82860729901E+00  0.42214852996E+03  0.42686076099E+03  0.00000000000E+00 0.  1.
         14    1    5    5    0    0 -0.23191536773E+02  0.31717378139E+01  0.21414721478E+03  0.21542269355E+03  0.00000000000E+00 0. -1.
         11    1    3    3    0    0  0.17047013033E+02  0.10125465962E+01 -0.10229672775E+02  0.19906584565E+02  0.00000000000E+00 0. -1.
        -12    1    3    3    0    0 -0.58504114873E+02 -0.78905618310E+02 -0.27765527676E+03  0.29451872737E+03  0.00000000000E+00 0.  1.
          5    1    4    4  501    0  0.12196470548E+02 -0.28303214435E+02  0.10925424197E+02  0.32964573940E+02  0.41800000000E+01 0.  1.
         -5    1    4    4    0  501 -0.10793711904E+02  0.10219594104E+03 -0.67132464317E+02  0.12282000955E+03  0.41800000000E+01 0.  1.
</event>
<event>
11    1  0.8974665E-009  0.1303127E+03  0.7561462E-02  0.1118885E+00
         22   -1    0    0    0    0  0.00000000000E+00  0.00000000000E+00  0.11938368060E+04  0.11938368060E+04  0.00000000000E+00 0.  1.
         22   -1    0    0    0    0 -0.00000000000E+00 -0.00000000000E+00 -0.10270333302E+03  0.10270333302E+03  0.00000000000E+00 0.  1.
         24    2    1    2    0    0  0.28386584573E+01  0.70763741170E+01 -0.71274093605E+02  0.10255216483E+03  0.73340418870E+02 0.  0.
         25    2    1    2    0    0 -0.24117452248E+02 -0.35441855422E+02  0.30996323992E+03  0.33699033738E+03  0.12508997070E+03 0.  0.
        -24    2    1    2    0    0  0.21278793791E+02  0.28365481305E+02  0.85244432664E+03  0.85699763678E+03  0.80785096580E+02 0.  0.
        -13    1    3    3    0    0 -0.20332702713E+02  0.29952553813E+02 -0.55766606685E+02  0.66486755829E+02  0.00000000000E+00 0.  1.
         14    1    3    3    0    0  0.23171361170E+02 -0.22876179697E+02 -0.15507486921E+02  0.36065409003E+02  0.00000000000E+00 0. -1.
         13    1    5    5    0    0 -0.82085308555E+01 -0.17032664993E+02  0.64982984829E+02  0.67677765720E+02  0.00000000000E+00 0. -1.
        -14    1    5    5    0    0  0.29487324647E+02  0.45398146298E+02  0.78746134181E+03  0.78931987106E+03  0.00000000000E+00 0.  1.
          5    1    4    4  501    0 -0.94839348406E+01 -0.75082026332E+02  0.11695883774E+03  0.13937036207E+03  0.41800000000E+01 0. -1.
         -5    1    4    4    0  501 -0.14633517408E+02  0.39640170910E+02  0.19300440218E+03  0.19761997532E+03  0.41800000000E+01 0. -1.
</event>
<event>
11    1  0.8974665E-009  0.2559974E+03  0.7561462E-02  0.1020752E+00
         22   -1    0    0    0    0  0.00000000000E+00  0.00000000000E+00  0.99655964868E+03  0.99655964868E+03  0.00000000000E+00 0. -1.
         22   -1    0    0    0    0 -0.00000000000E+00 -0.00000000000E+00 -0.80937551503E+03  0.80937551503E+03  0.00000000000E+00 0. -1.
        -24    2    1    2    0    0  0.17158853638E+03 -0.14321050941E+03 -0.71051814297E+03  0.74911192866E+03  0.79879749273E+02 0.  0.
         25    2    1    2    0    0 -0.14250020835E+03  0.17479137324E+03  0.13997073724E+03  0.29342330736E+03  0.12508835470E+03 0.  0.
         24    2    1    2    0    0 -0.29088328024E+02 -0.31580863825E+02  0.75773153938E+03  0.76339992769E+03  0.82333966420E+02 0.  0.
        -13    1    5    5    0    0 -0.91878369662E+01  0.11602479052E+02  0.24463545513E+02  0.28591938153E+02  0.00000000000E+00 0.  1.
         14    1    5    5    0    0 -0.19900491058E+02 -0.43183342877E+02  0.73326799387E+03  0.73480798953E+03  0.00000000000E+00 0. -1.
         13    1    3    3    0    0  0.11226793095E+03 -0.55344471698E+02 -0.46769169277E+03  0.48415144155E+03  0.00000000000E+00 0. -1.
        -14    1    3    3    0    0  0.59320605428E+02 -0.87866037717E+02 -0.24282645021E+03  0.26496048712E+03  0.00000000000E+00 0.  1.
          5    1    4    4  501    0 -0.77246371652E+02  0.99290631836E+01  0.24343771227E+02  0.81704833557E+02  0.41800000000E+01 0.  1.
         -5    1    4    4    0  501 -0.65253836703E+02  0.16486231006E+03  0.11562696602E+03  0.21171847381E+03  0.41800000000E+01 0.  1.
</event>
<event>
11    1  0.8974665E-009  0.1328607E+03  0.7561462E-02  0.1115803E+00
         22   -1    0    0    0    0  0.00000000000E+00  0.00000000000E+00  0.10613343755E+04  0.10613343755E+04  0.00000000000E+00 0.  1.
         22   -1    0    0    0    0 -0.00000000000E+00 -0.00000000000E+00 -0.13902838301E+03  0.13902838301E+03  0.00000000000E+00 0.  1.
        -24    2    1    2    0    0 -0.16514089360E+02 -0.18631302303E+02 -0.11088287561E+03  0.13834553622E+03  0.78896354261E+02 0.  0.
         25    2    1    2    0    0 -0.70102466104E+00 -0.28263907044E+02  0.35726085323E+03  0.37958176285E+03  0.12509059743E+03 0.  0.
         24    2    1    2    0    0  0.17215114021E+02  0.46895209347E+02  0.67592801488E+03  0.68243545946E+03  0.79648943620E+02 0.  0.
        -11    1    5    5    0    0  0.21550204928E+01  0.39883059000E+02  0.65246691483E+03  0.65368828769E+03  0.00000000000E+00 0.  1.
         12    1    5    5    0    0  0.15060093528E+02  0.70121503477E+01  0.23461100050E+02  0.28747171777E+02  0.00000000000E+00 0. -1.
         13    1    3    3    0    0 -0.17339751905E+02 -0.18685615190E+02  0.18975460630E+01  0.25562079184E+02  0.00000000000E+00 0. -1.
        -14    1    3    3    0    0  0.82566254506E+00  0.54312886347E-01 -0.11278042167E+03  0.11278345703E+03  0.00000000000E+00 0.  1.
          5    1    4    4  501    0 -0.55662796878E+02 -0.36113772630E+02  0.25053497957E+03  0.25920609545E+03  0.41800000000E+01 0.  1.
         -5    1    4    4    0  501  0.54961772217E+02  0.78498655865E+01  0.10672587366E+03  0.12037566741E+03  0.41800000000E+01 0.  1.
</event>
<event>
11    1  0.1022507E-008  0.1570449E+03  0.7561462E-02  0.1089890E+00
         22   -1    0    0    0    0  0.00000000000E+00  0.00000000000E+00  0.16306488960E+04  0.16306488960E+04  0.00000000000E+00 0. -1.
         22   -1    0    0    0    0 -0.00000000000E+00 -0.00000000000E+00 -0.19312080127E+04  0.19312080127E+04  0.00000000000E+00 0.  1.
         24    2    1    2    0    0  0.46800329438E+00 -0.10307973871E+02 -0.11551856260E+04  0.11580072034E+04  0.80127268926E+02 0.  0.
         25    2    1    2    0    0  0.66126506773E+02  0.77948252737E+02 -0.76331731655E+03  0.78022441686E+03  0.12509264536E+03 0.  0.
        -24    2    1    2    0    0 -0.66594510068E+02 -0.67640278866E+02  0.16179438259E+04  0.16236252885E+04  0.96988750105E+02 0.  0.
        -11    1    3    3    0    0 -0.14669821324E+02 -0.90566994724E+01 -0.11136152698E+04  0.11137487134E+04  0.00000000000E+00 0.  1.
         12    1    3    3    0    0  0.15137824619E+02 -0.12512743983E+01 -0.41570356257E+02  0.44258490046E+02  0.00000000000E+00 0. -1.
         11    1    5    5    0    0 -0.38271115696E+02 -0.83563563831E+02  0.14253104671E+04  0.14282707989E+04  0.00000000000E+00 0. -1.
        -12    1    5    5    0    0 -0.28323394371E+02  0.15923284965E+02  0.19263335877E+03  0.19535448954E+03  0.00000000000E+00 0.  1.
          5    1    4    4  501    0 -0.29989907869E+02  0.54722718564E+02 -0.30323695886E+03  0.30961927608E+03  0.41800000000E+01 0. -1.
         -5    1    4    4    0  501  0.96116414642E+02  0.23225534173E+02 -0.46008035769E+03  0.47060514078E+03  0.41800000000E+01 0. -1.
</event>
<event>
11    1  0.8974665E-009  0.1384156E+03  0.7561462E-02  0.1109341E+00
         22   -1    0    0    0    0  0.00000000000E+00  0.00000000000E+00  0.52211740416E+03  0.52211740416E+03  0.00000000000E+00 0.  1.
         22   -1    0    0    0    0 -0.00000000000E+00 -0.00000000000E+00 -0.16837614468E+03  0.16837614468E+03  0.00000000000E+00 0.  1.
         24    2    1    2    0    0  0.47217313191E+02 -0.10094409293E+02 -0.96380135615E+02  0.13362401971E+03  0.78961233136E+02 0.  0.
         25    2    1    2    0    0 -0.23446248523E+02 -0.47563852026E+02  0.51375645866E+02  0.14525147409E+03  0.12508591906E+03 0.  0.
        -24    2    1    2    0    0 -0.23771064668E+02  0.57658261319E+02  0.39874574922E+03  0.41161805504E+03  0.80880851237E+02 0.  0.
        -13    1    3    3    0    0  0.69402355876E+02 -0.93559198264E+01 -0.77807868696E+02  0.10468182587E+03  0.00000000000E+00 0.  1.
         14    1    3    3    0    0 -0.22185042685E+02 -0.73848946701E+00 -0.18572266919E+02  0.28942193838E+02  0.00000000000E+00 0. -1.
         13    1    5    5    0    0 -0.36762553688E+02  0.10586617997E+02  0.74829808697E+02  0.84042025820E+02  0.00000000000E+00 0. -1.
        -14    1    5    5    0    0  0.12991489020E+02  0.47071643322E+02  0.32391594053E+03  0.32757602922E+03  0.00000000000E+00 0.  1.
          5    1    4    4  501    0 -0.72753062470E+02 -0.26899521955E+02  0.48442194373E+02  0.91546223166E+02  0.41800000000E+01 0. -1.
         -5    1    4    4    0  501  0.49306813947E+02 -0.20664330070E+02  0.29334514925E+01  0.53705250921E+02  0.41800000000E+01 0. -1.
</event>
<event>
11    1  0.8974665E-009  0.1360970E+03  0.7561462E-02  0.1111997E+00
         22   -1    0    0    0    0  0.00000000000E+00  0.00000000000E+00  0.61676873953E+03  0.61676873953E+03  0.00000000000E+00 0.  1.
         22   -1    0    0    0    0 -0.00000000000E+00 -0.00000000000E+00 -0.97267994907E+03  0.97267994907E+03  0.00000000000E+00 0. -1.
        -24    2    1    2    0    0 -0.48941898610E+02  0.50796675526E+01 -0.87066528610E+03  0.87589361322E+03  0.81917451182E+02 0.  0.
         25    2    1    2    0    0 -0.62723249349E+01 -0.12013986638E+02 -0.53640376198E+02  0.13677487700E+03  0.12508556705E+03 0.  0.
         24    2    1    2    0    0  0.55214223545E+02  0.69343190853E+01  0.56839445275E+03  0.57678019838E+03  0.80662556771E+02 0.  0.
        -13    1    5    5    0    0  0.36981389139E+02  0.30776442006E+02  0.49713254063E+03  0.49945527876E+03  0.00000000000E+00 0.  1.
         14    1    5    5    0    0  0.18232834406E+02 -0.23842122921E+02  0.71261912120E+02  0.77324919624E+02  0.00000000000E+00 0. -1.
         13    1    3    3    0    0 -0.21567606380E+02  0.37942495432E+02 -0.25198213579E+03  0.25573382913E+03  0.00000000000E+00 0. -1.
        -14    1    3    3    0    0 -0.27374292230E+02 -0.32862827880E+02 -0.61868315031E+03  0.62015978409E+03  0.00000000000E+00 0.  1.
          5    1    4    4  501    0  0.57859334750E+02 -0.17527254019E+02 -0.18722547885E+02  0.63426441257E+02  0.41800000000E+01 0.  1.
         -5    1    4    4    0  501 -0.64131659685E+02  0.55132673813E+01 -0.34917828312E+02  0.73348435738E+02  0.41800000000E+01 0.  1.
</event>
<event>
11    1  0.8974665E-009  0.1444477E+03  0.7561462E-02  0.1102691E+00
         22   -1    0    0    0    0  0.00000000000E+00  0.00000000000E+00  0.18529359112E+03  0.18529359112E+03  0.00000000000E+00 0. -1.
         22   -1    0    0    0    0 -0.00000000000E+00 -0.00000000000E+00 -0.14697922385E+04  0.14697922385E+04  0.00000000000E+00 0.  1.
        -24    2    1    2    0    0 -0.54362032797E+02 -0.62366864752E+02 -0.11986210499E+04  0.12041650062E+04  0.80474122960E+02 0.  0.
         25    2    1    2    0    0  0.12088856430E+02  0.58040091890E+01 -0.23481666904E+03  0.26639765447E+03  0.12509602423E+03 0.  0.
         24    2    1    2    0    0  0.42273176368E+02  0.56562855563E+02  0.14893907156E+03  0.18452316895E+03  0.82943202090E+02 0.  0.
        -13    1    5    5    0    0  0.24163041066E+02 -0.18495545170E+02  0.30083471509E+02  0.42789636628E+02  0.00000000000E+00 0.  1.
         14    1    5    5    0    0  0.18110135302E+02  0.75058400734E+02  0.11885560005E+03  0.14173353232E+03  0.00000000000E+00 0. -1.
         11    1    3    3    0    0  0.29557087107E+01 -0.35380443977E+02 -0.77700926842E+03  0.77781997611E+03  0.00000000000E+00 0. -1.
        -12    1    3    3    0    0 -0.57317741508E+02 -0.26986420775E+02 -0.42161178150E+03  0.42634503011E+03  0.00000000000E+00 0.  1.
          5    1    4    4  501    0 -0.37496546852E+02  0.39330164017E+02 -0.16787950564E+03  0.17650454284E+03  0.41800000000E+01 0.  1.
         -5    1    4    4    0  501  0.49585403282E+02 -0.33526154828E+02 -0.66937163393E+02  0.89893111634E+02  0.41800000000E+01 0.  1.
</event>
<event>
11    1  0.8974665E-009  0.1408115E+03  0.7561462E-02  0.1106656E+00
         22   -1    0    0    0    0  0.00000000000E+00  0.00000000000E+00  0.29110170778E+04  0.29110170778E+04  0.00000000000E+00 0. -1.
         22   -1    0    0    0    0 -0.00000000000E+00 -0.00000000000E+00 -0.19995262312E+03  0.19995262312E+03  0.00000000000E+00 0.  1.
        -24    2    1    2    0    0  0.64033877822E+02  0.28601211790E+02 -0.14578575401E+03  0.18092012400E+03  0.80995298438E+02 0.  0.
         25    2    1    2    0    0 -0.30567176917E+02 -0.14118883234E+01  0.79793531255E+02  0.15149536969E+03  0.12508994233E+03 0.  0.
         24    2    1    2    0    0 -0.33466700905E+02 -0.27189323467E+02  0.27770566774E+04  0.27785542072E+04  0.80376697492E+02 0.  0.
        -11    1    5    5    0    0  0.48422032100E+01  0.33690007155E+01  0.15840315638E+02  0.16903038108E+02  0.00000000000E+00 0.  1.
         12    1    5    5    0    0 -0.38308904115E+02 -0.30558324182E+02  0.27612163618E+04  0.27616511691E+04  0.00000000000E+00 0. -1.
         11    1    3    3    0    0 -0.10756242514E+01 -0.16253269212E+02 -0.14566302223E+01  0.16353822159E+02  0.00000000000E+00 0. -1.
        -12    1    3    3    0    0  0.65109502073E+02  0.44854481002E+02 -0.14432912379E+03  0.16456630184E+03  0.00000000000E+00 0.  1.
          5    1    4    4  501    0  0.27152192839E+02 -0.42613822199E+02  0.58327563510E+02  0.77283610704E+02  0.41800000000E+01 0.  1.
         -5    1    4    4    0  501 -0.57719369756E+02  0.41201933876E+02  0.21465967746E+02  0.74211758983E+02  0.41800000000E+01 0.  1.
</event>
<event>
11    1  0.8974665E-009  0.1511882E+03  0.7561462E-02  0.1095671E+00
         22   -1    0    0    0    0  0.00000000000E+00  0.00000000000E+00  0.55681185154E+03  0.55681185154E+03  0.00000000000E+00 0. -1.
         22   -1    0    0    0    0 -0.00000000000E+00 -0.00000000000E+00 -0.34886857478E+03  0.34886857478E+03  0.00000000000E+00 0. -1.
         24    2    1    2    0    0  0.30606551021E+02 -0.16167834747E+02 -0.23363147084E+03  0.24949648720E+03  0.80415627279E+02 0.  0.
         25    2    1    2    0    0  0.55206584538E+02  0.14081259145E+01 -0.53614712815E+02  0.14687484541E+03  0.12509169833E+03 0.  0.
        -24    2    1    2    0    0 -0.85813135559E+02  0.14759708832E+02  0.49518946042E+03  0.50930909371E+03  0.81249049132E+02 0.  0.
        -11    1    3    3    0    0  0.93828439824E+01 -0.16003398109E+02 -0.41167256513E+01  0.19002472005E+02  0.00000000000E+00 0.  1.
         12    1    3    3    0    0  0.21223707038E+02 -0.16443663806E+00 -0.22951474519E+03  0.23049401519E+03  0.00000000000E+00 0. -1.
         11    1    5    5    0    0 -0.12313099863E+01  0.12440011308E+02  0.24264673205E+03  0.24296853002E+03  0.00000000000E+00 0. -1.
        -12    1    5    5    0    0 -0.84581825573E+02  0.23196975242E+01  0.25254272837E+03  0.26634056369E+03  0.00000000000E+00 0.  1.
          5    1    4    4  501    0 -0.23065372274E+02  0.41752904474E+02 -0.26040694242E+02  0.54506023399E+02  0.41800000000E+01 0. -1.
         -5    1    4    4    0  501  0.78271956812E+02 -0.40344778560E+02 -0.27574018573E+02  0.92368822015E+02  0.41800000000E+01 0. -1.
</event>
<event>
11    1  0.8974665E-009  0.1710830E+03  0.7561462E-02  0.1077093E+00
         22   -1    0    0    0    0  0.00000000000E+00  0.00000000000E+00  0.15132045363E+04  0.15132045363E+04  0.00000000000E+00 0. -1.
         22   -1    0    0    0    0 -0.00000000000E+00 -0.00000000000E+00 -0.12770701995E+04  0.12770701995E+04  0.00000000000E+00 0. -1.
         24    2    1    2    0    0  0.55476967158E+02  0.10606380130E+03 -0.12173496963E+04  0.12260546487E+04  0.83321634164E+02 0.  0.
         25    2    1    2    0    0  0.26723318316E+02 -0.68089198101E+02  0.46809676225E+02  0.15227848252E+03  0.12508923139E+03 0.  0.
        -24    2    1    2    0    0 -0.82200285474E+02 -0.37974603202E+02  0.14066743569E+04  0.14119416047E+04  0.81531535531E+02 0.  0.
        -11    1    3    3    0    0  0.54871274037E+02  0.18906818739E+02 -0.43123771742E+03  0.43512560650E+03  0.00000000000E+00 0.  1.
         12    1    3    3    0    0  0.60569312126E+00  0.87156982564E+02 -0.78611197887E+03  0.79092904220E+03  0.00000000000E+00 0. -1.
         11    1    5    5    0    0 -0.90727248702E+02 -0.42086244426E+02  0.13803208486E+04  0.13839394245E+04  0.00000000000E+00 0. -1.
        -12    1    5    5    0    0  0.85269632280E+01  0.41116412242E+01  0.26353508290E+02  0.28002180176E+02  0.00000000000E+00 0.  1.
          5    1    4    4  501    0  0.12353321089E+00 -0.43895931766E+01 -0.40469882143E+02  0.40921480293E+02  0.41800000000E+01 0.  1.
         -5    1    4    4    0  501  0.26599785105E+02 -0.63699604924E+02  0.87279558368E+02  0.11135700222E+03  0.41800000000E+01 0.  1.
</event>
<event>
11    1  0.8974665E-009  0.2393464E+03  0.7561462E-02  0.1029733E+00
         22   -1    0    0    0    0  0.00000000000E+00  0.00000000000E+00  0.67023779977E+02  0.67023779977E+02  0.00000000000E+00 0.  1.
         22   -1    0    0    0    0 -0.00000000000E+00 -0.00000000000E+00 -0.33542659878E+04  0.33542659878E+04  0.00000000000E+00 0.  1.
         24    2    1    2    0    0  0.86784531162E+02  0.49887346790E+02 -0.22546878069E+04  0.22584760247E+04  0.84122202997E+02 0.  0.
         25    2    1    2    0    0  0.96427979680E+02  0.86243526267E+02 -0.82056689205E+03  0.84006788138E+03  0.12509084658E+03 0.  0.
        -24    2    1    2    0    0 -0.18321251084E+03 -0.13613087306E+03 -0.21198750888E+03  0.32274586178E+03  0.84425995079E+02 0.  0.
        -13    1    3    3    0    0  0.10109973343E+03  0.43622260828E+02 -0.21248975743E+04  0.21277485187E+04  0.00000000000E+00 0.  1.
         14    1    3    3    0    0 -0.14315202271E+02  0.62650859625E+01 -0.12979023263E+03  0.13072750592E+03  0.00000000000E+00 0. -1.
         11    1    5    5    0    0 -0.33088427636E+02 -0.17395482738E+02 -0.85524352768E+02  0.93337354684E+02  0.00000000000E+00 0. -1.
        -12    1    5    5    0    0 -0.15012408321E+03 -0.11873539032E+03 -0.12646315611E+03  0.22940850709E+03  0.00000000000E+00 0.  1.
          5    1    4    4  501    0  0.79757545105E+02  0.11283819746E+03 -0.52819889068E+03  0.54599016962E+03  0.41800000000E+01 0. -1.
         -5    1    4    4    0  501  0.16670434575E+02 -0.26594671188E+02 -0.29236800137E+03  0.29407771175E+03  0.41800000000E+01 0. -1.
</event>
<event>
11    1  0.8974665E-009  0.2117250E+03  0.7561462E-02  0.1046529E+00
         22   -1    0    0    0    0  0.00000000000E+00  0.00000000000E+00  0.26846664870E+03  0.26846664870E+03  0.00000000000E+00 0. -1.
         22   -1    0    0    0    0 -0.00000000000E+00 -0.00000000000E+00 -0.13243768696E+04  0.13243768696E+04  0.00000000000E+00 0. -1.
         24    2    1    2    0    0 -0.14862943303E+03 -0.96883246896E+02 -0.10263577054E+04  0.10446774143E+04  0.80397069645E+02 0.  0.
         25    2    1    2    0    0  0.99491206406E+02  0.11297668508E+03 -0.24397374887E+03  0.31278292621E+03  0.12509091599E+03 0.  0.
        -24    2    1    2    0    0  0.49138226627E+02 -0.16093438180E+02  0.21442123336E+03  0.23538317772E+03  0.82190090477E+02 0.  0.
        -11    1    3    3    0    0 -0.11355515905E+03 -0.27759524084E+02 -0.64833615952E+03  0.65879066559E+03  0.00000000000E+00 0.  1.
         12    1    3    3    0    0 -0.35074273983E+02 -0.69123722812E+02 -0.37802154583E+03  0.38588674875E+03  0.00000000000E+00 0. -1.
         11    1    5    5    0    0  0.15265530268E+01 -0.42579647735E+02  0.92268532808E+02  0.10163089546E+03  0.00000000000E+00 0. -1.
        -12    1    5    5    0    0  0.47611673600E+02  0.26486209555E+02  0.12215270055E+03  0.13375228227E+03  0.00000000000E+00 0.  1.
          5    1    4    4  501    0  0.27350850178E+02  0.60091290245E+01  0.82104380050E+01  0.29479863116E+02  0.41800000000E+01 0.  1.
         -5    1    4    4    0  501  0.72140356228E+02  0.10696755605E+03 -0.25218418688E+03  0.28330306309E+03  0.41800000000E+01 0.  1.
</event>
<event>
11    1  0.8974665E-009  0.1367913E+03  0.7561462E-02  0.1111195E+00
         22   -1    0    0    0    0  0.00000000000E+00  0.00000000000E+00  0.21502870393E+04  0.21502870393E+04  0.00000000000E+00 0. -1.
         22   -1    0    0    0    0 -0.00000000000E+00 -0.00000000000E+00 -0.11741912826E+03  0.11741912826E+03  0.00000000000E+00 0. -1.
         24    2    1    2    0    0  0.53401964133E+02  0.36720069285E+01 -0.77725954153E+02  0.12612962869E+03  0.83678586726E+02 0.  0.
         25    2    1    2    0    0 -0.89019969084E+02  0.22899120166E+02  0.40710819158E+03  0.43569572774E+03  0.12507902669E+03 0.  0.
        -24    2    1    2    0    0  0.35618004951E+02 -0.26571127095E+02  0.17034856736E+04  0.17058808111E+04  0.78684398109E+02 0.  0.
        -13    1    3    3    0    0 -0.15088582973E+02  0.11874487390E+02  0.35513962880E+01  0.19526423188E+02  0.00000000000E+00 0.  1.
         14    1    3    3    0    0  0.68490547106E+02 -0.82024804617E+01 -0.81277350441E+02  0.10660320550E+03  0.00000000000E+00 0. -1.
         13    1    5    5    0    0  0.21108380160E+02 -0.48140933097E+02  0.14723171118E+04  0.14732551683E+04  0.00000000000E+00 0. -1.
        -14    1    5    5    0    0  0.14509624791E+02  0.21569806003E+02  0.23116856176E+03  0.23262564280E+03  0.00000000000E+00 0.  1.
          5    1    4    4  501    0 -0.11587824828E+03  0.39107705271E+02  0.29963997122E+03  0.32366458841E+03  0.41800000000E+01 0. -1.
         -5    1    4    4    0  501  0.26858279197E+02 -0.16208585104E+02  0.10746822036E+03  0.11203113933E+03  0.41800000000E+01 0. -1.
</event>
<event>
11    1  0.8974665E-009  0.1764230E+03  0.7561462E-02  0.1072574E+00
         22   -1    0    0    0    0  0.00000000000E+00  0.00000000000E+00  0.17474832033E+03  0.17474832033E+03  0.00000000000E+00 0.  1.
         22   -1    0    0    0    0 -0.00000000000E+00 -0.00000000000E+00 -0.18742514266E+04  0.18742514266E+04  0.00000000000E+00 0. -1.
         24    2    1    2    0    0  0.26459733912E+02  0.36624804078E+02 -0.12835365843E+04  0.12868467978E+04  0.80417808815E+02 0.  0.
         25    2    1    2    0    0 -0.93748772298E+02  0.69150372613E+02 -0.54136296752E+03  0.56770742578E+03  0.12508897767E+03 0.  0.
        -24    2    1    2    0    0  0.67289038386E+02 -0.10577517669E+03  0.12539644557E+03  0.19444552334E+03  0.79803447889E+02 0.  0.
        -11    1    3    3    0    0 -0.53467891347E+01 -0.18138642943E+02 -0.62160617835E+03  0.62189375257E+03  0.00000000000E+00 0.  1.
         12    1    3    3    0    0  0.31806523046E+02  0.54763447022E+02 -0.66193040592E+03  0.66495304520E+03  0.00000000000E+00 0. -1.
         11    1    5    5    0    0  0.27791262409E+02  0.73447519018E+01  0.22359760780E+02  0.36417832842E+02  0.00000000000E+00 0. -1.
        -12    1    5    5    0    0  0.39497775977E+02 -0.11311992859E+03  0.10303668479E+03  0.15802769050E+03  0.00000000000E+00 0.  1.
          5    1    4    4  501    0  0.12939374913E+02  0.41878797610E+02 -0.28898367117E+03  0.29231882546E+03  0.41800000000E+01 0.  1.
         -5    1    4    4    0  501 -0.10668814721E+03  0.27271575003E+02 -0.25237929635E+03  0.27538860032E+03  0.41800000000E+01 0.  1.
</event>
<event>
11    1  0.8974665E-009  0.1279230E+03  0.7561462E-02  0.1121848E+00
         22   -1    0    0    0    0  0.00000000000E+00  0.00000000000E+00  0.99175547982E+02  0.99175547982E+02  0.00000000000E+00 0. -1.
         22   -1    0    0    0    0 -0.00000000000E+00 -0.00000000000E+00 -0.20278989601E+04  0.20278989601E+04  0.00000000000E+00 0. -1.
        -24    2    1    2    0    0 -0.25554063835E+02 -0.24751996078E+01 -0.14837443588E+04  0.14861510582E+04  0.80551280316E+02 0.  0.
         25    2    1    2    0    0  0.29705371198E+02  0.19746858449E+02 -0.51599327539E+03  0.53214909020E+03  0.12514490182E+03 0.  0.
         24    2    1    2    0    0 -0.41513073630E+01 -0.17271658841E+02  0.71014221992E+02  0.10877435976E+03  0.80456808681E+02 0.  0.
        -13    1    5    5    0    0 -0.16500409545E+02  0.47834440709E+01 -0.12676088142E+02  0.21350130279E+02  0.00000000000E+00 0.  1.
         14    1    5    5    0    0  0.12349102182E+02 -0.22055102912E+02  0.83690310134E+02  0.87424229476E+02  0.00000000000E+00 0. -1.
         13    1    3    3    0    0 -0.74686967330E+01  0.14029063802E+02 -0.13553427146E+04  0.13554358967E+04  0.00000000000E+00 0. -1.
        -14    1    3    3    0    0 -0.18085367102E+02 -0.16504263410E+02 -0.12840164420E+03  0.13071516150E+03  0.00000000000E+00 0.  1.
          5    1    4    4  501    0  0.38886509855E+02  0.97449848008E+01 -0.42980368145E+02  0.58922914247E+02  0.41800000000E+01 0.  1.
         -5    1    4    4    0  501 -0.91811386568E+01  0.10001873648E+02 -0.47301290724E+03  0.47322617595E+03  0.41800000000E+01 0.  1.
</event>
<event>
11    1  0.8974665E-009  0.1348489E+03  0.7561462E-02  0.1113451E+00
         22   -1    0    0    0    0  0.00000000000E+00  0.00000000000E+00  0.43336761517E+03  0.43336761517E+03  0.00000000000E+00 0.  1.
         22   -1    0    0    0    0 -0.00000000000E+00 -0.00000000000E+00 -0.14429486470E+04  0.14429486470E+04  0.00000000000E+00 0. -1.
        -24    2    1    2    0    0  0.51366008391E+02  0.11368426919E+02 -0.12142624108E+04  0.12181237268E+04  0.81391053038E+02 0.  0.
         25    2    1    2    0    0 -0.16260317652E+02 -0.44411767074E+02 -0.20108048777E+03  0.24149127849E+03  0.12509145471E+03 0.  0.
         24    2    1    2    0    0 -0.35105690739E+02  0.33043340155E+02  0.40576186673E+03  0.41670125690E+03  0.81688268222E+02 0.  0.
        -13    1    5    5    0    0 -0.18003631081E+02  0.36851248242E+02  0.39272868305E+03  0.39486448779E+03  0.00000000000E+00 0.  1.
         14    1    5    5    0    0 -0.17102059658E+02 -0.38079080866E+01  0.13033183679E+02  0.21836769114E+02  0.00000000000E+00 0. -1.
         11    1    3    3    0    0  0.39402070185E+02  0.13971243290E+01 -0.11779829259E+04  0.11786425450E+04  0.00000000000E+00 0. -1.
        -12    1    3    3    0    0  0.11963938206E+02  0.99713025897E+01 -0.36279484877E+02  0.39481181791E+02  0.00000000000E+00 0.  1.
          5    1    4    4  501    0 -0.47328783652E+02 -0.82221579570E-01 -0.17485483069E+03  0.18119521168E+03  0.41800000000E+01 0. -1.
         -5    1    4    4    0  501  0.31068466000E+02 -0.44329545494E+02 -0.26225657079E+02  0.60296066808E+02  0.41800000000E+01 0. -1.
</event>
<event>
11    1  0.8974665E-009  0.2125262E+03  0.7561462E-02  0.1046003E+00
         22   -1    0    0    0    0  0.00000000000E+00  0.00000000000E+00  0.61462606339E+03  0.61462606339E+03  0.00000000000E+00 0.  1.
         22   -1    0    0    0    0 -0.00000000000E+00 -0.00000000000E+00 -0.41763193533E+03  0.41763193533E+03  0.00000000000E+00 0. -1.
         24    2    1    2    0    0  0.73684418329E+02  0.15544513929E+03 -0.26828409240E+03  0.32867735036E+03  0.80373264041E+02 0.  0.
         25    2    1    2    0    0 -0.51663206374E+02 -0.16447896421E+03 -0.17147283884E+02  0.21368807475E+03  0.12508456095E+03 0.  0.
        -24    2    1    2    0    0 -0.22021211955E+02  0.90338249165E+01  0.48242550435E+03  0.48989257360E+03  0.81815784865E+02 0.  0.
        -13    1    3    3    0    0  0.58174827101E+02  0.76650049926E+02 -0.84297833705E+02  0.12792836054E+03  0.00000000000E+00 0.  1.
         14    1    3    3    0    0  0.15509591228E+02  0.78795089366E+02 -0.18398625869E+03  0.20074898983E+03  0.00000000000E+00 0. -1.
         13    1    5    5    0    0 -0.66886055280E+01  0.11672707377E+01 -0.36035539363E+00  0.67992514952E+01  0.00000000000E+00 0. -1.
        -14    1    5    5    0    0 -0.15332606427E+02  0.78665541788E+01  0.48278585975E+03  0.48309332211E+03  0.00000000000E+00 0.  1.
          5    1    4    4  501    0 -0.29173716941E+01  0.52413772170E+00 -0.39774641425E+02  0.40103369914E+02  0.41800000000E+01 0. -1.
         -5    1    4    4    0  501 -0.48745834680E+02 -0.16500310193E+03  0.22627357541E+02  0.17358470484E+03  0.41800000000E+01 0. -1.
</event>
<event>
11    1  0.8974665E-009  0.1288750E+03  0.7561462E-02  0.1120659E+00
         22   -1    0    0    0    0  0.00000000000E+00  0.00000000000E+00  0.59415958506E+02  0.59415958506E+02  0.00000000000E+00 0.  1.
         22   -1    0    0    0    0 -0.00000000000E+00 -0.00000000000E+00 -0.99282627495E+03  0.99282627495E+03  0.00000000000E+00 0.  1.
        -24    2    1    2    0    0 -0.25285410769E+02  0.16153399643E+02 -0.74054414562E+03  0.74586661213E+03  0.83732234894E+02 0.  0.
         25    2    1    2    0    0  0.26652402493E+02 -0.30448997467E+02 -0.17394960177E+03  0.21804786074E+03  0.12509561787E+03 0.  0.
         24    2    1    2    0    0 -0.13669917241E+01  0.14295597823E+02 -0.18916569057E+02  0.88327760593E+02  0.85074813681E+02 0.  0.
        -11    1    5    5    0    0 -0.64488479499E+01 -0.29722142523E+02  0.13650735651E+02  0.33336706194E+02  0.00000000000E+00 0.  1.
         12    1    5    5    0    0  0.50818562258E+01  0.44017740347E+02 -0.32567304708E+02  0.54991054399E+02  0.00000000000E+00 0. -1.
         13    1    3    3    0    0  0.27121476986E+02  0.18121362450E+02 -0.39759890084E+03  0.39893463655E+03  0.00000000000E+00 0. -1.
        -14    1    3    3    0    0 -0.52406887755E+02 -0.19679628066E+01 -0.34294524478E+03  0.34693197557E+03  0.00000000000E+00 0.  1.
          5    1    4    4  501    0  0.66227587491E+02 -0.40228628672E+02 -0.15405194320E+03  0.17249321585E+03  0.41800000000E+01 0.  1.
         -5    1    4    4    0  501 -0.39575184998E+02  0.97796312057E+01 -0.19897658565E+02  0.45554644884E+02  0.41800000000E+01 0.  1.
</event>
<event>
11    1  0.8974665E-009  0.1442488E+03  0.7561462E-02  0.1102905E+00
         22   -1    0    0    0    0  0.00000000000E+00  0.00000000000E+00  0.14722069017E+03  0.14722069017E+03  0.00000000000E+00 0.  1.
         22   -1    0    0    0    0 -0.00000000000E+00 -0.00000000000E+00 -0.91689260183E+03  0.91689260183E+03  0.00000000000E+00 0. -1.
         24    2    1    2    0    0 -0.46302941322E+02 -0.62982740790E+02 -0.72502588264E+03  0.73372120840E+03  0.81077081441E+02 0.  0.
         25    2    1    2    0    0  0.64170583817E+02 -0.19328731169E+02 -0.12782063424E+03  0.19098947491E+03  0.12508957315E+03 0.  0.
        -24    2    1    2    0    0 -0.17867642496E+02  0.82311471959E+02  0.83174605222E+02  0.13940260870E+03  0.73625004535E+02 0.  0.
        -11    1    3    3    0    0 -0.23920888021E+02 -0.73598834293E+02 -0.65267397444E+03  0.65724600737E+03  0.00000000000E+00 0.  1.
         12    1    3    3    0    0 -0.22382053301E+02  0.10616093503E+02 -0.72351908200E+02  0.76475201023E+02  0.00000000000E+00 0. -1.
         11    1    5    5    0    0 -0.30444614939E+02  0.31585880215E+02  0.33573466936E+01  0.43997888410E+02  0.00000000000E+00 0. -1.
        -12    1    5    5    0    0  0.12576972443E+02  0.50725591744E+02  0.79817258529E+02  0.95404720285E+02  0.00000000000E+00 0.  1.
          5    1    4    4  501    0  0.61602854795E+02 -0.34789896715E+02 -0.14859622346E+03  0.16463158464E+03  0.41800000000E+01 0.  1.
         -5    1    4    4    0  501  0.25677290221E+01  0.15461165546E+02  0.20775589218E+02  0.26357890274E+02  0.41800000000E+01 0.  1.
</event>
<event>
11    1  0.8974665E-009  0.1745369E+03  0.7561462E-02  0.1074150E+00
         22   -1    0    0    0    0  0.00000000000E+00  0.00000000000E+00  0.75872105040E+02  0.75872105040E+02  0.00000000000E+00 0. -1.
         22   -1    0    0    0    0 -0.00000000000E+00 -0.00000000000E+00 -0.24037761925E+04  0.24037761925E+04  0.00000000000E+00 0. -1.
         24    2    1    2    0    0  0.12584834904E+02  0.47389348556E+02 -0.16367154513E+04  0.16393897661E+04  0.79732102279E+02 0.  0.
         25    2    1    2    0    0 -0.26159933464E+02 -0.16331471246E+03 -0.67116775922E+03  0.70247380654E+03  0.12508897006E+03 0.  0.
        -24    2    1    2    0    0  0.13575098560E+02  0.11592536390E+03 -0.20020876903E+02  0.13778472490E+03  0.70433100216E+02 0.  0.
        -11    1    3    3    0    0  0.29574986192E+02  0.83961373965E+01 -0.23171267803E+03  0.23374332096E+03  0.00000000000E+00 0.  1.
         12    1    3    3    0    0 -0.16990151289E+02  0.38993211160E+02 -0.14050027733E+04  0.14056464451E+04  0.00000000000E+00 0. -1.
         11    1    5    5    0    0 -0.80623334777E+01  0.29036480025E+02  0.23510754002E+02  0.38221380759E+02  0.00000000000E+00 0. -1.
        -12    1    5    5    0    0  0.21637432038E+02  0.86888883879E+02 -0.43531630905E+02  0.99563344140E+02  0.00000000000E+00 0.  1.
          5    1    4    4  501    0 -0.74248572543E+02 -0.10474624094E+03 -0.36167802221E+03  0.38381387373E+03  0.41800000000E+01 0. -1.
         -5    1    4    4    0  501  0.48088639079E+02 -0.58568471522E+02 -0.30948973701E+03  0.31865993281E+03  0.41800000000E+01 0. -1.
</event>
<event>
11    1  0.8974665E-009  0.1732006E+03  0.7561462E-02  0.1075279E+00
         22   -1    0    0    0    0  0.00000000000E+00  0.00000000000E+00  0.20770993320E+03  0.20770993320E+03  0.00000000000E+00 0.  1.
         22   -1    0    0    0    0 -0.00000000000E+00 -0.00000000000E+00 -0.44842411741E+03  0.44842411741E+03  0.00000000000E+00 0. -1.
         24    2    1    2    0    0 -0.96871314661E+02  0.74038402247E+02 -0.31658710914E+03  0.34876267991E+03  0.80884316216E+02 0.  0.
         25    2    1    2    0    0  0.63360878605E+02 -0.96516943308E+02 -0.24770562883E+02  0.17202154064E+03  0.12509080052E+03 0.  0.
        -24    2    1    2    0    0  0.33510436057E+02  0.22478541061E+02  0.10064348781E+03  0.13534983007E+03  0.81007596731E+02 0.  0.
        -11    1    3    3    0    0 -0.53685928142E+00 -0.37129214165E+01  0.37696469796E+01  0.53182931175E+01  0.00000000000E+00 0.  1.
         12    1    3    3    0    0 -0.96334455380E+02  0.77751323664E+02 -0.32035675612E+03  0.34344438679E+03  0.00000000000E+00 0. -1.
         11    1    5    5    0    0  0.21472712622E+02  0.31430355042E+02  0.48313201315E+01  0.38370382584E+02  0.00000000000E+00 0. -1.
        -12    1    5    5    0    0  0.12037723434E+02 -0.89518139812E+01  0.95812167681E+02  0.96979447487E+02  0.00000000000E+00 0.  1.
          5    1    4    4  501    0 -0.11097450460E+02  0.13161922480E+02 -0.34760602306E+02  0.39014887963E+02  0.41800000000E+01 0.  1.
         -5    1    4    4    0  501  0.74458329064E+02 -0.10967886579E+03  0.99900394234E+01  0.13300665267E+03  0.41800000000E+01 0.  1.
</event>
<event>
11    1  0.8974665E-009  0.1510557E+03  0.7561462E-02  0.1095805E+00
         22   -1    0    0    0    0  0.00000000000E+00  0.00000000000E+00  0.54610143602E+03  0.54610143602E+03  0.00000000000E+00 0. -1.
         22   -1    0    0    0    0 -0.00000000000E+00 -0.00000000000E+00 -0.35448801651E+03  0.35448801651E+03  0.00000000000E+00 0.  1.
        -24    2    1    2    0    0  0.82620311284E+02  0.14147132814E+02 -0.24193201008E+03  0.26834460407E+03  0.80321054705E+02 0.  0.
         25    2    1    2    0    0 -0.78494177032E+02  0.71611615826E+02 -0.17938099072E+02  0.16510261886E+03  0.12509012753E+03 0.  0.
         24    2    1    2    0    0 -0.41261342524E+01 -0.85758748640E+02  0.45148352866E+03  0.46714222961E+03  0.83743047930E+02 0.  0.
        -11    1    5    5    0    0 -0.23924519148E+02 -0.94935095072E+02  0.35799899886E+03  0.37114463229E+03  0.00000000000E+00 0.  1.
         12    1    5    5    0    0  0.19798384895E+02  0.91763464319E+01  0.93484529805E+02  0.95997597320E+02  0.00000000000E+00 0. -1.
         11    1    3    3    0    0 -0.72756415155E+01  0.14494950825E+02 -0.87372504833E+01  0.18422217698E+02  0.00000000000E+00 0. -1.
        -12    1    3    3    0    0  0.89895952800E+02 -0.34781801145E+00 -0.23319475960E+03  0.24992238637E+03  0.00000000000E+00 0.  1.
          5    1    4    4  501    0 -0.44450273447E+02  0.94420112414E+02 -0.47161886773E+02  0.11459799475E+03  0.41800000000E+01 0. -1.
         -5    1    4    4    0  501 -0.34043903585E+02 -0.22808496588E+02  0.29223787701E+02  0.50504624101E+02  0.41800000000E+01 0. -1.
</event>
<event>
11    1  0.8974665E-009  0.1444001E+03  0.7561462E-02  0.1102742E+00
         22   -1    0    0    0    0  0.00000000000E+00  0.00000000000E+00  0.70427265119E+03  0.70427265119E+03  0.00000000000E+00 0. -1.
         22   -1    0    0    0    0 -0.00000000000E+00 -0.00000000000E+00 -0.52246787501E+03  0.52246787501E+03  0.00000000000E+00 0. -1.
         24    2    1    2    0    0 -0.31565997275E+02 -0.66198831350E+02 -0.48816627821E+03  0.50016345518E+03  0.80488938753E+02 0.  0.
         25    2    1    2    0    0 -0.23493925802E+02  0.45507861782E+02  0.17021014646E+03  0.21737203521E+03  0.12512464864E+03 0.  0.
        -24    2    1    2    0    0  0.55059923077E+02  0.20690969569E+02  0.49976090793E+03  0.50920503581E+03  0.77904377632E+02 0.  0.
        -11    1    3    3    0    0  0.10201556840E+02 -0.56812738601E+02 -0.17975246946E+03  0.18879276815E+03  0.00000000000E+00 0.  1.
         12    1    3    3    0    0 -0.41767554116E+02 -0.93860927498E+01 -0.30841380875E+03  0.31137068703E+03  0.00000000000E+00 0. -1.
         11    1    5    5    0    0  0.43818941229E+02  0.32991144170E+02  0.48098144292E+03  0.48409881598E+03  0.00000000000E+00 0. -1.
        -12    1    5    5    0    0  0.11240981848E+02 -0.12300174601E+02  0.18779465007E+02  0.25106219829E+02  0.00000000000E+00 0.  1.
          5    1    4    4  501    0 -0.37421552050E+02  0.61396474778E+02  0.34314321247E+02  0.79779976909E+02  0.41800000000E+01 0. -1.
         -5    1    4    4    0  501  0.13927626248E+02 -0.15888612996E+02  0.13589582521E+03  0.13759205830E+03  0.41800000000E+01 0. -1.
</event>
<event>
11    1  0.8974665E-009  0.1396391E+03  0.7561462E-02  0.1107962E+00
         22   -1    0    0    0    0  0.00000000000E+00  0.00000000000E+00  0.56389693789E+02  0.56389693789E+02  0.00000000000E+00 0. -1.
         22   -1    0    0    0    0 -0.00000000000E+00 -0.00000000000E+00 -0.94655276706E+03  0.94655276706E+03  0.00000000000E+00 0.  1.
        -24    2    1    2    0    0 -0.51164393366E+02  0.84398098721E+01 -0.42556965949E+03  0.43594295730E+03  0.79042402543E+02 0.  0.
         25    2    1    2    0    0  0.81032084450E+01 -0.57811297289E+02 -0.43406850692E+03  0.45549040666E+03  0.12509290059E+03 0.  0.
         24    2    1    2    0    0  0.43061184921E+02  0.49371487417E+02 -0.30524906864E+02  0.11150909689E+03  0.84915836770E+02 0.  0.
        -11    1    5    5    0    0  0.76773037195E+01 -0.21327023339E+02 -0.22675043608E+02  0.32061511498E+02  0.00000000000E+00 0.  1.
         12    1    5    5    0    0  0.35383881201E+02  0.70698510757E+02 -0.78498632561E+01  0.79447585396E+02  0.00000000000E+00 0. -1.
         13    1    3    3    0    0 -0.34147901083E+01 -0.29864567181E+02 -0.91495672243E+02  0.96306859588E+02  0.00000000000E+00 0. -1.
        -14    1    3    3    0    0 -0.47749603257E+02  0.38304377053E+02 -0.33407398724E+03  0.33963609771E+03  0.00000000000E+00 0.  1.
          5    1    4    4  501    0 -0.19320626926E+02 -0.17487043513E+01 -0.31950712039E+01  0.20100384865E+02  0.41800000000E+01 0. -1.
         -5    1    4    4    0  501  0.27423835371E+02 -0.56062592938E+02 -0.43087343571E+03  0.43539002179E+03  0.41800000000E+01 0. -1.
</event>
<event>
11    1  0.8974665E-009  0.1575081E+03  0.7561462E-02  0.1089445E+00
         22   -1    0    0    0    0  0.00000000000E+00  0.00000000000E+00  0.71550881878E+03  0.71550881878E+03  0.00000000000E+00 0. -1.
         22   -1    0    0    0    0 -0.00000000000E+00 -0.00000000000E+00 -0.32982349101E+03  0.32982349101E+03  0.00000000000E+00 0.  1.
         24    2    1    2    0    0  0.87688629819E+01  0.94464149671E+02 -0.28910925421E+03  0.31492072960E+03  0.81182119503E+02 0.  0.
         25    2    1    2    0    0 -0.34502977779E+02 -0.11727433458E+03  0.35293859625E+03  0.39390030163E+03  0.12509224544E+03 0.  0.
        -24    2    1    2    0    0  0.25734114798E+02  0.22810184911E+02  0.32185598573E+03  0.33651127856E+03  0.92010955048E+02 0.  0.
        -13    1    3    3    0    0  0.17866693901E+02  0.80680030936E+02 -0.28652610659E+03  0.29820411785E+03  0.00000000000E+00 0.  1.
         14    1    3    3    0    0 -0.90978309196E+01  0.13784118735E+02 -0.25831476218E+01  0.16716611749E+02  0.00000000000E+00 0. -1.
         11    1    5    5    0    0  0.12135521326E+02  0.27970650889E+02  0.32045157065E+03  0.32189879981E+03  0.00000000000E+00 0. -1.
        -12    1    5    5    0    0  0.13598593471E+02 -0.51604659779E+01  0.14044150816E+01  0.14612478750E+02  0.00000000000E+00 0.  1.
          5    1    4    4  501    0 -0.39579125714E+02  0.47134623040E+01  0.34675426710E+02  0.52996052085E+02  0.41800000000E+01 0.  1.
         -5    1    4    4    0  501  0.50761479342E+01 -0.12198779689E+03  0.31826316954E+03  0.34090424954E+03  0.41800000000E+01 0.  1.
</event>
<event>
11    1  0.8974665E-009  0.1517810E+03  0.7561462E-02  0.1095073E+00
         22   -1    0    0    0    0  0.00000000000E+00  0.00000000000E+00  0.19580213525E+03  0.19580213525E+03  0.00000000000E+00 0.  1.
         22   -1    0    0    0    0 -0.00000000000E+00 -0.00000000000E+00 -0.78270765354E+03  0.78270765354E+03  0.00000000000E+00 0. -1.
         24    2    1    2    0    0 -0.45235497044E+02 -0.59909036718E+02 -0.32561448334E+03  0.34343445050E+03  0.79291154351E+02 0.  0.
         25    2    1    2    0    0  0.16261780278E+02  0.11302140603E+03 -0.41561470533E+03  0.44880024639E+03  0.12509114341E+03 0.  0.
        -24    2    1    2    0    0  0.28973716765E+02 -0.53112369311E+02  0.15432367038E+03  0.18627509189E+03  0.84983613612E+02 0.  0.
        -13    1    3    3    0    0 -0.21129906731E+02 -0.61504925207E+02 -0.12073839894E+03  0.13713894327E+03  0.00000000000E+00 0.  1.
         14    1    3    3    0    0 -0.24105590313E+02  0.15958884896E+01 -0.20487608440E+03  0.20629550723E+03  0.00000000000E+00 0. -1.
         11    1    5    5    0    0 -0.88055514624E+01  0.17084705980E+02  0.10666471718E+02  0.21981777314E+02  0.00000000000E+00 0. -1.
        -12    1    5    5    0    0  0.37779268228E+02 -0.70197075291E+02  0.14365719866E+03  0.16429331458E+03  0.00000000000E+00 0.  1.
          5    1    4    4  501    0 -0.39466013746E+02  0.13535432801E+02 -0.47278703121E+02  0.63194322141E+02  0.41800000000E+01 0. -1.
         -5    1    4    4    0  501  0.55727794024E+02  0.99485973227E+02 -0.36833600221E+03  0.38560592425E+03  0.41800000000E+01 0. -1.
</event>
<event>
11    1  0.8974665E-009  0.1353776E+03  0.7561462E-02  0.1112833E+00
         22   -1    0    0    0    0  0.00000000000E+00  0.00000000000E+00  0.37323594481E+04  0.37323594481E+04  0.00000000000E+00 0. -1.
         22   -1    0    0    0    0 -0.00000000000E+00 -0.00000000000E+00 -0.14867316258E+03  0.14867316258E+03  0.00000000000E+00 0.  1.
         24    2    1    2    0    0  0.33262602276E+02 -0.34258245225E+02 -0.94145170607E+02  0.13407695996E+03  0.82663716143E+02 0.  0.
         25    2    1    2    0    0 -0.74962927740E+02  0.47123146651E+02  0.13899200877E+03  0.20689881682E+03  0.12509320691E+03 0.  0.
        -24    2    1    2    0    0  0.41700325464E+02 -0.12864901427E+02  0.35388394474E+04  0.35400568339E+04  0.81934914635E+02 0.  0.
        -11    1    3    3    0    0  0.29173724778E+02 -0.58962703472E+02 -0.47520678652E+02  0.81153690721E+02  0.00000000000E+00 0.  1.
         12    1    3    3    0    0  0.40888774978E+01  0.24704458247E+02 -0.46624491955E+02  0.52923269235E+02  0.00000000000E+00 0. -1.
         11    1    5    5    0    0  0.62308471005E+02 -0.73413123790E+01  0.18124695272E+04  0.18135550798E+04  0.00000000000E+00 0. -1.
        -12    1    5    5    0    0 -0.20608145541E+02 -0.55235890477E+01  0.17263699202E+04  0.17265017541E+04  0.00000000000E+00 0.  1.
          5    1    4    4  501    0  0.18626454877E+02  0.29840167676E+02  0.96106727324E+02  0.10242731992E+03  0.41800000000E+01 0.  1.
         -5    1    4    4    0  501 -0.93589382617E+02  0.17282978975E+02  0.42885281444E+02  0.10447149690E+03  0.41800000000E+01 0.  1.
</event>
<event>
11    1  0.8974665E-009  0.1421166E+03  0.7561462E-02  0.1105218E+00
         22   -1    0    0    0    0  0.00000000000E+00  0.00000000000E+00  0.38686244319E+03  0.38686244319E+03  0.00000000000E+00 0. -1.
         22   -1    0    0    0    0 -0.00000000000E+00 -0.00000000000E+00 -0.22106546774E+04  0.22106546774E+04  0.00000000000E+00 0.  1.
         24    2    1    2    0    0  0.63754109009E+02  0.20548389596E+02 -0.20982277842E+04  0.21008520668E+04  0.80825427669E+02 0.  0.
         25    2    1    2    0    0 -0.93126876879E+02  0.50265803741E+01 -0.47365386647E+02  0.16306802545E+03  0.12509923807E+03 0.  0.
        -24    2    1    2    0    0  0.29372767870E+02 -0.25574969970E+02  0.32180093657E+03  0.33359702833E+03  0.78830805862E+02 0.  0.
        -13    1    3    3    0    0  0.74054496867E+01  0.24210234167E+02 -0.14354255536E+04  0.14356488067E+04  0.00000000000E+00 0.  1.
         14    1    3    3    0    0  0.56348659322E+02 -0.36618445713E+01 -0.66280223053E+03  0.66520326014E+03  0.00000000000E+00 0. -1.
         11    1    5    5    0    0  0.15944754766E+02  0.18593209606E+02  0.22524438918E+03  0.22657223463E+03  0.00000000000E+00 0. -1.
        -12    1    5    5    0    0  0.13428013104E+02 -0.44168179576E+02  0.96556547387E+02  0.10702479370E+03  0.00000000000E+00 0.  1.
          5    1    4    4  501    0 -0.68083166025E+02  0.44633573341E+02  0.17070596411E+02  0.83284758672E+02  0.41800000000E+01 0.  1.
         -5    1    4    4    0  501 -0.25043710854E+02 -0.39606992967E+02 -0.64435983059E+02  0.79783266779E+02  0.41800000000E+01 0.  1.
</event>
<event>
11    1  0.8974665E-009  0.1678286E+03  0.7561462E-02  0.1079937E+00
         22   -1    0    0    0    0  0.00000000000E+00  0.00000000000E+00  0.14821939385E+04  0.14821939385E+04  0.00000000000E+00 0. -1.
         22   -1    0    0    0    0 -0.00000000000E+00 -0.00000000000E+00 -0.11384139593E+04  0.11384139593E+04  0.00000000000E+00 0. -1.
        -24    2    1    2    0    0  0.38602276223E+02 -0.54489353789E+02 -0.11131819967E+04  0.11180359426E+04  0.79818454718E+02 0.  0.
         25    2    1    2    0    0  0.60365471590E+02 -0.21138630048E+02  0.25212190173E+03  0.28862229168E+03  0.12508613865E+03 0.  0.
         24    2    1    2    0    0 -0.98967747814E+02  0.75627983836E+02  0.12048400742E+04  0.12139496636E+04  0.80746357958E+02 0.  0.
        -13    1    5    5    0    0  0.26560797799E+01  0.18535826890E+02  0.52692529809E+02  0.55920786260E+02  0.00000000000E+00 0.  1.
         14    1    5    5    0    0 -0.10162382759E+03  0.57092156946E+02  0.11521475443E+04  0.11580288773E+04  0.00000000000E+00 0. -1.
         13    1    3    3    0    0  0.61654508014E+02 -0.25549415666E+02 -0.67247448777E+03  0.67577806098E+03  0.00000000000E+00 0. -1.
        -14    1    3    3    0    0 -0.23052231791E+02 -0.28939938122E+02 -0.44070750893E+03  0.44225788160E+03  0.00000000000E+00 0.  1.
          5    1    4    4  501    0  0.50335196722E+02 -0.12466250718E+02  0.19458816897E+02  0.55544193135E+02  0.41800000000E+01 0. -1.
         -5    1    4    4    0  501  0.10030274869E+02 -0.86723793298E+01  0.23266308484E+03  0.23307809855E+03  0.41800000000E+01 0. -1.
</event>
<event>
11    1  0.8974665E-009  0.1392719E+03  0.7561462E-02  0.1108374E+00
         22   -1    0    0    0    0  0.00000000000E+00  0.00000000000E+00  0.20715418437E+03  0.20715418437E+03  0.00000000000E+00 0. -1.
         22   -1    0    0    0    0 -0.00000000000E+00 -0.00000000000E+00 -0.92728056969E+03  0.92728056969E+03  0.00000000000E+00 0. -1.
         24    2    1    2    0    0 -0.53287382076E+02 -0.30300676191E+02 -0.84463726570E+03  0.85060385508E+03  0.79731622341E+02 0.  0.
         25    2    1    2    0    0  0.35260938431E+02  0.57231482306E+02  0.12585720759E+02  0.14256723722E+03  0.12509292712E+03 0.  0.
        -24    2    1    2    0    0  0.18026443645E+02 -0.26930806115E+02  0.11192515961E+03  0.14126366175E+03  0.79862129881E+02 0.  0.
        -11    1    3    3    0    0 -0.25930787711E+01 -0.74886402381E+01 -0.55450388942E+01  0.96721893316E+01  0.00000000000E+00 0.  1.
         12    1    3    3    0    0 -0.50694303305E+02 -0.22812035953E+02 -0.83909222681E+03  0.84093166575E+03  0.00000000000E+00 0. -1.
         11    1    5    5    0    0  0.42688342185E+01 -0.13324741728E+02  0.11962359095E+03  0.12043909332E+03  0.00000000000E+00 0. -1.
        -12    1    5    5    0    0  0.13757609427E+02 -0.13606064387E+02 -0.76984313401E+01  0.20824568431E+02  0.00000000000E+00 0.  1.
          5    1    4    4  501    0  0.24792335500E+02  0.40761770440E+02 -0.54513437103E+02  0.72562862773E+02  0.41800000000E+01 0. -1.
         -5    1    4    4    0  501  0.10468602930E+02  0.16469711866E+02  0.67099157862E+02  0.70004374450E+02  0.41800000000E+01 0. -1.
</event>
<event>
11    1  0.8974665E-009  0.1284484E+03  0.7561462E-02  0.1121190E+00
         22   -1    0    0    0    0  0.00000000000E+00  0.00000000000E+00  0.86778359949E+03  0.86778359949E+03  0.00000000000E+00 0. -1.
         22   -1    0    0    0    0 -0.00000000000E+00 -0.00000000000E+00 -0.83788974356E+02  0.83788974356E+02  0.00000000000E+00 0. -1.
         24    2    1    2    0    0  0.18015186852E+02 -0.33174274116E+01 -0.27205183896E+02  0.86434491196E+02  0.79970287955E+02 0.  0.
         25    2    1    2    0    0 -0.15010395771E+02  0.32170290997E+02  0.15098575751E+03  0.19925350305E+03  0.12508005397E+03 0.  0.
        -24    2    1    2    0    0 -0.30047910810E+01 -0.28852863586E+02  0.66021405151E+03  0.66588457960E+03  0.81720028293E+02 0.  0.
        -13    1    3    3    0    0 -0.25475486683E+02 -0.19641387088E+01  0.11666289020E+02  0.28088441788E+02  0.00000000000E+00 0.  1.
         14    1    3    3    0    0  0.43490673535E+02 -0.13532887029E+01 -0.38871472917E+02  0.58346049408E+02  0.00000000000E+00 0. -1.
         13    1    5    5    0    0  0.10347023156E+02  0.27192579148E+02  0.22569955617E+03  0.22756710418E+03  0.00000000000E+00 0. -1.
        -14    1    5    5    0    0 -0.13351814237E+02 -0.56045442733E+02  0.43451449535E+03  0.43831747542E+03  0.00000000000E+00 0.  1.
          5    1    4    4  501    0 -0.26906373290E+02 -0.44543812670E+02  0.63873021396E+02  0.82494481228E+02  0.41800000000E+01 0.  1.
         -5    1    4    4    0  501  0.11895977519E+02  0.76714103667E+02  0.87112736116E+02  0.11675902182E+03  0.41800000000E+01 0.  1.
</event>
<event>
11    1  0.8974665E-009  0.1518525E+03  0.7561462E-02  0.1095001E+00
         22   -1    0    0    0    0  0.00000000000E+00  0.00000000000E+00  0.50938313942E+03  0.50938313942E+03  0.00000000000E+00 0.  1.
         22   -1    0    0    0    0 -0.00000000000E+00 -0.00000000000E+00 -0.55684208598E+03  0.55684208598E+03  0.00000000000E+00 0. -1.
        -24    2    1    2    0    0  0.52358577653E+02  0.60699463936E+02 -0.37449833572E+03  0.39133195646E+03  0.80410516199E+02 0.  0.
         25    2    1    2    0    0 -0.41284607491E+01 -0.13086466089E+03 -0.11710113439E+03  0.21564423819E+03  0.12508860112E+03 0.  0.
         24    2    1    2    0    0 -0.48230116904E+02  0.70165196949E+02  0.44414052355E+03  0.45924903076E+03  0.79997303412E+02 0.  0.
        -13    1    5    5    0    0 -0.46048645710E+02  0.74863869958E+02  0.44534100725E+03  0.45393137096E+03  0.00000000000E+00 0.  1.
         14    1    5    5    0    0 -0.21814711937E+01 -0.46986730094E+01 -0.12004837052E+01  0.53176597996E+01  0.00000000000E+00 0. -1.
         11    1    3    3    0    0  0.67672115752E+02  0.28316826379E+02 -0.19607632169E+03  0.20934966404E+03  0.00000000000E+00 0. -1.
        -12    1    3    3    0    0 -0.15313538099E+02  0.32382637557E+02 -0.17842201403E+03  0.18198229242E+03  0.00000000000E+00 0.  1.
          5    1    4    4  501    0 -0.79571506886E+00  0.11182830023E+02  0.16623586364E+02  0.20481818117E+02  0.41800000000E+01 0.  1.
         -5    1    4    4    0  501 -0.33327456803E+01 -0.14204749091E+03 -0.13372472075E+03  0.19516242007E+03  0.41800000000E+01 0.  1.
</event>
<event>
11    1  0.8974665E-009  0.3892958E+03  0.7561462E-02  0.9681880E-01
         22   -1    0    0    0    0  0.00000000000E+00  0.00000000000E+00  0.18089809016E+04  0.18089809016E+04  0.00000000000E+00 0.  1.
         22   -1    0    0    0    0 -0.00000000000E+00 -0.00000000000E+00 -0.84438019869E+03  0.84438019869E+03  0.00000000000E+00 0. -1.
         24    2    1    2    0    0  0.16557646211E+02 -0.39013818128E+03 -0.74806274776E+03  0.84761847760E+03  0.79857703744E+02 0.  0.
         25    2    1    2    0    0 -0.32637395927E+02  0.20395820621E+03  0.33330349490E+03  0.41158625471E+03  0.12509146997E+03 0.  0.
        -24    2    1    2    0    0  0.16079749716E+02  0.18617997507E+03  0.13793599558E+04  0.13941563680E+04  0.78208371203E+02 0.  0.
        -13    1    3    3    0    0  0.37254106564E+02 -0.86161883411E+02 -0.17986416987E+03  0.20288631845E+03  0.00000000000E+00 0.  1.
         14    1    3    3    0    0 -0.20696460353E+02 -0.30397629787E+03 -0.56819857789E+03  0.64473215916E+03  0.00000000000E+00 0. -1.
         13    1    5    5    0    0 -0.16884106145E+02  0.82929347746E+02  0.40244065710E+03  0.41124303307E+03  0.00000000000E+00 0. -1.
        -14    1    5    5    0    0  0.32963855861E+02  0.10325062732E+03  0.97691929870E+03  0.98291333495E+03  0.00000000000E+00 0.  1.
          5    1    4    4  501    0 -0.43720370751E+02  0.73738173035E+01  0.60617544224E+02  0.75218369219E+02  0.41800000000E+01 0. -1.
         -5    1    4    4    0  501  0.11082974824E+02  0.19658438891E+03  0.27268595068E+03  0.33636788549E+03  0.41800000000E+01 0. -1.
</event>
<event>
11    1  0.8974665E-009  0.1321081E+03  0.7561462E-02  0.1116706E+00
         22   -1    0    0    0    0  0.00000000000E+00  0.00000000000E+00  0.31124524405E+03  0.31124524405E+03  0.00000000000E+00 0.  1.
         22   -1    0    0    0    0 -0.00000000000E+00 -0.00000000000E+00 -0.72550339484E+03  0.72550339484E+03  0.00000000000E+00 0. -1.
        -24    2    1    2    0    0  0.14368377179E+02 -0.27474798224E+02 -0.55776614668E+03  0.56432983272E+03  0.80023564788E+02 0.  0.
         25    2    1    2    0    0 -0.21263408244E+02  0.68046832387E+02 -0.12403964813E+03  0.19004168018E+03  0.12508997549E+03 0.  0.
         24    2    1    2    0    0  0.68950310653E+01 -0.40572034163E+02  0.26754764402E+03  0.28237712599E+03  0.80383257297E+02 0.  0.
        -13    1    5    5    0    0 -0.27075633867E+02 -0.47606303837E+02  0.14442451703E+03  0.15445999881E+03  0.00000000000E+00 0.  1.
         14    1    5    5    0    0  0.33970664932E+02  0.70342696740E+01  0.12312312699E+03  0.12791712718E+03  0.00000000000E+00 0. -1.
         11    1    3    3    0    0  0.29158138987E+02 -0.11395137006E+02 -0.51810227520E+03  0.51904721730E+03  0.00000000000E+00 0. -1.
        -12    1    3    3    0    0 -0.14789761808E+02 -0.16079661218E+02 -0.39663871480E+02  0.45282615428E+02  0.00000000000E+00 0.  1.
          5    1    4    4  501    0 -0.33727860364E+02 -0.52993931633E+00  0.12877343907E+02  0.36347596709E+02  0.41800000000E+01 0. -1.
         -5    1    4    4    0  501  0.12464452120E+02  0.68576771703E+02 -0.13691699204E+03  0.15369408347E+03  0.41800000000E+01 0. -1.
</event>
<event>
11    1  0.8974665E-009  0.1485084E+03  0.7561462E-02  0.1098413E+00
         22   -1    0    0    0    0  0.00000000000E+00  0.00000000000E+00  0.19240492154E+03  0.19240492154E+03  0.00000000000E+00 0. -1.
         22   -1    0    0    0    0 -0.00000000000E+00 -0.00000000000E+00 -0.76584452990E+03  0.76584452990E+03  0.00000000000E+00 0. -1.
        -24    2    1    2    0    0 -0.87643545435E+01 -0.57825109625E+02 -0.62432701965E+03  0.63276285487E+03  0.84758750736E+02 0.  0.
         25    2    1    2    0    0  0.85006251128E+02  0.66721818911E+02 -0.53122639841E+02  0.17362786599E+03  0.12508699827E+03 0.  0.
         24    2    1    2    0    0 -0.76241896584E+02 -0.88967092860E+01  0.10401005113E+03  0.15185873058E+03  0.79693193474E+02 0.  0.
        -13    1    5    5    0    0 -0.15018103061E+02 -0.15885634525E+02 -0.85996561776E+01  0.23491506767E+02  0.00000000000E+00 0.  1.
         14    1    5    5    0    0 -0.61223793523E+02  0.69889252389E+01  0.11260970730E+03  0.12836722381E+03  0.00000000000E+00 0. -1.
         13    1    3    3    0    0  0.43922475238E+01 -0.45272820997E+02 -0.12356700619E+03  0.13167279590E+03  0.00000000000E+00 0. -1.
        -14    1    3    3    0    0 -0.13156602067E+02 -0.12552288628E+02 -0.50076001345E+03  0.50109005897E+03  0.00000000000E+00 0.  1.
          5    1    4    4  501    0  0.10535781797E+03  0.14486224299E+02 -0.49264190220E+02  0.11727980790E+03  0.41800000000E+01 0.  1.
         -5    1    4    4    0  501 -0.20351566847E+02  0.52235594612E+02 -0.38584496219E+01  0.56348058095E+02  0.41800000000E+01 0.  1.
</event>
<event>
11    1  0.8974665E-009  0.1595974E+03  0.7561462E-02  0.1087457E+00
         22   -1    0    0    0    0  0.00000000000E+00  0.00000000000E+00  0.10462596888E+04  0.10462596888E+04  0.00000000000E+00 0.  1.
         22   -1    0    0    0    0 -0.00000000000E+00 -0.00000000000E+00 -0.16475564234E+04  0.16475564234E+04  0.00000000000E+00 0. -1.
         24    2    1    2    0    0  0.90315145277E+02  0.47644442838E+02 -0.15932186382E+04  0.15986167198E+04  0.82480113566E+02 0.  0.
         25    2    1    2    0    0  0.35358181996E+00 -0.14557820143E+02  0.35930514957E+02  0.13095926840E+03  0.12508905998E+03 0.  0.
        -24    2    1    2    0    0 -0.90668727097E+02 -0.33086622695E+02  0.95599138862E+03  0.96424012402E+03  0.80770904193E+02 0.  0.
        -13    1    3    3    0    0  0.21025479038E+00 -0.16644615501E+02 -0.37834734301E+03  0.37871334726E+03  0.00000000000E+00 0.  1.
         14    1    3    3    0    0  0.90104890487E+02  0.64289058339E+02 -0.12148712952E+04  0.12199033725E+04  0.00000000000E+00 0. -1.
         13    1    5    5    0    0  0.77418855540E+01  0.14545290913E+02  0.13424805306E+03  0.13525546951E+03  0.00000000000E+00 0. -1.
        -14    1    5    5    0    0 -0.98410612651E+02 -0.47631913608E+02  0.82174333556E+03  0.82898465451E+03  0.00000000000E+00 0.  1.
          5    1    4    4  501    0 -0.40657282434E+02 -0.60474973264E+01 -0.31165533069E+02  0.51752774711E+02  0.41800000000E+01 0. -1.
         -5    1    4    4    0  501  0.41010864254E+02 -0.85103228161E+01  0.67096048026E+02  0.79206493686E+02  0.41800000000E+01 0. -1.
</event>
<event>
11    1  0.8974665E-009  0.2802523E+03  0.7561462E-02  0.1008913E+00
         22   -1    0    0    0    0  0.00000000000E+00  0.00000000000E+00  0.19409176976E+04  0.19409176976E+04  0.00000000000E+00 0. -1.
         22   -1    0    0    0    0 -0.00000000000E+00 -0.00000000000E+00 -0.21727600114E+04  0.21727600114E+04  0.00000000000E+00 0.  1.
        -24    2    1    2    0    0 -0.14594668700E+02  0.27546814369E+02 -0.15817951432E+04  0.15838933355E+04  0.75302004893E+02 0.  0.
         25    2    1    2    0    0 -0.41520220150E+02  0.21735865070E+03 -0.55299245392E+03  0.60861857610E+03  0.12508878992E+03 0.  0.
         24    2    1    2    0    0  0.56114888850E+02 -0.24490546507E+03  0.19029452833E+04  0.19211657973E+04  0.80930228998E+02 0.  0.
        -13    1    5    5    0    0 -0.90852608006E+01 -0.39970602246E+02  0.51840278615E+03  0.52002080698E+03  0.00000000000E+00 0.  1.
         14    1    5    5    0    0  0.65200149650E+02 -0.20493486282E+03  0.13845424971E+04  0.14011449903E+04  0.00000000000E+00 0. -1.
         11    1    3    3    0    0 -0.45370875564E+02  0.16048335487E+02 -0.10259071549E+04  0.10270353236E+04  0.00000000000E+00 0. -1.
        -12    1    3    3    0    0  0.30776206864E+02  0.11498478882E+02 -0.55588798830E+03  0.55685801194E+03  0.00000000000E+00 0.  1.
          5    1    4    4  501    0 -0.12939071483E+02 -0.40891265060E+01 -0.23231363209E+01  0.14387838225E+02  0.41800000000E+01 0. -1.
         -5    1    4    4    0  501 -0.28581148667E+02  0.22144777721E+03 -0.55066931760E+03  0.59423073787E+03  0.41800000000E+01 0.  1.
</event>
<event>
11    1  0.8974665E-009  0.1256114E+03  0.7561462E-02  0.1124782E+00
         22   -1    0    0    0    0  0.00000000000E+00  0.00000000000E+00  0.39631362430E+03  0.39631362430E+03  0.00000000000E+00 0.  1.
         22   -1    0    0    0    0 -0.00000000000E+00 -0.00000000000E+00 -0.42144313197E+03  0.42144313197E+03  0.00000000000E+00 0. -1.
        -24    2    1    2    0    0  0.44200764295E+01  0.10135765190E+02 -0.36119778135E+03  0.37019823124E+03  0.80377996657E+02 0.  0.
         25    2    1    2    0    0 -0.26325539687E+01 -0.18736792772E+02  0.28668060088E+02  0.12971917994E+03  0.12508880938E+03 0.  0.
         24    2    1    2    0    0 -0.17875224608E+01  0.86010275821E+01  0.30740021358E+03  0.31783934509E+03  0.80310553899E+02 0.  0.
        -11    1    5    5    0    0  0.28346656595E+02  0.26304156351E+02  0.22552976918E+03  0.22882114930E+03  0.00000000000E+00 0.  1.
         12    1    5    5    0    0 -0.30134179055E+02 -0.17703128769E+02  0.81870444403E+02  0.89018195793E+02  0.00000000000E+00 0. -1.
         13    1    3    3    0    0  0.13967933784E+02 -0.32356236420E+02 -0.20654918706E+03  0.20953423559E+03  0.00000000000E+00 0. -1.
        -14    1    3    3    0    0 -0.95478573541E+01  0.42492001610E+02 -0.15464859429E+03  0.16066399564E+03  0.00000000000E+00 0.  1.
          5    1    4    4  501    0 -0.35474129026E+02 -0.45516442796E+02  0.54855637103E+02  0.79729378004E+02  0.41800000000E+01 0. -1.
         -5    1    4    4    0  501  0.32841575057E+02  0.26779650024E+02 -0.26187577015E+02  0.49989801935E+02  0.41800000000E+01 0. -1.
</event>
<event>
11    1  0.8974665E-009  0.1324076E+03  0.7561462E-02  0.1116346E+00
         22   -1    0    0    0    0  0.00000000000E+00  0.00000000000E+00  0.39924926133E+03  0.39924926133E+03  0.00000000000E+00 0.  1.
         22   -1    0    0    0    0 -0.00000000000E+00 -0.00000000000E+00 -0.30657404792E+03  0.30657404792E+03  0.00000000000E+00 0.  1.
        -24    2    1    2    0    0 -0.18141252759E+02 -0.32999869936E+02 -0.26557576545E+03  0.27955809479E+03  0.78766393233E+02 0.  0.
         25    2    1    2    0    0 -0.61917034374E+01 -0.16858400621E+02  0.14975943032E+03  0.19595227989E+03  0.12508743407E+03 0.  0.
         24    2    1    2    0    0  0.24332956196E+02  0.49858270558E+02  0.20849154854E+03  0.23031293457E+03  0.80606340429E+02 0.  0.
        -13    1    5    5    0    0  0.64474482861E+00  0.20316081228E+02  0.18421427516E+03  0.18533229083E+03  0.00000000000E+00 0.  1.
         14    1    5    5    0    0  0.23688211368E+02  0.29542189330E+02  0.24277273376E+02  0.44980643735E+02  0.00000000000E+00 0. -1.
         13    1    3    3    0    0 -0.35994822610E+02  0.12019904168E+02 -0.13717237466E+03  0.14232485982E+03  0.00000000000E+00 0. -1.
        -14    1    3    3    0    0  0.17853569852E+02 -0.45019774104E+02 -0.12840339078E+03  0.13723323498E+03  0.00000000000E+00 0.  1.
          5    1    4    4  501    0  0.57139161979E+02  0.28660220884E+01  0.50088132028E+02  0.76153734540E+02  0.41800000000E+01 0. -1.
         -5    1    4    4    0  501 -0.63330865416E+02 -0.19724422710E+02  0.99671298292E+02  0.11979854535E+03  0.41800000000E+01 0. -1.
</event>
<event>
11    1  0.8974665E-009  0.1677312E+03  0.7561462E-02  0.1080023E+00
         22   -1    0    0    0    0  0.00000000000E+00  0.00000000000E+00  0.25668822296E+03  0.25668822296E+03  0.00000000000E+00 0.  1.
         22   -1    0    0    0    0 -0.00000000000E+00 -0.00000000000E+00 -0.12986674419E+04  0.12986674419E+04  0.00000000000E+00 0. -1.
        -24    2    1    2    0    0 -0.91883941326E+02 -0.58435965815E+02 -0.11485618041E+04  0.11565287509E+04  0.80666678211E+02 0.  0.
         25    2    1    2    0    0  0.16173759402E+03  0.80516304923E+02 -0.32650723837E+02  0.22215670280E+03  0.12508239745E+03 0.  0.
         24    2    1    2    0    0 -0.69853652699E+02 -0.22080339108E+02  0.13923330905E+03  0.17667021113E+03  0.80370236906E+02 0.  0.
        -13    1    5    5    0    0 -0.71784211066E+02 -0.38977215577E+02  0.13701978183E+03  0.15951995770E+03  0.00000000000E+00 0.  1.
         14    1    5    5    0    0  0.19305583672E+01  0.16896876469E+02  0.22135272282E+01  0.17150253432E+02  0.00000000000E+00 0. -1.
         11    1    3    3    0    0 -0.53516285066E+02 -0.14746451443E+02 -0.87978587907E+03  0.88153538988E+03  0.00000000000E+00 0. -1.
        -12    1    3    3    0    0 -0.38367656260E+02 -0.43689514372E+02 -0.26877592505E+03  0.27499336101E+03  0.00000000000E+00 0.  1.
          5    1    4    4  501    0  0.74616888193E+02  0.10402974351E+03 -0.31081988721E+02  0.13180830763E+03  0.41800000000E+01 0. -1.
         -5    1    4    4    0  501  0.87120705832E+02 -0.23513438586E+02 -0.15687351158E+01  0.90348395164E+02  0.41800000000E+01 0. -1.
</event>
<event>
11    1  0.8974665E-009  0.1683264E+03  0.7561462E-02  0.1079497E+00
         22   -1    0    0    0    0  0.00000000000E+00  0.00000000000E+00  0.53002148156E+03  0.53002148156E+03  0.00000000000E+00 0.  1.
         22   -1    0    0    0    0 -0.00000000000E+00 -0.00000000000E+00 -0.15493107449E+03  0.15493107449E+03  0.00000000000E+00 0. -1.
        -24    2    1    2    0    0  0.21976542102E+02  0.76612289735E+00 -0.93158946508E+02  0.12425966078E+03  0.79235841869E+02 0.  0.
         25    2    1    2    0    0  0.66066635836E+02  0.80358002630E+02  0.22704735105E+03  0.27931730307E+03  0.12508176214E+03 0.  0.
         24    2    1    2    0    0 -0.88043177938E+02 -0.81124125527E+02  0.24120200253E+03  0.28137559219E+03  0.81615518951E+02 0.  0.
        -13    1    5    5    0    0 -0.67584070192E+02 -0.60663808576E+02  0.23478610690E+03  0.25173839637E+03  0.00000000000E+00 0.  1.
         14    1    5    5    0    0 -0.20459107746E+02 -0.20460316952E+02  0.64158956327E+01  0.29637195824E+02  0.00000000000E+00 0. -1.
         11    1    3    3    0    0 -0.15112021959E+02 -0.27074738484E+02 -0.17738830292E+02  0.35722272769E+02  0.00000000000E+00 0. -1.
        -12    1    3    3    0    0  0.37088564061E+02  0.27840861381E+02 -0.75420116216E+02  0.88537388015E+02  0.00000000000E+00 0.  1.
          5    1    4    4  501    0  0.78189730819E+02  0.95375722143E+02  0.12601442521E+03  0.17637253228E+03  0.41800000000E+01 0.  1.
         -5    1    4    4    0  501 -0.12123094983E+02 -0.15017719513E+02  0.10103292583E+03  0.10294477079E+03  0.41800000000E+01 0.  1.
</event>
<event>
11    1  0.8974665E-009  0.1276549E+03  0.7561462E-02  0.1122184E+00
         22   -1    0    0    0    0  0.00000000000E+00  0.00000000000E+00  0.17438834653E+04  0.17438834653E+04  0.00000000000E+00 0.  1.
         22   -1    0    0    0    0 -0.00000000000E+00 -0.00000000000E+00 -0.10173665526E+03  0.10173665526E+03  0.00000000000E+00 0. -1.
         24    2    1    2    0    0 -0.20314465988E+02 -0.11393942237E+02 -0.49958378266E+02  0.12264319390E+03  0.10955826762E+03 0.  0.
         25    2    1    2    0    0  0.24112610188E+02  0.40556592707E+02  0.30208530134E+03  0.33036565959E+03  0.12513866138E+03 0.  0.
        -24    2    1    2    0    0 -0.37981442008E+01 -0.29162650470E+02  0.13900198870E+04  0.13926112671E+04  0.79661589887E+02 0.  0.
        -13    1    3    3    0    0 -0.57949103916E+02 -0.12320854000E+02  0.10417912659E+01  0.59253585689E+02  0.00000000000E+00 0.  1.
         14    1    3    3    0    0  0.37634637928E+02  0.92691176292E+00 -0.51000169532E+02  0.63389608215E+02  0.00000000000E+00 0. -1.
         13    1    5    5    0    0 -0.47322837488E+01  0.24639450861E+02  0.71886359971E+03  0.71930130824E+03  0.00000000000E+00 0. -1.
        -14    1    5    5    0    0  0.93413954805E+00 -0.53802101331E+02  0.67115628728E+03  0.67330995884E+03  0.00000000000E+00 0.  1.
          5    1    4    4  501    0  0.10377791384E+02 -0.36386791490E+02  0.33840763330E+02  0.50934927228E+02  0.41800000000E+01 0. -1.
         -5    1    4    4    0  501  0.13734818804E+02  0.76943384197E+02  0.26824453801E+03  0.27943073237E+03  0.41800000000E+01 0. -1.
</event>
<event>
11    1  0.8974665E-009  0.1686343E+03  0.7561462E-02  0.1079226E+00
         22   -1    0    0    0    0  0.00000000000E+00  0.00000000000E+00  0.20611286954E+03  0.20611286954E+03  0.00000000000E+00 0.  1.
         22   -1    0    0    0    0 -0.00000000000E+00 -0.00000000000E+00 -0.22418610543E+04  0.22418610543E+04  0.00000000000E+00 0. -1.
         24    2    1    2    0    0 -0.13616428103E+02  0.11220908470E+03 -0.21307999151E+04  0.21354030305E+04  0.82834406205E+02 0.  0.
         25    2    1    2    0    0  0.36223234855E+02 -0.11159410780E+03 -0.16858736962E+02  0.17232722079E+03  0.12508831430E+03 0.  0.
        -24    2    1    2    0    0 -0.22606806752E+02 -0.61497690600E+00  0.11191046730E+03  0.14024367251E+03  0.81442550791E+02 0.  0.
        -13    1    3    3    0    0  0.24860098990E+02  0.19750268615E+02 -0.89081802786E+03  0.89138367519E+03  0.00000000000E+00 0.  1.
         14    1    3    3    0    0 -0.38476527093E+02  0.92458816086E+02 -0.12399818872E+04  0.12440193553E+04  0.00000000000E+00 0. -1.
         11    1    5    5    0    0 -0.35414642170E+02 -0.33255423048E+02  0.74771683505E+02  0.89167957789E+02  0.00000000000E+00 0. -1.
        -12    1    5    5    0    0  0.12807835417E+02  0.32640446142E+02  0.37138783800E+02  0.51075714724E+02  0.00000000000E+00 0.  1.
          5    1    4    4  501    0  0.41563580872E+02  0.23065646480E+01 -0.37723542306E+02  0.56332846009E+02  0.41800000000E+01 0.  1.
         -5    1    4    4    0  501 -0.53403460167E+01 -0.11390067244E+03  0.20864805343E+02  0.11599437478E+03  0.41800000000E+01 0.  1.
</event>
<event>
11    1  0.8974665E-009  0.1571830E+03  0.7561462E-02  0.1089757E+00
         22   -1    0    0    0    0  0.00000000000E+00  0.00000000000E+00  0.21728798399E+04  0.21728798399E+04  0.00000000000E+00 0. -1.
         22   -1    0    0    0    0 -0.00000000000E+00 -0.00000000000E+00 -0.16284459660E+03  0.16284459660E+03  0.00000000000E+00 0. -1.
        -24    2    1    2    0    0 -0.18479032125E+02 -0.46907867841E+02 -0.11983332009E+03  0.16674480420E+03  0.10441255877E+03 0.  0.
         25    2    1    2    0    0 -0.63905599066E+02  0.92753407016E+02  0.39007161890E+03  0.42484074375E+03  0.12508664824E+03 0.  0.
         24    2    1    2    0    0  0.82384631191E+02 -0.45845539175E+02  0.17397969445E+04  0.17441388885E+04  0.78981096544E+02 0.  0.
        -11    1    5    5    0    0 -0.82785066903E+01  0.16945530652E+01  0.27138510556E+02  0.28423651038E+02  0.00000000000E+00 0.  1.
         12    1    5    5    0    0  0.90663137881E+02 -0.47540092240E+02  0.17126584339E+04  0.17157152375E+04  0.00000000000E+00 0. -1.
         11    1    3    3    0    0 -0.42886881507E+02 -0.62425159149E+02 -0.11457957340E+03  0.13734869399E+03  0.00000000000E+00 0. -1.
        -12    1    3    3    0    0  0.24407849381E+02  0.15517291308E+02 -0.52537466871E+01  0.29396110205E+02  0.00000000000E+00 0.  1.
          5    1    4    4  501    0 -0.88341827081E+02  0.39046087501E+02  0.15698689559E+03  0.18436711514E+03  0.41800000000E+01 0. -1.
         -5    1    4    4    0  501  0.24436228016E+02  0.53707319515E+02  0.23308472332E+03  0.24047362860E+03  0.41800000000E+01 0. -1.
</event>
<event>
11    1  0.8974665E-009  0.2091884E+03  0.7561462E-02  0.1048210E+00
         22   -1    0    0    0    0  0.00000000000E+00  0.00000000000E+00  0.19531771442E+04  0.19531771442E+04  0.00000000000E+00 0.  1.
         22   -1    0    0    0    0 -0.00000000000E+00 -0.00000000000E+00 -0.13840132403E+04  0.13840132403E+04  0.00000000000E+00 0.  1.
        -24    2    1    2    0    0 -0.51946888890E+01  0.10259450675E+03 -0.13422759965E+04  0.13485266747E+04  0.79162642667E+02 0.  0.
         25    2    1    2    0    0 -0.30174978437E+02  0.76255937176E+02  0.13620245697E+03  0.20229279996E+03  0.12508305383E+03 0.  0.
         24    2    1    2    0    0  0.35369667326E+02 -0.17885044393E+03  0.17752374435E+04  0.17863709098E+04  0.80090897760E+02 0.  0.
        -11    1    5    5    0    0  0.30288818040E+02 -0.18687218699E+03  0.17097288034E+04  0.17201776675E+04  0.00000000000E+00 0.  1.
         12    1    5    5    0    0  0.50808492860E+01  0.80217430609E+01  0.65508640166E+02  0.66193242311E+02  0.00000000000E+00 0. -1.
         11    1    3    3    0    0 -0.37231521860E+02  0.24749588940E+02 -0.39678306451E+03  0.39929378740E+03  0.00000000000E+00 0. -1.
        -12    1    3    3    0    0  0.32036832971E+02  0.77844917811E+02 -0.94549293203E+03  0.94923288734E+03  0.00000000000E+00 0.  1.
          5    1    4    4  501    0 -0.21120132163E+02  0.10017342604E+03  0.53422776824E+02  0.11555189636E+03  0.41800000000E+01 0. -1.
         -5    1    4    4    0  501 -0.90548462745E+01 -0.23917488867E+02  0.82779680141E+02  0.86740903609E+02  0.41800000000E+01 0. -1.
</event>
<event>
11    1  0.8974665E-009  0.1661827E+03  0.7561462E-02  0.1081402E+00
         22   -1    0    0    0    0  0.00000000000E+00  0.00000000000E+00  0.62547485391E+03  0.62547485391E+03  0.00000000000E+00 0. -1.
         22   -1    0    0    0    0 -0.00000000000E+00 -0.00000000000E+00 -0.26196601014E+03  0.26196601014E+03  0.00000000000E+00 0.  1.
        -24    2    1    2    0    0 -0.66446310858E+02 -0.79343375016E+02 -0.97057867896E+02  0.16549715042E+03  0.85197380784E+02 0.  0.
         25    2    1    2    0    0  0.11415159451E+03  0.55590973502E+02 -0.63439487402E+02  0.18919045583E+03  0.12509003618E+03 0.  0.
         24    2    1    2    0    0 -0.47705283648E+02  0.23752401514E+02  0.52400619907E+03  0.53275325780E+03  0.80022286672E+02 0.  0.
        -11    1    5    5    0    0 -0.33522627188E+02  0.35923706783E+01  0.66262928558E+02  0.74346804651E+02  0.00000000000E+00 0.  1.
         12    1    5    5    0    0 -0.14182656460E+02  0.20160030836E+02  0.45774327051E+03  0.45840645315E+03  0.00000000000E+00 0. -1.
         11    1    3    3    0    0 -0.65948508528E+02 -0.49081547862E+02 -0.22804836504E+02  0.85312746325E+02  0.00000000000E+00 0. -1.
        -12    1    3    3    0    0 -0.49780232966E+00 -0.30261827155E+02 -0.74253031392E+02  0.80184404099E+02  0.00000000000E+00 0.  1.
          5    1    4    4  501    0  0.94125924594E+02  0.58970358318E+02  0.11209509121E+02  0.11171534512E+03  0.41800000000E+01 0. -1.
         -5    1    4    4    0  501  0.20025669911E+02 -0.33793848157E+01 -0.74648996522E+02  0.77475110706E+02  0.41800000000E+01 0. -1.
</event>
<event>
11    1  0.8974665E-009  0.1691308E+03  0.7561462E-02  0.1078791E+00
         22   -1    0    0    0    0  0.00000000000E+00  0.00000000000E+00  0.61150586504E+02  0.61150586504E+02  0.00000000000E+00 0.  1.
         22   -1    0    0    0    0 -0.00000000000E+00 -0.00000000000E+00 -0.28517932660E+04  0.28517932660E+04  0.00000000000E+00 0.  1.
        -24    2    1    2    0    0 -0.39785244829E+02 -0.12125384464E+02 -0.23907872572E+04  0.23924294218E+04  0.78261986094E+02 0.  0.
         25    2    1    2    0    0  0.11865783680E+03 -0.61014290531E+02 -0.30690983423E+03  0.35727264904E+03  0.12509066121E+03 0.  0.
         24    2    1    2    0    0 -0.78872591968E+02  0.73139674996E+02 -0.92945588044E+02  0.16324178164E+03  0.80241504931E+02 0.  0.
        -13    1    5    5    0    0 -0.65537165185E+02  0.41565249458E+02 -0.16326031946E+02  0.79305291766E+02  0.00000000000E+00 0.  1.
         14    1    5    5    0    0 -0.13335426782E+02  0.31574425538E+02 -0.76619556098E+02  0.83936489873E+02  0.00000000000E+00 0. -1.
         13    1    3    3    0    0 -0.88671519149E+01  0.26950866767E+02 -0.39385899857E+03  0.39487958463E+03  0.00000000000E+00 0. -1.
        -14    1    3    3    0    0 -0.30918092914E+02 -0.39076251231E+02 -0.19969282587E+04  0.19975498372E+04  0.00000000000E+00 0.  1.
          5    1    4    4  501    0 -0.14381335612E+01 -0.52870938601E+02 -0.47278743512E+02  0.71064452188E+02  0.41800000000E+01 0. -1.
         -5    1    4    4    0  501  0.12009597036E+03 -0.81433519302E+01 -0.25963109072E+03  0.28620819685E+03  0.41800000000E+01 0. -1.
</event>
<event>
11    1  0.8974665E-009  0.1702732E+03  0.7561462E-02  0.1077794E+00
         22   -1    0    0    0    0  0.00000000000E+00  0.00000000000E+00  0.39213080711E+03  0.39213080711E+03  0.00000000000E+00 0. -1.
         22   -1    0    0    0    0 -0.00000000000E+00 -0.00000000000E+00 -0.71393493988E+03  0.71393493988E+03  0.00000000000E+00 0.  1.
        -24    2    1    2    0    0 -0.13781961881E+02  0.10701676622E+02 -0.56929303017E+03  0.57520367610E+03  0.80375658266E+02 0.  0.
         25    2    1    2    0    0  0.26049106505E+02 -0.12421313305E+03 -0.63083224717E+02  0.18903876302E+03  0.12509477332E+03 0.  0.
         24    2    1    2    0    0 -0.12267144625E+02  0.11351145643E+03  0.31057212212E+03  0.34182330788E+03  0.85748453025E+02 0.  0.
        -13    1    5    5    0    0  0.48374853503E+01  0.84275904481E+02  0.11128840317E+03  0.13968155935E+03  0.00000000000E+00 0.  1.
         14    1    5    5    0    0 -0.17104629975E+02  0.29235551947E+02  0.19928371894E+03  0.20214174853E+03  0.00000000000E+00 0. -1.
         13    1    3    3    0    0 -0.43072498199E+02 -0.12507729735E+02 -0.31756318714E+03  0.32071492206E+03  0.00000000000E+00 0. -1.
        -14    1    3    3    0    0  0.29290536319E+02  0.23209406357E+02 -0.25172984303E+03  0.25448875404E+03  0.00000000000E+00 0.  1.
          5    1    4    4  501    0 -0.12045829096E+02 -0.13139732820E+03 -0.70021558364E+02  0.14943510596E+03  0.41800000000E+01 0. -1.
         -5    1    4    4    0  501  0.38094935601E+02  0.71841951549E+01  0.69383336468E+01  0.39603657057E+02  0.41800000000E+01 0. -1.
</event>
<event>
11    1  0.8974665E-009  0.1358595E+03  0.7561462E-02  0.1112272E+00
         22   -1    0    0    0    0  0.00000000000E+00  0.00000000000E+00  0.15507947071E+04  0.15507947071E+04  0.00000000000E+00 0.  1.
         22   -1    0    0    0    0 -0.00000000000E+00 -0.00000000000E+00 -0.36017714956E+03  0.36017714956E+03  0.00000000000E+00 0.  1.
         24    2    1    2    0    0 -0.25330030330E+02 -0.48280412440E+02 -0.22933541081E+03  0.24931645553E+03  0.81187164513E+02 0.  0.
         25    2    1    2    0    0  0.71253413459E+02  0.21912648710E+02 -0.74692725395E+02  0.16368342713E+03  0.12512413032E+03 0.  0.
        -24    2    1    2    0    0 -0.45923383130E+02  0.26367763729E+02  0.14946456937E+04  0.14979719740E+04  0.84558080321E+02 0.  0.
        -11    1    3    3    0    0 -0.28560935638E+01 -0.93978968790E+01 -0.18807088349E+03  0.18832720184E+03  0.00000000000E+00 0.  1.
         12    1    3    3    0    0 -0.22473936766E+02 -0.38882515561E+02 -0.41264527324E+02  0.60989253687E+02  0.00000000000E+00 0. -1.
         11    1    5    5    0    0 -0.36349587009E+01  0.45657781395E+02  0.45793583808E+03  0.46022068372E+03  0.00000000000E+00 0. -1.
        -12    1    5    5    0    0 -0.42288424429E+02 -0.19290017666E+02  0.10367098557E+04  0.10377512903E+04  0.00000000000E+00 0.  1.
          5    1    4    4  501    0  0.28495432178E+02 -0.43079001149E+02 -0.67992133838E+02  0.85487967919E+02  0.41800000000E+01 0. -1.
         -5    1    4    4    0  501  0.42757981281E+02  0.64991649860E+02 -0.67005915572E+01  0.78195459216E+02  0.41800000000E+01 0. -1.
</event>
<event>
11    1  0.8974665E-009  0.1339285E+03  0.7561462E-02  0.1114534E+00
         22   -1    0    0    0    0  0.00000000000E+00  0.00000000000E+00  0.20649215636E+03  0.20649215636E+03  0.00000000000E+00 0. -1.
         22   -1    0    0    0    0 -0.00000000000E+00 -0.00000000000E+00 -0.27847502849E+03  0.27847502849E+03  0.00000000000E+00 0. -1.
         24    2    1    2    0    0 -0.43381110852E+02 -0.26010225205E+00 -0.42349447069E+02  0.10003341693E+03  0.79568966336E+02 0.  0.
         25    2    1    2    0    0  0.45045037777E+02 -0.33474679385E+02 -0.17074663559E+03  0.21897815237E+03  0.12508960013E+03 0.  0.
        -24    2    1    2    0    0 -0.16639269252E+01  0.33734781637E+02  0.14111321053E+03  0.16595561555E+03  0.80545167468E+02 0.  0.
        -13    1    3    3    0    0  0.16283107851E+02 -0.19994195821E+02 -0.31760145343E+01  0.25980656961E+02  0.00000000000E+00 0.  1.
         14    1    3    3    0    0 -0.59664218703E+02  0.19734093569E+02 -0.39173432534E+02  0.74052759969E+02  0.00000000000E+00 0. -1.
         13    1    5    5    0    0 -0.36594143858E+02  0.18746953314E+02  0.10793829498E+03  0.11550435120E+03  0.00000000000E+00 0. -1.
        -14    1    5    5    0    0  0.34930216933E+02  0.14987828324E+02  0.33174915548E+02  0.50451264350E+02  0.00000000000E+00 0.  1.
          5    1    4    4  501    0 -0.29654880996E+02 -0.51897640181E+02 -0.79478516305E+02  0.99534335670E+02  0.41800000000E+01 0.  1.
         -5    1    4    4    0  501  0.74699918773E+02  0.18422960796E+02 -0.91268119287E+02  0.11944381670E+03  0.41800000000E+01 0.  1.
</event>
<event>
11    1  0.8974665E-009  0.1296386E+03  0.7561462E-02  0.1119714E+00
         22   -1    0    0    0    0  0.00000000000E+00  0.00000000000E+00  0.25415270192E+04  0.25415270192E+04  0.00000000000E+00 0.  1.
         22   -1    0    0    0    0 -0.00000000000E+00 -0.00000000000E+00 -0.33654994049E+03  0.33654994049E+03  0.00000000000E+00 0. -1.
         24    2    1    2    0    0  0.10466182670E+02 -0.37499793264E+02 -0.25412323584E+03  0.26934971749E+03  0.80342241959E+02 0.  0.
         25    2    1    2    0    0 -0.14745206913E+01 -0.24474050771E+00 -0.21153377940E+02  0.12687129612E+03  0.12508647518E+03 0.  0.
        -24    2    1    2    0    0 -0.89916619784E+01  0.37744533771E+02  0.24802536925E+04  0.24818559461E+04  0.80281119772E+02 0.  0.
        -13    1    3    3    0    0  0.20994696183E+02 -0.13967361092E+02 -0.16063584299E+02  0.29898213730E+02  0.00000000000E+00 0.  1.
         14    1    3    3    0    0 -0.10528513513E+02 -0.23532432172E+02 -0.23805965154E+03  0.23945150376E+03  0.00000000000E+00 0. -1.
         13    1    5    5    0    0 -0.19753230636E+02  0.49388326830E+02  0.92921774691E+03  0.93073896347E+03  0.00000000000E+00 0. -1.
        -14    1    5    5    0    0  0.10761568658E+02 -0.11643793059E+02  0.15510359456E+04  0.15511169826E+04  0.00000000000E+00 0.  1.
          5    1    4    4  501    0  0.20840815129E+02  0.68941535269E+01  0.48426612643E+02  0.53333649229E+02  0.41800000000E+01 0. -1.
         -5    1    4    4    0  501 -0.22315335820E+02 -0.71388940346E+01 -0.69579990583E+02  0.73537646891E+02  0.41800000000E+01 0. -1.
</event>
<event>
11    1  0.8974665E-009  0.6231173E+03  0.7561462E-02  0.9153966E-01
         22   -1    0    0    0    0  0.00000000000E+00  0.00000000000E+00  0.18821990922E+04  0.18821990922E+04  0.00000000000E+00 0. -1.
         22   -1    0    0    0    0 -0.00000000000E+00 -0.00000000000E+00 -0.30674272927E+04  0.30674272927E+04  0.00000000000E+00 0. -1.
         24    2    1    2    0    0 -0.27429256672E+03  0.63572890162E+02 -0.24583782124E+04  0.24757747986E+04  0.80990701933E+02 0.  0.
         25    2    1    2    0    0 -0.19293125412E+03 -0.11767017386E+02 -0.54628378878E+03  0.59281916006E+03  0.12509055573E+03 0.  0.
        -24    2    1    2    0    0  0.46722382084E+03 -0.51805872776E+02  0.18194338007E+04  0.18810324262E+04  0.83436718242E+02 0.  0.
        -11    1    3    3    0    0 -0.12367884011E+03 -0.85699265976E+01 -0.90692267876E+03  0.91535711303E+03  0.00000000000E+00 0.  1.
         12    1    3    3    0    0 -0.15061372661E+03  0.72142816759E+02 -0.15514555337E+04  0.15604176856E+04  0.00000000000E+00 0. -1.
         11    1    5    5    0    0  0.37878846796E+03 -0.40641153672E+02  0.15872018487E+04  0.16322812611E+04  0.00000000000E+00 0. -1.
        -12    1    5    5    0    0  0.88435352887E+02 -0.11164719104E+02  0.23223195204E+03  0.24875116510E+03  0.00000000000E+00 0.  1.
          5    1    4    4  501    0 -0.74947763402E+02  0.27568025115E+02 -0.92457217623E+02  0.12224145262E+03  0.41800000000E+01 0.  1.
         -5    1    4    4    0  501 -0.11798349072E+03 -0.39335042501E+02 -0.45382657116E+03  0.47057770744E+03  0.41800000000E+01 0.  1.
</event>
<event>
11    1  0.8974665E-009  0.4016000E+03  0.7561462E-02  0.9645049E-01
         22   -1    0    0    0    0  0.00000000000E+00  0.00000000000E+00  0.40326765263E+03  0.40326765263E+03  0.00000000000E+00 0. -1.
         22   -1    0    0    0    0 -0.00000000000E+00 -0.00000000000E+00 -0.10033088149E+04  0.10033088149E+04  0.00000000000E+00 0. -1.
        -24    2    1    2    0    0  0.18243700300E+03 -0.51542717264E+02 -0.88845547301E+03  0.91214207934E+03  0.81915405329E+02 0.  0.
         25    2    1    2    0    0 -0.41018409396E+02 -0.18473144503E+02 -0.25291828752E+02  0.13532053499E+03  0.12509278002E+03 0.  0.
         24    2    1    2    0    0 -0.14141859360E+03  0.70015861767E+02  0.31370613950E+03  0.35911385318E+03  0.75165005610E+02 0.  0.
        -13    1    5    5    0    0 -0.13221162711E+03  0.55505724300E+02  0.21182840266E+03  0.25579693499E+03  0.00000000000E+00 0.  1.
         14    1    5    5    0    0 -0.92069664876E+01  0.14510137467E+02  0.10187773684E+03  0.10331691819E+03  0.00000000000E+00 0. -1.
         13    1    3    3    0    0  0.10351557901E+03 -0.70266785264E+02 -0.56255242429E+03  0.57629690810E+03  0.00000000000E+00 0. -1.
        -14    1    3    3    0    0  0.78921423987E+02  0.18724068000E+02 -0.32590304871E+03  0.33584517124E+03  0.00000000000E+00 0.  1.
          5    1    4    4  501    0  0.12158144134E+02  0.26189691640E+00 -0.64983369134E+02  0.66243488153E+02  0.41800000000E+01 0. -1.
         -5    1    4    4    0  501 -0.53176553531E+02 -0.18735041420E+02  0.39691540382E+02  0.69077046841E+02  0.41800000000E+01 0. -1.
</event>
<event>
11    1  0.8974665E-009  0.1940269E+03  0.7561462E-02  0.1058830E+00
         22   -1    0    0    0    0  0.00000000000E+00  0.00000000000E+00  0.22798406820E+04  0.22798406820E+04  0.00000000000E+00 0.  1.
         22   -1    0    0    0    0 -0.00000000000E+00 -0.00000000000E+00 -0.20148974315E+03  0.20148974315E+03  0.00000000000E+00 0. -1.
        -24    2    1    2    0    0  0.26020091512E+02  0.43402027083E+02 -0.14844775114E+03  0.17618605798E+03  0.80274598048E+02 0.  0.
         25    2    1    2    0    0  0.99443258964E+02  0.43822386280E+02  0.15879269894E+03  0.22950302607E+03  0.12508858639E+03 0.  0.
         24    2    1    2    0    0 -0.12546335048E+03 -0.87224413363E+02  0.20680059911E+04  0.20756413411E+04  0.91044205025E+02 0.  0.
        -11    1    5    5    0    0 -0.13359960961E+03 -0.96695402267E+02  0.18791937142E+04  0.18864166751E+04  0.00000000000E+00 0.  1.
         12    1    5    5    0    0  0.81362591385E+01  0.94709889044E+01  0.18881227688E+03  0.18922466606E+03  0.00000000000E+00 0. -1.
         13    1    3    3    0    0  0.49701235844E+02  0.81402476159E+01 -0.62091772171E+02  0.79949137875E+02  0.00000000000E+00 0. -1.
        -14    1    3    3    0    0 -0.23681144332E+02  0.35261779467E+02 -0.86355978966E+02  0.96236920104E+02  0.00000000000E+00 0.  1.
          5    1    4    4  501    0  0.12729592061E+03  0.27148425418E+02  0.14215469841E+03  0.19278671916E+03  0.41800000000E+01 0.  1.
         -5    1    4    4    0  501 -0.27852661642E+02  0.16673960862E+02  0.16638000536E+02  0.36716306911E+02  0.41800000000E+01 0.  1.
</event>
<event>
11    1  0.8974665E-009  0.1348899E+03  0.7561462E-02  0.1113403E+00
         22   -1    0    0    0    0  0.00000000000E+00  0.00000000000E+00  0.18733582712E+03  0.18733582712E+03  0.00000000000E+00 0. -1.
         22   -1    0    0    0    0 -0.00000000000E+00 -0.00000000000E+00 -0.95549433482E+03  0.95549433482E+03  0.00000000000E+00 0.  1.
         24    2    1    2    0    0 -0.56890938608E+02 -0.61301453833E+01 -0.84121398266E+03  0.84685617445E+03  0.79058573227E+02 0.  0.
         25    2    1    2    0    0  0.38259966473E+01  0.31033572441E+02 -0.47314101244E+02  0.13734274712E+03  0.12508671049E+03 0.  0.
        -24    2    1    2    0    0  0.53064941961E+02 -0.24903427057E+02  0.12036957621E+03  0.15863124037E+03  0.85082117990E+02 0.  0.
        -13    1    3    3    0    0  0.10191162288E+02 -0.25644241946E+02 -0.25878209258E+03  0.26024922358E+03  0.00000000000E+00 0.  1.
         14    1    3    3    0    0 -0.67082100896E+02  0.19514096563E+02 -0.58243189008E+03  0.58660695087E+03  0.00000000000E+00 0. -1.
         13    1    5    5    0    0 -0.17122899547E+02 -0.20100497146E+02  0.61387608947E+02  0.66825610410E+02  0.00000000000E+00 0. -1.
        -14    1    5    5    0    0  0.70187841508E+02 -0.48029299117E+01  0.58981967261E+02  0.91805629965E+02  0.00000000000E+00 0.  1.
          5    1    4    4  501    0  0.32029527251E+02  0.30848329655E+02 -0.81433492115E+02  0.92878394131E+02  0.41800000000E+01 0. -1.
         -5    1    4    4    0  501 -0.28203530604E+02  0.18524278592E+00  0.34119390871E+02  0.44464352990E+02  0.41800000000E+01 0. -1.
</event>
<event>
11    1  0.8974665E-009  0.1667039E+03  0.7561462E-02  0.1080936E+00
         22   -1    0    0    0    0  0.00000000000E+00  0.00000000000E+00  0.15795083949E+03  0.15795083949E+03  0.00000000000E+00 0. -1.
         22   -1    0    0    0    0 -0.00000000000E+00 -0.00000000000E+00 -0.58218806143E+03  0.58218806143E+03  0.00000000000E+00 0.  1.
        -24    2    1    2    0    0 -0.10627542076E+03  0.18164835606E+02 -0.39198862885E+03  0.41308047449E+03  0.73184472042E+02 0.  0.
         25    2    1    2    0    0  0.12869179974E+03  0.42471598829E+02 -0.98425980778E+02  0.20904898365E+03  0.12509351640E+03 0.  0.
         24    2    1    2    0    0 -0.22416378984E+02 -0.60636434435E+02  0.66177387681E+02  0.11800944278E+03  0.73263297198E+02 0.  0.
        -13    1    5    5    0    0 -0.21468667979E+02  0.94597260739E+01  0.30226529105E+01  0.23654313620E+02  0.00000000000E+00 0.  1.
         14    1    5    5    0    0 -0.94771100436E+00 -0.70096160509E+02  0.63154734771E+02  0.94355129157E+02  0.00000000000E+00 0. -1.
         11    1    3    3    0    0 -0.84743137505E+02  0.44959925980E+02 -0.28981297755E+03  0.30527750696E+03  0.00000000000E+00 0. -1.
        -12    1    3    3    0    0 -0.21532283251E+02 -0.26795090374E+02 -0.10217565129E+03  0.10780296753E+03  0.00000000000E+00 0.  1.
          5    1    4    4  501    0  0.14724165235E+03  0.15327608243E+02 -0.64219490096E+02  0.16142073928E+03  0.41800000000E+01 0. -1.
         -5    1    4    4    0  501 -0.18549852614E+02  0.27143990586E+02 -0.34206490682E+02  0.47628244369E+02  0.41800000000E+01 0. -1.
</event>
<event>
11    1  0.8974665E-009  0.2392643E+03  0.7561462E-02  0.1029779E+00
         22   -1    0    0    0    0  0.00000000000E+00  0.00000000000E+00  0.21552112170E+04  0.21552112170E+04  0.00000000000E+00 0.  1.
         22   -1    0    0    0    0 -0.00000000000E+00 -0.00000000000E+00 -0.18293350098E+04  0.18293350098E+04  0.00000000000E+00 0.  1.
         24    2    1    2    0    0 -0.14879812354E+02 -0.23548967285E+02 -0.18038774469E+04  0.18058595205E+04  0.79867400430E+02 0.  0.
         25    2    1    2    0    0  0.98238945232E+02  0.19559982059E+03  0.11927851852E+04  0.12191367176E+04  0.12509059967E+03 0.  0.
        -24    2    1    2    0    0 -0.83359132879E+02 -0.17205085331E+03  0.93696846899E+03  0.95954998855E+03  0.79221382801E+02 0.  0.
        -11    1    3    3    0    0  0.18217482919E+02  0.17758936325E+02 -0.30912002960E+03  0.31016519663E+03  0.00000000000E+00 0.  1.
         12    1    3    3    0    0 -0.33097295273E+02 -0.41307903610E+02 -0.14947574174E+04  0.14956943239E+04  0.00000000000E+00 0. -1.
         13    1    5    5    0    0 -0.23632304879E+02 -0.10226172996E+02  0.24730516495E+03  0.24864212245E+03  0.00000000000E+00 0. -1.
        -14    1    5    5    0    0 -0.59726828000E+02 -0.16182468031E+03  0.68966330404E+03  0.71090786610E+03  0.00000000000E+00 0.  1.
          5    1    4    4  501    0  0.16113260079E+02  0.25273280340E+02  0.50244198180E+03  0.50335255371E+03  0.41800000000E+01 0. -1.
         -5    1    4    4    0  501  0.82125685154E+02  0.17032654025E+03  0.69034320339E+03  0.71578416394E+03  0.41800000000E+01 0. -1.
</event>
<event>
11    1  0.8974665E-009  0.1331563E+03  0.7561462E-02  0.1115451E+00
         22   -1    0    0    0    0  0.00000000000E+00  0.00000000000E+00  0.32457133491E+03  0.32457133491E+03  0.00000000000E+00 0. -1.
         22   -1    0    0    0    0 -0.00000000000E+00 -0.00000000000E+00 -0.30297293510E+03  0.30297293510E+03  0.00000000000E+00 0.  1.
        -24    2    1    2    0    0 -0.25987366494E+02 -0.38285732665E+02 -0.13406954252E+03  0.16201361328E+03  0.78311098269E+02 0.  0.
         25    2    1    2    0    0  0.37721767170E+02  0.26818557223E+02 -0.11855013372E+03  0.17844838964E+03  0.12509007487E+03 0.  0.
         24    2    1    2    0    0 -0.11734400676E+02  0.11467175442E+02  0.27421807605E+03  0.28708226709E+03  0.83375551421E+02 0.  0.
        -11    1    5    5    0    0 -0.26342979536E+02  0.10622299459E+02  0.26229324177E+02  0.38662168374E+02  0.00000000000E+00 0.  1.
         12    1    5    5    0    0  0.14608578860E+02  0.84487598319E+00  0.24798875187E+03  0.24842009872E+03  0.00000000000E+00 0. -1.
         13    1    3    3    0    0  0.23891561318E+02 -0.30071277001E+02 -0.41529025038E+02  0.56566317922E+02  0.00000000000E+00 0. -1.
        -14    1    3    3    0    0 -0.49878927812E+02 -0.82144556637E+01 -0.92540517484E+02  0.10544729536E+03  0.00000000000E+00 0.  1.
          5    1    4    4  501    0  0.23806489790E+02  0.65441708483E+02 -0.11811705088E+03  0.13718045150E+03  0.41800000000E+01 0.  1.
         -5    1    4    4    0  501  0.13915277381E+02 -0.38623151261E+02 -0.43308284384E+00  0.41267938144E+02  0.41800000000E+01 0.  1.
</event>
<event>
11    1  0.8974665E-009  0.1502696E+03  0.7561462E-02  0.1096604E+00
         22   -1    0    0    0    0  0.00000000000E+00  0.00000000000E+00  0.84542500944E+03  0.84542500944E+03  0.00000000000E+00 0.  1.
         22   -1    0    0    0    0 -0.00000000000E+00 -0.00000000000E+00 -0.12601035495E+04  0.12601035495E+04  0.00000000000E+00 0. -1.
         24    2    1    2    0    0  0.50380711191E+02 -0.13791622330E+02 -0.10967949723E+04  0.11009231269E+04  0.79649828644E+02 0.  0.
         25    2    1    2    0    0 -0.10926016209E+02  0.87432382802E+02 -0.12001652336E+03  0.19446254159E+03  0.12509162565E+03 0.  0.
        -24    2    1    2    0    0 -0.39454694983E+02 -0.73640760472E+02  0.80213295563E+03  0.81014289041E+03  0.77036288999E+02 0.  0.
        -13    1    3    3    0    0 -0.21791467272E+02 -0.12586613762E+01 -0.28049588595E+03  0.28134390754E+03  0.00000000000E+00 0.  1.
         14    1    3    3    0    0  0.72172178463E+02 -0.12532960954E+02 -0.81629908633E+03  0.81957921936E+03  0.00000000000E+00 0. -1.
         11    1    5    5    0    0  0.15141035073E+02 -0.44176703585E+02  0.46588150812E+03  0.46821620186E+03  0.00000000000E+00 0. -1.
        -12    1    5    5    0    0 -0.54595730056E+02 -0.29464056887E+02  0.33625144751E+03  0.34192668855E+03  0.00000000000E+00 0.  1.
          5    1    4    4  501    0 -0.25857129838E+00  0.32032598613E+01  0.25444410831E+02  0.25984960562E+02  0.41800000000E+01 0. -1.
         -5    1    4    4    0  501 -0.10667444910E+02  0.84229122941E+02 -0.14546093419E+03  0.16847758103E+03  0.41800000000E+01 0. -1.
</event>
<event>
11    1  0.8974665E-009  0.2260876E+03  0.7561462E-02  0.1037470E+00
         22   -1    0    0    0    0  0.00000000000E+00  0.00000000000E+00  0.10506444208E+04  0.10506444208E+04  0.00000000000E+00 0. -1.
         22   -1    0    0    0    0 -0.00000000000E+00 -0.00000000000E+00 -0.86425613670E+03  0.86425613670E+03  0.00000000000E+00 0. -1.
        -24    2    1    2    0    0 -0.15065977114E+03 -0.19247769055E+02 -0.77407000083E+03  0.79301527692E+03  0.81363505257E+02 0.  0.
         25    2    1    2    0    0  0.92111154603E+02 -0.16929261109E+03  0.12893396024E+03  0.26346983482E+03  0.12509170550E+03 0.  0.
         24    2    1    2    0    0  0.58548616533E+02  0.18854038015E+03  0.83152432467E+03  0.85841544574E+03  0.80429842232E+02 0.  0.
        -13    1    5    5    0    0  0.26702765284E+02  0.71174542103E+02  0.49052034545E+03  0.49637592852E+03  0.00000000000E+00 0.  1.
         14    1    5    5    0    0  0.31845851250E+02  0.11736583805E+03  0.34100397922E+03  0.36203951722E+03  0.00000000000E+00 0. -1.
         13    1    3    3    0    0 -0.12968706320E+03  0.55814746265E+01 -0.70275969272E+03  0.71464751656E+03  0.00000000000E+00 0. -1.
        -14    1    3    3    0    0 -0.20972707939E+02 -0.24829243682E+02 -0.71310308113E+02  0.78367760356E+02  0.00000000000E+00 0.  1.
          5    1    4    4  501    0  0.10065165293E+03 -0.56590422868E+02  0.78128594548E+02  0.13948039606E+03  0.41800000000E+01 0. -1.
         -5    1    4    4    0  501 -0.85404983282E+01 -0.11270218823E+03  0.50805365692E+02  0.12398943877E+03  0.41800000000E+01 0. -1.
</event>
<event>
11    1  0.8974665E-009  0.1412237E+03  0.7561462E-02  0.1106200E+00
         22   -1    0    0    0    0  0.00000000000E+00  0.00000000000E+00  0.45079797229E+03  0.45079797229E+03  0.00000000000E+00 0.  1.
         22   -1    0    0    0    0 -0.00000000000E+00 -0.00000000000E+00 -0.48170839668E+03  0.48170839668E+03  0.00000000000E+00 0. -1.
         24    2    1    2    0    0  0.43324790424E+02 -0.51071447812E+02 -0.41722586798E+03  0.43052281682E+03  0.82384104280E+02 0.  0.
         25    2    1    2    0    0 -0.50318172490E+02  0.18130076975E+02  0.35284501131E+02  0.14054450758E+03  0.12508854631E+03 0.  0.
        -24    2    1    2    0    0  0.69933820660E+01  0.32941370837E+02  0.35103094246E+03  0.36143904457E+03  0.79255404073E+02 0.  0.
        -13    1    3    3    0    0 -0.21356240420E+02 -0.39843494466E+01 -0.47390242882E+02  0.52132515437E+02  0.00000000000E+00 0.  1.
         14    1    3    3    0    0  0.64681030844E+02 -0.47087098365E+02 -0.36983562510E+03  0.37839030138E+03  0.00000000000E+00 0. -1.
         13    1    5    5    0    0 -0.25325021944E+02  0.30146602459E+01  0.40930321348E+02  0.48225886394E+02  0.00000000000E+00 0. -1.
        -14    1    5    5    0    0  0.32318404010E+02  0.29926710591E+02  0.31010062111E+03  0.31321315818E+03  0.00000000000E+00 0.  1.
          5    1    4    4  501    0 -0.52712190836E+02  0.43658742676E+02  0.69466804690E+02  0.97610297759E+02  0.41800000000E+01 0.  1.
         -5    1    4    4    0  501  0.23940183462E+01 -0.25528665701E+02 -0.34182303559E+02  0.42934209820E+02  0.41800000000E+01 0.  1.
</event>
<event>
11    1  0.8974665E-009  0.1320565E+03  0.7561462E-02  0.1116768E+00
         22   -1    0    0    0    0  0.00000000000E+00  0.00000000000E+00  0.86201848005E+03  0.86201848005E+03  0.00000000000E+00 0. -1.
         22   -1    0    0    0    0 -0.00000000000E+00 -0.00000000000E+00 -0.43477387931E+03  0.43477387931E+03  0.00000000000E+00 0.  1.
         24    2    1    2    0    0  0.33027542698E+02 -0.12984424882E+02 -0.32809357112E+03  0.33992287745E+03  0.81503112437E+02 0.  0.
         25    2    1    2    0    0 -0.34638123983E+01 -0.18427732722E+02 -0.57476182298E+02  0.13893452239E+03  0.12509080962E+03 0.  0.
        -24    2    1    2    0    0 -0.29563730300E+02  0.31412157603E+02  0.81281435416E+03  0.81793495952E+03  0.80558586722E+02 0.  0.
        -13    1    3    3    0    0  0.15125869959E+02 -0.39046229575E+02 -0.27467528270E+03  0.27784871948E+03  0.00000000000E+00 0.  1.
         14    1    3    3    0    0  0.17901672739E+02  0.26061804694E+02 -0.53418288416E+02  0.62074157973E+02  0.00000000000E+00 0. -1.
         11    1    5    5    0    0 -0.43973696343E+02  0.49535138540E+02  0.51900005786E+03  0.52320978199E+03  0.00000000000E+00 0. -1.
        -12    1    5    5    0    0  0.14409966044E+02 -0.18122980936E+02  0.29381429630E+03  0.29472517753E+03  0.00000000000E+00 0.  1.
          5    1    4    4  501    0 -0.46005306069E+02 -0.40171836743E+02 -0.66223137062E+02  0.90184482790E+02  0.41800000000E+01 0.  1.
         -5    1    4    4    0  501  0.42541493671E+02  0.21744104021E+02  0.87469547640E+01  0.48750039601E+02  0.41800000000E+01 0.  1.
</event>
<event>
11    1  0.8974665E-009  0.1916189E+03  0.7561462E-02  0.1060614E+00
         22   -1    0    0    0    0  0.00000000000E+00  0.00000000000E+00  0.20878306604E+04  0.20878306604E+04  0.00000000000E+00 0. -1.
         22   -1    0    0    0    0 -0.00000000000E+00 -0.00000000000E+00 -0.38365388701E+03  0.38365388701E+03  0.00000000000E+00 0. -1.
        -24    2    1    2    0    0  0.94732441200E+02  0.91643192823E+02 -0.16262932764E+03  0.22382394576E+03  0.79222157772E+02 0.  0.
         25    2    1    2    0    0 -0.69702832204E+02 -0.16873496276E+03 -0.12393059440E+03  0.25367367665E+03  0.12514619260E+03 0.  0.
         24    2    1    2    0    0 -0.25029608996E+02  0.77091769935E+02  0.19907366955E+04  0.19939869250E+04  0.79885193757E+02 0.  0.
        -11    1    5    5    0    0 -0.19568940988E+02  0.19150049961E+02  0.16002886533E+03  0.16235425958E+03  0.00000000000E+00 0.  1.
         12    1    5    5    0    0 -0.54606680082E+01  0.57941719974E+02  0.18307078301E+04  0.18316326655E+04  0.00000000000E+00 0. -1.
         13    1    3    3    0    0  0.12504453341E+00 -0.11218539583E+02 -0.26280686973E+02  0.28575265079E+02  0.00000000000E+00 0. -1.
        -14    1    3    3    0    0  0.94607396667E+02  0.10286173241E+03 -0.13634864066E+03  0.19524868068E+03  0.00000000000E+00 0.  1.
          5    1    4    4  501    0 -0.61276915070E+02 -0.30074142661E+02 -0.85487043230E+02  0.10947520878E+03  0.41800000000E+01 0. -1.
         -5    1    4    4    0  501 -0.84259171343E+01 -0.13866082010E+03 -0.38443551174E+02  0.14419846787E+03  0.41800000000E+01 0. -1.
</event>
<event>
11    1  0.8974665E-009  0.1332248E+03  0.7561462E-02  0.1115369E+00
         22   -1    0    0    0    0  0.00000000000E+00  0.00000000000E+00  0.14552360653E+03  0.14552360653E+03  0.00000000000E+00 0. -1.
         22   -1    0    0    0    0 -0.00000000000E+00 -0.00000000000E+00 -0.71842237425E+03  0.71842237425E+03  0.00000000000E+00 0. -1.
        -24    2    1    2    0    0 -0.15044480903E+02  0.38558589615E+02 -0.52749203493E+03  0.53556154421E+03  0.82856619976E+02 0.  0.
         25    2    1    2    0    0  0.11689317327E+02 -0.84873842517E+02 -0.13277803994E+03  0.20153818401E+03  0.12508965761E+03 0.  0.
         24    2    1    2    0    0  0.33551635760E+01  0.46315252902E+02  0.87371307153E+02  0.12684625256E+03  0.79371699626E+02 0.  0.
        -11    1    5    5    0    0  0.65473538112E+01 -0.22175921878E+02  0.26382390149E+02  0.35080904536E+02  0.00000000000E+00 0.  1.
         12    1    5    5    0    0 -0.31921902352E+01  0.68491174780E+02  0.60988917004E+02  0.91765348027E+02  0.00000000000E+00 0. -1.
         13    1    3    3    0    0 -0.29803560714E+02  0.56796691640E+02 -0.45140785460E+03  0.45594206606E+03  0.00000000000E+00 0. -1.
        -14    1    3    3    0    0  0.14759079811E+02 -0.18238102024E+02 -0.76084180335E+02  0.79619478141E+02  0.00000000000E+00 0.  1.
          5    1    4    4  501    0 -0.47025190087E+02 -0.61830902413E+02 -0.35465203833E+02  0.85496678760E+02  0.41800000000E+01 0.  1.
         -5    1    4    4    0  501  0.58714507414E+02 -0.23042940104E+02 -0.97312836111E+02  0.11604150525E+03  0.41800000000E+01 0.  1.
</event>
<event>
11    1  0.8974665E-009  0.1356233E+03  0.7561462E-02  0.1112547E+00
         22   -1    0    0    0    0  0.00000000000E+00  0.00000000000E+00  0.48227797561E+03  0.48227797561E+03  0.00000000000E+00 0. -1.
         22   -1    0    0    0    0 -0.00000000000E+00 -0.00000000000E+00 -0.11097977510E+04  0.11097977510E+04  0.00000000000E+00 0.  1.
        -24    2    1    2    0    0  0.12737520787E+02 -0.92137451328E+00 -0.10488601037E+04  0.10520527779E+04  0.80897695165E+02 0.  0.
         25    2    1    2    0    0  0.35708475217E+01 -0.49370970291E+02  0.30738758746E+02  0.13798893101E+03  0.12508329278E+03 0.  0.
         24    2    1    2    0    0 -0.16308368309E+02  0.50292344804E+02  0.39060156954E+03  0.40203401767E+03  0.79161116815E+02 0.  0.
        -13    1    5    5    0    0  0.13865122955E+02  0.13026740467E+01  0.10090559125E+02  0.17197615465E+02  0.00000000000E+00 0.  1.
         14    1    5    5    0    0 -0.30173491264E+02  0.48989670757E+02  0.38051101042E+03  0.38483640221E+03  0.00000000000E+00 0. -1.
         11    1    3    3    0    0 -0.71091106868E+00  0.76290883353E+01 -0.80241752465E+01  0.11094853391E+02  0.00000000000E+00 0. -1.
        -12    1    3    3    0    0  0.13448431856E+02 -0.85504628486E+01 -0.10408359284E+04  0.10409579245E+04  0.00000000000E+00 0.  1.
          5    1    4    4  501    0 -0.45468409332E+02 -0.13972296137E+01 -0.22622397981E+02  0.50976208060E+02  0.41800000000E+01 0.  1.
         -5    1    4    4    0  501  0.49039256854E+02 -0.47973740677E+02  0.53361156727E+02  0.87012722947E+02  0.41800000000E+01 0.  1.
</event>
<event>
11    1  0.8974665E-009  0.1300955E+03  0.7561462E-02  0.1119152E+00
         22   -1    0    0    0    0  0.00000000000E+00  0.00000000000E+00  0.51309337493E+03  0.51309337493E+03  0.00000000000E+00 0.  1.
         22   -1    0    0    0    0 -0.00000000000E+00 -0.00000000000E+00 -0.90453076095E+03  0.90453076095E+03  0.00000000000E+00 0.  1.
        -24    2    1    2    0    0  0.17996558400E+02  0.15754674506E+01 -0.77334079585E+03  0.77769231700E+03  0.80143591007E+02 0.  0.
         25    2    1    2    0    0 -0.30716655803E+02 -0.34609627794E+02 -0.88593080416E+02  0.16012855823E+03  0.12510428443E+03 0.  0.
         24    2    1    2    0    0  0.12720097403E+02  0.33034160343E+02  0.47049649025E+03  0.47980326066E+03  0.87127291827E+02 0.  0.
        -11    1    5    5    0    0 -0.14390547554E+01  0.17281143144E+01  0.41168065587E+03  0.41168679803E+03  0.00000000000E+00 0.  1.
         12    1    5    5    0    0  0.14159152158E+02  0.31306046029E+02  0.58815834379E+02  0.68116462632E+02  0.00000000000E+00 0. -1.
         11    1    3    3    0    0  0.34610397491E+02 -0.29044529846E+02 -0.34672670695E+03  0.34965822404E+03  0.00000000000E+00 0. -1.
        -12    1    3    3    0    0 -0.16613839091E+02  0.30619997297E+02 -0.42661408890E+03  0.42803409295E+03  0.00000000000E+00 0.  1.
          5    1    4    4  501    0  0.20387042621E+02 -0.10319107438E+02 -0.99652218567E+02  0.10232376337E+03  0.41800000000E+01 0. -1.
         -5    1    4    4    0  501 -0.51103698424E+02 -0.24290520356E+02  0.11059138151E+02  0.57804794856E+02  0.41800000000E+01 0. -1.
</event>
<event>
11    1  0.8974665E-009  0.2031276E+03  0.7561462E-02  0.1052334E+00
         22   -1    0    0    0    0  0.00000000000E+00  0.00000000000E+00  0.64234625333E+03  0.64234625333E+03  0.00000000000E+00 0.  1.
         22   -1    0    0    0    0 -0.00000000000E+00 -0.00000000000E+00 -0.26508571513E+03  0.26508571513E+03  0.00000000000E+00 0.  1.
        -24    2    1    2    0    0  0.12652382762E+02 -0.18659678157E+02 -0.12558834623E+03  0.15224962081E+03  0.83061711683E+02 0.  0.
         25    2    1    2    0    0  0.33987345159E+02 -0.13709524609E+03 -0.31164595453E+02  0.19123255233E+03  0.12509360866E+03 0.  0.
         24    2    1    2    0    0 -0.46639727921E+02  0.15575492425E+03  0.53401347989E+03  0.56394979533E+03  0.80212930957E+02 0.  0.
        -11    1    5    5    0    0 -0.39803350913E+02  0.11745311580E+03  0.48886627719E+03  0.50435084825E+03  0.00000000000E+00 0.  1.
         12    1    5    5    0    0 -0.68363770085E+01  0.38301808444E+02  0.45147202700E+02  0.59598947074E+02  0.00000000000E+00 0. -1.
         13    1    3    3    0    0  0.28303609553E+02 -0.22553677797E+02 -0.12912296989E+02  0.38425123415E+02  0.00000000000E+00 0. -1.
        -14    1    3    3    0    0 -0.15651226791E+02  0.38939996395E+01 -0.11267604925E+03  0.11382449739E+03  0.00000000000E+00 0.  1.
          5    1    4    4  501    0 -0.47439736939E+02 -0.43085246748E+02 -0.11689189207E+02  0.65276156998E+02  0.41800000000E+01 0.  1.
         -5    1    4    4    0  501  0.81427082098E+02 -0.94009999342E+02 -0.19475406246E+02  0.12595639533E+03  0.41800000000E+01 0.  1.
</event>
<event>
11    1  0.8974665E-009  0.1364763E+03  0.7561462E-02  0.1111558E+00
         22   -1    0    0    0    0  0.00000000000E+00  0.00000000000E+00  0.14793282504E+03  0.14793282504E+03  0.00000000000E+00 0.  1.
         22   -1    0    0    0    0 -0.00000000000E+00 -0.00000000000E+00 -0.13172050506E+04  0.13172050506E+04  0.00000000000E+00 0.  1.
         24    2    1    2    0    0 -0.38070133691E+01 -0.33537584401E+02 -0.91421707660E+03  0.91842968574E+03  0.81123126060E+02 0.  0.
         25    2    1    2    0    0  0.26275049245E+01  0.86605041357E+02 -0.36781802415E+03  0.39805078385E+03  0.12508793173E+03 0.  0.
        -24    2    1    2    0    0  0.11795084445E+01 -0.53067456956E+02  0.11276287522E+03  0.14865740602E+03  0.81030933034E+02 0.  0.
        -11    1    3    3    0    0 -0.86348298706E+01 -0.56560087115E+02 -0.78548477519E+03  0.78756582950E+03  0.00000000000E+00 0.  1.
         12    1    3    3    0    0  0.48278165016E+01  0.23022502714E+02 -0.12873230141E+03  0.13086385624E+03  0.00000000000E+00 0. -1.
         11    1    5    5    0    0  0.11830680500E+02 -0.25412155123E+02 -0.38893004514E+01  0.28299634045E+02  0.00000000000E+00 0. -1.
        -12    1    5    5    0    0 -0.10651172056E+02 -0.27655301834E+02  0.11665217567E+03  0.12035777197E+03  0.00000000000E+00 0.  1.
          5    1    4    4  501    0 -0.52621131497E+02  0.70860513915E+02 -0.27466198063E+03  0.28852534016E+03  0.41800000000E+01 0. -1.
         -5    1    4    4    0  501  0.55248636421E+02  0.15744527443E+02 -0.93156043520E+02  0.10952544369E+03  0.41800000000E+01 0. -1.
</event>
<event>
11    1  0.8974665E-009  0.1426218E+03  0.7561462E-02  0.1104666E+00
         22   -1    0    0    0    0  0.00000000000E+00  0.00000000000E+00  0.14359350917E+04  0.14359350917E+04  0.00000000000E+00 0.  1.
         22   -1    0    0    0    0 -0.00000000000E+00 -0.00000000000E+00 -0.12011400624E+03  0.12011400624E+03  0.00000000000E+00 0.  1.
         24    2    1    2    0    0  0.27382335420E+01 -0.74497008598E+02 -0.66840950892E+02  0.12966891018E+03  0.82395457021E+02 0.  0.
         25    2    1    2    0    0 -0.11707586154E+02  0.28321151833E+02  0.18616025292E+03  0.22636840859E+03  0.12509141227E+03 0.  0.
        -24    2    1    2    0    0  0.89693526119E+01  0.46175856766E+02  0.11965017834E+04  0.12000117792E+04  0.78734321532E+02 0.  0.
        -11    1    3    3    0    0 -0.38645509146E+02 -0.49377710166E+02 -0.37516381004E+02  0.73069230747E+02  0.00000000000E+00 0.  1.
         12    1    3    3    0    0  0.41383742688E+02 -0.25119298433E+02 -0.29324569888E+02  0.56599679431E+02  0.00000000000E+00 0. -1.
         11    1    5    5    0    0 -0.31333999377E+02  0.81386027429E+01  0.62241164784E+03  0.62325301101E+03  0.00000000000E+00 0. -1.
        -12    1    5    5    0    0  0.40303351989E+02  0.38037254023E+02  0.57409013561E+03  0.57675876819E+03  0.00000000000E+00 0.  1.
          5    1    4    4  501    0 -0.25096289136E+02  0.73157895434E+02  0.86003829712E+02  0.11574123085E+03  0.41800000000E+01 0. -1.
         -5    1    4    4    0  501  0.13388702982E+02 -0.44836743602E+02  0.10015642321E+03  0.11062717774E+03  0.41800000000E+01 0. -1.
</event>
<event>
11    1  0.8974665E-009  0.1636844E+03  0.7561462E-02  0.1083662E+00
         22   -1    0    0    0    0  0.00000000000E+00  0.00000000000E+00  0.57021417992E+03  0.57021417992E+03  0.00000000000E+00 0.  1.
         22   -1    0    0    0    0 -0.00000000000E+00 -0.00000000000E+00 -0.18965786500E+04  0.18965786500E+04  0.00000000000E+00 0.  1.
        -24    2    1    2    0    0  0.79836825754E+02  0.68386606990E+02 -0.18261500563E+04  0.18309549371E+04  0.80754608663E+02 0.  0.
         25    2    1    2    0    0 -0.66412190780E+02 -0.12657831659E+03  0.84670794047E+02  0.20796357119E+03  0.12508818594E+03 0.  0.
         24    2    1    2    0    0 -0.13424634973E+02  0.58191709604E+02  0.41511479208E+03  0.42787432171E+03  0.84791796067E+02 0.  0.
        -13    1    5    5    0    0  0.15180944723E+01 -0.19754067479E+02  0.14480955052E+03  0.14615859097E+03  0.00000000000E+00 0.  1.
         14    1    5    5    0    0 -0.14942729446E+02  0.77945777083E+02  0.27030524157E+03  0.28171573074E+03  0.00000000000E+00 0. -1.
         13    1    3    3    0    0 -0.38884339208E+01  0.15026874290E+02 -0.58667521460E+02  0.60686118211E+02  0.00000000000E+00 0. -1.
        -14    1    3    3    0    0  0.83725259675E+02  0.53359732701E+02 -0.17674825348E+04  0.17702688189E+04  0.00000000000E+00 0.  1.
          5    1    4    4  501    0 -0.29580098917E+02 -0.14028006975E+03  0.41226040872E+02  0.14923317013E+03  0.41800000000E+01 0.  1.
         -5    1    4    4    0  501 -0.36832091863E+02  0.13701753155E+02  0.43444753175E+02  0.58730401062E+02  0.41800000000E+01 0.  1.
</event>
<event>
11    1  0.8974665E-009  0.1362449E+03  0.7561462E-02  0.1111826E+00
         22   -1    0    0    0    0  0.00000000000E+00  0.00000000000E+00  0.13006834042E+04  0.13006834042E+04  0.00000000000E+00 0. -1.
         22   -1    0    0    0    0 -0.00000000000E+00 -0.00000000000E+00 -0.32508818358E+03  0.32508818358E+03  0.00000000000E+00 0.  1.
         24    2    1    2    0    0 -0.23389796845E+02  0.29062235957E+02 -0.27711672143E+03  0.29024713709E+03  0.77833329210E+02 0.  0.
         25    2    1    2    0    0  0.71426935880E+02 -0.49917919804E+02  0.10819656252E+03  0.18694102839E+03  0.12508735375E+03 0.  0.
        -24    2    1    2    0    0 -0.48037139035E+02  0.20855683846E+02  0.11445153796E+04  0.11485834223E+04  0.81153543940E+02 0.  0.
        -11    1    3    3    0    0 -0.37611344914E+01  0.52786939623E+02 -0.20717629429E+03  0.21382849212E+03  0.00000000000E+00 0.  1.
         12    1    3    3    0    0 -0.19628662354E+02 -0.23724703665E+02 -0.69940427140E+02  0.76418644966E+02  0.00000000000E+00 0. -1.
         11    1    5    5    0    0 -0.57723412451E+02  0.70128142152E+01  0.43526775040E+03  0.43913458808E+03  0.00000000000E+00 0. -1.
        -12    1    5    5    0    0  0.96862734158E+01  0.13842869631E+02  0.70924762916E+03  0.70944883424E+03  0.00000000000E+00 0.  1.
          5    1    4    4  501    0  0.18040090421E+01  0.16055420707E+02  0.87046981471E+02  0.88632276096E+02  0.41800000000E+01 0.  1.
         -5    1    4    4    0  501  0.69622926838E+02 -0.65973340511E+02  0.21149581050E+02  0.98308752297E+02  0.41800000000E+01 0.  1.
</event>
<event>
11    1  0.8974665E-009  0.2035261E+03  0.7561462E-02  0.1052058E+00
         22   -1    0    0    0    0  0.00000000000E+00  0.00000000000E+00  0.99166947006E+03  0.99166947006E+03  0.00000000000E+00 0.  1.
         22   -1    0    0    0    0 -0.00000000000E+00 -0.00000000000E+00 -0.10264057486E+04  0.10264057486E+04  0.00000000000E+00 0.  1.
         24    2    1    2    0    0  0.83223227650E+02  0.13592176223E+03 -0.95985014931E+03  0.97634353649E+03  0.80830446216E+02 0.  0.
         25    2    1    2    0    0 -0.14749073688E+03 -0.14154288698E+03  0.20765561308E+03  0.31710314437E+03  0.12508254957E+03 0.  0.
        -24    2    1    2    0    0  0.64267509230E+02  0.56211247493E+01  0.71745825769E+03  0.72462853779E+03  0.78601885943E+02 0.  0.
        -13    1    3    3    0    0  0.16449846221E+02  0.63581264127E+02 -0.58895067071E+03  0.59260110286E+03  0.00000000000E+00 0.  1.
         14    1    3    3    0    0  0.66773381429E+02  0.72340498100E+02 -0.37089947861E+03  0.38374243362E+03  0.00000000000E+00 0. -1.
         13    1    5    5    0    0  0.11214741269E+02 -0.31107132140E+02  0.15543885101E+03  0.15891714978E+03  0.00000000000E+00 0. -1.
        -14    1    5    5    0    0  0.53052767961E+02  0.36728256889E+02  0.56201940668E+03  0.56571138801E+03  0.00000000000E+00 0.  1.
          5    1    4    4  501    0 -0.11216274243E+03 -0.11785583448E+03  0.77791491060E+02  0.18038699231E+03  0.41800000000E+01 0. -1.
         -5    1    4    4    0  501 -0.35327994445E+02 -0.23687052495E+02  0.12986412202E+03  0.13671615207E+03  0.41800000000E+01 0. -1.
</event>
<event>
11    1  0.8974665E-009  0.1671042E+03  0.7561462E-02  0.1080580E+00
         22   -1    0    0    0    0  0.00000000000E+00  0.00000000000E+00  0.95976374806E+03  0.95976374806E+03  0.00000000000E+00 0.  1.
         22   -1    0    0    0    0 -0.00000000000E+00 -0.00000000000E+00 -0.18890206110E+04  0.18890206110E+04  0.00000000000E+00 0. -1.
         24    2    1    2    0    0  0.10094680490E+02 -0.19702905810E+02 -0.17116347404E+04  0.17136356280E+04  0.79771385804E+02 0.  0.
         25    2    1    2    0    0 -0.12040269940E+03  0.25817914988E+02 -0.12634639861E+03  0.21627279568E+03  0.12508850847E+03 0.  0.
        -24    2    1    2    0    0  0.11030801891E+03 -0.61150091784E+01  0.90872427600E+03  0.91887593542E+03  0.79673850961E+02 0.  0.
        -11    1    3    3    0    0 -0.65514679148E+01  0.78367006244E+01 -0.29966767645E+02  0.31659797403E+02  0.00000000000E+00 0.  1.
         12    1    3    3    0    0  0.16646148405E+02 -0.27539606434E+02 -0.16816679727E+04  0.16819758306E+04  0.00000000000E+00 0. -1.
         11    1    5    5    0    0  0.53637537278E+02  0.30759403348E+02  0.29315212979E+03  0.29960189836E+03  0.00000000000E+00 0. -1.
        -12    1    5    5    0    0  0.56670481633E+02 -0.36874412526E+02  0.61557214621E+03  0.61927403706E+03  0.00000000000E+00 0.  1.
          5    1    4    4  501    0 -0.14221071148E+03  0.88974175503E+01 -0.83715119408E+02  0.16531407719E+03  0.41800000000E+01 0.  1.
         -5    1    4    4    0  501  0.21808012078E+02  0.16920497438E+02 -0.42631279197E+02  0.50958718491E+02  0.41800000000E+01 0.  1.
</event>
<event>
11    1  0.8974665E-009  0.1694550E+03  0.7561462E-02  0.1078507E+00
         22   -1    0    0    0    0  0.00000000000E+00  0.00000000000E+00  0.17585224654E+04  0.17585224654E+04  0.00000000000E+00 0. -1.
         22   -1    0    0    0    0 -0.00000000000E+00 -0.00000000000E+00 -0.18639817440E+03  0.18639817440E+03  0.00000000000E+00 0.  1.
        -24    2    1    2    0    0 -0.97138717070E+01  0.19336378220E+01 -0.96460638611E+02  0.12531247957E+03  0.79375465195E+02 0.  0.
         25    2    1    2    0    0  0.75957580626E+02 -0.94762587028E+02  0.32163147086E+02  0.17728238808E+03  0.12508027478E+03 0.  0.
         24    2    1    2    0    0 -0.66243708919E+02  0.92828949206E+02  0.16364217825E+04  0.16423257721E+04  0.79700996240E+02 0.  0.
        -13    1    5    5    0    0  0.13007959835E+02  0.67678758526E+01  0.68842429228E+02  0.70386726196E+02  0.00000000000E+00 0.  1.
         14    1    5    5    0    0 -0.79251668754E+02  0.86061073353E+02  0.15675793533E+04  0.15719390459E+04  0.00000000000E+00 0. -1.
         13    1    3    3    0    0 -0.13203362417E+02 -0.38934330713E+01  0.11010326190E+02  0.17627106484E+02  0.00000000000E+00 0. -1.
        -14    1    3    3    0    0  0.34894907098E+01  0.58270708933E+01 -0.10747096480E+03  0.10768537308E+03  0.00000000000E+00 0.  1.
          5    1    4    4  501    0  0.34140272279E+02 -0.11070082647E+03 -0.90862279836E+01  0.11627666624E+03  0.41800000000E+01 0.  1.
         -5    1    4    4    0  501  0.41817308347E+02  0.15938239442E+02  0.41249375070E+02  0.61005721843E+02  0.41800000000E+01 0.  1.
</event>
<event>
11    1  0.8974665E-009  0.1367477E+03  0.7561462E-02  0.1111245E+00
         22   -1    0    0    0    0  0.00000000000E+00  0.00000000000E+00  0.57571207783E+03  0.57571207783E+03  0.00000000000E+00 0. -1.
         22   -1    0    0    0    0 -0.00000000000E+00 -0.00000000000E+00 -0.66880177962E+03  0.66880177962E+03  0.00000000000E+00 0. -1.
         24    2    1    2    0    0  0.50529366294E+02  0.33484155838E+02 -0.27300959779E+03  0.28952008126E+03  0.74921501687E+02 0.  0.
         25    2    1    2    0    0  0.17779914500E+01 -0.13776711757E+02 -0.37283824104E+03  0.39351074480E+03  0.12509753495E+03 0.  0.
        -24    2    1    2    0    0 -0.52307357744E+02 -0.19707444080E+02  0.55275813705E+03  0.56148303139E+03  0.81223108974E+02 0.  0.
        -11    1    3    3    0    0  0.20026484850E+02 -0.22488541578E+02 -0.59322671722E+02  0.66527993943E+02  0.00000000000E+00 0.  1.
         12    1    3    3    0    0  0.30502881444E+02  0.55972697415E+02 -0.21368692607E+03  0.22299208732E+03  0.00000000000E+00 0. -1.
         11    1    5    5    0    0  0.65208588723E+01  0.24085645267E+02  0.12189181917E+03  0.12441967485E+03  0.00000000000E+00 0. -1.
        -12    1    5    5    0    0 -0.58828216617E+02 -0.43793089347E+02  0.43086631788E+03  0.43706335654E+03  0.00000000000E+00 0.  1.
          5    1    4    4  501    0 -0.53591388903E+01  0.47332936900E+02 -0.26505015121E+03  0.26932913385E+03  0.41800000000E+01 0. -1.
         -5    1    4    4    0  501  0.71371303403E+01 -0.61109648658E+02 -0.10778808983E+03  0.12418161095E+03  0.41800000000E+01 0. -1.
</event>
<event>
11    1  0.8974665E-009  0.1498409E+03  0.7561462E-02  0.1097041E+00
         22   -1    0    0    0    0  0.00000000000E+00  0.00000000000E+00  0.29424249541E+03  0.29424249541E+03  0.00000000000E+00 0. -1.
         22   -1    0    0    0    0 -0.00000000000E+00 -0.00000000000E+00 -0.27353347221E+03  0.27353347221E+03  0.00000000000E+00 0.  1.
         24    2    1    2    0    0  0.73848288113E+02  0.35615229375E+02 -0.11799835006E+03  0.16437578811E+03  0.79835924735E+02 0.  0.
         25    2    1    2    0    0 -0.74910281684E+02 -0.36885014183E+02 -0.75311774224E+02  0.16820093276E+03  0.12509051071E+03 0.  0.
        -24    2    1    2    0    0  0.10619935718E+01  0.12697848076E+01  0.21401914749E+03  0.23519924676E+03  0.97528201061E+02 0.  0.
        -13    1    3    3    0    0  0.84975466741E+02  0.36234682408E+02 -0.12155812398E+03  0.15267665068E+03  0.00000000000E+00 0.  1.
         14    1    3    3    0    0 -0.11127178629E+02 -0.61945303303E+00  0.35597739158E+01  0.11699137431E+02  0.00000000000E+00 0. -1.
         11    1    5    5    0    0  0.11357487926E+02 -0.83369207097E+01  0.21960054902E+03  0.22005203454E+03  0.00000000000E+00 0. -1.
        -12    1    5    5    0    0 -0.10295494354E+02  0.96067055173E+01 -0.55814015298E+01  0.15147212216E+02  0.00000000000E+00 0.  1.
          5    1    4    4  501    0 -0.76119576580E+02 -0.46521100478E+02 -0.10431972593E+03  0.13732618231E+03  0.41800000000E+01 0. -1.
         -5    1    4    4    0  501  0.12092948958E+01  0.96360862952E+01  0.29007951707E+02  0.30874750452E+02  0.41800000000E+01 0. -1.
</event>
<event>
11    1  0.8974665E-009  0.1525480E+03  0.7561462E-02  0.1094303E+00
         22   -1    0    0    0    0  0.00000000000E+00  0.00000000000E+00  0.16883053945E+03  0.16883053945E+03  0.00000000000E+00 0.  1.
         22   -1    0    0    0    0 -0.00000000000E+00 -0.00000000000E+00 -0.36195596519E+04  0.36195596519E+04  0.00000000000E+00 0.  1.
         24    2    1    2    0    0 -0.13045787886E+02 -0.86139239336E+02 -0.34462988355E+04  0.34483548490E+04  0.81150105764E+02 0.  0.
         25    2    1    2    0    0  0.67760120068E+02  0.86036860950E+02 -0.11283831087E+03  0.20093103045E+03  0.12508804613E+03 0.  0.
        -24    2    1    2    0    0 -0.54714332182E+02  0.10237838651E+00  0.10840803392E+03  0.13910431194E+03  0.67853070353E+02 0.  0.
        -13    1    3    3    0    0 -0.47451455007E+02 -0.53218224657E+02 -0.21477813816E+04  0.21489645607E+04  0.00000000000E+00 0.  1.
         14    1    3    3    0    0  0.34405667121E+02 -0.32921014680E+02 -0.12985174539E+04  0.12993902883E+04  0.00000000000E+00 0. -1.
         13    1    5    5    0    0 -0.12505495237E+02  0.25803084589E+02  0.12636733534E+02  0.31334862690E+02  0.00000000000E+00 0. -1.
        -14    1    5    5    0    0 -0.42208836946E+02 -0.25700706202E+02  0.95771300382E+02  0.10776944925E+03  0.00000000000E+00 0.  1.
          5    1    4    4  501    0  0.56147976661E+02  0.48672416999E+02  0.70423504122E+01  0.74757384645E+02  0.41800000000E+01 0.  1.
         -5    1    4    4    0  501  0.11612143407E+02  0.37364443951E+02 -0.11988066128E+03  0.12617364581E+03  0.41800000000E+01 0.  1.
</event>
<event>
11    1  0.8974665E-009  0.1652348E+03  0.7561462E-02  0.1082255E+00
         22   -1    0    0    0    0  0.00000000000E+00  0.00000000000E+00  0.38466640241E+04  0.38466640241E+04  0.00000000000E+00 0. -1.
         22   -1    0    0    0    0 -0.00000000000E+00 -0.00000000000E+00 -0.41855059384E+03  0.41855059384E+03  0.00000000000E+00 0. -1.
         24    2    1    2    0    0  0.73512485257E+02  0.77939901807E+02 -0.33202427712E+03  0.35782731434E+03  0.79508191433E+02 0.  0.
         25    2    1    2    0    0 -0.56561868064E+02 -0.10320338124E+03  0.27739951638E+02  0.17397590007E+03  0.12509167066E+03 0.  0.
        -24    2    1    2    0    0 -0.16950617193E+02  0.25263479435E+02  0.37323977558E+04  0.37334114036E+04  0.81499289889E+02 0.  0.
        -11    1    3    3    0    0  0.62015452249E+02  0.10641721963E+02 -0.12696952638E+03  0.14170540989E+03  0.00000000000E+00 0.  1.
         12    1    3    3    0    0  0.11497033008E+02  0.67298179844E+02 -0.20505475074E+03  0.21612190444E+03  0.00000000000E+00 0. -1.
         13    1    5    5    0    0  0.30211348374E+02  0.25672252680E+02  0.18258212805E+04  0.18262516635E+04  0.00000000000E+00 0. -1.
        -14    1    5    5    0    0 -0.47161965567E+02 -0.40877324503E+00  0.19065764753E+04  0.19071597401E+04  0.00000000000E+00 0.  1.
          5    1    4    4  501    0 -0.24892244390E+02 -0.12626591302E+02  0.65073646359E+02  0.70930293170E+02  0.41800000000E+01 0.  1.
         -5    1    4    4    0  501 -0.31669623674E+02 -0.90576789939E+02 -0.37333694721E+02  0.10304560690E+03  0.41800000000E+01 0.  1.
</event>
<event>
11    1  0.8974665E-009  0.1654698E+03  0.7561462E-02  0.1082043E+00
         22   -1    0    0    0    0  0.00000000000E+00  0.00000000000E+00  0.41602021943E+03  0.41602021943E+03  0.00000000000E+00 0. -1.
         22   -1    0    0    0    0 -0.00000000000E+00 -0.00000000000E+00 -0.13438148299E+04  0.13438148299E+04  0.00000000000E+00 0. -1.
         24    2    1    2    0    0 -0.34223235108E+02  0.35393295837E+01 -0.88980994492E+03  0.89442939561E+03  0.84014575885E+02 0.  0.
         25    2    1    2    0    0  0.14045837902E+03  0.12178996690E+02 -0.41896073648E+03  0.45940506216E+03  0.12509207900E+03 0.  0.
        -24    2    1    2    0    0 -0.10623514391E+03 -0.15718326274E+02  0.38097607094E+03  0.40600059155E+03  0.90336825955E+02 0.  0.
        -13    1    3    3    0    0 -0.38108185034E+02  0.37621538353E+02 -0.64638275288E+03  0.64859716091E+03  0.00000000000E+00 0.  1.
         14    1    3    3    0    0  0.38849499263E+01 -0.34082208770E+02 -0.24342719205E+03  0.24583223470E+03  0.00000000000E+00 0. -1.
         11    1    5    5    0    0 -0.11234130947E+03 -0.14944344241E+02  0.38308272855E+03  0.39949503145E+03  0.00000000000E+00 0. -1.
        -12    1    5    5    0    0  0.61061655559E+01 -0.77398203295E+00 -0.21066576053E+01  0.65055601027E+01  0.00000000000E+00 0.  1.
          5    1    4    4  501    0  0.11351977592E+03  0.11669869108E+02 -0.41667933373E+03  0.43204405438E+03  0.41800000000E+01 0.  1.
         -5    1    4    4    0  501  0.26938603102E+02  0.50912758192E+00 -0.22814027493E+01  0.27361007775E+02  0.41800000000E+01 0.  1.
</event>
<event>
11    1  0.8974665E-009  0.2009602E+03  0.7561462E-02  0.1053847E+00
         22   -1    0    0    0    0  0.00000000000E+00  0.00000000000E+00  0.18006923133E+03  0.18006923133E+03  0.00000000000E+00 0.  1.
         22   -1    0    0    0    0 -0.00000000000E+00 -0.00000000000E+00 -0.11139082583E+04  0.11139082583E+04  0.00000000000E+00 0. -1.
        -24    2    1    2    0    0 -0.56985447443E+01 -0.17357668370E+02 -0.85649364227E+03  0.86043541161E+03  0.80212070423E+02 0.  0.
         25    2    1    2    0    0  0.17810028808E+02  0.16986319567E+03 -0.13585960043E+03  0.25154805563E+03  0.12509153006E+03 0.  0.
         24    2    1    2    0    0 -0.12111484063E+02 -0.15250552730E+03  0.58514215727E+02  0.18199402239E+03  0.79330239145E+02 0.  0.
        -13    1    5    5    0    0 -0.77366210610E+01 -0.50944334029E+02  0.61576851540E+02  0.80292522197E+02  0.00000000000E+00 0.  1.
         14    1    5    5    0    0 -0.43748630023E+01 -0.10156119327E+03 -0.30626358132E+01  0.10170150020E+03  0.00000000000E+00 0. -1.
         11    1    3    3    0    0 -0.38302418535E+02  0.93409117863E+01 -0.47023335443E+03  0.47188317994E+03  0.00000000000E+00 0. -1.
        -12    1    3    3    0    0  0.32603873791E+02 -0.26698580156E+02 -0.38626028785E+03  0.38855223167E+03  0.00000000000E+00 0.  1.
          5    1    4    4  501    0 -0.38337929327E+02  0.12878777372E+03 -0.56221205502E+02  0.14572022452E+03  0.41800000000E+01 0.  1.
         -5    1    4    4    0  501  0.56147958135E+02  0.41075421944E+02 -0.79638394927E+02  0.10582783111E+03  0.41800000000E+01 0.  1.
</event>
<event>
11    1  0.8974665E-009  0.1353778E+03  0.7561462E-02  0.1112833E+00
         22   -1    0    0    0    0  0.00000000000E+00  0.00000000000E+00  0.37275427747E+04  0.37275427747E+04  0.00000000000E+00 0. -1.
         22   -1    0    0    0    0 -0.00000000000E+00 -0.00000000000E+00 -0.17349986562E+03  0.17349986562E+03  0.00000000000E+00 0.  1.
         24    2    1    2    0    0 -0.17589197847E+02 -0.48219992743E+02 -0.15362674428E+03  0.18030946459E+03  0.79219813705E+02 0.  0.
         25    2    1    2    0    0  0.16156285742E+02  0.83204383477E+02  0.97297130681E+03  0.98463436719E+03  0.12509067981E+03 0.  0.
        -24    2    1    2    0    0  0.14329121051E+01 -0.34984390734E+02  0.27346983465E+04  0.27360988085E+04  0.80222706252E+02 0.  0.
        -13    1    3    3    0    0 -0.26142958050E+02 -0.18824518449E+02 -0.14495307359E+03  0.14848976494E+03  0.00000000000E+00 0.  1.
         14    1    3    3    0    0  0.85537602033E+01 -0.29395474294E+02 -0.86736706905E+01  0.31819699650E+02  0.00000000000E+00 0. -1.
         11    1    5    5    0    0  0.13033381909E+02 -0.42091896953E+02  0.26456753703E+04  0.26460422827E+04  0.00000000000E+00 0. -1.
        -12    1    5    5    0    0 -0.11600469804E+02  0.71075062196E+01  0.89022976253E+02  0.90056525834E+02  0.00000000000E+00 0.  1.
          5    1    4    4  501    0  0.52467729585E+02  0.98309618010E+02  0.72797848435E+03  0.73646981589E+03  0.41800000000E+01 0. -1.
         -5    1    4    4    0  501 -0.36311443843E+02 -0.15105234534E+02  0.24499282246E+03  0.24816455130E+03  0.41800000000E+01 0. -1.
</event>
<event>
11    1  0.8974665E-009  0.1788621E+03  0.7561462E-02  0.1070567E+00
         22   -1    0    0    0    0  0.00000000000E+00  0.00000000000E+00  0.19474332294E+03  0.19474332294E+03  0.00000000000E+00 0.  1.
         22   -1    0    0    0    0 -0.00000000000E+00 -0.00000000000E+00 -0.85223479059E+03  0.85223479059E+03  0.00000000000E+00 0.  1.
         24    2    1    2    0    0  0.49218636726E+02  0.10831041557E+03 -0.60546039519E+03  0.62222568630E+03  0.80180385520E+02 0.  0.
         25    2    1    2    0    0 -0.42425956971E+02 -0.21669553645E+03 -0.11082442730E+03  0.27692352864E+03  0.12509064588E+03 0.  0.
        -24    2    1    2    0    0 -0.67926797546E+01  0.10838512088E+03  0.58793354842E+02  0.14782889859E+03  0.81260382462E+02 0.  0.
        -13    1    3    3    0    0  0.10564486097E+02  0.10372912757E+03 -0.45750410535E+03  0.46923485238E+03  0.00000000000E+00 0.  1.
         14    1    3    3    0    0  0.38654150628E+02  0.45812880021E+01 -0.14795628985E+03  0.15299083393E+03  0.00000000000E+00 0. -1.
         13    1    5    5    0    0 -0.28673962767E+02  0.65502810818E+02 -0.43177707185E+00  0.71505250138E+02  0.00000000000E+00 0. -1.
        -14    1    5    5    0    0  0.21881283013E+02  0.42882310058E+02  0.59225131914E+02  0.76323648448E+02  0.00000000000E+00 0.  1.
          5    1    4    4  501    0 -0.35433375657E+02 -0.14956982872E+03 -0.81485687385E+01  0.15398223711E+03  0.41800000000E+01 0. -1.
         -5    1    4    4    0  501 -0.69925813138E+01 -0.67125707727E+02 -0.10267585856E+03  0.12294129153E+03  0.41800000000E+01 0. -1.
</event>
<event>
11    1  0.8974665E-009  0.1462089E+03  0.7561462E-02  0.1100817E+00
         22   -1    0    0    0    0  0.00000000000E+00  0.00000000000E+00  0.22831721659E+03  0.22831721659E+03  0.00000000000E+00 0.  1.
         22   -1    0    0    0    0 -0.00000000000E+00 -0.00000000000E+00 -0.93188137075E+03  0.93188137075E+03  0.00000000000E+00 0. -1.
        -24    2    1    2    0    0 -0.76148914564E+02  0.10287882534E+02 -0.72033164923E+03  0.72874638592E+03  0.79303924240E+02 0.  0.
         25    2    1    2    0    0  0.71951574015E+02  0.54455392259E+02 -0.16286099539E+03  0.22431017053E+03  0.12509568352E+03 0.  0.
         24    2    1    2    0    0  0.41973405491E+01 -0.64743274793E+02  0.17962849046E+03  0.20714203089E+03  0.80200480541E+02 0.  0.
        -13    1    5    5    0    0  0.35162625697E+02 -0.44062567525E+02  0.62170914055E+02  0.83923433302E+02  0.00000000000E+00 0.  1.
         14    1    5    5    0    0 -0.30965285148E+02 -0.20680707268E+02  0.11745757640E+03  0.12321859759E+03  0.00000000000E+00 0. -1.
         11    1    3    3    0    0 -0.42498411429E+02 -0.86508861838E+01 -0.61555408260E+03  0.61708004458E+03  0.00000000000E+00 0. -1.
        -12    1    3    3    0    0 -0.33650503135E+02  0.18938768718E+02 -0.10477756663E+03  0.11166634135E+03  0.00000000000E+00 0.  1.
          5    1    4    4  501    0  0.41330907081E+02  0.82208960452E+02 -0.15746185337E+03  0.18242331190E+03  0.41800000000E+01 0.  1.
         -5    1    4    4    0  501  0.30620666934E+02 -0.27753568194E+02 -0.53991420179E+01  0.41886858625E+02  0.41800000000E+01 0.  1.
</event>
<event>
11    1  0.8974665E-009  0.1918227E+03  0.7561462E-02  0.1060462E+00
         22   -1    0    0    0    0  0.00000000000E+00  0.00000000000E+00  0.70853936485E+02  0.70853936485E+02  0.00000000000E+00 0. -1.
         22   -1    0    0    0    0 -0.00000000000E+00 -0.00000000000E+00 -0.37262363482E+04  0.37262363482E+04  0.00000000000E+00 0. -1.
         24    2    1    2    0    0  0.74115199230E+02  0.12272585111E+03 -0.30355395606E+04  0.30399936269E+04  0.80660585857E+02 0.  0.
         25    2    1    2    0    0 -0.16513725330E+03 -0.90274390057E+02 -0.56550751855E+03  0.60898735061E+03  0.12508821584E+03 0.  0.
        -24    2    1    2    0    0  0.91022054071E+02 -0.32451461055E+02 -0.54335332485E+02  0.14810930713E+03  0.98213679550E+02 0.  0.
        -13    1    3    3    0    0  0.14628297249E+01  0.34692420779E+02 -0.28823563486E+03  0.29031962582E+03  0.00000000000E+00 0.  1.
         14    1    3    3    0    0  0.72652369505E+02  0.88033430332E+02 -0.27473039258E+04  0.27496740011E+04  0.00000000000E+00 0. -1.
         11    1    5    5    0    0  0.82004114731E+02  0.20116508843E+02 -0.34220769428E+02  0.91106584950E+02  0.00000000000E+00 0. -1.
        -12    1    5    5    0    0  0.90179393393E+01 -0.52567969898E+02 -0.20114563057E+02  0.57002722181E+02  0.00000000000E+00 0.  1.
          5    1    4    4  501    0 -0.28611445432E+02  0.55154603384E+01 -0.25327104115E+03  0.25497593572E+03  0.41800000000E+01 0. -1.
         -5    1    4    4    0  501 -0.13652580787E+03 -0.95789850395E+02 -0.31223647741E+03  0.35401141489E+03  0.41800000000E+01 0. -1.
</event>
<event>
11    1  0.8974665E-009  0.1368748E+03  0.7561462E-02  0.1111099E+00
         22   -1    0    0    0    0  0.00000000000E+00  0.00000000000E+00  0.91138227640E+03  0.91138227640E+03  0.00000000000E+00 0.  1.
         22   -1    0    0    0    0 -0.00000000000E+00 -0.00000000000E+00 -0.25600947300E+03  0.25600947300E+03  0.00000000000E+00 0.  1.
        -24    2    1    2    0    0 -0.15391881770E+02 -0.28052506060E+01 -0.23042155124E+03  0.24438156099E+03  0.79896662141E+02 0.  0.
         25    2    1    2    0    0  0.36185951433E+02  0.52090612901E+02  0.32928197536E+03  0.35790801179E+03  0.12509464647E+03 0.  0.
         24    2    1    2    0    0 -0.20794069663E+02 -0.49285362295E+02  0.55651237928E+03  0.56510217661E+03  0.82298246921E+02 0.  0.
        -13    1    5    5    0    0  0.16344838476E+02 -0.22336612302E+02  0.42338437389E+03  0.42428811679E+03  0.00000000000E+00 0.  1.
         14    1    5    5    0    0 -0.37138908138E+02 -0.26948749993E+02  0.13312800539E+03  0.14081405982E+03  0.00000000000E+00 0. -1.
         13    1    3    3    0    0 -0.24892676644E+02 -0.63995468753E+01 -0.17218473302E+02  0.30936634813E+02  0.00000000000E+00 0. -1.
        -14    1    3    3    0    0  0.95007948737E+01  0.35942962693E+01 -0.21320307794E+03  0.21344492618E+03  0.00000000000E+00 0.  1.
          5    1    4    4  501    0  0.12085084341E+02  0.40207300815E+02  0.32797974172E+03  0.33068241514E+03  0.41800000000E+01 0. -1.
         -5    1    4    4    0  501  0.24100867091E+02  0.11883312086E+02  0.13022336379E+01  0.27225596654E+02  0.41800000000E+01 0. -1.
</event>
<event>
11    1  0.8974665E-009  0.1805209E+03  0.7561462E-02  0.1069222E+00
         22   -1    0    0    0    0  0.00000000000E+00  0.00000000000E+00  0.98920339404E+03  0.98920339404E+03  0.00000000000E+00 0. -1.
         22   -1    0    0    0    0 -0.00000000000E+00 -0.00000000000E+00 -0.13920825766E+03  0.13920825766E+03  0.00000000000E+00 0.  1.
         24    2    1    2    0    0  0.98647085938E+02 -0.35539305676E+01 -0.57153416793E+02  0.13947330236E+03  0.80264631266E+02 0.  0.
         25    2    1    2    0    0 -0.19261184825E+03  0.61411903002E+02  0.41424769534E+03  0.47762101139E+03  0.12509968627E+03 0.  0.
        -24    2    1    2    0    0  0.93964762312E+02 -0.57857972435E+02  0.49290085784E+03  0.51131733795E+03  0.79481085199E+02 0.  0.
        -13    1    3    3    0    0  0.76845202342E+02 -0.15255424839E+02 -0.75396493292E+02  0.10873152400E+03  0.00000000000E+00 0.  1.
         14    1    3    3    0    0  0.21801883596E+02  0.11701494271E+02  0.18243076499E+02  0.30741778359E+02  0.00000000000E+00 0. -1.
         11    1    5    5    0    0  0.88902077696E+02 -0.67770533022E+02  0.33777350967E+03  0.35579118652E+03  0.00000000000E+00 0. -1.
        -12    1    5    5    0    0  0.50626846159E+01  0.99125605870E+01  0.15512734816E+03  0.15552615144E+03  0.00000000000E+00 0.  1.
          5    1    4    4  501    0 -0.28677917301E+02  0.64491315767E+02  0.91957931582E+02  0.11599692380E+03  0.41800000000E+01 0.  1.
         -5    1    4    4    0  501 -0.16393393095E+03 -0.30794127644E+01  0.32228976376E+03  0.36162408759E+03  0.41800000000E+01 0.  1.
</event>
<event>
11    1  0.8974665E-009  0.4838652E+03  0.7561462E-02  0.9430316E-01
         22   -1    0    0    0    0  0.00000000000E+00  0.00000000000E+00  0.69935819324E+03  0.69935819324E+03  0.00000000000E+00 0. -1.
         22   -1    0    0    0    0 -0.00000000000E+00 -0.00000000000E+00 -0.77606301695E+03  0.77606301695E+03  0.00000000000E+00 0. -1.
        -24    2    1    2    0    0 -0.81444154213E+02  0.37965008918E+02 -0.25473291465E+03  0.28155485732E+03  0.79434172233E+02 0.  0.
         25    2    1    2    0    0  0.25371446124E+03 -0.45760770351E+03 -0.22372881078E+03  0.58264868467E+03  0.12509624624E+03 0.  0.
         24    2    1    2    0    0 -0.17227030703E+03  0.41964269459E+03  0.40175690172E+03  0.61121766819E+03  0.80008624684E+02 0.  0.
        -11    1    5    5    0    0 -0.19531397430E+02  0.68969458466E+02  0.29609965425E+02  0.77556506749E+02  0.00000000000E+00 0.  1.
         12    1    5    5    0    0 -0.15273890960E+03  0.35067323613E+03  0.37214693629E+03  0.53366116144E+03  0.00000000000E+00 0. -1.
         11    1    3    3    0    0 -0.79615251104E+02  0.44959095337E+02 -0.25792544529E+03  0.27365204875E+03  0.00000000000E+00 0. -1.
        -12    1    3    3    0    0 -0.18289031088E+01 -0.69940864192E+01  0.31925306347E+01  0.79028085687E+01  0.00000000000E+00 0.  1.
          5    1    4    4  501    0  0.10391526066E+03 -0.30752553962E+03 -0.15468157911E+03  0.35960283958E+03  0.41800000000E+01 0. -1.
         -5    1    4    4    0  501  0.14979920058E+03 -0.15008216389E+03 -0.69047231664E+02  0.22304584509E+03  0.41800000000E+01 0. -1.
</event>
<event>
11    1  0.8974665E-009  0.1418638E+03  0.7561462E-02  0.1105495E+00
         22   -1    0    0    0    0  0.00000000000E+00  0.00000000000E+00  0.56719870235E+02  0.56719870235E+02  0.00000000000E+00 0.  1.
         22   -1    0    0    0    0 -0.00000000000E+00 -0.00000000000E+00 -0.12426155961E+04  0.12426155961E+04  0.00000000000E+00 0.  1.
        -24    2    1    2    0    0  0.99572021032E+01 -0.25173945226E+02 -0.82619205709E+03  0.83035940399E+03  0.78552856105E+02 0.  0.
         25    2    1    2    0    0  0.28464395779E+02  0.76905393350E+02 -0.32929526019E+03  0.36167260439E+03  0.12508814106E+03 0.  0.
         24    2    1    2    0    0 -0.38421597882E+02 -0.51731448124E+02 -0.30408408568E+02  0.10730345793E+03  0.80230909654E+02 0.  0.
        -13    1    5    5    0    0 -0.42390798205E+02 -0.37738761556E+02  0.15755990054E+02  0.58901995881E+02  0.00000000000E+00 0.  1.
         14    1    5    5    0    0  0.39692003231E+01 -0.13992686568E+02 -0.46164398622E+02  0.48401462052E+02  0.00000000000E+00 0. -1.
         11    1    3    3    0    0  0.22189334852E+02  0.23375114454E+02 -0.38106896133E+03  0.38242949134E+03  0.00000000000E+00 0. -1.
        -12    1    3    3    0    0 -0.12232132749E+02 -0.48549059680E+02 -0.44512309576E+03  0.44792991264E+03  0.00000000000E+00 0.  1.
          5    1    4    4  501    0  0.10867490712E+02  0.45740699216E+01  0.89022868668E+01  0.15354073775E+02  0.41800000000E+01 0.  1.
         -5    1    4    4    0  501  0.17596905066E+02  0.72331323428E+02 -0.33819754705E+03  0.34631853062E+03  0.41800000000E+01 0.  1.
</event>
<event>
11    1  0.8974665E-009  0.1400794E+03  0.7561462E-02  0.1107470E+00
         22   -1    0    0    0    0  0.00000000000E+00  0.00000000000E+00  0.90096057474E+03  0.90096057474E+03  0.00000000000E+00 0. -1.
         22   -1    0    0    0    0 -0.00000000000E+00 -0.00000000000E+00 -0.53654941048E+03  0.53654941048E+03  0.00000000000E+00 0. -1.
         24    2    1    2    0    0  0.38166578234E+02 -0.60972671735E+02 -0.39537305856E+03  0.41003874893E+03  0.81471257502E+02 0.  0.
         25    2    1    2    0    0 -0.49383786782E+02 -0.99360941388E+01 -0.95642001281E+02  0.16532256409E+03  0.12508666366E+03 0.  0.
        -24    2    1    2    0    0  0.11217208548E+02  0.70908765873E+02  0.85542622410E+03  0.86214867220E+03  0.79952668781E+02 0.  0.
        -11    1    3    3    0    0  0.16955140620E+02 -0.52297417525E+02 -0.10287008948E+03  0.11663941008E+03  0.00000000000E+00 0.  1.
         12    1    3    3    0    0  0.21211437614E+02 -0.86752542092E+01 -0.29250296908E+03  0.29339933885E+03  0.00000000000E+00 0. -1.
         11    1    5    5    0    0  0.32141524144E+02  0.22069982268E+02  0.59943307184E+03  0.60069973306E+03  0.00000000000E+00 0. -1.
        -12    1    5    5    0    0 -0.20924315597E+02  0.48838783606E+02  0.25599315227E+03  0.26144893914E+03  0.00000000000E+00 0.  1.
          5    1    4    4  501    0  0.19733310200E+02 -0.16279945637E+02  0.18376555231E+02  0.31774366139E+02  0.41800000000E+01 0.  1.
         -5    1    4    4    0  501 -0.69117096981E+02  0.63438514984E+01 -0.11401855651E+03  0.13354819795E+03  0.41800000000E+01 0.  1.
</event>
<event>
11    1  0.8974665E-009  0.1635592E+03  0.7561462E-02  0.1083777E+00
         22   -1    0    0    0    0  0.00000000000E+00  0.00000000000E+00  0.12526709496E+03  0.12526709496E+03  0.00000000000E+00 0. -1.
         22   -1    0    0    0    0 -0.00000000000E+00 -0.00000000000E+00 -0.52174356556E+03  0.52174356556E+03  0.00000000000E+00 0. -1.
        -24    2    1    2    0    0 -0.12473192929E+03  0.37766289838E+01 -0.27252527350E+03  0.30946296309E+03  0.76973915832E+02 0.  0.
         25    2    1    2    0    0  0.75305523000E+02 -0.23661408910E+02 -0.17456120142E+03  0.22880152918E+03  0.12509093751E+03 0.  0.
         24    2    1    2    0    0  0.49426406293E+02  0.19884779926E+02  0.50610004326E+02  0.10874616824E+03  0.80162225876E+02 0.  0.
        -13    1    5    5    0    0  0.10478789093E+02 -0.13366239733E+02 -0.16933696252E+02  0.23983566336E+02  0.00000000000E+00 0.  1.
         14    1    5    5    0    0  0.38947617200E+02  0.33251019659E+02  0.67543700577E+02  0.84762601904E+02  0.00000000000E+00 0. -1.
         13    1    3    3    0    0 -0.57642321661E+02  0.32086000170E+02 -0.18007624377E+03  0.19178008818E+03  0.00000000000E+00 0. -1.
        -14    1    3    3    0    0 -0.67089607631E+02 -0.28309371186E+02 -0.92449029733E+02  0.11768287491E+03  0.00000000000E+00 0.  1.
          5    1    4    4  501    0 -0.11659053180E+02 -0.35677351176E+02 -0.11893546054E+03  0.12478751172E+03  0.41800000000E+01 0.  1.
         -5    1    4    4    0  501  0.86964576180E+02  0.12015942265E+02 -0.55625740884E+02  0.10401401746E+03  0.41800000000E+01 0.  1.
</event>
<event>
11    1  0.1087566E-008  0.1626772E+03  0.7561462E-02  0.1084586E+00
         22   -1    0    0    0    0  0.00000000000E+00  0.00000000000E+00  0.19746800314E+03  0.19746800314E+03  0.00000000000E+00 0. -1.
         22   -1    0    0    0    0 -0.00000000000E+00 -0.00000000000E+00 -0.91209586766E+03  0.91209586766E+03  0.00000000000E+00 0. -1.
        -24    2    1    2    0    0 -0.19562038078E+02  0.62049889186E+02 -0.69662937494E+03  0.70418540700E+03  0.79697799966E+02 0.  0.
         25    2    1    2    0    0  0.58901051152E+02  0.41202930547E+02 -0.15575831840E+03  0.21232767260E+03  0.12512142698E+03 0.  0.
         24    2    1    2    0    0 -0.39339013074E+02 -0.10325281973E+03  0.13775982882E+03  0.19305079120E+03  0.77988042772E+02 0.  0.
        -11    1    5    5    0    0 -0.17767630930E+02 -0.81297645646E+02  0.43514778178E+02  0.93907038161E+02  0.00000000000E+00 0.  1.
         12    1    5    5    0    0 -0.21571382144E+02 -0.21955174087E+02  0.94245050641E+02  0.99143753041E+02  0.00000000000E+00 0. -1.
         13    1    3    3    0    0 -0.37733528456E+02  0.57586016367E+02 -0.65420577881E+03  0.65781849280E+03  0.00000000000E+00 0. -1.
        -14    1    3    3    0    0  0.18171490378E+02  0.44638728191E+01 -0.42423596136E+02  0.46366914198E+02  0.00000000000E+00 0.  1.
          5    1    4    4  501    0  0.20301435712E+02 -0.40847723511E+02 -0.22352925722E+02  0.50968720764E+02  0.41800000000E+01 0.  1.
         -5    1    4    4    0  501  0.38599615440E+02  0.82050654057E+02 -0.13340539267E+03  0.16135895184E+03  0.41800000000E+01 0.  1.
</event>
<event>
11    1  0.8974665E-009  0.1695544E+03  0.7561462E-02  0.1078420E+00
         22   -1    0    0    0    0  0.00000000000E+00  0.00000000000E+00  0.19559873878E+03  0.19559873878E+03  0.00000000000E+00 0.  1.
         22   -1    0    0    0    0 -0.00000000000E+00 -0.00000000000E+00 -0.61020264221E+03  0.61020264221E+03  0.00000000000E+00 0. -1.
        -24    2    1    2    0    0  0.35755616580E+02  0.52823222835E+02 -0.29773063557E+03  0.31486449854E+03  0.80170843205E+02 0.  0.
         25    2    1    2    0    0 -0.12709055879E+03 -0.11122973456E+03 -0.23217430166E+03  0.31317073522E+03  0.12508772548E+03 0.  0.
         24    2    1    2    0    0  0.91334942213E+02  0.58406511728E+02  0.11530103380E+03  0.17776614723E+03  0.80951111315E+02 0.  0.
        -11    1    5    5    0    0  0.84105882665E+02  0.20102611750E+02  0.45246225920E+02  0.97596800450E+02  0.00000000000E+00 0.  1.
         12    1    5    5    0    0  0.72290595483E+01  0.38303899978E+02  0.70054807881E+02  0.80169346777E+02  0.00000000000E+00 0. -1.
         13    1    3    3    0    0  0.61748560725E+02  0.37092172099E+02 -0.21313977325E+03  0.22498283695E+03  0.00000000000E+00 0. -1.
        -14    1    3    3    0    0 -0.25992944145E+02  0.15731050736E+02 -0.84590862320E+02  0.89881661592E+02  0.00000000000E+00 0.  1.
          5    1    4    4  501    0  0.15313580135E+02 -0.14192229468E+02 -0.81470573703E+02  0.84207196208E+02  0.41800000000E+01 0.  1.
         -5    1    4    4    0  501 -0.14240413893E+03 -0.97037505095E+02 -0.15070372795E+03  0.22896353901E+03  0.41800000000E+01 0.  1.
</event>
<event>
11    1  0.8974665E-009  0.1309794E+03  0.7561462E-02  0.1118071E+00
         22   -1    0    0    0    0  0.00000000000E+00  0.00000000000E+00  0.10893005551E+04  0.10893005551E+04  0.00000000000E+00 0. -1.
         22   -1    0    0    0    0 -0.00000000000E+00 -0.00000000000E+00 -0.41655586110E+03  0.41655586110E+03  0.00000000000E+00 0.  1.
        -24    2    1    2    0    0 -0.24255686338E+02  0.20114230281E+02 -0.25840585553E+03  0.27261354659E+03  0.80942195656E+02 0.  0.
         25    2    1    2    0    0 -0.14852145219E+02 -0.21075098138E+02 -0.12174292569E+03  0.17645156191E+03  0.12509623402E+03 0.  0.
         24    2    1    2    0    0  0.39107831557E+02  0.96086785761E+00  0.10528934752E+04  0.10567913077E+04  0.81809853412E+02 0.  0.
        -13    1    5    5    0    0  0.52650513301E+02  0.11456403331E+02  0.39313005422E+03  0.39680545014E+03  0.00000000000E+00 0.  1.
         14    1    5    5    0    0 -0.13542681744E+02 -0.10495535474E+02  0.65976342097E+03  0.65998585754E+03  0.00000000000E+00 0. -1.
         13    1    3    3    0    0  0.10202299503E+02  0.74459884925E+01 -0.10740789722E+01  0.12676091883E+02  0.00000000000E+00 0. -1.
        -14    1    3    3    0    0 -0.34457985841E+02  0.12668241788E+02 -0.25733177655E+03  0.25993745471E+03  0.00000000000E+00 0.  1.
          5    1    4    4  501    0 -0.59698963292E+02 -0.45580786611E+02 -0.84139417076E+02  0.11286491143E+03  0.41800000000E+01 0.  1.
         -5    1    4    4    0  501  0.44846818073E+02  0.24505688473E+02 -0.37603508617E+02  0.63586650479E+02  0.41800000000E+01 0.  1.
</event>
<event>
11    1  0.8974665E-009  0.1329280E+03  0.7561462E-02  0.1115723E+00
         22   -1    0    0    0    0  0.00000000000E+00  0.00000000000E+00  0.15744026038E+04  0.15744026038E+04  0.00000000000E+00 0.  1.
         22   -1    0    0    0    0 -0.00000000000E+00 -0.00000000000E+00 -0.93403045665E+03  0.93403045665E+03  0.00000000000E+00 0.  1.
        -24    2    1    2    0    0 -0.10446756724E+02 -0.32491796177E+02 -0.90356279378E+03  0.90722066073E+03  0.73883377092E+02 0.  0.
         25    2    1    2    0    0  0.43605019521E+02  0.10117457475E+01  0.13464738392E+03  0.18889177104E+03  0.12509101411E+03 0.  0.
         24    2    1    2    0    0 -0.33158262796E+02  0.31480050429E+02  0.14092875570E+04  0.14123206286E+04  0.80421862144E+02 0.  0.
        -13    1    5    5    0    0 -0.29832894694E+02  0.25459904409E+02  0.14010095076E+04  0.14015583644E+04  0.00000000000E+00 0.  1.
         14    1    5    5    0    0 -0.33253681025E+01  0.60201460200E+01  0.82780493677E+01  0.10762264281E+02  0.00000000000E+00 0. -1.
         13    1    3    3    0    0 -0.26562733069E+02 -0.26461761522E+02 -0.20220431093E+03  0.20565112927E+03  0.00000000000E+00 0. -1.
        -14    1    3    3    0    0  0.16115976345E+02 -0.60300346552E+01 -0.70135848285E+03  0.70156953146E+03  0.00000000000E+00 0.  1.
          5    1    4    4  501    0 -0.14041156226E+02  0.33266418438E+02  0.11385123661E+03  0.11951311703E+03  0.41800000000E+01 0.  1.
         -5    1    4    4    0  501  0.57646175747E+02 -0.32254672690E+02  0.20796147309E+02  0.69378654005E+02  0.41800000000E+01 0.  1.
</event>
<event>
11    1  0.8974665E-009  0.1696822E+03  0.7561462E-02  0.1078309E+00
         22   -1    0    0    0    0  0.00000000000E+00  0.00000000000E+00  0.22200995507E+04  0.22200995507E+04  0.00000000000E+00 0. -1.
         22   -1    0    0    0    0 -0.00000000000E+00 -0.00000000000E+00 -0.32367118831E+03  0.32367118831E+03  0.00000000000E+00 0. -1.
        -24    2    1    2    0    0  0.10623617699E+03 -0.43560932113E+02 -0.26593426156E+03  0.30025252768E+03  0.79037135556E+02 0.  0.
         25    2    1    2    0    0 -0.75498958645E+02  0.10843368744E+03  0.17255794433E+03  0.25075787726E+03  0.12508121972E+03 0.  0.
         24    2    1    2    0    0 -0.30737218348E+02 -0.64872755329E+02  0.19898046796E+04  0.19927603340E+04  0.81350076917E+02 0.  0.
        -11    1    5    5    0    0 -0.34193524376E+02 -0.27008744165E+02  0.37735246811E+03  0.37985991439E+03  0.00000000000E+00 0.  1.
         12    1    5    5    0    0  0.34563060289E+01 -0.37864011163E+02  0.16124522115E+04  0.16129004196E+04  0.00000000000E+00 0. -1.
         13    1    3    3    0    0  0.76624457900E+02 -0.63506663708E+02 -0.15962075263E+03  0.18810419601E+03  0.00000000000E+00 0. -1.
        -14    1    3    3    0    0  0.29611719093E+02  0.19945731595E+02 -0.10631350893E+03  0.11214833167E+03  0.00000000000E+00 0.  1.
          5    1    4    4  501    0 -0.35140641012E+02  0.37332850055E+02  0.15983900796E+03  0.16791243911E+03  0.41800000000E+01 0. -1.
         -5    1    4    4    0  501 -0.40358317633E+02  0.71100837387E+02  0.12718936374E+02  0.82845438147E+02  0.41800000000E+01 0. -1.
</event>
<event>
11    1  0.8974665E-009  0.1533216E+03  0.7561462E-02  0.1093532E+00
         22   -1    0    0    0    0  0.00000000000E+00  0.00000000000E+00  0.26955174536E+04  0.26955174536E+04  0.00000000000E+00 0.  1.
         22   -1    0    0    0    0 -0.00000000000E+00 -0.00000000000E+00 -0.32444612513E+03  0.32444612513E+03  0.00000000000E+00 0.  1.
        -24    2    1    2    0    0 -0.99496223368E+02  0.44197969661E+01 -0.21951443562E+03  0.25662849821E+03  0.88048654606E+02 0.  0.
         25    2    1    2    0    0  0.48772654614E+02 -0.47628940185E+02 -0.25869116579E+02  0.14478877975E+03  0.12508913529E+03 0.  0.
         24    2    1    2    0    0  0.50723568754E+02  0.43209143219E+02  0.26164548807E+04  0.26185463008E+04  0.80676367087E+02 0.  0.
        -13    1    5    5    0    0  0.47935652647E+02  0.54316237640E+01  0.21547882292E+04  0.21553281982E+04  0.00000000000E+00 0.  1.
         14    1    5    5    0    0  0.27879161072E+01  0.37777519455E+02  0.46166665143E+03  0.46321810251E+03  0.00000000000E+00 0. -1.
         13    1    3    3    0    0 -0.33849566868E+02 -0.21324455894E+02 -0.19416239210E+02  0.44469269630E+02  0.00000000000E+00 0. -1.
        -14    1    3    3    0    0 -0.65646656500E+02  0.25744252860E+02 -0.20009819641E+03  0.21215922858E+03  0.00000000000E+00 0.  1.
          5    1    4    4  501    0  0.44450286095E+02 -0.45489334151E+02 -0.73182021300E+02  0.97047349768E+02  0.41800000000E+01 0. -1.
         -5    1    4    4    0  501  0.43223685187E+01 -0.21396060345E+01  0.47312904721E+02  0.47741429982E+02  0.41800000000E+01 0. -1.
</event>
<event>
11    1  0.8974665E-009  0.1333751E+03  0.7561462E-02  0.1115190E+00
         22   -1    0    0    0    0  0.00000000000E+00  0.00000000000E+00  0.29259175604E+03  0.29259175604E+03  0.00000000000E+00 0.  1.
         22   -1    0    0    0    0 -0.00000000000E+00 -0.00000000000E+00 -0.21743024662E+03  0.21743024662E+03  0.00000000000E+00 0.  1.
        -24    2    1    2    0    0  0.11559120203E+02 -0.35890082330E+02 -0.94231801172E+02  0.13150879047E+03  0.83625464720E+02 0.  0.
         25    2    1    2    0    0  0.14074580291E+01  0.74543837544E+02 -0.39751829028E+02  0.15093029784E+03  0.12506391262E+03 0.  0.
         24    2    1    2    0    0 -0.12966578232E+02 -0.38653755214E+02  0.20914513962E+03  0.22758291435E+03  0.79937779167E+02 0.  0.
        -11    1    5    5    0    0 -0.47319767353E+01 -0.17157594472E+02  0.20297103855E+03  0.20374988869E+03  0.00000000000E+00 0.  1.
         12    1    5    5    0    0 -0.82346014969E+01 -0.21496160741E+02  0.61741010700E+01  0.23833025667E+02  0.00000000000E+00 0. -1.
         11    1    3    3    0    0  0.65907821212E+01 -0.15466565187E+02  0.13614369255E+02  0.21633402365E+02  0.00000000000E+00 0. -1.
        -12    1    3    3    0    0  0.49683380818E+01 -0.20423517143E+02 -0.10784617043E+03  0.10987538811E+03  0.00000000000E+00 0.  1.
          5    1    4    4  501    0 -0.49014836215E+02  0.49431235502E+02  0.16016827822E+02  0.71553563055E+02  0.41800000000E+01 0.  1.
         -5    1    4    4    0  501  0.50422294244E+02  0.25112602042E+02 -0.55768656850E+02  0.79376734784E+02  0.41800000000E+01 0.  1.
</event>
<event>
11    1  0.8974665E-009  0.1919626E+03  0.7561462E-02  0.1060357E+00
         22   -1    0    0    0    0  0.00000000000E+00  0.00000000000E+00  0.32315502906E+03  0.32315502906E+03  0.00000000000E+00 0.  1.
         22   -1    0    0    0    0 -0.00000000000E+00 -0.00000000000E+00 -0.16779237790E+04  0.16779237790E+04  0.00000000000E+00 0.  1.
        -24    2    1    2    0    0  0.11368603169E+03 -0.88937410726E+02 -0.15536222406E+04  0.15627984763E+04  0.88105812537E+02 0.  0.
         25    2    1    2    0    0 -0.11067997281E+03  0.14555030655E+03  0.57589699961E+01  0.22161774863E+03  0.12508522156E+03 0.  0.
         24    2    1    2    0    0 -0.30060588808E+01 -0.56612895826E+02  0.19309452063E+03  0.21666258317E+03  0.80269076762E+02 0.  0.
        -11    1    5    5    0    0  0.33643455590E+02 -0.20887798627E+02  0.44844248406E+02  0.59826322389E+02  0.00000000000E+00 0.  1.
         12    1    5    5    0    0 -0.36649514471E+02 -0.35725097200E+02  0.14825027223E+03  0.15683626078E+03  0.00000000000E+00 0. -1.
         11    1    3    3    0    0  0.22770941751E+02 -0.79429402733E+01 -0.67179355689E+02  0.71376970510E+02  0.00000000000E+00 0. -1.
        -12    1    3    3    0    0  0.90915089938E+02 -0.80994470453E+02 -0.14864428849E+04  0.14914215058E+04  0.00000000000E+00 0.  1.
          5    1    4    4  501    0 -0.94463799970E+02  0.13035045600E+03  0.52761220959E+02  0.16945757499E+03  0.41800000000E+01 0. -1.
         -5    1    4    4    0  501 -0.16216172838E+02  0.15199850555E+02 -0.47002250963E+02  0.52160173639E+02  0.41800000000E+01 0. -1.
</event>
<event>
11    1  0.8974665E-009  0.1280426E+03  0.7561462E-02  0.1121698E+00
         22   -1    0    0    0    0  0.00000000000E+00  0.00000000000E+00  0.29103909963E+03  0.29103909963E+03  0.00000000000E+00 0.  1.
         22   -1    0    0    0    0 -0.00000000000E+00 -0.00000000000E+00 -0.16599751490E+04  0.16599751490E+04  0.00000000000E+00 0.  1.
        -24    2    1    2    0    0 -0.15716006275E+02 -0.56890523418E+01 -0.16181560485E+04  0.16202426639E+04  0.80485616015E+02 0.  0.
         25    2    1    2    0    0 -0.16119749061E+01  0.28620848865E+02  0.15686056913E+03  0.20264862397E+03  0.12505788737E+03 0.  0.
         24    2    1    2    0    0  0.17327981181E+02 -0.22931796523E+02  0.92359430001E+02  0.12812296079E+03  0.84018465512E+02 0.  0.
        -11    1    5    5    0    0 -0.15229713183E+02  0.25611561101E+02  0.38113792673E+02  0.48379307742E+02  0.00000000000E+00 0.  1.
         12    1    5    5    0    0  0.32557694364E+02 -0.48543357624E+02  0.54245637328E+02  0.79743653045E+02  0.00000000000E+00 0. -1.
         13    1    3    3    0    0  0.30796161770E+02  0.55581799137E+01 -0.43779263931E+03  0.43890966267E+03  0.00000000000E+00 0. -1.
        -14    1    3    3    0    0 -0.46512168044E+02 -0.11247232255E+02 -0.11803634092E+04  0.11813330012E+04  0.00000000000E+00 0.  1.
          5    1    4    4  501    0  0.14957694637E+02  0.75472464108E+02  0.10933590002E+03  0.13375962358E+03  0.41800000000E+01 0. -1.
         -5    1    4    4    0  501 -0.16569669543E+02 -0.46851615243E+02  0.47524669113E+02  0.68889000384E+02  0.41800000000E+01 0. -1.
</event>
<event>
11    1  0.8974665E-009  0.1508206E+03  0.7561462E-02  0.1096043E+00
         22   -1    0    0    0    0  0.00000000000E+00  0.00000000000E+00  0.40791241683E+03  0.40791241683E+03  0.00000000000E+00 0. -1.
         22   -1    0    0    0    0 -0.00000000000E+00 -0.00000000000E+00 -0.25865012026E+03  0.25865012026E+03  0.00000000000E+00 0.  1.
         24    2    1    2    0    0 -0.17402433306E+00 -0.20036760623E+02 -0.18656844724E+03  0.20798073251E+03  0.89703386388E+02 0.  0.
         25    2    1    2    0    0  0.30678954072E+02 -0.62480689858E+02  0.55030719446E+02  0.15336356460E+03  0.12508784128E+03 0.  0.
        -24    2    1    2    0    0 -0.30504929739E+02  0.82517450480E+02  0.28080002437E+03  0.30521823997E+03  0.81054549255E+02 0.  0.
        -13    1    3    3    0    0  0.81093669606E+01 -0.46767697781E+02 -0.16755350389E+03  0.17414693811E+03  0.00000000000E+00 0.  1.
         14    1    3    3    0    0 -0.82833912937E+01  0.26730937159E+02 -0.19014943348E+02  0.33833794396E+02  0.00000000000E+00 0. -1.
         13    1    5    5    0    0 -0.99841064397E+01 -0.38528561770E+01  0.12841596355E+03  0.12886111351E+03  0.00000000000E+00 0. -1.
        -14    1    5    5    0    0 -0.20520823299E+02  0.86370306657E+02  0.15238406082E+03  0.17635712646E+03  0.00000000000E+00 0.  1.
          5    1    4    4  501    0 -0.17736172650E+02  0.31845329062E+02  0.18906309073E+02  0.41274904313E+02  0.41800000000E+01 0. -1.
         -5    1    4    4    0  501  0.48415126722E+02 -0.94326018920E+02  0.36124410373E+02  0.11208866029E+03  0.41800000000E+01 0. -1.
</event>
<event>
11    1  0.8974665E-009  0.2476127E+03  0.7561462E-02  0.1025179E+00
         22   -1    0    0    0    0  0.00000000000E+00  0.00000000000E+00  0.26340731504E+03  0.26340731504E+03  0.00000000000E+00 0. -1.
         22   -1    0    0    0    0 -0.00000000000E+00 -0.00000000000E+00 -0.12850601665E+04  0.12850601665E+04  0.00000000000E+00 0. -1.
        -24    2    1    2    0    0  0.37856238789E+02  0.84430055664E+02 -0.89951621270E+03  0.90772229069E+03  0.79175823281E+02 0.  0.
         25    2    1    2    0    0 -0.21588335846E+03  0.37726162404E+02 -0.26805585090E+03  0.36814406226E+03  0.12508886277E+03 0.  0.
         24    2    1    2    0    0  0.17802711967E+03 -0.12215621807E+03  0.14591921210E+03  0.27260112862E+03  0.80019759494E+02 0.  0.
        -13    1    5    5    0    0  0.14214799663E+03 -0.66724890122E+02  0.13195533153E+03  0.20511088081E+03  0.00000000000E+00 0.  1.
         14    1    5    5    0    0  0.35879123045E+02 -0.55431327947E+02  0.13963880576E+02  0.67490247808E+02  0.00000000000E+00 0. -1.
         13    1    3    3    0    0 -0.14189518732E+02  0.47661641716E+02 -0.56546494451E+03  0.56764740641E+03  0.00000000000E+00 0. -1.
        -14    1    3    3    0    0  0.52045757521E+02  0.36768413948E+02 -0.33405126820E+03  0.34007488429E+03  0.00000000000E+00 0.  1.
          5    1    4    4  501    0 -0.21938506018E+02  0.53208477401E+02 -0.63672458330E+02  0.85930753886E+02  0.41800000000E+01 0. -1.
         -5    1    4    4    0  501 -0.19394485245E+03 -0.15482314997E+02 -0.20438339257E+03  0.28221330838E+03  0.41800000000E+01 0. -1.
</event>
<event>
11    1  0.8974665E-009  0.1340458E+03  0.7561462E-02  0.1114396E+00
         22   -1    0    0    0    0  0.00000000000E+00  0.00000000000E+00  0.29836443615E+03  0.29836443615E+03  0.00000000000E+00 0.  1.
         22   -1    0    0    0    0 -0.00000000000E+00 -0.00000000000E+00 -0.68623982588E+03  0.68623982588E+03  0.00000000000E+00 0.  1.
        -24    2    1    2    0    0  0.34811431959E+02 -0.44123849891E+02 -0.49197004804E+03  0.50175031510E+03  0.80994448014E+02 0.  0.
         25    2    1    2    0    0 -0.10109631996E+02  0.81060870692E+01 -0.16115394147E+03  0.20441707394E+03  0.12509130250E+03 0.  0.
         24    2    1    2    0    0 -0.24701799963E+02  0.36017762822E+02  0.26524859978E+03  0.27843687299E+03  0.72545257570E+02 0.  0.
        -11    1    5    5    0    0 -0.45607786524E+02  0.41711478882E+02  0.17399269178E+03  0.18464391258E+03  0.00000000000E+00 0.  1.
         12    1    5    5    0    0  0.20905986562E+02 -0.56937160602E+01  0.91255908003E+02  0.93792960408E+02  0.00000000000E+00 0. -1.
         13    1    3    3    0    0  0.18868383160E+02  0.12257314297E+02 -0.39148177473E+02  0.45153487532E+02  0.00000000000E+00 0. -1.
        -14    1    3    3    0    0  0.15943048799E+02 -0.56381164189E+02 -0.45282187057E+03  0.45659682757E+03  0.00000000000E+00 0.  1.
          5    1    4    4  501    0  0.45964403231E+02  0.20242223207E+02 -0.12904699612E+03  0.13853906876E+03  0.41800000000E+01 0. -1.
         -5    1    4    4    0  501 -0.56074035227E+02 -0.12136136138E+02 -0.32106945350E+02  0.65878005181E+02  0.41800000000E+01 0. -1.
</event>
<event>
11    1  0.8974665E-009  0.1722970E+03  0.7561462E-02  0.1076050E+00
         22   -1    0    0    0    0  0.00000000000E+00  0.00000000000E+00  0.27482702487E+03  0.27482702487E+03  0.00000000000E+00 0.  1.
         22   -1    0    0    0    0 -0.00000000000E+00 -0.00000000000E+00 -0.46654974437E+03  0.46654974437E+03  0.00000000000E+00 0. -1.
        -24    2    1    2    0    0 -0.10811469688E+03 -0.45452221231E+02 -0.37786417199E+03  0.40359454362E+03  0.79702767018E+02 0.  0.
         25    2    1    2    0    0  0.13000355742E+03  0.28846839344E+02  0.74652628023E+02  0.19736627009E+03  0.12508942648E+03 0.  0.
         24    2    1    2    0    0 -0.21888860541E+02  0.16605381887E+02  0.11148882447E+03  0.14041595552E+03  0.80820923399E+02 0.  0.
        -13    1    5    5    0    0  0.15907870261E+02  0.33014549058E+02  0.81785684502E+02  0.89620973969E+02  0.00000000000E+00 0.  1.
         14    1    5    5    0    0 -0.37796730802E+02 -0.16409167171E+02  0.29703139966E+02  0.50794981547E+02  0.00000000000E+00 0. -1.
         11    1    3    3    0    0 -0.53615694240E+02 -0.35739630020E+02 -0.30690508913E+03  0.31359639276E+03  0.00000000000E+00 0. -1.
        -12    1    3    3    0    0 -0.54499002641E+02 -0.97125912110E+01 -0.70959082867E+02  0.89998150860E+02  0.00000000000E+00 0.  1.
          5    1    4    4  501    0  0.59074163326E+02  0.68665903777E+02  0.72149609320E+02  0.11587839160E+03  0.41800000000E+01 0. -1.
         -5    1    4    4    0  501  0.70929394097E+02 -0.39819064433E+02  0.25030187035E+01  0.81487878496E+02  0.41800000000E+01 0. -1.
</event>
<event>
11    1  0.8974665E-009  0.1313230E+03  0.7561462E-02  0.1117654E+00
         22   -1    0    0    0    0  0.00000000000E+00  0.00000000000E+00  0.23614441471E+03  0.23614441471E+03  0.00000000000E+00 0. -1.
         22   -1    0    0    0    0 -0.00000000000E+00 -0.00000000000E+00 -0.13747295405E+04  0.13747295405E+04  0.00000000000E+00 0.  1.
        -24    2    1    2    0    0 -0.43734996493E+01 -0.47692043937E+02 -0.85358745945E+03  0.85862351486E+03  0.79555834349E+02 0.  0.
         25    2    1    2    0    0 -0.25514463070E+02  0.73389065920E+02 -0.49766917104E+03  0.51899835102E+03  0.12509093385E+03 0.  0.
         24    2    1    2    0    0  0.29887962719E+02 -0.25697021983E+02  0.21267150466E+03  0.23325208939E+03  0.87314036999E+02 0.  0.
        -13    1    5    5    0    0  0.12320606287E+02  0.57587046811E+01 -0.35449292830E+01  0.14054413631E+02  0.00000000000E+00 0.  1.
         14    1    5    5    0    0  0.17567356432E+02 -0.31455726664E+02  0.21621643394E+03  0.21919767576E+03  0.00000000000E+00 0. -1.
         11    1    3    3    0    0  0.15364621049E+02 -0.78729764019E+01 -0.37022034517E+02  0.40849557858E+02  0.00000000000E+00 0. -1.
        -12    1    3    3    0    0 -0.19738120698E+02 -0.39819067535E+02 -0.81656542493E+03  0.81777395700E+03  0.00000000000E+00 0.  1.
          5    1    4    4  501    0 -0.50594945747E+02 -0.16450894607E+02 -0.20249280903E+03  0.20940699744E+03  0.41800000000E+01 0. -1.
         -5    1    4    4    0  501  0.25080482678E+02  0.89839960527E+02 -0.29517636201E+03  0.30959135358E+03  0.41800000000E+01 0. -1.
</event>
<event>
11    1  0.8974665E-009  0.3793533E+03  0.7561462E-02  0.9712721E-01
         22   -1    0    0    0    0  0.00000000000E+00  0.00000000000E+00  0.88753568345E+03  0.88753568345E+03  0.00000000000E+00 0. -1.
         22   -1    0    0    0    0 -0.00000000000E+00 -0.00000000000E+00 -0.25059658685E+04  0.25059658685E+04  0.00000000000E+00 0. -1.
         24    2    1    2    0    0 -0.33299330280E+03 -0.10473828794E+03 -0.19110411241E+04  0.19442965017E+04  0.79724900699E+02 0.  0.
         25    2    1    2    0    0  0.43590225773E+03 -0.47249466388E+02 -0.47348870059E+03  0.65732556015E+03  0.12506818968E+03 0.  0.
        -24    2    1    2    0    0 -0.10290895493E+03  0.15198775432E+03  0.76609963958E+03  0.79187949017E+03  0.80460789881E+02 0.  0.
        -13    1    3    3    0    0 -0.11247382388E+03 -0.11335392974E+02 -0.46399299480E+03  0.47756502323E+03  0.00000000000E+00 0.  1.
         14    1    3    3    0    0 -0.22051947893E+03 -0.93402894963E+02 -0.14470481293E+04  0.14667314784E+04  0.00000000000E+00 0. -1.
         13    1    5    5    0    0 -0.52073357916E+02  0.97643645571E+02  0.29763474826E+03  0.31754111465E+03  0.00000000000E+00 0. -1.
        -14    1    5    5    0    0 -0.50835597013E+02  0.54344108753E+02  0.46846489133E+03  0.47433837552E+03  0.00000000000E+00 0.  1.
          5    1    4    4  501    0  0.26239874191E+03 -0.84755986653E+02 -0.32171051625E+03  0.42373553745E+03  0.41800000000E+01 0.  1.
         -5    1    4    4    0  501  0.17350351582E+03  0.37506520265E+02 -0.15177818434E+03  0.23359002270E+03  0.41800000000E+01 0.  1.
</event>
<event>
11    1  0.8974665E-009  0.2088122E+03  0.7561462E-02  0.1048461E+00
         22   -1    0    0    0    0  0.00000000000E+00  0.00000000000E+00  0.34524461492E+03  0.34524461492E+03  0.00000000000E+00 0. -1.
         22   -1    0    0    0    0 -0.00000000000E+00 -0.00000000000E+00 -0.13027197701E+04  0.13027197701E+04  0.00000000000E+00 0.  1.
        -24    2    1    2    0    0 -0.35963923450E+02 -0.12830249330E+03 -0.11277995291E+04  0.11385640042E+04  0.81494049776E+02 0.  0.
         25    2    1    2    0    0 -0.86993342000E+02 -0.20707664733E+02 -0.88278979936E+02  0.17731156043E+03  0.12509821035E+03 0.  0.
         24    2    1    2    0    0  0.12295726545E+03  0.14901015803E+03  0.25860335394E+03  0.33208882034E+03  0.78004958831E+02 0.  0.
        -13    1    5    5    0    0  0.39331438077E+02  0.40597132399E+02  0.26086785622E+02  0.62254393936E+02  0.00000000000E+00 0.  1.
         14    1    5    5    0    0  0.83625827373E+02  0.10841302563E+03  0.23251656832E+03  0.26983442640E+03  0.00000000000E+00 0. -1.
         13    1    3    3    0    0  0.23848435504E+01 -0.11282655951E+02 -0.41817738369E+03  0.41833635993E+03  0.00000000000E+00 0. -1.
        -14    1    3    3    0    0 -0.38348767000E+02 -0.11701983735E+03 -0.70962214546E+03  0.72022764428E+03  0.00000000000E+00 0.  1.
          5    1    4    4  501    0 -0.59534432945E+02 -0.36682423588E+02  0.12855450572E+02  0.71222776665E+02  0.41800000000E+01 0.  1.
         -5    1    4    4    0  501 -0.27458909055E+02  0.15974758856E+02 -0.10113443051E+03  0.10608878377E+03  0.41800000000E+01 0.  1.
</event>
<event>
11    1  0.8974665E-009  0.1342404E+03  0.7561462E-02  0.1114166E+00
         22   -1    0    0    0    0  0.00000000000E+00  0.00000000000E+00  0.17784018571E+03  0.17784018571E+03  0.00000000000E+00 0.  1.
         22   -1    0    0    0    0 -0.00000000000E+00 -0.00000000000E+00 -0.26719315410E+04  0.26719315410E+04  0.00000000000E+00 0.  1.
         24    2    1    2    0    0  0.32103033446E+02 -0.74468903695E+01 -0.22808383122E+04  0.22827475099E+04  0.87331131514E+02 0.  0.
         25    2    1    2    0    0 -0.18535064740E+02  0.54279254804E+02 -0.36423996250E+03  0.38936912470E+03  0.12509108226E+03 0.  0.
        -24    2    1    2    0    0 -0.13567968706E+02 -0.46832364434E+02  0.15098691940E+03  0.17765509213E+03  0.79918219426E+02 0.  0.
        -11    1    3    3    0    0  0.16493135609E+02 -0.39210533382E+02 -0.18397059993E+04  0.18401977213E+04  0.00000000000E+00 0.  1.
         12    1    3    3    0    0  0.15609897837E+02  0.31763643012E+02 -0.44113231290E+03  0.44254978863E+03  0.00000000000E+00 0. -1.
         13    1    5    5    0    0 -0.86556222340E+01  0.21891562309E+02  0.51663868342E+02  0.56774251107E+02  0.00000000000E+00 0. -1.
        -14    1    5    5    0    0 -0.49123464721E+01 -0.68723926744E+02  0.99323051059E+02  0.12088084102E+03  0.00000000000E+00 0.  1.
          5    1    4    4  501    0 -0.16021044648E+02  0.60346688222E+01  0.39001385105E+01  0.18049226571E+02  0.41800000000E+01 0. -1.
         -5    1    4    4    0  501 -0.25140200917E+01  0.48244585981E+02 -0.36814010101E+03  0.37131989813E+03  0.41800000000E+01 0. -1.
</event>
<event>
11    1  0.8974665E-009  0.1434813E+03  0.7561462E-02  0.1103732E+00
         22   -1    0    0    0    0  0.00000000000E+00  0.00000000000E+00  0.66541234649E+03  0.66541234649E+03  0.00000000000E+00 0.  1.
         22   -1    0    0    0    0 -0.00000000000E+00 -0.00000000000E+00 -0.61451999240E+03  0.61451999240E+03  0.00000000000E+00 0.  1.
        -24    2    1    2    0    0  0.32538232277E+02 -0.18043860346E+02 -0.49439895489E+03  0.50324296818E+03  0.86248715723E+02 0.  0.
         25    2    1    2    0    0  0.10889267070E+02 -0.39128087153E+02 -0.71334202803E+02  0.14962681192E+03  0.12510008398E+03 0.  0.
         24    2    1    2    0    0 -0.43427499347E+02  0.57171947499E+02  0.61662551179E+03  0.62706255880E+03  0.88463843339E+02 0.  0.
        -11    1    5    5    0    0 -0.48678332598E+02  0.51810409459E+02  0.61535911593E+03  0.61945196759E+03  0.00000000000E+00 0.  1.
         12    1    5    5    0    0  0.52508332510E+01  0.53615380405E+01  0.12663958514E+01  0.76105912018E+01  0.00000000000E+00 0. -1.
         11    1    3    3    0    0 -0.90024235081E+01 -0.38185425544E+02 -0.12610510604E+03  0.13206690775E+03  0.00000000000E+00 0. -1.
        -12    1    3    3    0    0  0.41540655786E+02  0.20141565198E+02 -0.36829384885E+03  0.37117606043E+03  0.00000000000E+00 0.  1.
          5    1    4    4  501    0  0.43030662055E+02 -0.42821148752E+02  0.10300035196E+02  0.61715895703E+02  0.41800000000E+01 0. -1.
         -5    1    4    4    0  501 -0.32141394985E+02  0.36930615994E+01 -0.81634237999E+02  0.87910916212E+02  0.41800000000E+01 0. -1.
</event>
<event>
11    1  0.8974665E-009  0.2120337E+03  0.7561462E-02  0.1046326E+00
         22   -1    0    0    0    0  0.00000000000E+00  0.00000000000E+00  0.40804473259E+03  0.40804473259E+03  0.00000000000E+00 0.  1.
         22   -1    0    0    0    0 -0.00000000000E+00 -0.00000000000E+00 -0.31402155952E+03  0.31402155952E+03  0.00000000000E+00 0.  1.
         24    2    1    2    0    0  0.68322750992E+02  0.38564340661E+02 -0.17266703768E+03  0.20619938415E+03  0.80926345826E+02 0.  0.
         25    2    1    2    0    0  0.48880944347E+02  0.11305309387E+03 -0.24266419777E+01  0.17556634761E+03  0.12508918844E+03 0.  0.
        -24    2    1    2    0    0 -0.11720369534E+03 -0.15161743453E+03  0.26911685272E+03  0.34030056036E+03  0.81584546959E+02 0.  0.
        -13    1    3    3    0    0  0.36521801287E+02  0.29544779089E+02 -0.16594715213E+03  0.17246794844E+03  0.00000000000E+00 0.  1.
         14    1    3    3    0    0  0.31800949705E+02  0.90195615723E+01 -0.67198855538E+01  0.33731435708E+02  0.00000000000E+00 0. -1.
         11    1    5    5    0    0 -0.29478689677E+01  0.65804792764E+01  0.33972206086E+02  0.34728999774E+02  0.00000000000E+00 0. -1.
        -12    1    5    5    0    0 -0.11425582637E+03 -0.15819791381E+03  0.23514464664E+03  0.30557156058E+03  0.00000000000E+00 0.  1.
          5    1    4    4  501    0  0.15440031790E+02 -0.23094879170E+02 -0.19609965276E+02  0.34260635775E+02  0.41800000000E+01 0. -1.
         -5    1    4    4    0  501  0.33440912558E+02  0.13614797304E+03  0.17183323298E+02  0.14130571183E+03  0.41800000000E+01 0. -1.
</event>
<event>
11    1  0.8974665E-009  0.1944658E+03  0.7561462E-02  0.1058508E+00
         22   -1    0    0    0    0  0.00000000000E+00  0.00000000000E+00  0.12605880423E+04  0.12605880423E+04  0.00000000000E+00 0.  1.
         22   -1    0    0    0    0 -0.00000000000E+00 -0.00000000000E+00 -0.10325708625E+03  0.10325708625E+03  0.00000000000E+00 0.  1.
         24    2    1    2    0    0 -0.27720312923E+02  0.12242798364E+03  0.56726590680E+02  0.15892956879E+03  0.79269633656E+02 0.  0.
         25    2    1    2    0    0  0.12934597750E+03 -0.20762514771E+03  0.38589186646E+03  0.47370591186E+03  0.12508466922E+03 0.  0.
        -24    2    1    2    0    0 -0.10162566457E+03  0.85197164074E+02  0.71471249892E+03  0.73120964791E+03  0.79166031985E+02 0.  0.
        -13    1    3    3    0    0 -0.55506682510E+02  0.89802183436E+02  0.38789336874E+02  0.11247238154E+03  0.00000000000E+00 0.  1.
         14    1    3    3    0    0  0.27786369588E+02  0.32625800202E+02  0.17937253805E+02  0.46457187256E+02  0.00000000000E+00 0. -1.
         13    1    5    5    0    0 -0.21582161568E+02  0.72694039160E+01  0.31195272980E+02  0.38623554828E+02  0.00000000000E+00 0. -1.
        -14    1    5    5    0    0 -0.80043503007E+02  0.77927760158E+02  0.68351722594E+03  0.69258609308E+03  0.00000000000E+00 0.  1.
          5    1    4    4  501    0  0.13696813740E+03 -0.17667659838E+03  0.38018217709E+03  0.44105651708E+03  0.41800000000E+01 0.  1.
         -5    1    4    4    0  501 -0.76221598990E+01 -0.30948549328E+02  0.57096893682E+01  0.32649394783E+02  0.41800000000E+01 0.  1.
</event>
<event>
11    1  0.8974665E-009  0.1404159E+03  0.7561462E-02  0.1107095E+00
         22   -1    0    0    0    0  0.00000000000E+00  0.00000000000E+00  0.79718508449E+03  0.79718508449E+03  0.00000000000E+00 0. -1.
         22   -1    0    0    0    0 -0.00000000000E+00 -0.00000000000E+00 -0.53789729127E+03  0.53789729127E+03  0.00000000000E+00 0. -1.
        -24    2    1    2    0    0 -0.16497205398E+02  0.61524452246E+02 -0.49877827103E+03  0.50964867846E+03  0.83093897459E+02 0.  0.
         25    2    1    2    0    0  0.11791000096E+02 -0.65645761831E+02  0.13057157104E+03  0.19273050197E+03  0.12509083697E+03 0.  0.
         24    2    1    2    0    0  0.47062053023E+01  0.41213095855E+01  0.62749449321E+03  0.63270319534E+03  0.80776610607E+02 0.  0.
        -11    1    5    5    0    0  0.55803826898E+01 -0.16784817227E+02  0.29883443287E+02  0.34725940491E+02  0.00000000000E+00 0.  1.
         12    1    5    5    0    0 -0.87417738751E+00  0.20906126812E+02  0.59761104992E+03  0.59797725485E+03  0.00000000000E+00 0. -1.
         11    1    3    3    0    0 -0.48472511115E+02  0.51751410527E+02 -0.35797793033E+03  0.36493285880E+03  0.00000000000E+00 0. -1.
        -12    1    3    3    0    0  0.31975305717E+02  0.97730417184E+01 -0.14080034070E+03  0.14471581966E+03  0.00000000000E+00 0.  1.
          5    1    4    4  501    0  0.51077661046E+02 -0.83214969481E+02  0.80849426478E+02  0.12683753689E+03  0.41800000000E+01 0. -1.
         -5    1    4    4    0  501 -0.39286660950E+02  0.17569207650E+02  0.49722144566E+02  0.65892965074E+02  0.41800000000E+01 0. -1.
</event>
<event>
11    1  0.8974665E-009  0.1655980E+03  0.7561462E-02  0.1081927E+00
         22   -1    0    0    0    0  0.00000000000E+00  0.00000000000E+00  0.16814614234E+04  0.16814614234E+04  0.00000000000E+00 0.  1.
         22   -1    0    0    0    0 -0.00000000000E+00 -0.00000000000E+00 -0.20697837338E+03  0.20697837338E+03  0.00000000000E+00 0.  1.
         24    2    1    2    0    0  0.98461490734E+02  0.41369715579E+02 -0.15129777024E+03  0.20190054736E+03  0.80415777184E+02 0.  0.
         25    2    1    2    0    0 -0.15666794541E+03  0.32892313305E+02  0.35001595691E+03  0.40470384346E+03  0.12508909394E+03 0.  0.
        -24    2    1    2    0    0  0.58206454673E+02 -0.74262028884E+02  0.12757648634E+04  0.12818354060E+04  0.81382928991E+02 0.  0.
        -11    1    3    3    0    0  0.28135054078E+02 -0.24463441304E+02 -0.45271811270E+02  0.58647916622E+02  0.00000000000E+00 0.  1.
         12    1    3    3    0    0  0.70326436656E+02  0.65833156883E+02 -0.10602595897E+03  0.14325263074E+03  0.00000000000E+00 0. -1.
         11    1    5    5    0    0  0.51483324282E+02 -0.47071159804E+01  0.40817507647E+03  0.41143600070E+03  0.00000000000E+00 0. -1.
        -12    1    5    5    0    0  0.67231303919E+01 -0.69554912904E+02  0.86758978692E+03  0.87039940531E+03  0.00000000000E+00 0.  1.
          5    1    4    4  501    0 -0.12440847121E+03  0.77694129318E+02  0.23487710842E+03  0.27694507380E+03  0.41800000000E+01 0. -1.
         -5    1    4    4    0  501 -0.32259474193E+02 -0.44801816012E+02  0.11513884849E+03  0.12775876966E+03  0.41800000000E+01 0. -1.
</event>
<event>
11    1  0.8974665E-009  0.1407665E+03  0.7561462E-02  0.1106705E+00
         22   -1    0    0    0    0  0.00000000000E+00  0.00000000000E+00  0.10177471933E+03  0.10177471933E+03  0.00000000000E+00 0. -1.
         22   -1    0    0    0    0 -0.00000000000E+00 -0.00000000000E+00 -0.88310177229E+03  0.88310177229E+03  0.00000000000E+00 0. -1.
         24    2    1    2    0    0 -0.18367058930E+02 -0.50621386438E+02 -0.58377902805E+03  0.59190599034E+03  0.81577412301E+02 0.  0.
         25    2    1    2    0    0  0.80373673178E+02  0.37756054716E+02 -0.23736528476E+03  0.28262122435E+03  0.12508809310E+03 0.  0.
        -24    2    1    2    0    0 -0.62006614248E+02  0.12865331721E+02  0.39817259843E+02  0.11034927692E+03  0.81124668047E+02 0.  0.
        -13    1    3    3    0    0  0.19731778955E+02 -0.45664047776E+02 -0.19545177919E+03  0.20168278644E+03  0.00000000000E+00 0.  1.
         14    1    3    3    0    0 -0.38098837885E+02 -0.49573386621E+01 -0.38832724886E+03  0.39022320390E+03  0.00000000000E+00 0. -1.
         11    1    5    5    0    0 -0.27945534695E+02 -0.19949879313E+02  0.51251304194E+02  0.61689924425E+02  0.00000000000E+00 0. -1.
        -12    1    5    5    0    0 -0.34061079552E+02  0.32815211034E+02 -0.11434044351E+02  0.48659352500E+02  0.00000000000E+00 0.  1.
          5    1    4    4  501    0  0.13361769959E+02  0.13611783747E+02  0.12221419802E+02  0.23035907953E+02  0.41800000000E+01 0.  1.
         -5    1    4    4    0  501  0.67011903218E+02  0.24144270970E+02 -0.24958670456E+03  0.25958531640E+03  0.41800000000E+01 0.  1.
</event>
<event>
11    1  0.8974665E-009  0.1678892E+03  0.7561462E-02  0.1079883E+00
         22   -1    0    0    0    0  0.00000000000E+00  0.00000000000E+00  0.68834485605E+03  0.68834485605E+03  0.00000000000E+00 0. -1.
         22   -1    0    0    0    0 -0.00000000000E+00 -0.00000000000E+00 -0.40277011272E+03  0.40277011272E+03  0.00000000000E+00 0. -1.
         24    2    1    2    0    0 -0.73889152948E+02  0.70182085482E+02 -0.22430950196E+03  0.25632676062E+03  0.70735588631E+02 0.  0.
         25    2    1    2    0    0  0.95510257912E+02 -0.11681966610E+03 -0.98278870139E+02  0.21926050411E+03  0.12508952232E+03 0.  0.
        -24    2    1    2    0    0 -0.21621104964E+02  0.46637580622E+02  0.60816311543E+03  0.61552770403E+03  0.79808792477E+02 0.  0.
        -11    1    3    3    0    0 -0.51779547545E+02  0.34919692912E+01 -0.73740583099E+02  0.90171996702E+02  0.00000000000E+00 0.  1.
         12    1    3    3    0    0 -0.22109605403E+02  0.66690116191E+02 -0.15056891886E+03  0.16615476392E+03  0.00000000000E+00 0. -1.
         13    1    5    5    0    0 -0.85848638684E+01  0.59002944718E+02  0.57247529855E+03  0.57557190239E+03  0.00000000000E+00 0. -1.
        -14    1    5    5    0    0 -0.13036241096E+02 -0.12365364096E+02  0.35687816880E+02  0.39955801641E+02  0.00000000000E+00 0.  1.
          5    1    4    4  501    0  0.10011640558E+02  0.23395565870E+02 -0.34411951381E+02  0.43002793478E+02  0.41800000000E+01 0. -1.
         -5    1    4    4    0  501  0.85498617354E+02 -0.14021523197E+03 -0.63866918758E+02  0.17625771064E+03  0.41800000000E+01 0. -1.
</event>
<event>
11    1  0.8974665E-009  0.1760123E+03  0.7561462E-02  0.1072915E+00
         22   -1    0    0    0    0  0.00000000000E+00  0.00000000000E+00  0.68069752672E+03  0.68069752672E+03  0.00000000000E+00 0. -1.
         22   -1    0    0    0    0 -0.00000000000E+00 -0.00000000000E+00 -0.13207851249E+04  0.13207851249E+04  0.00000000000E+00 0. -1.
        -24    2    1    2    0    0 -0.11035724072E+03  0.58222859085E+02 -0.12875999250E+04  0.12961889763E+04  0.81385953696E+02 0.  0.
         25    2    1    2    0    0  0.52274863406E+02 -0.56825166401E+02  0.20750681602E+03  0.25429992770E+03  0.12509042190E+03 0.  0.
         24    2    1    2    0    0  0.58082377310E+02 -0.13976926839E+01  0.44000551079E+03  0.45099374767E+03  0.80093662719E+02 0.  0.
        -13    1    5    5    0    0  0.45673046145E+02  0.28106756357E+02  0.37184071726E+03  0.37568808327E+03  0.00000000000E+00 0.  1.
         14    1    5    5    0    0  0.12409331165E+02 -0.29504449041E+02  0.68164793529E+02  0.75305664396E+02  0.00000000000E+00 0. -1.
         13    1    3    3    0    0 -0.85299227254E+02  0.60867942013E+02 -0.67632011844E+03  0.68439006944E+03  0.00000000000E+00 0. -1.
        -14    1    3    3    0    0 -0.25058013462E+02 -0.26450829281E+01 -0.61127980657E+03  0.61179890685E+03  0.00000000000E+00 0.  1.
          5    1    4    4  501    0  0.13599302116E+02  0.33296411948E+02  0.17019639890E+02  0.40009156560E+02  0.41800000000E+01 0. -1.
         -5    1    4    4    0  501  0.38675561290E+02 -0.90121578350E+02  0.19048717613E+03  0.21429077114E+03  0.41800000000E+01 0. -1.
</event>
<event>
11    1  0.8974665E-009  0.2035410E+03  0.7561462E-02  0.1052047E+00
         22   -1    0    0    0    0  0.00000000000E+00  0.00000000000E+00  0.17118455975E+04  0.17118455975E+04  0.00000000000E+00 0.  1.
         22   -1    0    0    0    0 -0.00000000000E+00 -0.00000000000E+00 -0.96106095226E+03  0.96106095226E+03  0.00000000000E+00 0. -1.
         24    2    1    2    0    0  0.12921687779E+03  0.94308488541E+02 -0.85298551691E+03  0.87016722986E+03  0.63368946175E+02 0.  0.
         25    2    1    2    0    0 -0.14934935772E+03 -0.81090267124E+02  0.14752267003E+02  0.21152354760E+03  0.12507485652E+03 0.  0.
        -24    2    1    2    0    0  0.20132479922E+02 -0.13218221417E+02  0.15890178952E+04  0.15912157723E+04  0.80060757079E+02 0.  0.
        -13    1    3    3    0    0  0.88731129187E+01  0.36331464279E+02 -0.14913621316E+03  0.15375408126E+03  0.00000000000E+00 0.  1.
         14    1    3    3    0    0  0.12034376488E+03  0.57977024262E+02 -0.70384930375E+03  0.71641314860E+03  0.00000000000E+00 0. -1.
         13    1    5    5    0    0 -0.15741559264E+02  0.71519509336E+01  0.90887702875E+02  0.92517682765E+02  0.00000000000E+00 0. -1.
        -14    1    5    5    0    0  0.35874039185E+02 -0.20370172351E+02  0.14981301923E+04  0.14986980896E+04  0.00000000000E+00 0.  1.
          5    1    4    4  501    0 -0.14741671134E+03 -0.94468375192E+02  0.42638024948E+02  0.18025380514E+03  0.41800000000E+01 0. -1.
         -5    1    4    4    0  501 -0.19326463727E+01  0.13378108068E+02 -0.27885757945E+02  0.31269742462E+02  0.41800000000E+01 0. -1.
</event>
<event>
11    1  0.8974665E-009  0.1280538E+03  0.7561462E-02  0.1121684E+00
         22   -1    0    0    0    0  0.00000000000E+00  0.00000000000E+00  0.24014457024E+03  0.24014457024E+03  0.00000000000E+00 0.  1.
         22   -1    0    0    0    0 -0.00000000000E+00 -0.00000000000E+00 -0.20406820301E+03  0.20406820301E+03  0.00000000000E+00 0. -1.
         24    2    1    2    0    0 -0.17261336381E+02  0.15589172314E+02 -0.12590436950E+03  0.15316640044E+03  0.84065807187E+02 0.  0.
         25    2    1    2    0    0  0.46817860839E+02 -0.30738707137E+02  0.42315982467E+02  0.14344030440E+03  0.12509076043E+03 0.  0.
        -24    2    1    2    0    0 -0.29556524458E+02  0.15149534823E+02  0.11966475426E+03  0.14760606840E+03  0.79779705903E+02 0.  0.
        -11    1    3    3    0    0 -0.65878259286E+01  0.48430845675E+02 -0.50756714277E+02  0.70464106519E+02  0.00000000000E+00 0.  1.
         12    1    3    3    0    0 -0.10673510453E+02 -0.32841673362E+02 -0.75147655223E+02  0.82702293923E+02  0.00000000000E+00 0. -1.
         13    1    5    5    0    0 -0.99512398211E+00 -0.20733483428E+02  0.14513978123E+01  0.20808031200E+02  0.00000000000E+00 0. -1.
        -14    1    5    5    0    0 -0.28561400476E+02  0.35883018251E+02  0.11821335645E+03  0.12679803720E+03  0.00000000000E+00 0.  1.
          5    1    4    4  501    0 -0.10636751029E+02  0.21965257545E+02 -0.28694221696E+02  0.37900445515E+02  0.41800000000E+01 0.  1.
         -5    1    4    4    0  501  0.57454611868E+02 -0.52703964682E+02  0.71010204163E+02  0.10553985888E+03  0.41800000000E+01 0.  1.
</event>
<event>
11    1  0.8974665E-009  0.1393349E+03  0.7561462E-02  0.1108303E+00
         22   -1    0    0    0    0  0.00000000000E+00  0.00000000000E+00  0.60138637578E+03  0.60138637578E+03  0.00000000000E+00 0. -1.
         22   -1    0    0    0    0 -0.00000000000E+00 -0.00000000000E+00 -0.20262586449E+03  0.20262586449E+03  0.00000000000E+00 0.  1.
         24    2    1    2    0    0  0.38940645090E+02 -0.48739016035E+02 -0.13890763153E+03  0.17153572448E+03  0.78976636737E+02 0.  0.
         25    2    1    2    0    0 -0.31679686494E+02  0.44831475551E+02  0.61821120304E+02  0.14994265710E+03  0.12508991073E+03 0.  0.
        -24    2    1    2    0    0 -0.72609585958E+01  0.39075404843E+01  0.47584702252E+03  0.48253385869E+03  0.79627542675E+02 0.  0.
        -11    1    3    3    0    0  0.58892115422E+02 -0.32704526990E+02 -0.66171977443E+02  0.94427739268E+02  0.00000000000E+00 0.  1.
         12    1    3    3    0    0 -0.19951470332E+02 -0.16034489045E+02 -0.72735654091E+02  0.77107985211E+02  0.00000000000E+00 0. -1.
         13    1    5    5    0    0 -0.75969276696E+01  0.38064576852E+02  0.34956869534E+03  0.35171707107E+03  0.00000000000E+00 0. -1.
        -14    1    5    5    0    0  0.33596907376E+00 -0.34157036367E+02  0.12627832718E+03  0.13081678762E+03  0.00000000000E+00 0.  1.
          5    1    4    4  501    0 -0.24888272761E+02  0.70090790558E+01 -0.36138812302E+02  0.44632269322E+02  0.41800000000E+01 0.  1.
         -5    1    4    4    0  501 -0.67914137332E+01  0.37822396495E+02  0.97959932606E+02  0.10531038777E+03  0.41800000000E+01 0.  1.
</event>
<event>
11    1  0.8974665E-009  0.1396155E+03  0.7561462E-02  0.1107988E+00
         22   -1    0    0    0    0  0.00000000000E+00  0.00000000000E+00  0.21091287279E+04  0.21091287279E+04  0.00000000000E+00 0.  1.
         22   -1    0    0    0    0 -0.00000000000E+00 -0.00000000000E+00 -0.10852195531E+04  0.10852195531E+04  0.00000000000E+00 0.  1.
        -24    2    1    2    0    0 -0.21830527993E+02  0.21343006998E+01 -0.98716589717E+03  0.99078820425E+03  0.81753470549E+02 0.  0.
         25    2    1    2    0    0 -0.23589225120E+02  0.40398244056E+02 -0.48088766347E+02  0.14194713763E+03  0.12509192926E+03 0.  0.
         24    2    1    2    0    0  0.45419753113E+02 -0.42532544756E+02  0.20591638383E+04  0.20616129391E+04  0.78868411149E+02 0.  0.
        -13    1    5    5    0    0  0.67894672912E+02 -0.35457052709E+02  0.15036424340E+04  0.15055920624E+04  0.00000000000E+00 0.  1.
         14    1    5    5    0    0 -0.22474919799E+02 -0.70754920467E+01  0.55552140433E+03  0.55602087666E+03  0.00000000000E+00 0. -1.
         13    1    3    3    0    0 -0.31816216277E+02  0.15068950566E+02 -0.17750054068E+03  0.18095796979E+03  0.00000000000E+00 0. -1.
        -14    1    3    3    0    0  0.99856882841E+01 -0.12934649866E+02 -0.80966535649E+03  0.80983023446E+03  0.00000000000E+00 0.  1.
          5    1    4    4  501    0 -0.31011408323E+02 -0.36441789191E+02  0.48063043366E+01  0.48273019452E+02  0.41800000000E+01 0. -1.
         -5    1    4    4    0  501  0.74221832034E+01  0.76840033247E+02 -0.52895070684E+02  0.93674118173E+02  0.41800000000E+01 0. -1.
</event>
<event>
11    1  0.8974665E-009  0.1363883E+03  0.7561462E-02  0.1111660E+00
         22   -1    0    0    0    0  0.00000000000E+00  0.00000000000E+00  0.83604205088E+03  0.83604205088E+03  0.00000000000E+00 0. -1.
         22   -1    0    0    0    0 -0.00000000000E+00 -0.00000000000E+00 -0.51654909410E+03  0.51654909410E+03  0.00000000000E+00 0. -1.
         24    2    1    2    0    0  0.41904429746E+02 -0.36266405018E+02 -0.45561873735E+03  0.46602724632E+03  0.80757210992E+02 0.  0.
         25    2    1    2    0    0 -0.12551103230E+02 -0.13195564425E+02  0.23928693307E+02  0.12865356534E+03  0.12508998520E+03 0.  0.
        -24    2    1    2    0    0 -0.29353326516E+02  0.49461969443E+02  0.75118300083E+03  0.75791033332E+03  0.82728885074E+02 0.  0.
        -11    1    3    3    0    0  0.10211448618E+02  0.26059945233E+02 -0.12484860871E+03  0.12794752645E+03  0.00000000000E+00 0.  1.
         12    1    3    3    0    0  0.31692981128E+02 -0.62326350252E+02 -0.33077012864E+03  0.33807971987E+03  0.00000000000E+00 0. -1.
         11    1    5    5    0    0  0.97092204992E+01  0.38719423609E+02  0.60206841296E+03  0.60339028548E+03  0.00000000000E+00 0. -1.
        -12    1    5    5    0    0 -0.39062547015E+02  0.10742545834E+02  0.14911458787E+03  0.15452004784E+03  0.00000000000E+00 0.  1.
          5    1    4    4  501    0 -0.59751891804E+02 -0.93532787014E+01 -0.20087255335E+02  0.63865034436E+02  0.41800000000E+01 0. -1.
         -5    1    4    4    0  501  0.47200788574E+02 -0.38422857235E+01  0.44015948642E+02  0.64788530902E+02  0.41800000000E+01 0. -1.
</event>
<event>
11    1  0.8974665E-009  0.1341654E+03  0.7561462E-02  0.1114254E+00
         22   -1    0    0    0    0  0.00000000000E+00  0.00000000000E+00  0.61742878057E+03  0.61742878057E+03  0.00000000000E+00 0.  1.
         22   -1    0    0    0    0 -0.00000000000E+00 -0.00000000000E+00 -0.66776504653E+03  0.66776504653E+03  0.00000000000E+00 0.  1.
        -24    2    1    2    0    0 -0.75190436026E+01  0.36185193111E+02 -0.64069180307E+03  0.64662102026E+03  0.79163458169E+02 0.  0.
         25    2    1    2    0    0 -0.10954378966E+02  0.20101306272E+02  0.22016283205E+03  0.25425243732E+03  0.12509423783E+03 0.  0.
         24    2    1    2    0    0  0.18473422568E+02 -0.56286499383E+02  0.37019270507E+03  0.38432036952E+03  0.84558087656E+02 0.  0.
        -11    1    5    5    0    0 -0.16451790667E+02 -0.36693540665E+02  0.30620854000E+03  0.30883773621E+03  0.00000000000E+00 0.  1.
         12    1    5    5    0    0  0.34925213236E+02 -0.19592958718E+02  0.63984165068E+02  0.75482633303E+02  0.00000000000E+00 0. -1.
         13    1    3    3    0    0 -0.18747740518E+02  0.35157588554E+02 -0.13386471958E+03  0.13966852529E+03  0.00000000000E+00 0. -1.
        -14    1    3    3    0    0  0.11228696915E+02  0.10276045572E+01 -0.50682708348E+03  0.50695249497E+03  0.00000000000E+00 0.  1.
          5    1    4    4  501    0  0.43110336069E+02  0.23839437504E+02  0.33210069687E+02  0.59558382996E+02  0.41800000000E+01 0. -1.
         -5    1    4    4    0  501 -0.54064715035E+02 -0.37381312317E+01  0.18695276236E+03  0.19469405433E+03  0.41800000000E+01 0. -1.
</event>
<event>
11    1  0.8974665E-009  0.2198552E+03  0.7561462E-02  0.1041308E+00
         22   -1    0    0    0    0  0.00000000000E+00  0.00000000000E+00  0.52691503283E+03  0.52691503283E+03  0.00000000000E+00 0. -1.
         22   -1    0    0    0    0 -0.00000000000E+00 -0.00000000000E+00 -0.22347429743E+04  0.22347429743E+04  0.00000000000E+00 0.  1.
        -24    2    1    2    0    0 -0.18658983028E+02 -0.27442549617E+02 -0.12314639447E+04  0.12345902087E+04  0.81291358639E+02 0.  0.
         25    2    1    2    0    0 -0.16218740726E+03  0.16241605539E+02 -0.97156162668E+03  0.99304995748E+03  0.12509068224E+03 0.  0.
         24    2    1    2    0    0  0.18084639029E+03  0.11200944078E+02  0.49519762992E+03  0.53401784100E+03  0.84400733405E+02 0.  0.
        -13    1    5    5    0    0 -0.16560634688E+01  0.15764870052E+02  0.60483604408E+02  0.62526315069E+02  0.00000000000E+00 0.  1.
         14    1    5    5    0    0  0.18250245375E+03 -0.45639259745E+01  0.43471402552E+03  0.47149152593E+03  0.00000000000E+00 0. -1.
         11    1    3    3    0    0 -0.11502140292E+02  0.26305496548E+02 -0.25274735836E+03  0.25437276886E+03  0.00000000000E+00 0. -1.
        -12    1    3    3    0    0 -0.71568427363E+01 -0.53748046165E+02 -0.97871658636E+03  0.98021743980E+03  0.00000000000E+00 0.  1.
          5    1    4    4  501    0 -0.21073908631E+02  0.40237490349E+02 -0.10144295875E+03  0.11122639765E+03  0.41800000000E+01 0.  1.
         -5    1    4    4    0  501 -0.14111349863E+03 -0.23995884809E+02 -0.87011866793E+03  0.88182355983E+03  0.41800000000E+01 0.  1.
</event>
<event>
11    1  0.8974665E-009  0.1700223E+03  0.7561462E-02  0.1078012E+00
         22   -1    0    0    0    0  0.00000000000E+00  0.00000000000E+00  0.19281651871E+04  0.19281651871E+04  0.00000000000E+00 0. -1.
         22   -1    0    0    0    0 -0.00000000000E+00 -0.00000000000E+00 -0.68350075701E+03  0.68350075701E+03  0.00000000000E+00 0.  1.
         24    2    1    2    0    0  0.10439069432E+03  0.48924067772E+02 -0.65649445061E+03  0.67152326670E+03  0.81655082991E+02 0.  0.
         25    2    1    2    0    0 -0.83843922948E+02 -0.75389497716E+02  0.37048332334E+03  0.40696403638E+03  0.12509378183E+03 0.  0.
        -24    2    1    2    0    0 -0.20546771369E+02  0.26465429944E+02  0.15306755573E+04  0.15331786410E+04  0.80910410964E+02 0.  0.
        -11    1    3    3    0    0  0.10330543966E+03  0.66969661415E+02 -0.57984223741E+03  0.59276805725E+03  0.00000000000E+00 0.  1.
         12    1    3    3    0    0  0.10852546536E+01 -0.18045593644E+02 -0.76652213198E+02  0.78755209452E+02  0.00000000000E+00 0. -1.
         13    1    5    5    0    0 -0.37189966376E+02  0.47635389775E+02  0.11065596919E+04  0.11082087239E+04  0.00000000000E+00 0. -1.
        -14    1    5    5    0    0  0.16643195006E+02 -0.21169959831E+02  0.42411586537E+03  0.42496991705E+03  0.00000000000E+00 0.  1.
          5    1    4    4  501    0  0.12940797011E+02 -0.56889012062E+02  0.72911415161E+02  0.93473904280E+02  0.41800000000E+01 0. -1.
         -5    1    4    4    0  501 -0.96784719959E+02 -0.18500485653E+02  0.29757190818E+03  0.31349013210E+03  0.41800000000E+01 0. -1.
</event>
<event>
11    1  0.8974665E-009  0.1431362E+03  0.7561462E-02  0.1104106E+00
         22   -1    0    0    0    0  0.00000000000E+00  0.00000000000E+00  0.19055054031E+03  0.19055054031E+03  0.00000000000E+00 0.  1.
         22   -1    0    0    0    0 -0.00000000000E+00 -0.00000000000E+00 -0.15360525090E+04  0.15360525090E+04  0.00000000000E+00 0.  1.
         24    2    1    2    0    0 -0.42865609898E+02 -0.55384548841E+02 -0.14567432424E+04  0.14604413123E+04  0.76701001193E+02 0.  0.
         25    2    1    2    0    0  0.12061908849E+02  0.54155346881E+02  0.16069894680E+02  0.13778335545E+03  0.12509084811E+03 0.  0.
        -24    2    1    2    0    0  0.30803701050E+02  0.12292019598E+01  0.95171379059E+02  0.12837838156E+03  0.80455195756E+02 0.  0.
        -13    1    3    3    0    0  0.15241986884E+02 -0.41227599501E+02 -0.64942638528E+03  0.65091217766E+03  0.00000000000E+00 0.  1.
         14    1    3    3    0    0 -0.58107596783E+02 -0.14156949340E+02 -0.80731685712E+03  0.80952913463E+03  0.00000000000E+00 0. -1.
         13    1    5    5    0    0  0.39959482519E+02  0.29810588125E+02  0.34310021513E+02  0.60519492594E+02  0.00000000000E+00 0. -1.
        -14    1    5    5    0    0 -0.91557814691E+01 -0.28581386166E+02  0.60861357546E+02  0.67858888967E+02  0.00000000000E+00 0.  1.
          5    1    4    4  501    0  0.58259591766E+02  0.62514768259E+02 -0.59451005762E+01  0.85761838274E+02  0.41800000000E+01 0. -1.
         -5    1    4    4    0  501 -0.46197682917E+02 -0.83594213785E+01  0.22014995257E+02  0.52021517172E+02  0.41800000000E+01 0. -1.
</event>
<event>
11    1  0.8974665E-009  0.2032586E+03  0.7561462E-02  0.1052243E+00
         22   -1    0    0    0    0  0.00000000000E+00  0.00000000000E+00  0.43517430382E+03  0.43517430382E+03  0.00000000000E+00 0. -1.
         22   -1    0    0    0    0 -0.00000000000E+00 -0.00000000000E+00 -0.96182874806E+03  0.96182874806E+03  0.00000000000E+00 0. -1.
        -24    2    1    2    0    0  0.31372662001E+02  0.15301306641E+03 -0.83095492136E+03  0.84925837638E+03  0.79727448928E+02 0.  0.
         25    2    1    2    0    0 -0.89385746058E+02 -0.21630785587E+03  0.49375775826E+02  0.26993436235E+03  0.12509073758E+03 0.  0.
         24    2    1    2    0    0  0.58013084057E+02  0.63294789463E+02  0.25492470129E+03  0.27781031315E+03  0.69427793175E+02 0.  0.
        -13    1    5    5    0    0  0.69320961851E+01  0.38145361776E+02  0.40956924766E+02  0.56396739877E+02  0.00000000000E+00 0.  1.
         14    1    5    5    0    0  0.51080987872E+02  0.25149427688E+02  0.21396777653E+03  0.22141357327E+03  0.00000000000E+00 0. -1.
         11    1    3    3    0    0  0.42478019360E+01  0.18650057433E+02 -0.30942769992E+03  0.31001833807E+03  0.00000000000E+00 0. -1.
        -12    1    3    3    0    0  0.27124860065E+02  0.13436300898E+03 -0.52152722144E+03  0.53924003831E+03  0.00000000000E+00 0.  1.
          5    1    4    4  501    0 -0.36184092673E+02 -0.49630873251E+01 -0.19134916770E+02  0.41443192905E+02  0.41800000000E+01 0. -1.
         -5    1    4    4    0  501 -0.53201653385E+02 -0.21134476855E+03  0.68510692596E+02  0.22849116945E+03  0.41800000000E+01 0. -1.
</event>
<event>
11    1  0.8974665E-009  0.1521960E+03  0.7561462E-02  0.1094656E+00
         22   -1    0    0    0    0  0.00000000000E+00  0.00000000000E+00  0.41925627349E+04  0.41925627349E+04  0.00000000000E+00 0.  1.
         22   -1    0    0    0    0 -0.00000000000E+00 -0.00000000000E+00 -0.49555301078E+02  0.49555301078E+02  0.00000000000E+00 0.  1.
         24    2    1    2    0    0 -0.30115278760E+02 -0.65133080286E+02  0.40255488589E+02  0.11480364365E+03  0.80063250440E+02 0.  0.
         25    2    1    2    0    0  0.64746611330E+02  0.13814246530E+03  0.85185258186E+03  0.87440068276E+03  0.12509303891E+03 0.  0.
        -24    2    1    2    0    0 -0.34631332571E+02 -0.73009385010E+02  0.32508993634E+04  0.32529137096E+04  0.81063133845E+02 0.  0.
        -11    1    3    3    0    0 -0.62700358274E+01 -0.41158750872E+02 -0.19631567261E+02  0.46029931086E+02  0.00000000000E+00 0.  1.
         12    1    3    3    0    0 -0.23845242932E+02 -0.23974329413E+02  0.59887055849E+02  0.68773712562E+02  0.00000000000E+00 0. -1.
         13    1    5    5    0    0 -0.17243840608E+02 -0.82766997646E+01  0.20859429692E+04  0.20860306625E+04  0.00000000000E+00 0. -1.
        -14    1    5    5    0    0 -0.17387491963E+02 -0.64732685246E+02  0.11649563942E+04  0.11668830472E+04  0.00000000000E+00 0.  1.
          5    1    4    4  501    0  0.95569496069E+02  0.11978111322E+03  0.57037600628E+03  0.59061603822E+03  0.41800000000E+01 0. -1.
         -5    1    4    4    0  501 -0.30822884739E+02  0.18361352080E+02  0.28147657558E+03  0.28378464453E+03  0.41800000000E+01 0. -1.
</event>
<event>
11    1  0.8974665E-009  0.1577146E+03  0.7561462E-02  0.1089247E+00
         22   -1    0    0    0    0  0.00000000000E+00  0.00000000000E+00  0.30826328462E+03  0.30826328462E+03  0.00000000000E+00 0. -1.
         22   -1    0    0    0    0 -0.00000000000E+00 -0.00000000000E+00 -0.14092348965E+04  0.14092348965E+04  0.00000000000E+00 0.  1.
        -24    2    1    2    0    0  0.38820828301E+02 -0.84752910118E+02 -0.10504125436E+04  0.10580511254E+04  0.86113643841E+02 0.  0.
         25    2    1    2    0    0 -0.13857033354E+02  0.11528403178E+03 -0.32721060463E+03  0.36904761691E+03  0.12508772284E+03 0.  0.
         24    2    1    2    0    0 -0.24963794947E+02 -0.30531121665E+02  0.27665153638E+03  0.29039943883E+03  0.78996335631E+02 0.  0.
        -11    1    5    5    0    0  0.13162257138E+02  0.99983901766E+01  0.13249079860E+02  0.21183742262E+02  0.00000000000E+00 0.  1.
         12    1    5    5    0    0 -0.38126052086E+02 -0.40529511842E+02  0.26340245652E+03  0.26921569656E+03  0.00000000000E+00 0. -1.
         13    1    3    3    0    0  0.37098475432E+02  0.78565603450E-01 -0.47101695271E+03  0.47247568487E+03  0.00000000000E+00 0. -1.
        -14    1    3    3    0    0  0.17223528696E+01 -0.84831475722E+02 -0.57939559089E+03  0.58557544050E+03  0.00000000000E+00 0.  1.
          5    1    4    4  501    0 -0.24797949509E+02 -0.21502078214E+02 -0.55240169621E+02  0.64391198212E+02  0.41800000000E+01 0. -1.
         -5    1    4    4    0  501  0.10940916155E+02  0.13678611000E+03 -0.27197043500E+03  0.30465641869E+03  0.41800000000E+01 0. -1.
</event>
<event>
11    1  0.8974665E-009  0.1351766E+03  0.7561462E-02  0.1113067E+00
         22   -1    0    0    0    0  0.00000000000E+00  0.00000000000E+00  0.34210906719E+03  0.34210906719E+03  0.00000000000E+00 0.  1.
         22   -1    0    0    0    0 -0.00000000000E+00 -0.00000000000E+00 -0.21156337682E+04  0.21156337682E+04  0.00000000000E+00 0.  1.
        -24    2    1    2    0    0 -0.17500233711E+02 -0.55035762679E+01 -0.17720888322E+04  0.17740513768E+04  0.81381268335E+02 0.  0.
         25    2    1    2    0    0 -0.75640536566E+01 -0.39390779079E+02 -0.32274239400E+03  0.34846552863E+03  0.12512682915E+03 0.  0.
         24    2    1    2    0    0  0.25064287367E+02  0.44894355346E+02  0.32130652513E+03  0.33522593001E+03  0.80590442452E+02 0.  0.
        -11    1    5    5    0    0  0.30999965136E+02  0.39633814331E+02  0.32318225473E+03  0.32707584265E+03  0.00000000000E+00 0.  1.
         12    1    5    5    0    0 -0.59356777686E+01  0.52605410156E+01 -0.18757295971E+01  0.81500873536E+01  0.00000000000E+00 0. -1.
         13    1    3    3    0    0  0.17145636797E+02 -0.26566162455E+02 -0.36155388370E+03  0.36293380204E+03  0.00000000000E+00 0. -1.
        -14    1    3    3    0    0 -0.34645870507E+02  0.21062586187E+02 -0.14105349485E+04  0.14111175747E+04  0.00000000000E+00 0.  1.
          5    1    4    4  501    0 -0.28842253435E+01  0.32498402640E+02 -0.22268158510E+03  0.22509781357E+03  0.41800000000E+01 0. -1.
         -5    1    4    4    0  501 -0.46798283130E+01 -0.71889181719E+02 -0.10006080890E+03  0.12336771506E+03  0.41800000000E+01 0. -1.
</event>
<event>
11    1  0.8974665E-009  0.1764239E+03  0.7561462E-02  0.1072573E+00
         22   -1    0    0    0    0  0.00000000000E+00  0.00000000000E+00  0.13790813828E+03  0.13790813828E+03  0.00000000000E+00 0.  1.
         22   -1    0    0    0    0 -0.00000000000E+00 -0.00000000000E+00 -0.53207259068E+03  0.53207259068E+03  0.00000000000E+00 0.  1.
        -24    2    1    2    0    0 -0.11306070886E+03 -0.42016058853E+02 -0.30239435029E+03  0.33604582685E+03  0.83284942008E+02 0.  0.
         25    2    1    2    0    0  0.12390878927E+03  0.52197254601E+02 -0.14767251510E+03  0.23564821262E+03  0.12507984230E+03 0.  0.
         24    2    1    2    0    0 -0.10848080404E+02 -0.10181195749E+02  0.55902412991E+02  0.98286689494E+02  0.79459775724E+02 0.  0.
        -13    1    5    5    0    0 -0.96730975104E+01 -0.43872303612E+02  0.43007109709E+02  0.62192920218E+02  0.00000000000E+00 0.  1.
         14    1    5    5    0    0 -0.11749828938E+01  0.33691107863E+02  0.12895303282E+02  0.36093769276E+02  0.00000000000E+00 0. -1.
         11    1    3    3    0    0 -0.22444831278E+01 -0.14994973275E+02 -0.27281368133E+01  0.15405507408E+02  0.00000000000E+00 0. -1.
        -12    1    3    3    0    0 -0.11081622573E+03 -0.27021085578E+02 -0.29966621348E+03  0.32064031944E+03  0.00000000000E+00 0.  1.
          5    1    4    4  501    0  0.92110261401E+02  0.68846250866E+02 -0.16033778832E+03  0.19735699957E+03  0.41800000000E+01 0. -1.
         -5    1    4    4    0  501  0.31798527864E+02 -0.16648996265E+02  0.12665273225E+02  0.38291213050E+02  0.41800000000E+01 0. -1.
</event>
<event>
11    1  0.8974665E-009  0.1742398E+03  0.7561462E-02  0.1074400E+00
         22   -1    0    0    0    0  0.00000000000E+00  0.00000000000E+00  0.22164430213E+03  0.22164430213E+03  0.00000000000E+00 0.  1.
         22   -1    0    0    0    0 -0.00000000000E+00 -0.00000000000E+00 -0.38035927646E+03  0.38035927646E+03  0.00000000000E+00 0. -1.
         24    2    1    2    0    0 -0.10014287077E+03  0.41815814025E+02 -0.19215890806E+03  0.23523796827E+03  0.81453661073E+02 0.  0.
         25    2    1    2    0    0  0.15614900384E+03 -0.52699378244E+02 -0.73822495995E+02  0.21967568487E+03  0.12509160539E+03 0.  0.
        -24    2    1    2    0    0 -0.56006133067E+02  0.10883564219E+02  0.10726642972E+03  0.14708992545E+03  0.82910917941E+02 0.  0.
        -13    1    3    3    0    0 -0.62293071160E+01 -0.14659175654E+02 -0.23984702924E+01  0.16107400714E+02  0.00000000000E+00 0.  1.
         14    1    3    3    0    0 -0.93913563654E+02  0.56474989679E+02 -0.18976043777E+03  0.21913056756E+03  0.00000000000E+00 0. -1.
         11    1    5    5    0    0  0.19497001373E+02 -0.76740994511E+01  0.12081984325E+02  0.24186756917E+02  0.00000000000E+00 0. -1.
        -12    1    5    5    0    0 -0.75503134440E+02  0.18557663670E+02  0.95184445395E+02  0.12290316854E+03  0.00000000000E+00 0.  1.
          5    1    4    4  501    0  0.22236273653E+02  0.29237005037E+02  0.14248098379E+02  0.39619881839E+02  0.41800000000E+01 0. -1.
         -5    1    4    4    0  501  0.13391273018E+03 -0.81936383281E+02 -0.88070594374E+02  0.18005580303E+03  0.41800000000E+01 0. -1.
</event>
<event>
11    1  0.8974665E-009  0.1651346E+03  0.7561462E-02  0.1082345E+00
         22   -1    0    0    0    0  0.00000000000E+00  0.00000000000E+00  0.48651964490E+03  0.48651964490E+03  0.00000000000E+00 0.  1.
         22   -1    0    0    0    0 -0.00000000000E+00 -0.00000000000E+00 -0.44236623399E+03  0.44236623399E+03  0.00000000000E+00 0.  1.
        -24    2    1    2    0    0 -0.40849588586E+02 -0.10439235548E+03 -0.37307362210E+03  0.39778955436E+03  0.80536633185E+02 0.  0.
         25    2    1    2    0    0  0.47857068154E+02  0.57837140803E+02  0.52988555584E+02  0.15521571553E+03  0.12509475407E+03 0.  0.
         24    2    1    2    0    0 -0.70074795673E+01  0.46555214679E+02  0.36423847743E+03  0.37588060900E+03  0.80000443746E+02 0.  0.
        -13    1    5    5    0    0 -0.20035285966E+01  0.45945952307E+02  0.36717687283E+03  0.37004580879E+03  0.00000000000E+00 0.  1.
         14    1    5    5    0    0 -0.50039509706E+01  0.60926237225E+00 -0.29383954033E+01  0.58348002109E+01  0.00000000000E+00 0. -1.
         11    1    3    3    0    0 -0.35690630997E+02 -0.55556965708E+01 -0.67058135968E+02  0.76167450429E+02  0.00000000000E+00 0. -1.
        -12    1    3    3    0    0 -0.51589575896E+01 -0.98836658911E+02 -0.30601548613E+03  0.32162210393E+03  0.00000000000E+00 0.  1.
          5    1    4    4  501    0  0.13415205258E+02 -0.36606065768E+02  0.35896151851E+02  0.53159927585E+02  0.41800000000E+01 0.  1.
         -5    1    4    4    0  501  0.34441862895E+02  0.94443206571E+02  0.17092403733E+02  0.10205578794E+03  0.41800000000E+01 0.  1.
</event>
<event>
11    1  0.8974665E-009  0.1322032E+03  0.7561462E-02  0.1116591E+00
         22   -1    0    0    0    0  0.00000000000E+00  0.00000000000E+00  0.15792444965E+03  0.15792444965E+03  0.00000000000E+00 0. -1.
         22   -1    0    0    0    0 -0.00000000000E+00 -0.00000000000E+00 -0.45471661887E+03  0.45471661887E+03  0.00000000000E+00 0. -1.
         24    2    1    2    0    0 -0.17174086380E+02  0.38421213791E+02 -0.35987520148E+03  0.37144532579E+03  0.81794440511E+02 0.  0.
         25    2    1    2    0    0  0.45912594382E+02 -0.35113468500E+02  0.65105108433E+01  0.13795252796E+03  0.12509033226E+03 0.  0.
        -24    2    1    2    0    0 -0.28738508002E+02 -0.33077452911E+01  0.56572521411E+02  0.10324321477E+03  0.81374862191E+02 0.  0.
        -13    1    3    3    0    0 -0.11831530298E+02  0.34423272570E+02 -0.51868222805E+02  0.63366074051E+02  0.00000000000E+00 0.  1.
         14    1    3    3    0    0 -0.53425560817E+01  0.39979412203E+01 -0.30800697868E+03  0.30807925174E+03  0.00000000000E+00 0. -1.
         13    1    5    5    0    0 -0.26717480000E+02 -0.38098449831E+02  0.49011890578E+02  0.67583141649E+02  0.00000000000E+00 0. -1.
        -14    1    5    5    0    0 -0.20210280016E+01  0.34790704540E+02  0.75606308334E+01  0.35660073124E+02  0.00000000000E+00 0.  1.
          5    1    4    4  501    0  0.31101534138E+02 -0.55145879170E+02 -0.46878514044E+02  0.78888788139E+02  0.41800000000E+01 0. -1.
         -5    1    4    4    0  501  0.14811060244E+02  0.20032410670E+02  0.53389024888E+02  0.59063739818E+02  0.41800000000E+01 0. -1.
</event>
<event>
11    1  0.8974665E-009  0.2503068E+03  0.7561462E-02  0.1023736E+00
         22   -1    0    0    0    0  0.00000000000E+00  0.00000000000E+00  0.14348667942E+04  0.14348667942E+04  0.00000000000E+00 0. -1.
         22   -1    0    0    0    0 -0.00000000000E+00 -0.00000000000E+00 -0.73726258349E+03  0.73726258349E+03  0.00000000000E+00 0.  1.
         24    2    1    2    0    0  0.19120827116E+03 -0.94677069261E+02 -0.65431394085E+03  0.69264693353E+03  0.78158114952E+02 0.  0.
         25    2    1    2    0    0 -0.24188905617E+03  0.19279456459E+03  0.41962533862E+03  0.53610884272E+03  0.12508879565E+03 0.  0.
        -24    2    1    2    0    0  0.50680785007E+02 -0.98117495330E+02  0.93229281294E+03  0.94337360144E+03  0.92672962507E+02 0.  0.
        -11    1    3    3    0    0  0.79755460649E+02 -0.44204159001E+02 -0.40228420990E+03  0.41248942618E+03  0.00000000000E+00 0.  1.
         12    1    3    3    0    0  0.11145281051E+03 -0.50472910260E+02 -0.25202973096E+03  0.28015750735E+03  0.00000000000E+00 0. -1.
         11    1    5    5    0    0  0.14903883215E+01 -0.34433127478E+02  0.61740824081E+03  0.61836946670E+03  0.00000000000E+00 0. -1.
        -12    1    5    5    0    0  0.49190396685E+02 -0.63684367853E+02  0.31488457213E+03  0.32500413474E+03  0.00000000000E+00 0.  1.
          5    1    4    4  501    0 -0.20620626921E+03  0.91856798132E+02  0.26760189986E+03  0.35012418659E+03  0.41800000000E+01 0. -1.
         -5    1    4    4    0  501 -0.35682786958E+02  0.10093776646E+03  0.15202343876E+03  0.18598465613E+03  0.41800000000E+01 0. -1.
</event>
<event>
11    1  0.8974665E-009  0.1681301E+03  0.7561462E-02  0.1079671E+00
         22   -1    0    0    0    0  0.00000000000E+00  0.00000000000E+00  0.24971438624E+03  0.24971438624E+03  0.00000000000E+00 0.  1.
         22   -1    0    0    0    0 -0.00000000000E+00 -0.00000000000E+00 -0.77895531391E+03  0.77895531391E+03  0.00000000000E+00 0. -1.
         24    2    1    2    0    0  0.61793554140E+02 -0.86001587727E+02 -0.32896632630E+03  0.35499189834E+03  0.81152249619E+02 0.  0.
         25    2    1    2    0    0 -0.48083273863E+02  0.11309303890E+03 -0.40920659352E+03  0.44519455375E+03  0.12508444281E+03 0.  0.
        -24    2    1    2    0    0 -0.13710280277E+02 -0.27091451174E+02  0.20893199216E+03  0.22848324806E+03  0.87350436641E+02 0.  0.
        -11    1    3    3    0    0 -0.10629879236E+02 -0.13104229473E+00 -0.43462356601E+01  0.11484827777E+02  0.00000000000E+00 0.  1.
         12    1    3    3    0    0  0.72423433377E+02 -0.85870545432E+02 -0.32462009064E+03  0.34350707056E+03  0.00000000000E+00 0. -1.
         13    1    5    5    0    0  0.66538047543E+01  0.30237590471E+02  0.57898043678E+02  0.65656442615E+02  0.00000000000E+00 0. -1.
        -14    1    5    5    0    0 -0.20364085031E+02 -0.57329041645E+02  0.15103394849E+03  0.16282680544E+03  0.00000000000E+00 0.  1.
          5    1    4    4  501    0  0.14728066569E+02  0.31612068680E+02 -0.15759878261E+02  0.38497857004E+02  0.41800000000E+01 0.  1.
         -5    1    4    4    0  501 -0.62811340432E+02  0.81480970221E+02 -0.39344671526E+03  0.40669669675E+03  0.41800000000E+01 0.  1.
</event>
<event>
11    1  0.8974665E-009  0.1516237E+03  0.7561462E-02  0.1095231E+00
         22   -1    0    0    0    0  0.00000000000E+00  0.00000000000E+00  0.26415394664E+03  0.26415394664E+03  0.00000000000E+00 0.  1.
         22   -1    0    0    0    0 -0.00000000000E+00 -0.00000000000E+00 -0.20572327632E+04  0.20572327632E+04  0.00000000000E+00 0.  1.
         24    2    1    2    0    0 -0.73846448931E+02 -0.33998192951E+02 -0.18865843735E+04  0.18900644369E+04  0.80831938545E+02 0.  0.
         25    2    1    2    0    0 -0.45897309187E+01  0.77727407823E+02 -0.11839004334E+03  0.18901263216E+03  0.12508779796E+03 0.  0.
        -24    2    1    2    0    0  0.78436179850E+02 -0.43729214872E+02  0.21189560032E+03  0.24230964070E+03  0.75827026829E+02 0.  0.
        -13    1    3    3    0    0 -0.66621256947E+02  0.45726642584E+01 -0.15018744953E+04  0.15033583408E+04  0.00000000000E+00 0.  1.
         14    1    3    3    0    0 -0.72251919841E+01 -0.38570857209E+02 -0.38470987815E+03  0.38670609611E+03  0.00000000000E+00 0. -1.
         11    1    5    5    0    0  0.11492106031E+02 -0.16845800389E+02  0.21508814181E+01  0.20505506154E+02  0.00000000000E+00 0. -1.
        -12    1    5    5    0    0  0.66944073818E+02 -0.26883414483E+02  0.20974471890E+03  0.22180413454E+03  0.00000000000E+00 0.  1.
          5    1    4    4  501    0  0.31357219251E+02 -0.11164932806E+02 -0.77953583470E+02  0.84865567219E+02  0.41800000000E+01 0.  1.
         -5    1    4    4    0  501 -0.35946950169E+02  0.88892340628E+02 -0.40436459866E+02  0.10414706494E+03  0.41800000000E+01 0.  1.
</event>
<event>
11    1  0.8974665E-009  0.1442351E+03  0.7561462E-02  0.1102919E+00
         22   -1    0    0    0    0  0.00000000000E+00  0.00000000000E+00  0.16829898215E+03  0.16829898215E+03  0.00000000000E+00 0.  1.
         22   -1    0    0    0    0 -0.00000000000E+00 -0.00000000000E+00 -0.28180536425E+03  0.28180536425E+03  0.00000000000E+00 0. -1.
         24    2    1    2    0    0  0.22316327097E+02 -0.22260033044E+02 -0.14002541661E+03  0.16395228360E+03  0.79244599018E+02 0.  0.
         25    2    1    2    0    0  0.31848882344E+02  0.69626094025E+02 -0.48280017141E+02  0.15440011906E+03  0.12508514074E+03 0.  0.
        -24    2    1    2    0    0 -0.54165209441E+02 -0.47366060981E+02  0.74799051651E+02  0.13175194373E+03  0.81155794021E+02 0.  0.
        -11    1    3    3    0    0 -0.15020232995E+02 -0.21086673685E+02 -0.85367692721E+01  0.27260440861E+02  0.00000000000E+00 0.  1.
         12    1    3    3    0    0  0.37336560092E+02 -0.11733593593E+01 -0.13148864734E+03  0.13669184274E+03  0.00000000000E+00 0. -1.
         13    1    5    5    0    0 -0.33716849473E+02 -0.12394881369E+02 -0.10411877766E+02  0.37401420042E+02  0.00000000000E+00 0. -1.
        -14    1    5    5    0    0 -0.20448359968E+02 -0.34971179612E+02  0.85210929417E+02  0.94350523692E+02  0.00000000000E+00 0.  1.
          5    1    4    4  501    0  0.11412961532E+02  0.16213355401E+01  0.39533481481E+02  0.41391460205E+02  0.41800000000E+01 0. -1.
         -5    1    4    4    0  501  0.20435920812E+02  0.68004758485E+02 -0.87813498622E+02  0.11300865886E+03  0.41800000000E+01 0. -1.
</event>
<event>
11    1  0.8974665E-009  0.1267474E+03  0.7561462E-02  0.1123331E+00
         22   -1    0    0    0    0  0.00000000000E+00  0.00000000000E+00  0.74158904631E+03  0.74158904631E+03  0.00000000000E+00 0. -1.
         22   -1    0    0    0    0 -0.00000000000E+00 -0.00000000000E+00 -0.40448514890E+03  0.40448514890E+03  0.00000000000E+00 0.  1.
        -24    2    1    2    0    0  0.56519730461E+01 -0.54394829383E+00 -0.37404464999E+03  0.38330889601E+03  0.83570741869E+02 0.  0.
         25    2    1    2    0    0 -0.20453612589E+02  0.13737113070E+02  0.15857873572E+03  0.20347437392E+03  0.12509015498E+03 0.  0.
         24    2    1    2    0    0  0.14801639543E+02 -0.13193164776E+02  0.55256981168E+03  0.55929092528E+03  0.84141512892E+02 0.  0.
        -11    1    5    5    0    0 -0.11832932410E+02  0.26745924747E+02  0.10019935008E+03  0.10438042219E+03  0.00000000000E+00 0.  1.
         12    1    5    5    0    0  0.26634571953E+02 -0.39939089523E+02  0.45237046159E+03  0.45491050309E+03  0.00000000000E+00 0. -1.
         13    1    3    3    0    0  0.12867378747E+02  0.40290867435E+02 -0.18831009400E+03  0.19300159310E+03  0.00000000000E+00 0. -1.
        -14    1    3    3    0    0 -0.72154057008E+01 -0.40834815729E+02 -0.18573455599E+03  0.19030730291E+03  0.00000000000E+00 0.  1.
          5    1    4    4  501    0 -0.70121453888E+02 -0.54478922754E+01  0.11347315887E+03  0.13356769074E+03  0.41800000000E+01 0. -1.
         -5    1    4    4    0  501  0.49667841299E+02  0.19185005345E+02  0.45105576855E+02  0.69906683178E+02  0.41800000000E+01 0. -1.
</event>
<event>
11    1  0.8974665E-009  0.1323761E+03  0.7561462E-02  0.1116383E+00
         22   -1    0    0    0    0  0.00000000000E+00  0.00000000000E+00  0.74039113673E+02  0.74039113673E+02  0.00000000000E+00 0. -1.
         22   -1    0    0    0    0 -0.00000000000E+00 -0.00000000000E+00 -0.52172857544E+03  0.52172857544E+03  0.00000000000E+00 0. -1.
        -24    2    1    2    0    0  0.44119467102E+02 -0.29079513281E+02 -0.24441031200E+03  0.26270397068E+03  0.80528443007E+02 0.  0.
         25    2    1    2    0    0  0.21796851056E+01  0.37853966074E+02 -0.20001475933E+03  0.23893707447E+03  0.12508935939E+03 0.  0.
         24    2    1    2    0    0 -0.46299152207E+02 -0.87744527933E+01 -0.32643904388E+01  0.94126643952E+02  0.81416007884E+02 0.  0.
        -11    1    5    5    0    0 -0.13410026178E+02 -0.13580465787E+02 -0.40161586799E+02  0.44465839779E+02  0.00000000000E+00 0.  1.
         12    1    5    5    0    0 -0.32889126029E+02  0.48060129935E+01  0.36897196360E+02  0.49660804173E+02  0.00000000000E+00 0. -1.
         13    1    3    3    0    0  0.17188713020E+02 -0.33639506144E+02 -0.22742128183E+03  0.23053743223E+03  0.00000000000E+00 0. -1.
        -14    1    3    3    0    0  0.26930754082E+02  0.45599928630E+01 -0.16989030168E+02  0.32166538458E+02  0.00000000000E+00 0.  1.
          5    1    4    4  501    0  0.16951351861E+02  0.76332658827E+02 -0.17182944876E+03  0.18883022797E+03  0.41800000000E+01 0. -1.
         -5    1    4    4    0  501 -0.14771666755E+02 -0.38478692752E+02 -0.28185310567E+02  0.50106846502E+02  0.41800000000E+01 0. -1.
</event>
<event>
11    1  0.8974665E-009  0.1253320E+03  0.7561462E-02  0.1125141E+00
         22   -1    0    0    0    0  0.00000000000E+00  0.00000000000E+00  0.84578563309E+03  0.84578563309E+03  0.00000000000E+00 0. -1.
         22   -1    0    0    0    0 -0.00000000000E+00 -0.00000000000E+00 -0.17011472683E+03  0.17011472683E+03  0.00000000000E+00 0. -1.
        -24    2    1    2    0    0  0.11562167130E+02  0.53893602500E+01 -0.13970867988E+03  0.16106565870E+03  0.79125863437E+02 0.  0.
         25    2    1    2    0    0 -0.17300116978E+02 -0.71492074253E+01  0.21809482161E+03  0.25211880881E+03  0.12509251508E+03 0.  0.
         24    2    1    2    0    0  0.57379498474E+01  0.17598471753E+01  0.59728476453E+03  0.60271589241E+03  0.80506744402E+02 0.  0.
        -11    1    5    5    0    0 -0.21330519519E+02 -0.53683520727E+01  0.48923139327E+02  0.53640319057E+02  0.00000000000E+00 0.  1.
         12    1    5    5    0    0  0.27068469366E+02  0.71281992480E+01  0.54836162521E+03  0.54907557336E+03  0.00000000000E+00 0. -1.
         13    1    3    3    0    0 -0.26569239036E+02  0.25272876996E+02 -0.73084181764E+02  0.81767599933E+02  0.00000000000E+00 0. -1.
        -14    1    3    3    0    0  0.38131406166E+02 -0.19883516746E+02 -0.66624498118E+02  0.79298058765E+02  0.00000000000E+00 0.  1.
          5    1    4    4  501    0  0.20294209851E+02  0.39629366185E+02  0.28070621311E+02  0.52799373088E+02  0.41800000000E+01 0. -1.
         -5    1    4    4    0  501 -0.37594326828E+02 -0.46778573611E+02  0.19002420030E+03  0.19931943572E+03  0.41800000000E+01 0. -1.
</event>
<event>
11    1  0.8974665E-009  0.2509062E+03  0.7561462E-02  0.1023418E+00
         22   -1    0    0    0    0  0.00000000000E+00  0.00000000000E+00  0.15669979388E+04  0.15669979388E+04  0.00000000000E+00 0.  1.
         22   -1    0    0    0    0 -0.00000000000E+00 -0.00000000000E+00 -0.15507706982E+04  0.15507706982E+04  0.00000000000E+00 0.  1.
        -24    2    1    2    0    0  0.67210503623E+01  0.21898625533E+03 -0.14999922141E+04  0.15179301174E+04  0.78326537611E+02 0.  0.
         25    2    1    2    0    0  0.43178306558E+02 -0.16768757583E+03  0.24861555919E+03  0.32778137071E+03  0.12508973367E+03 0.  0.
         24    2    1    2    0    0 -0.49899356921E+02 -0.51298679497E+02  0.12676038955E+04  0.12720571488E+04  0.78665453507E+02 0.  0.
        -13    1    5    5    0    0 -0.17110634632E+02  0.19506048854E+02  0.44679850473E+03  0.44755129715E+03  0.00000000000E+00 0.  1.
         14    1    5    5    0    0 -0.32788722288E+02 -0.70804728351E+02  0.82080539079E+03  0.82450585166E+03  0.00000000000E+00 0. -1.
         13    1    3    3    0    0  0.26992974947E+02  0.40772660506E+02 -0.21566561900E+03  0.22113952554E+03  0.00000000000E+00 0. -1.
        -14    1    3    3    0    0 -0.20271924585E+02  0.17821359482E+03 -0.12843265951E+04  0.12967905919E+04  0.00000000000E+00 0.  1.
          5    1    4    4  501    0  0.13144311960E+02 -0.32706940069E+02 -0.78751274001E+01  0.36359412773E+02  0.41800000000E+01 0. -1.
         -5    1    4    4    0  501  0.30033994598E+02 -0.13498063576E+03  0.25649068659E+03  0.29142195794E+03  0.41800000000E+01 0. -1.
</event>
<event>
11    1  0.8974665E-009  0.1261622E+03  0.7561462E-02  0.1124076E+00
         22   -1    0    0    0    0  0.00000000000E+00  0.00000000000E+00  0.24127441714E+03  0.24127441714E+03  0.00000000000E+00 0. -1.
         22   -1    0    0    0    0 -0.00000000000E+00 -0.00000000000E+00 -0.19534373762E+03  0.19534373762E+03  0.00000000000E+00 0. -1.
        -24    2    1    2    0    0 -0.19442036019E+02 -0.15928671088E+02 -0.11251543805E+03  0.14062158933E+03  0.80517030861E+02 0.  0.
         25    2    1    2    0    0  0.25330061999E+02  0.24981131951E+02  0.26579390898E+02  0.13274599871E+03  0.12509743066E+03 0.  0.
         24    2    1    2    0    0 -0.58880259797E+01 -0.90524608629E+01  0.13186672668E+03  0.16325056671E+03  0.95631051593E+02 0.  0.
        -11    1    5    5    0    0  0.10407989600E+02 -0.21478820513E+02 -0.53930340158E+01  0.24469384831E+02  0.00000000000E+00 0.  1.
         12    1    5    5    0    0 -0.16296015579E+02  0.12426359650E+02  0.13725976069E+03  0.13878118188E+03  0.00000000000E+00 0. -1.
         13    1    3    3    0    0 -0.41270689625E+01  0.32879725487E+02 -0.41740803669E+02  0.53295438240E+02  0.00000000000E+00 0. -1.
        -14    1    3    3    0    0 -0.15314967057E+02 -0.48808396575E+02 -0.70774634385E+02  0.87326151092E+02  0.00000000000E+00 0.  1.
          5    1    4    4  501    0 -0.50971159286E+02  0.79533660940E+01  0.97333070397E+01  0.52664264707E+02  0.41800000000E+01 0.  1.
         -5    1    4    4    0  501  0.76301221285E+02  0.17027765857E+02  0.16846083858E+02  0.80081734004E+02  0.41800000000E+01 0.  1.
</event>
<event>
11    1  0.8974665E-009  0.1549813E+03  0.7561462E-02  0.1091895E+00
         22   -1    0    0    0    0  0.00000000000E+00  0.00000000000E+00  0.10455112241E+04  0.10455112241E+04  0.00000000000E+00 0. -1.
         22   -1    0    0    0    0 -0.00000000000E+00 -0.00000000000E+00 -0.39658553248E+03  0.39658553248E+03  0.00000000000E+00 0. -1.
         24    2    1    2    0    0 -0.70206278290E+02  0.58717240373E+02 -0.36108341054E+03  0.38071637649E+03  0.78658083725E+02 0.  0.
         25    2    1    2    0    0  0.59335965334E+02 -0.70581370303E+02  0.23293237559E+03  0.28001267806E+03  0.12508845535E+03 0.  0.
        -24    2    1    2    0    0  0.10870312956E+02  0.11864129930E+02  0.77707672659E+03  0.78136770204E+03  0.80176838907E+02 0.  0.
        -13    1    3    3    0    0 -0.79923811894E+01 -0.59110248773E+01 -0.14287908977E+01  0.10042898765E+02  0.00000000000E+00 0.  1.
         14    1    3    3    0    0 -0.62213897101E+02  0.64628265251E+02 -0.35965461964E+03  0.37067347773E+03  0.00000000000E+00 0. -1.
         11    1    5    5    0    0  0.30164366648E+02  0.17645055680E+02  0.71988917209E+03  0.72073688479E+03  0.00000000000E+00 0. -1.
        -12    1    5    5    0    0 -0.19294053692E+02 -0.57809257502E+01  0.57187554504E+02  0.60630817252E+02  0.00000000000E+00 0.  1.
          5    1    4    4  501    0  0.65691010194E+02  0.13769176220E+02  0.13287747535E+03  0.14892546756E+03  0.41800000000E+01 0. -1.
         -5    1    4    4    0  501 -0.63550448597E+01 -0.84350546524E+02  0.10005490024E+03  0.13108721050E+03  0.41800000000E+01 0. -1.
</event>
<event>
11    1  0.8974665E-009  0.2097597E+03  0.7561462E-02  0.1047829E+00
         22   -1    0    0    0    0  0.00000000000E+00  0.00000000000E+00  0.94532308665E+03  0.94532308665E+03  0.00000000000E+00 0. -1.
         22   -1    0    0    0    0 -0.00000000000E+00 -0.00000000000E+00 -0.36844385158E+03  0.36844385158E+03  0.00000000000E+00 0.  1.
        -24    2    1    2    0    0  0.38845697177E+01 -0.62901549592E+02 -0.30957061212E+03  0.32596307384E+03  0.80288646706E+02 0.  0.
         25    2    1    2    0    0 -0.11041863725E+03 -0.84213198257E+02  0.20288517539E+03  0.27585099298E+03  0.12508891927E+03 0.  0.
         24    2    1    2    0    0  0.10653406753E+03  0.14711474785E+03  0.68356467181E+03  0.71195287141E+03  0.81387799997E+02 0.  0.
        -13    1    5    5    0    0  0.33618485951E+02  0.10918747047E+02  0.60945131828E+02  0.70453748859E+02  0.00000000000E+00 0.  1.
         14    1    5    5    0    0  0.72915581582E+02  0.13619600080E+03  0.62261953998E+03  0.64149912255E+03  0.00000000000E+00 0. -1.
         11    1    3    3    0    0  0.15206410231E+02 -0.53042917619E+02 -0.87897936408E+02  0.10378262497E+03  0.00000000000E+00 0. -1.
        -12    1    3    3    0    0 -0.11321840513E+02 -0.98586319734E+01 -0.22167267572E+03  0.22218044886E+03  0.00000000000E+00 0.  1.
          5    1    4    4  501    0 -0.19045888308E+02 -0.89764556090E+02  0.12776718188E+03  0.15736056226E+03  0.41800000000E+01 0.  1.
         -5    1    4    4    0  501 -0.91372748943E+02  0.55513578321E+01  0.75117993510E+02  0.11849043072E+03  0.41800000000E+01 0.  1.
</event>
<event>
11    1  0.8974665E-009  0.1334442E+03  0.7561462E-02  0.1115108E+00
         22   -1    0    0    0    0  0.00000000000E+00  0.00000000000E+00  0.20500963005E+04  0.20500963005E+04  0.00000000000E+00 0.  1.
         22   -1    0    0    0    0 -0.00000000000E+00 -0.00000000000E+00 -0.98591287444E+03  0.98591287444E+03  0.00000000000E+00 0. -1.
        -24    2    1    2    0    0 -0.39638105718E+02 -0.44461942106E+00 -0.82857633414E+03  0.83357267963E+03  0.82056648830E+02 0.  0.
         25    2    1    2    0    0  0.67864170185E+02 -0.36261751091E+02 -0.11873724356E+03  0.18885808359E+03  0.12509349520E+03 0.  0.
         24    2    1    2    0    0 -0.28226064468E+02  0.36706370512E+02  0.20114970037E+04  0.20135784117E+04  0.78954136596E+02 0.  0.
        -13    1    5    5    0    0 -0.26439977673E+02  0.38205830497E+01  0.17230867519E+04  0.17232938298E+04  0.00000000000E+00 0.  1.
         14    1    5    5    0    0 -0.17860867943E+01  0.32885787462E+02  0.28841025186E+03  0.29028458192E+03  0.00000000000E+00 0. -1.
         13    1    3    3    0    0 -0.12562551256E+02 -0.25172565390E+02 -0.67845292524E+03  0.67903596923E+03  0.00000000000E+00 0. -1.
        -14    1    3    3    0    0 -0.27075554462E+02  0.24727945969E+02 -0.15012340890E+03  0.15453671040E+03  0.00000000000E+00 0.  1.
          5    1    4    4  501    0 -0.15713061547E+02  0.24454280050E+02  0.25600182467E+01  0.29477757876E+02  0.41800000000E+01 0. -1.
         -5    1    4    4    0  501  0.83577231733E+02 -0.60716031141E+02 -0.12129726181E+03  0.15938032571E+03  0.41800000000E+01 0. -1.
</event>
<event>
11    1  0.8974665E-009  0.1713310E+03  0.7561462E-02  0.1076879E+00
         22   -1    0    0    0    0  0.00000000000E+00  0.00000000000E+00  0.11315084467E+04  0.11315084467E+04  0.00000000000E+00 0. -1.
         22   -1    0    0    0    0 -0.00000000000E+00 -0.00000000000E+00 -0.12037302588E+04  0.12037302588E+04  0.00000000000E+00 0. -1.
         24    2    1    2    0    0 -0.69972112465E+02 -0.63809783426E+02 -0.11138727118E+04  0.11207527632E+04  0.80040945677E+02 0.  0.
         25    2    1    2    0    0 -0.38545887834E+02  0.11295354522E+03  0.10350458592E+02  0.17320345671E+03  0.12509203243E+03 0.  0.
        -24    2    1    2    0    0  0.10851800030E+03 -0.49143761799E+02  0.10313004412E+04  0.10412824856E+04  0.80606136399E+02 0.  0.
        -13    1    3    3    0    0 -0.44223501239E+02 -0.35519118870E+02 -0.26424032077E+03  0.27025963995E+03  0.00000000000E+00 0.  1.
         14    1    3    3    0    0 -0.25748611226E+02 -0.28290664556E+02 -0.84963239107E+03  0.85049312322E+03  0.00000000000E+00 0. -1.
         11    1    5    5    0    0  0.28865097015E+02 -0.22438923127E+02  0.64105673896E+03  0.64209846726E+03  0.00000000000E+00 0. -1.
        -12    1    5    5    0    0  0.79652903284E+02 -0.26704838671E+02  0.39024370220E+03  0.39918401836E+03  0.00000000000E+00 0.  1.
          5    1    4    4  501    0  0.34911934234E+02  0.62722370257E+02  0.36113612854E+02  0.80464925999E+02  0.41800000000E+01 0. -1.
         -5    1    4    4    0  501 -0.73457822068E+02  0.50231174968E+02 -0.25763154262E+02  0.92738530715E+02  0.41800000000E+01 0. -1.
</event>
<event>
11    1  0.8974665E-009  0.1322060E+03  0.7561462E-02  0.1116588E+00
         22   -1    0    0    0    0  0.00000000000E+00  0.00000000000E+00  0.43222869887E+03  0.43222869887E+03  0.00000000000E+00 0.  1.
         22   -1    0    0    0    0 -0.00000000000E+00 -0.00000000000E+00 -0.17490792834E+03  0.17490792834E+03  0.00000000000E+00 0.  1.
         24    2    1    2    0    0  0.41570034746E+02 -0.13178871200E+02 -0.96017229744E+02  0.13155927445E+03  0.78656111337E+02 0.  0.
         25    2    1    2    0    0 -0.24688393905E+02  0.43118476842E+02  0.26038354613E+02  0.13709663801E+03  0.12509505347E+03 0.  0.
        -24    2    1    2    0    0 -0.16881640841E+02 -0.29939605643E+02  0.32729964565E+03  0.33848071475E+03  0.79137642316E+02 0.  0.
        -13    1    3    3    0    0  0.19166267411E+02  0.11769957791E+02 -0.95406730107E+02  0.98022047839E+02  0.00000000000E+00 0.  1.
         14    1    3    3    0    0  0.22403767336E+02 -0.24948828990E+02 -0.61049963700E+00  0.33537226609E+02  0.00000000000E+00 0. -1.
         11    1    5    5    0    0 -0.37291091582E+02 -0.12464911477E+01  0.75346161124E+02  0.84078672966E+02  0.00000000000E+00 0. -1.
        -12    1    5    5    0    0  0.20409450741E+02 -0.28693114495E+02  0.25195348453E+03  0.25440204179E+03  0.00000000000E+00 0.  1.
          5    1    4    4  501    0 -0.36398537463E+02  0.24307505099E+02 -0.44790914844E+02  0.62764693786E+02  0.41800000000E+01 0.  1.
         -5    1    4    4    0  501  0.11710143558E+02  0.18810971744E+02  0.70829269456E+02  0.74331944222E+02  0.41800000000E+01 0.  1.
</event>
<event>
11    1  0.8974665E-009  0.1424275E+03  0.7561462E-02  0.1104878E+00
         22   -1    0    0    0    0  0.00000000000E+00  0.00000000000E+00  0.83779344311E+03  0.83779344311E+03  0.00000000000E+00 0.  1.
         22   -1    0    0    0    0 -0.00000000000E+00 -0.00000000000E+00 -0.19388965926E+03  0.19388965926E+03  0.00000000000E+00 0.  1.
        -24    2    1    2    0    0 -0.40372960692E+02  0.53479579654E+02 -0.14576992257E+03  0.17982637615E+03  0.81231852369E+02 0.  0.
         25    2    1    2    0    0  0.10074373017E+03 -0.27113009550E+02  0.22512695162E+03  0.27787471996E+03  0.12509117150E+03 0.  0.
         24    2    1    2    0    0 -0.60370769480E+02 -0.26366570104E+02  0.56454675479E+03  0.57398200626E+03  0.80015494391E+02 0.  0.
        -13    1    5    5    0    0 -0.44959620786E+02 -0.22402958507E+02  0.55040804792E+03  0.55269546702E+03  0.00000000000E+00 0.  1.
         14    1    5    5    0    0 -0.15411148695E+02 -0.39636115963E+01  0.14138706875E+02  0.21286539246E+02  0.00000000000E+00 0. -1.
         11    1    3    3    0    0 -0.13059648521E+02  0.48865784103E+02 -0.25955582811E+02  0.56851662725E+02  0.00000000000E+00 0. -1.
        -12    1    3    3    0    0 -0.27313312171E+02  0.46137955507E+01 -0.11981433975E+03  0.12297471342E+03  0.00000000000E+00 0.  1.
          5    1    4    4  501    0  0.84792152204E+02 -0.23087210303E+02  0.23980498332E+03  0.25543420049E+03  0.41800000000E+01 0. -1.
         -5    1    4    4    0  501  0.15951577969E+02 -0.40257992470E+01 -0.14678031699E+02  0.22440519464E+02  0.41800000000E+01 0. -1.
</event>
<event>
11    1  0.8974665E-009  0.1322690E+03  0.7561462E-02  0.1116512E+00
         22   -1    0    0    0    0  0.00000000000E+00  0.00000000000E+00  0.15090271292E+04  0.15090271292E+04  0.00000000000E+00 0. -1.
         22   -1    0    0    0    0 -0.00000000000E+00 -0.00000000000E+00 -0.29995739001E+03  0.29995739001E+03  0.00000000000E+00 0.  1.
         24    2    1    2    0    0  0.13661330904E+02  0.28222204788E+02 -0.28053587734E+03  0.28879381099E+03  0.60978373135E+02 0.  0.
         25    2    1    2    0    0  0.97212432111E+01  0.12093832716E+02  0.28032295530E+03  0.30735910249E+03  0.12509154752E+03 0.  0.
        -24    2    1    2    0    0 -0.23382574115E+02 -0.40316037504E+02  0.12092826613E+04  0.12128316057E+04  0.80148745710E+02 0.  0.
        -13    1    3    3    0    0  0.88890723294E+01  0.14206998331E+02 -0.27024284235E+03  0.27076197711E+03  0.00000000000E+00 0.  1.
         14    1    3    3    0    0  0.47722585748E+01  0.14015206456E+02 -0.10293034988E+02  0.18031833883E+02  0.00000000000E+00 0. -1.
         13    1    5    5    0    0 -0.18235912620E+02 -0.27262867958E+02  0.11790013048E+04  0.11794574555E+04  0.00000000000E+00 0. -1.
        -14    1    5    5    0    0 -0.51466614957E+01 -0.13053169546E+02  0.30281356426E+02  0.33374150277E+02  0.00000000000E+00 0.  1.
          5    1    4    4  501    0  0.35684886570E+02  0.92670236338E+01  0.13894409540E+02  0.39620901971E+02  0.41800000000E+01 0.  1.
         -5    1    4    4    0  501 -0.25963643359E+02  0.28268090824E+01  0.26642854576E+03  0.26773820052E+03  0.41800000000E+01 0.  1.
</event>
<event>
11    1  0.8974665E-009  0.1329896E+03  0.7561462E-02  0.1115649E+00
         22   -1    0    0    0    0  0.00000000000E+00  0.00000000000E+00  0.54223717102E+03  0.54223717102E+03  0.00000000000E+00 0. -1.
         22   -1    0    0    0    0 -0.00000000000E+00 -0.00000000000E+00 -0.59399288520E+03  0.59399288520E+03  0.00000000000E+00 0.  1.
         24    2    1    2    0    0 -0.26329101214E+02  0.16915724547E+02 -0.52575710683E+03  0.53281036486E+03  0.80541828982E+02 0.  0.
         25    2    1    2    0    0  0.54443771589E+02  0.18045875400E+02  0.18535416426E+02  0.13885626897E+03  0.12509086253E+03 0.  0.
        -24    2    1    2    0    0 -0.28114670376E+02 -0.34961599947E+02  0.45546597623E+03  0.46456342237E+03  0.79731861555E+02 0.  0.
        -11    1    3    3    0    0 -0.26336587910E+02  0.44766585072E+02 -0.23235098505E+03  0.23808536968E+03  0.00000000000E+00 0.  1.
         12    1    3    3    0    0  0.74866957712E-02 -0.27850860525E+02 -0.29340612178E+03  0.29472499518E+03  0.00000000000E+00 0. -1.
         11    1    5    5    0    0 -0.39155294002E+02 -0.53778927524E+02  0.28249036822E+03  0.29021736377E+03  0.00000000000E+00 0. -1.
        -12    1    5    5    0    0  0.11040623627E+02  0.18817327577E+02  0.17297560800E+03  0.17434605861E+03  0.00000000000E+00 0.  1.
          5    1    4    4  501    0 -0.15488941839E+02  0.54263870009E+02 -0.43062679991E+01  0.56749372259E+02  0.41800000000E+01 0.  1.
         -5    1    4    4    0  501  0.69932713428E+02 -0.36217994609E+02  0.22841684425E+02  0.82106896716E+02  0.41800000000E+01 0.  1.
</event>
<event>
11    1  0.8974665E-009  0.1442720E+03  0.7561462E-02  0.1102880E+00
         22   -1    0    0    0    0  0.00000000000E+00  0.00000000000E+00  0.45288585428E+03  0.45288585428E+03  0.00000000000E+00 0. -1.
         22   -1    0    0    0    0 -0.00000000000E+00 -0.00000000000E+00 -0.43749446330E+03  0.43749446330E+03  0.00000000000E+00 0.  1.
         24    2    1    2    0    0  0.14698256127E+02  0.71380521245E+02 -0.32988124996E+03  0.34475988850E+03  0.68749720702E+02 0.  0.
         25    2    1    2    0    0 -0.18199872701E+02 -0.62381012531E+02 -0.41453009906E+02  0.14693138582E+03  0.12509138267E+03 0.  0.
        -24    2    1    2    0    0  0.35016165735E+01 -0.89995087149E+01  0.38672565084E+03  0.39868904327E+03  0.96451914081E+02 0.  0.
        -13    1    3    3    0    0 -0.24908204463E+02  0.35440552816E+02 -0.19299423244E+03  0.19779591803E+03  0.00000000000E+00 0.  1.
         14    1    3    3    0    0  0.39606460590E+02  0.35939968430E+02 -0.13688701752E+03  0.14696397047E+03  0.00000000000E+00 0. -1.
         11    1    5    5    0    0 -0.27535667851E+02 -0.40945149623E+02  0.25220034935E+03  0.25698197309E+03  0.00000000000E+00 0. -1.
        -12    1    5    5    0    0  0.31037284425E+02  0.31945640908E+02  0.13452530149E+03  0.14170707018E+03  0.00000000000E+00 0.  1.
          5    1    4    4  501    0  0.17513689129E+02  0.33763449426E+02 -0.95258250758E+01  0.39432392362E+02  0.41800000000E+01 0. -1.
         -5    1    4    4    0  501 -0.35713561829E+02 -0.96144461957E+02 -0.31927184830E+02  0.10749899346E+03  0.41800000000E+01 0. -1.
</event>
<event>
11    1  0.8974665E-009  0.1542626E+03  0.7561462E-02  0.1092601E+00
         22   -1    0    0    0    0  0.00000000000E+00  0.00000000000E+00  0.62498336039E+03  0.62498336039E+03  0.00000000000E+00 0.  1.
         22   -1    0    0    0    0 -0.00000000000E+00 -0.00000000000E+00 -0.18296079081E+04  0.18296079081E+04  0.00000000000E+00 0.  1.
         24    2    1    2    0    0  0.42154948020E+02 -0.78899234927E+02 -0.16908573093E+04  0.16950895065E+04  0.79547881891E+02 0.  0.
         25    2    1    2    0    0 -0.42879043341E+02  0.10241241777E+03 -0.81323374093E+02  0.18597797858E+03  0.12508957458E+03 0.  0.
        -24    2    1    2    0    0  0.72409532149E+00 -0.23513182847E+02  0.56755613574E+03  0.57352378341E+03  0.79095947024E+02 0.  0.
        -11    1    3    3    0    0  0.65552121657E+02 -0.49619084833E+02 -0.11493245181E+04  0.11522612473E+04  0.00000000000E+00 0.  1.
         12    1    3    3    0    0 -0.23397173637E+02 -0.29280150094E+02 -0.54153279125E+03  0.54282825914E+03  0.00000000000E+00 0. -1.
         11    1    5    5    0    0 -0.11870345376E+02 -0.62062237699E+01  0.13374017279E+02  0.18928461401E+02  0.00000000000E+00 0. -1.
        -12    1    5    5    0    0  0.12594440698E+02 -0.17306959077E+02  0.55418211846E+03  0.55459532201E+03  0.00000000000E+00 0.  1.
          5    1    4    4  501    0  0.33075703481E+02  0.81635302688E+02 -0.38179577186E+02  0.96090984591E+02  0.41800000000E+01 0. -1.
         -5    1    4    4    0  501 -0.75954746822E+02  0.20777115086E+02 -0.43143796908E+02  0.89886993985E+02  0.41800000000E+01 0. -1.
</event>
<event>
11    1  0.8974665E-009  0.1325091E+03  0.7561462E-02  0.1116224E+00
         22   -1    0    0    0    0  0.00000000000E+00  0.00000000000E+00  0.57532373470E+03  0.57532373470E+03  0.00000000000E+00 0. -1.
         22   -1    0    0    0    0 -0.00000000000E+00 -0.00000000000E+00 -0.28086047556E+03  0.28086047556E+03  0.00000000000E+00 0. -1.
        -24    2    1    2    0    0  0.52895285829E+01 -0.21747686260E+02 -0.24949287702E+03  0.26262763193E+03  0.78902702085E+02 0.  0.
         25    2    1    2    0    0  0.39295328891E+02  0.22759278967E+02  0.22054361765E+03  0.25758028738E+03  0.12508400980E+03 0.  0.
         24    2    1    2    0    0 -0.44584857473E+02 -0.10115927070E+01  0.32341251850E+03  0.33597629095E+03  0.79344679228E+02 0.  0.
        -11    1    5    5    0    0  0.57305731674E+01  0.24632332791E+02  0.42599752222E+02  0.49541196765E+02  0.00000000000E+00 0.  1.
         12    1    5    5    0    0 -0.50315430641E+02 -0.25643925498E+02  0.28081276628E+03  0.28643509419E+03  0.00000000000E+00 0. -1.
         13    1    3    3    0    0  0.10609801538E+02 -0.32034322790E+02 -0.24874380779E+03  0.25102240465E+03  0.00000000000E+00 0. -1.
        -14    1    3    3    0    0 -0.53202729550E+01  0.10286636530E+02 -0.74906923798E+00  0.11605227277E+02  0.00000000000E+00 0.  1.
          5    1    4    4  501    0 -0.18899702257E+01  0.65764358776E+02  0.72689659306E+02  0.98131451853E+02  0.41800000000E+01 0. -1.
         -5    1    4    4    0  501  0.41185299116E+02 -0.43005079809E+02  0.14785395834E+03  0.15944883553E+03  0.41800000000E+01 0. -1.
</event>
<event>
11    1  0.8974665E-009  0.1444953E+03  0.7561462E-02  0.1102640E+00
         22   -1    0    0    0    0  0.00000000000E+00  0.00000000000E+00  0.13867857498E+03  0.13867857498E+03  0.00000000000E+00 0. -1.
         22   -1    0    0    0    0 -0.00000000000E+00 -0.00000000000E+00 -0.35046013855E+03  0.35046013855E+03  0.00000000000E+00 0. -1.
         24    2    1    2    0    0 -0.49996252997E+02  0.70369505700E+02 -0.19207870393E+03  0.22575536230E+03  0.81361922658E+02 0.  0.
         25    2    1    2    0    0  0.13708748937E+02 -0.40230218641E+02 -0.78291109509E+02  0.15356869101E+03  0.12508974675E+03 0.  0.
        -24    2    1    2    0    0  0.36287504060E+02 -0.30139287059E+02  0.58588249865E+02  0.10981466022E+03  0.80009480705E+02 0.  0.
        -13    1    3    3    0    0 -0.33200759645E+02 -0.11423774846E+02 -0.58288434103E+02  0.68046562169E+02  0.00000000000E+00 0.  1.
         14    1    3    3    0    0 -0.16795493352E+02  0.81793280546E+02 -0.13379026982E+03  0.15770880013E+03  0.00000000000E+00 0. -1.
         13    1    5    5    0    0  0.47759078168E+02  0.11948716619E+02  0.32345192813E+02  0.58905966374E+02  0.00000000000E+00 0. -1.
        -14    1    5    5    0    0 -0.11471574108E+02 -0.42088003679E+02  0.26243057052E+02  0.50908693851E+02  0.00000000000E+00 0.  1.
          5    1    4    4  501    0  0.20971279651E+01 -0.50070298872E+02 -0.10844281148E+03  0.11953555345E+03  0.41800000000E+01 0. -1.
         -5    1    4    4    0  501  0.11611620972E+02  0.98400802316E+01  0.30151701976E+02  0.34033137566E+02  0.41800000000E+01 0. -1.
</event>
<event>
11    1  0.8974665E-009  0.1366585E+03  0.7561462E-02  0.1111348E+00
         22   -1    0    0    0    0  0.00000000000E+00  0.00000000000E+00  0.93299905264E+03  0.93299905264E+03  0.00000000000E+00 0. -1.
         22   -1    0    0    0    0 -0.00000000000E+00 -0.00000000000E+00 -0.43704752477E+03  0.43704752477E+03  0.00000000000E+00 0. -1.
        -24    2    1    2    0    0 -0.91020170708E+01 -0.97600700663E+01 -0.40661259125E+03  0.41466603144E+03  0.80224762949E+02 0.  0.
         25    2    1    2    0    0 -0.44691841004E+02  0.24550620688E+02  0.17396269097E+03  0.22024710086E+03  0.12508266850E+03 0.  0.
         24    2    1    2    0    0  0.53793858075E+02 -0.14790550622E+02  0.72860142814E+03  0.73513344510E+03  0.80303184657E+02 0.  0.
        -13    1    5    5    0    0  0.13423332872E+01 -0.19770581076E+02  0.41220901056E+02  0.45736641969E+02  0.00000000000E+00 0.  1.
         14    1    5    5    0    0  0.52451524787E+02  0.49800304543E+01  0.68738052709E+03  0.68939680314E+03  0.00000000000E+00 0. -1.
         11    1    3    3    0    0 -0.17672447568E+02 -0.43269120859E+02 -0.23292640759E+03  0.23756945000E+03  0.00000000000E+00 0. -1.
        -12    1    3    3    0    0  0.85704304973E+01  0.33509050793E+02 -0.17368618366E+03  0.17709658144E+03  0.00000000000E+00 0.  1.
          5    1    4    4  501    0 -0.42284346293E+02  0.68060672302E+02  0.15056677113E+03  0.17061080277E+03  0.41800000000E+01 0.  1.
         -5    1    4    4    0  501 -0.24074947111E+01 -0.43510051613E+02  0.23395919842E+02  0.49636298083E+02  0.41800000000E+01 0.  1.
</event>
<event>
11    1  0.8974665E-009  0.1432808E+03  0.7561462E-02  0.1103949E+00
         22   -1    0    0    0    0  0.00000000000E+00  0.00000000000E+00  0.10933955114E+04  0.10933955114E+04  0.00000000000E+00 0.  1.
         22   -1    0    0    0    0 -0.00000000000E+00 -0.00000000000E+00 -0.55078465543E+03  0.55078465543E+03  0.00000000000E+00 0.  1.
        -24    2    1    2    0    0  0.64438644778E+02  0.27384105913E+02 -0.51172373670E+03  0.52199210972E+03  0.75580101234E+02 0.  0.
         25    2    1    2    0    0 -0.48413181142E+02  0.44363389041E+02  0.13170188108E+03  0.19314457979E+03  0.12508995493E+03 0.  0.
         24    2    1    2    0    0 -0.16025463636E+02 -0.71747494954E+02  0.92263271155E+03  0.92904347728E+03  0.80412335719E+02 0.  0.
        -11    1    5    5    0    0 -0.26213141356E+02 -0.71207488729E+02  0.90822668557E+03  0.91139088629E+03  0.00000000000E+00 0.  1.
         12    1    5    5    0    0  0.10187677720E+02 -0.54000622474E+00  0.14406025974E+02  0.17652590983E+02  0.00000000000E+00 0. -1.
         11    1    3    3    0    0 -0.91250658958E+01  0.12276703925E+02 -0.23590916179E+02  0.28116109493E+02  0.00000000000E+00 0. -1.
        -12    1    3    3    0    0  0.73563710674E+02  0.15107401987E+02 -0.48813282053E+03  0.49387600022E+03  0.00000000000E+00 0.  1.
          5    1    4    4  501    0 -0.78803445744E+02  0.57976051126E+02  0.12522317701E+03  0.15896390165E+03  0.41800000000E+01 0.  1.
         -5    1    4    4    0  501  0.30390264602E+02 -0.13612662085E+02  0.64787040699E+01  0.34180678139E+02  0.41800000000E+01 0.  1.
</event>
<event>
11    1  0.8974665E-009  0.1277206E+03  0.7561462E-02  0.1122102E+00
         22   -1    0    0    0    0  0.00000000000E+00  0.00000000000E+00  0.52374858607E+03  0.52374858607E+03  0.00000000000E+00 0.  1.
         22   -1    0    0    0    0 -0.00000000000E+00 -0.00000000000E+00 -0.29561788371E+03  0.29561788371E+03  0.00000000000E+00 0. -1.
         24    2    1    2    0    0  0.34734544231E+00 -0.11696666877E+02 -0.25739780292E+03  0.27035121091E+03  0.81848736239E+02 0.  0.
         25    2    1    2    0    0  0.24891971580E+02  0.42865086319E+01  0.12452618169E+03  0.17830136519E+03  0.12508646009E+03 0.  0.
        -24    2    1    2    0    0 -0.25239317023E+02  0.74101582452E+01  0.36100232360E+03  0.37071389367E+03  0.80088574414E+02 0.  0.
        -13    1    3    3    0    0 -0.29312419004E+02  0.44176338606E+00 -0.34996073466E+02  0.45652362708E+02  0.00000000000E+00 0.  1.
         14    1    3    3    0    0  0.29659764446E+02 -0.12138430263E+02 -0.22240172946E+03  0.22469884820E+03  0.00000000000E+00 0. -1.
         11    1    5    5    0    0  0.98023765758E+01 -0.12155167890E+02  0.12757418374E+02  0.20163988111E+02  0.00000000000E+00 0. -1.
        -12    1    5    5    0    0 -0.35041693598E+02  0.19565326135E+02  0.34824490522E+03  0.35054990556E+03  0.00000000000E+00 0.  1.
          5    1    4    4  501    0  0.65640326986E+02 -0.22047563141E+02  0.10497746236E+03  0.12582721316E+03  0.41800000000E+01 0.  1.
         -5    1    4    4    0  501 -0.40748355406E+02  0.26334071773E+02  0.19548719326E+02  0.52474152035E+02  0.41800000000E+01 0.  1.
</event>
<event>
11    1  0.8974665E-009  0.1320779E+03  0.7561462E-02  0.1116742E+00
         22   -1    0    0    0    0  0.00000000000E+00  0.00000000000E+00  0.45779434583E+03  0.45779434583E+03  0.00000000000E+00 0. -1.
         22   -1    0    0    0    0 -0.00000000000E+00 -0.00000000000E+00 -0.74890721476E+03  0.74890721476E+03  0.00000000000E+00 0. -1.
        -24    2    1    2    0    0 -0.36739651436E+02 -0.20949848539E+02 -0.71766991051E+03  0.72475493928E+03  0.91820060009E+02 0.  0.
         25    2    1    2    0    0  0.52843911472E+02  0.61505989443E+01  0.21882625756E+03  0.25760971247E+03  0.12509006401E+03 0.  0.
         24    2    1    2    0    0 -0.16104260036E+02  0.14799249595E+02  0.20773078403E+03  0.22433690883E+03  0.81832787151E+02 0.  0.
        -13    1    5    5    0    0 -0.15180052537E+02  0.48444656603E+02  0.13369708267E+03  0.14301128859E+03  0.00000000000E+00 0.  1.
         14    1    5    5    0    0 -0.92420749898E+00 -0.33645407008E+02  0.74033701355E+02  0.81325620246E+02  0.00000000000E+00 0. -1.
         11    1    3    3    0    0 -0.30846319765E+02  0.33562360431E+02 -0.28451367608E+03  0.28814225542E+03  0.00000000000E+00 0. -1.
        -12    1    3    3    0    0 -0.58933316712E+01 -0.54512208971E+02 -0.43315623444E+03  0.43661268387E+03  0.00000000000E+00 0.  1.
          5    1    4    4  501    0 -0.55716687066E+01  0.40743436866E+02  0.17112830861E+02  0.44736925687E+02  0.41800000000E+01 0.  1.
         -5    1    4    4    0  501  0.58415580179E+02 -0.34592837922E+02  0.20171342670E+03  0.21287278679E+03  0.41800000000E+01 0.  1.
</event>
<event>
11    1  0.8974665E-009  0.1847880E+03  0.7561462E-02  0.1065834E+00
         22   -1    0    0    0    0  0.00000000000E+00  0.00000000000E+00  0.19736270484E+04  0.19736270484E+04  0.00000000000E+00 0. -1.
         22   -1    0    0    0    0 -0.00000000000E+00 -0.00000000000E+00 -0.12713781041E+03  0.12713781041E+03  0.00000000000E+00 0.  1.
         24    2    1    2    0    0 -0.98115124322E+02  0.71306149888E+02 -0.44728236799E+02  0.15393765743E+03  0.83576567144E+02 0.  0.
         25    2    1    2    0    0  0.18738131674E+03  0.26955679960E+02  0.52248222645E+03  0.56962674252E+03  0.12509429360E+03 0.  0.
        -24    2    1    2    0    0 -0.89266192420E+02 -0.98261829848E+02  0.13687352483E+04  0.13772004589E+04  0.74973885593E+02 0.  0.
        -11    1    3    3    0    0 -0.70724883295E+02  0.20040374751E+02  0.98980801350E+01  0.74172755966E+02  0.00000000000E+00 0.  1.
         12    1    3    3    0    0 -0.27390241028E+02  0.51265775137E+02 -0.54626316934E+02  0.79764901465E+02  0.00000000000E+00 0. -1.
         13    1    5    5    0    0 -0.78409783171E+02 -0.66600345069E+02  0.12373272222E+04  0.12415966957E+04  0.00000000000E+00 0. -1.
        -14    1    5    5    0    0 -0.10856409249E+02 -0.31661484779E+02  0.13140802618E+03  0.13560376317E+03  0.00000000000E+00 0.  1.
          5    1    4    4  501    0  0.77602770476E+01 -0.19413663734E+02  0.81146847276E+01  0.22812995148E+02  0.41800000000E+01 0. -1.
         -5    1    4    4    0  501  0.17962103969E+03  0.46369343693E+02  0.51436754173E+03  0.54681374737E+03  0.41800000000E+01 0. -1.
</event>
<event>
11    1  0.8974665E-009  0.1315004E+03  0.7561462E-02  0.1117439E+00
         22   -1    0    0    0    0  0.00000000000E+00  0.00000000000E+00  0.11137989841E+04  0.11137989841E+04  0.00000000000E+00 0. -1.
         22   -1    0    0    0    0 -0.00000000000E+00 -0.00000000000E+00 -0.88351564308E+02  0.88351564308E+02  0.00000000000E+00 0. -1.
         24    2    1    2    0    0 -0.41883590160E+02  0.43134724529E+01 -0.51974797351E+02  0.10281170653E+03  0.78077053418E+02 0.  0.
         25    2    1    2    0    0 -0.65063697225E+01 -0.17130179392E+02  0.73339538102E+03  0.74421262999E+03  0.12509147789E+03 0.  0.
        -24    2    1    2    0    0  0.48389959882E+02  0.12816706940E+02  0.34402683610E+03  0.35512621187E+03  0.72486593269E+02 0.  0.
        -13    1    3    3    0    0  0.17693533577E+02  0.43765393043E+01 -0.37206926489E+02  0.41431517054E+02  0.00000000000E+00 0.  1.
         14    1    3    3    0    0 -0.59577123736E+02 -0.63066851426E-01 -0.14767870862E+02  0.61380189475E+02  0.00000000000E+00 0. -1.
         11    1    5    5    0    0  0.50777518387E+02 -0.11652609424E+02  0.30180028255E+03  0.30626385720E+03  0.00000000000E+00 0. -1.
        -12    1    5    5    0    0 -0.23875585049E+01  0.24469316363E+02  0.42226553553E+02  0.48862354670E+02  0.00000000000E+00 0.  1.
          5    1    4    4  501    0  0.11141874000E+01 -0.57738107440E+02  0.63194334225E+03  0.63459025417E+03  0.41800000000E+01 0. -1.
         -5    1    4    4    0  501 -0.76205571226E+01  0.40607928047E+02  0.10145203877E+03  0.10962237582E+03  0.41800000000E+01 0. -1.
</event>
<event>
11    1  0.8974665E-009  0.1375177E+03  0.7561462E-02  0.1110362E+00
         22   -1    0    0    0    0  0.00000000000E+00  0.00000000000E+00  0.55832224241E+03  0.55832224241E+03  0.00000000000E+00 0. -1.
         22   -1    0    0    0    0 -0.00000000000E+00 -0.00000000000E+00 -0.15742504621E+04  0.15742504621E+04  0.00000000000E+00 0. -1.
         24    2    1    2    0    0 -0.47955146517E+01  0.57411742744E+02 -0.15222158196E+04  0.15254342449E+04  0.80557611525E+02 0.  0.
         25    2    1    2    0    0  0.17414660509E+02 -0.28841177903E+02  0.43753914324E+02  0.13673530705E+03  0.12508818982E+03 0.  0.
        -24    2    1    2    0    0 -0.12619145857E+02 -0.28570564841E+02  0.46253368561E+03  0.47040315258E+03  0.79788442847E+02 0.  0.
        -11    1    3    3    0    0 -0.13414610450E+02  0.37712908305E+02 -0.26244413395E+03  0.26547907388E+03  0.00000000000E+00 0.  1.
         12    1    3    3    0    0  0.86190957981E+01  0.19698834438E+02 -0.12597716857E+04  0.12599551710E+04  0.00000000000E+00 0. -1.
         13    1    5    5    0    0 -0.77634934542E+01 -0.56633873097E+02  0.30187640504E+03  0.30724099878E+03  0.00000000000E+00 0. -1.
        -14    1    5    5    0    0 -0.48556524032E+01  0.28063308257E+02  0.16065728057E+03  0.16316215380E+03  0.00000000000E+00 0.  1.
          5    1    4    4  501    0 -0.79352890445E+01 -0.36257616918E+02 -0.36451321600E+02  0.52189604742E+02  0.41800000000E+01 0. -1.
         -5    1    4    4    0  501  0.25349949554E+02  0.74164390146E+01  0.80205235923E+02  0.84545702313E+02  0.41800000000E+01 0. -1.
</event>
<event>
11    1  0.8974665E-009  0.1877409E+03  0.7561462E-02  0.1063548E+00
         22   -1    0    0    0    0  0.00000000000E+00  0.00000000000E+00  0.56043005601E+03  0.56043005601E+03  0.00000000000E+00 0.  1.
         22   -1    0    0    0    0 -0.00000000000E+00 -0.00000000000E+00 -0.24062172881E+03  0.24062172881E+03  0.00000000000E+00 0.  1.
         24    2    1    2    0    0 -0.33908856869E+01  0.35145319138E+02 -0.12246669693E+03  0.15066171322E+03  0.80337839214E+02 0.  0.
         25    2    1    2    0    0 -0.11534916326E+03 -0.10511546845E+03  0.22536070808E+02  0.20126756796E+03  0.12508424462E+03 0.  0.
        -24    2    1    2    0    0  0.11874004895E+03  0.69970149316E+02  0.41973895332E+03  0.44912250365E+03  0.80840666318E+02 0.  0.
        -13    1    3    3    0    0 -0.46143305381E+01  0.51698115232E+02 -0.37358979699E+02  0.63950610075E+02  0.00000000000E+00 0.  1.
         14    1    3    3    0    0  0.12234448513E+01 -0.16552796094E+02 -0.85107717232E+02  0.86711103143E+02  0.00000000000E+00 0. -1.
         13    1    5    5    0    0  0.35548038882E+02 -0.15303478956E+02  0.75312504775E+02  0.84674865881E+02  0.00000000000E+00 0. -1.
        -14    1    5    5    0    0  0.83192010064E+02  0.85273628272E+02  0.34442644855E+03  0.36444763777E+03  0.00000000000E+00 0.  1.
          5    1    4    4  501    0 -0.87336628188E+02 -0.95288587512E+01  0.45406680808E+02  0.98983457378E+02  0.41800000000E+01 0. -1.
         -5    1    4    4    0  501 -0.28012535071E+02 -0.95586609703E+02 -0.22870610001E+02  0.10228411058E+03  0.41800000000E+01 0. -1.
</event>
<event>
11    1  0.8974665E-009  0.1416300E+03  0.7561462E-02  0.1105752E+00
         22   -1    0    0    0    0  0.00000000000E+00  0.00000000000E+00  0.60219575013E+02  0.60219575013E+02  0.00000000000E+00 0.  1.
         22   -1    0    0    0    0 -0.00000000000E+00 -0.00000000000E+00 -0.39537531912E+04  0.39537531912E+04  0.00000000000E+00 0.  1.
         24    2    1    2    0    0 -0.11790706850E+01 -0.67350639424E+02 -0.26621878809E+04  0.26642633443E+04  0.80730141047E+02 0.  0.
         25    2    1    2    0    0 -0.36816031233E+02  0.61124248064E+02 -0.12507661669E+04  0.12590296951E+04  0.12509266573E+03 0.  0.
        -24    2    1    2    0    0  0.37995101918E+02  0.62263913604E+01  0.19420431574E+02  0.90679726865E+02  0.79770069466E+02 0.  0.
        -13    1    3    3    0    0  0.24743457651E+02 -0.71831647486E+02 -0.22148127514E+04  0.22161154185E+04  0.00000000000E+00 0.  1.
         14    1    3    3    0    0 -0.25922528336E+02  0.44810080617E+01 -0.44737512945E+03  0.44814792576E+03  0.00000000000E+00 0. -1.
         13    1    5    5    0    0  0.32308543820E+02 -0.69569364722E+01 -0.26630093636E+02  0.42442936467E+02  0.00000000000E+00 0. -1.
        -14    1    5    5    0    0  0.56865580975E+01  0.13183327833E+02  0.46050525210E+02  0.48236790398E+02  0.00000000000E+00 0.  1.
          5    1    4    4  501    0  0.16109640366E+02 -0.19772584674E+02 -0.75778966865E+02  0.80064972594E+02  0.41800000000E+01 0.  1.
         -5    1    4    4    0  501 -0.52925671598E+02  0.80896832738E+02 -0.11749872000E+04  0.11789647225E+04  0.41800000000E+01 0.  1.
</event>
<event>
11    1  0.8974665E-009  0.1463136E+03  0.7561462E-02  0.1100706E+00
         22   -1    0    0    0    0  0.00000000000E+00  0.00000000000E+00  0.27537259217E+03  0.27537259217E+03  0.00000000000E+00 0. -1.
         22   -1    0    0    0    0 -0.00000000000E+00 -0.00000000000E+00 -0.15242218378E+04  0.15242218378E+04  0.00000000000E+00 0. -1.
         24    2    1    2    0    0  0.31691034263E+01  0.40850759309E+01 -0.14552972443E+04  0.14575393659E+04  0.80648637498E+02 0.  0.
         25    2    1    2    0    0 -0.77133302789E+02  0.99421543975E+01  0.57898308429E+02  0.15826233273E+03  0.12508540686E+03 0.  0.
        -24    2    1    2    0    0  0.73964199363E+02 -0.14027230328E+02  0.14854969028E+03  0.18379273132E+03  0.77751473476E+02 0.  0.
        -11    1    3    3    0    0  0.19609071884E+02 -0.30296425850E+02 -0.42224470161E+03  0.42378411622E+03  0.00000000000E+00 0.  1.
         12    1    3    3    0    0 -0.16439968457E+02  0.34381501781E+02 -0.10330525427E+04  0.10337552497E+04  0.00000000000E+00 0. -1.
         13    1    5    5    0    0  0.58916452806E+02 -0.43760240838E+02  0.87170969033E+02  0.11395123927E+03  0.00000000000E+00 0. -1.
        -14    1    5    5    0    0  0.15047746557E+02  0.29733010510E+02  0.61378721243E+02  0.69841492051E+02  0.00000000000E+00 0.  1.
          5    1    4    4  501    0 -0.29852843072E+02  0.50689346700E+02 -0.16325563493E+02  0.61193124873E+02  0.41800000000E+01 0. -1.
         -5    1    4    4    0  501 -0.47280459717E+02 -0.40747192303E+02  0.74223871922E+02  0.97069207861E+02  0.41800000000E+01 0. -1.
</event>
<event>
11    1  0.8974665E-009  0.1553513E+03  0.7561462E-02  0.1091533E+00
         22   -1    0    0    0    0  0.00000000000E+00  0.00000000000E+00  0.48216145229E+03  0.48216145229E+03  0.00000000000E+00 0. -1.
         22   -1    0    0    0    0 -0.00000000000E+00 -0.00000000000E+00 -0.15736754491E+03  0.15736754491E+03  0.00000000000E+00 0. -1.
         24    2    1    2    0    0  0.13641920296E+02  0.50679557017E+02 -0.55675414747E+02  0.11023074952E+03  0.79350783516E+02 0.  0.
         25    2    1    2    0    0 -0.61948245575E+02  0.33565370574E+02  0.16179266513E+02  0.14447530422E+03  0.12508847123E+03 0.  0.
        -24    2    1    2    0    0  0.48306325279E+02 -0.84244927591E+02  0.36429005562E+03  0.38482294346E+03  0.77141067560E+02 0.  0.
        -11    1    3    3    0    0 -0.18083826537E+02 -0.48107827287E+01  0.76850222025E+01  0.20229384048E+02  0.00000000000E+00 0.  1.
         12    1    3    3    0    0  0.31725746833E+02  0.55490339746E+02 -0.63360436950E+02  0.90001365477E+02  0.00000000000E+00 0. -1.
         13    1    5    5    0    0  0.37160699724E+02 -0.98671167182E+02  0.29951090173E+03  0.31752747455E+03  0.00000000000E+00 0. -1.
        -14    1    5    5    0    0  0.11145625556E+02  0.14426239592E+02  0.64779153888E+02  0.67295468913E+02  0.00000000000E+00 0.  1.
          5    1    4    4  501    0 -0.82236600442E+01  0.31919511264E+02  0.64193144170E+02  0.72282196579E+02  0.41800000000E+01 0.  1.
         -5    1    4    4    0  501 -0.53724585531E+02  0.16458593093E+01 -0.48013877658E+02  0.72193107642E+02  0.41800000000E+01 0.  1.
</event>
<event>
11    1  0.8974665E-009  0.1509949E+03  0.7561462E-02  0.1095866E+00
         22   -1    0    0    0    0  0.00000000000E+00  0.00000000000E+00  0.41973225134E+03  0.41973225134E+03  0.00000000000E+00 0.  1.
         22   -1    0    0    0    0 -0.00000000000E+00 -0.00000000000E+00 -0.19867499003E+03  0.19867499003E+03  0.00000000000E+00 0.  1.
        -24    2    1    2    0    0 -0.79152021494E+02 -0.54814264283E+02 -0.11532427956E+03  0.17007519315E+03  0.79726004511E+02 0.  0.
         25    2    1    2    0    0  0.43045962390E+02  0.16273785265E+02  0.45134122572E+02  0.14072089683E+03  0.12508993092E+03 0.  0.
         24    2    1    2    0    0  0.36106059104E+02  0.38540479018E+02  0.29124741829E+03  0.30761115139E+03  0.83729001986E+02 0.  0.
        -13    1    5    5    0    0  0.26168925510E+02  0.57099069667E+02  0.27176139443E+03  0.27892538773E+03  0.00000000000E+00 0.  1.
         14    1    5    5    0    0  0.99371335940E+01 -0.18558590649E+02  0.19486023863E+02  0.28685763663E+02  0.00000000000E+00 0. -1.
         11    1    3    3    0    0 -0.25480678123E+02  0.65995791639E+01  0.28630675028E+01  0.26476717286E+02  0.00000000000E+00 0. -1.
        -12    1    3    3    0    0 -0.53671343371E+02 -0.61413843447E+02 -0.11818734706E+03  0.14359847587E+03  0.00000000000E+00 0.  1.
          5    1    4    4  501    0 -0.17986410253E+02 -0.41745822180E+02  0.31131960879E+02  0.55253018121E+02  0.41800000000E+01 0.  1.
         -5    1    4    4    0  501  0.61032372643E+02  0.58019607445E+02  0.14002161693E+02  0.85467878707E+02  0.41800000000E+01 0.  1.
</event>
<event>
11    1  0.8974665E-009  0.1650451E+03  0.7561462E-02  0.1082426E+00
         22   -1    0    0    0    0  0.00000000000E+00  0.00000000000E+00  0.25193973538E+04  0.25193973538E+04  0.00000000000E+00 0. -1.
         22   -1    0    0    0    0 -0.00000000000E+00 -0.00000000000E+00 -0.48819811988E+03  0.48819811988E+03  0.00000000000E+00 0.  1.
         24    2    1    2    0    0  0.48225802119E+02 -0.35931851305E+02 -0.46562381493E+03  0.47630395014E+03  0.80268860451E+02 0.  0.
         25    2    1    2    0    0  0.71131206247E+01  0.12712620336E+03  0.51465143942E+03  0.54472468896E+03  0.12508882681E+03 0.  0.
        -24    2    1    2    0    0 -0.55338922744E+02 -0.91194352060E+02  0.19821716094E+04  0.19865668345E+04  0.77876137608E+02 0.  0.
        -13    1    3    3    0    0  0.48307552874E+02 -0.52342207311E+02 -0.44098527323E+03  0.44670050094E+03  0.00000000000E+00 0.  1.
         14    1    3    3    0    0 -0.81750754886E-01  0.16410356007E+02 -0.24638541695E+02  0.29603449196E+02  0.00000000000E+00 0. -1.
         11    1    5    5    0    0 -0.54972410815E+02 -0.28351635926E+02  0.13113769422E+04  0.13128348204E+04  0.00000000000E+00 0. -1.
        -12    1    5    5    0    0 -0.36651192880E+00 -0.62842716135E+02  0.67079466721E+03  0.67373201412E+03  0.00000000000E+00 0.  1.
          5    1    4    4  501    0  0.13517226888E+02  0.12810205878E+03  0.51974403562E+03  0.53548500245E+03  0.41800000000E+01 0. -1.
         -5    1    4    4    0  501 -0.64041062632E+01 -0.97585541755E+00 -0.50925961937E+01  0.92396865108E+01  0.41800000000E+01 0. -1.
</event>
<event>
11    1  0.8974665E-009  0.1469208E+03  0.7561462E-02  0.1100067E+00
         22   -1    0    0    0    0  0.00000000000E+00  0.00000000000E+00  0.80579566953E+03  0.80579566953E+03  0.00000000000E+00 0. -1.
         22   -1    0    0    0    0 -0.00000000000E+00 -0.00000000000E+00 -0.58351812143E+03  0.58351812143E+03  0.00000000000E+00 0.  1.
         24    2    1    2    0    0 -0.23027869070E+02  0.27848869105E+02 -0.43097919720E+03  0.44002010975E+03  0.81048049322E+02 0.  0.
         25    2    1    2    0    0 -0.54058189665E+02 -0.36930244944E+02 -0.10907126851E+03  0.17841114176E+03  0.12509141868E+03 0.  0.
        -24    2    1    2    0    0  0.77086058736E+02  0.90813758390E+01  0.76232801382E+03  0.77088253945E+03  0.84209008623E+02 0.  0.
        -13    1    3    3    0    0  0.21482231138E+02  0.47674656981E+01 -0.28144631819E+03  0.28230523376E+03  0.00000000000E+00 0.  1.
         14    1    3    3    0    0 -0.44510100209E+02  0.23081403407E+02 -0.14953287902E+03  0.15771487600E+03  0.00000000000E+00 0. -1.
         11    1    5    5    0    0  0.75930578773E+02  0.19533027999E+02  0.75222638282E+03  0.75630121181E+03  0.00000000000E+00 0. -1.
        -12    1    5    5    0    0  0.11554799622E+01 -0.10451652160E+02  0.10101630999E+02  0.14581327637E+02  0.00000000000E+00 0.  1.
          5    1    4    4  501    0 -0.29079680702E+02 -0.30657812021E+01  0.24455678679E+02  0.38348135075E+02  0.41800000000E+01 0. -1.
         -5    1    4    4    0  501 -0.24978508963E+02 -0.33864463742E+02 -0.13352694719E+03  0.14006300668E+03  0.41800000000E+01 0. -1.
</event>
<event>
11    1  0.8974665E-009  0.1289054E+03  0.7561462E-02  0.1120621E+00
         22   -1    0    0    0    0  0.00000000000E+00  0.00000000000E+00  0.82877306300E+03  0.82877306300E+03  0.00000000000E+00 0.  1.
         22   -1    0    0    0    0 -0.00000000000E+00 -0.00000000000E+00 -0.38498268488E+03  0.38498268488E+03  0.00000000000E+00 0. -1.
         24    2    1    2    0    0 -0.81425322823E+01 -0.16735361640E+02 -0.31809089984E+03  0.32865281079E+03  0.80526246164E+02 0.  0.
         25    2    1    2    0    0  0.24986089075E+01 -0.14622127864E+02  0.80362035537E+01  0.12622262040E+03  0.12509004622E+03 0.  0.
        -24    2    1    2    0    0  0.56439233748E+01  0.31357489503E+02  0.75384507440E+03  0.75888031669E+03  0.81251417427E+02 0.  0.
        -13    1    3    3    0    0  0.15335284280E+02 -0.14729873343E+02 -0.18642237853E+02  0.28278492619E+02  0.00000000000E+00 0.  1.
         14    1    3    3    0    0 -0.23477816562E+02 -0.20054882971E+01 -0.29944866198E+03  0.30037431817E+03  0.00000000000E+00 0. -1.
         13    1    5    5    0    0 -0.50952164671E+01 -0.16972604353E+02  0.45835769023E+02  0.49142122983E+02  0.00000000000E+00 0. -1.
        -14    1    5    5    0    0  0.10739139842E+02  0.48330093857E+02  0.70800930538E+03  0.70973819370E+03  0.00000000000E+00 0.  1.
          5    1    4    4  501    0 -0.20502669469E+02  0.51036770257E+02 -0.47465150504E+01  0.55363464295E+02  0.41800000000E+01 0.  1.
         -5    1    4    4    0  501  0.23001278376E+02 -0.65658898120E+02  0.12782718604E+02  0.70859156107E+02  0.41800000000E+01 0.  1.
</event>
<event>
11    1  0.8974665E-009  0.1275414E+03  0.7561462E-02  0.1122327E+00
         22   -1    0    0    0    0  0.00000000000E+00  0.00000000000E+00  0.49813036445E+03  0.49813036445E+03  0.00000000000E+00 0. -1.
         22   -1    0    0    0    0 -0.00000000000E+00 -0.00000000000E+00 -0.12576459770E+04  0.12576459770E+04  0.00000000000E+00 0. -1.
         24    2    1    2    0    0  0.28971827898E+02  0.40676299085E+01 -0.91128328483E+03  0.91527389113E+03  0.80206970688E+02 0.  0.
         25    2    1    2    0    0 -0.48512456959E+02 -0.18911554897E+02 -0.32592403941E+03  0.35296475669E+03  0.12508610879E+03 0.  0.
        -24    2    1    2    0    0  0.19540629061E+02  0.14843924988E+02  0.47769171170E+03  0.48753769362E+03  0.94347511756E+02 0.  0.
        -11    1    3    3    0    0 -0.20700213502E+02  0.17937135135E+02 -0.16938700443E+03  0.17158728661E+03  0.00000000000E+00 0.  1.
         12    1    3    3    0    0  0.49672041399E+02 -0.13869505226E+02 -0.74189628040E+03  0.74368660452E+03  0.00000000000E+00 0. -1.
         13    1    5    5    0    0  0.31817003031E+01  0.45711912962E+02  0.39663477166E+03  0.39927289451E+03  0.00000000000E+00 0. -1.
        -14    1    5    5    0    0  0.16358928758E+02 -0.30867987973E+02  0.81056940041E+02  0.88264799101E+02  0.00000000000E+00 0.  1.
          5    1    4    4  501    0 -0.72851465182E+02  0.20736715422E+02 -0.26812885195E+03  0.27865372955E+03  0.41800000000E+01 0.  1.
         -5    1    4    4    0  501  0.24339008224E+02 -0.39648270319E+02 -0.57795187458E+02  0.74311027135E+02  0.41800000000E+01 0.  1.
</event>
<event>
11    1  0.8974665E-009  0.1534430E+03  0.7561462E-02  0.1093412E+00
         22   -1    0    0    0    0  0.00000000000E+00  0.00000000000E+00  0.15174395851E+03  0.15174395851E+03  0.00000000000E+00 0.  1.
         22   -1    0    0    0    0 -0.00000000000E+00 -0.00000000000E+00 -0.95050727479E+03  0.95050727479E+03  0.00000000000E+00 0. -1.
        -24    2    1    2    0    0 -0.64757524671E+02 -0.17451330776E+01 -0.75165402308E+03  0.75856775992E+03  0.79023373038E+02 0.  0.
         25    2    1    2    0    0  0.41324511155E+02  0.89463275460E+02 -0.12251580548E+03  0.20091875804E+03  0.12508729697E+03 0.  0.
         24    2    1    2    0    0  0.23433013515E+02 -0.87718142383E+02  0.75406512283E+02  0.14276471534E+03  0.80324611579E+02 0.  0.
        -13    1    5    5    0    0 -0.23343723634E+02 -0.21135467153E+02  0.47006519966E+02  0.56579592824E+02  0.00000000000E+00 0.  1.
         14    1    5    5    0    0  0.46776737149E+02 -0.66582675230E+02  0.28399992317E+02  0.86185122514E+02  0.00000000000E+00 0. -1.
         11    1    3    3    0    0 -0.14852298015E+02  0.26080460294E+02 -0.48164644155E+03  0.48258064178E+03  0.00000000000E+00 0. -1.
        -12    1    3    3    0    0 -0.49905226655E+02 -0.27825593372E+02 -0.27000758154E+03  0.27598711814E+03  0.00000000000E+00 0.  1.
          5    1    4    4  501    0  0.44026310174E+02 -0.13774930129E+02 -0.72650598636E+02  0.86160585941E+02  0.41800000000E+01 0. -1.
         -5    1    4    4    0  501 -0.27017990189E+01  0.10323820559E+03 -0.49865206841E+02  0.11475817210E+03  0.41800000000E+01 0. -1.
</event>
<event>
11    1  0.8974665E-009  0.1398384E+03  0.7561462E-02  0.1107739E+00
         22   -1    0    0    0    0  0.00000000000E+00  0.00000000000E+00  0.30003256616E+03  0.30003256616E+03  0.00000000000E+00 0. -1.
         22   -1    0    0    0    0 -0.00000000000E+00 -0.00000000000E+00 -0.37048268530E+03  0.37048268530E+03  0.00000000000E+00 0.  1.
        -24    2    1    2    0    0 -0.24583095406E+02  0.86780059229E+01 -0.25383364657E+03  0.26751916130E+03  0.80345162685E+02 0.  0.
         25    2    1    2    0    0 -0.33968835817E+02  0.19508119943E+02 -0.56043131624E+02  0.14255965110E+03  0.12509185812E+03 0.  0.
         24    2    1    2    0    0  0.58551931223E+02 -0.28186125866E+02  0.23942665905E+03  0.26043643905E+03  0.79241576088E+02 0.  0.
        -11    1    5    5    0    0 -0.11140308779E+01  0.16923736754E+02  0.10707993692E+03  0.10841479060E+03  0.00000000000E+00 0.  1.
         12    1    5    5    0    0  0.59665962101E+02 -0.45109862619E+02  0.13234672213E+03  0.15202164845E+03  0.00000000000E+00 0. -1.
         11    1    3    3    0    0  0.21133969175E+02 -0.11749482672E+02 -0.15341038788E+03  0.15530435315E+03  0.00000000000E+00 0. -1.
        -12    1    3    3    0    0 -0.45717064581E+02  0.20427488595E+02 -0.10042325869E+03  0.11221480816E+03  0.00000000000E+00 0.  1.
          5    1    4    4  501    0 -0.15828570086E+02  0.37819761716E+02 -0.90432462102E+02  0.99379980927E+02  0.41800000000E+01 0. -1.
         -5    1    4    4    0  501 -0.18140265731E+02 -0.18311641773E+02  0.34389330478E+02  0.43179670169E+02  0.41800000000E+01 0. -1.
</event>
<event>
11    1  0.8974665E-009  0.1503940E+03  0.7561462E-02  0.1096477E+00
         22   -1    0    0    0    0  0.00000000000E+00  0.00000000000E+00  0.11894784029E+04  0.11894784029E+04  0.00000000000E+00 0.  1.
         22   -1    0    0    0    0 -0.00000000000E+00 -0.00000000000E+00 -0.41612106544E+03  0.41612106544E+03  0.00000000000E+00 0. -1.
        -24    2    1    2    0    0 -0.44003718927E+01  0.14164254670E+02 -0.38954344280E+03  0.39783402868E+03  0.79421855728E+02 0.  0.
         25    2    1    2    0    0 -0.48356390162E+01 -0.94349309362E+02  0.32611246877E+03  0.36183190172E+03  0.12509119565E+03 0.  0.
         24    2    1    2    0    0  0.92360109088E+01  0.80185054692E+02  0.83678831144E+03  0.84593353789E+03  0.94201515169E+02 0.  0.
        -13    1    5    5    0    0  0.24283857009E+01  0.65042201039E+02  0.23308774476E+03  0.24200471428E+03  0.00000000000E+00 0.  1.
         14    1    5    5    0    0  0.68076252080E+01  0.15142853653E+02  0.60370056668E+03  0.60392882361E+03  0.00000000000E+00 0. -1.
         11    1    3    3    0    0 -0.25634025516E+02 -0.21956608292E+02 -0.24586208983E+03  0.24816801391E+03  0.00000000000E+00 0. -1.
        -12    1    3    3    0    0  0.21233653624E+02  0.36120862962E+02 -0.14368135297E+03  0.14966601477E+03  0.00000000000E+00 0.  1.
          5    1    4    4  501    0  0.56855840903E+02 -0.67761013539E+02  0.20418475374E+03  0.22256016638E+03  0.41800000000E+01 0. -1.
         -5    1    4    4    0  501 -0.61691479919E+02 -0.26588295823E+02  0.12192771504E+03  0.13927173534E+03  0.41800000000E+01 0. -1.
</event>
<event>
11    1  0.8974665E-009  0.1295127E+03  0.7561462E-02  0.1119869E+00
         22   -1    0    0    0    0  0.00000000000E+00  0.00000000000E+00  0.14871919975E+04  0.14871919975E+04  0.00000000000E+00 0.  1.
         22   -1    0    0    0    0 -0.00000000000E+00 -0.00000000000E+00 -0.90368239616E+02  0.90368239616E+02  0.00000000000E+00 0.  1.
         24    2    1    2    0    0 -0.31147256905E+02 -0.16612017778E+02 -0.52221551502E+02  0.10192669879E+03  0.80099005845E+02 0.  0.
         25    2    1    2    0    0  0.50671034853E+01  0.11594778685E+02  0.32538807745E+03  0.34883323290E+03  0.12508840472E+03 0.  0.
        -24    2    1    2    0    0  0.26080153420E+02  0.50172390933E+01  0.11236572320E+04  0.11268003055E+04  0.79799789100E+02 0.  0.
        -11    1    3    3    0    0  0.22671870545E+02  0.77574657479E+01 -0.30933641466E+02  0.39129045008E+02  0.00000000000E+00 0.  1.
         12    1    3    3    0    0 -0.53819127450E+02 -0.24369483526E+02 -0.21287910036E+02  0.62797653782E+02  0.00000000000E+00 0. -1.
         11    1    5    5    0    0  0.73376694935E+01 -0.32173559073E+02  0.76874459211E+03  0.76945255032E+03  0.00000000000E+00 0. -1.
        -12    1    5    5    0    0  0.18742483926E+02  0.37190798167E+02  0.35491263986E+03  0.35734775514E+03  0.00000000000E+00 0.  1.
          5    1    4    4  501    0 -0.22136781278E+01 -0.48224886885E+02  0.62442823706E+02  0.79038716578E+02  0.41800000000E+01 0. -1.
         -5    1    4    4    0  501  0.72807816132E+01  0.59819665570E+02  0.26294525374E+03  0.26979451632E+03  0.41800000000E+01 0. -1.
</event>
<event>
11    1  0.8974665E-009  0.1537892E+03  0.7561462E-02  0.1093069E+00
         22   -1    0    0    0    0  0.00000000000E+00  0.00000000000E+00  0.36321015641E+03  0.36321015641E+03  0.00000000000E+00 0.  1.
         22   -1    0    0    0    0 -0.00000000000E+00 -0.00000000000E+00 -0.33083585979E+03  0.33083585979E+03  0.00000000000E+00 0.  1.
        -24    2    1    2    0    0  0.93264310189E+02 -0.33443716978E+02 -0.16267962882E+03  0.20662774634E+03  0.80085268096E+02 0.  0.
         25    2    1    2    0    0 -0.41851546797E+02  0.75235237216E+02 -0.94808432228E+02  0.17902151095E+03  0.12509264436E+03 0.  0.
         24    2    1    2    0    0 -0.51412763392E+02 -0.41791520238E+02  0.28986235766E+03  0.30839675890E+03  0.81844798920E+02 0.  0.
        -13    1    5    5    0    0  0.91158552738E+01 -0.93282159310E+01  0.16804376209E+03  0.16854916318E+03  0.00000000000E+00 0.  1.
         14    1    5    5    0    0 -0.60528618665E+02 -0.32463304307E+02  0.12181859557E+03  0.13984759573E+03  0.00000000000E+00 0. -1.
         11    1    3    3    0    0  0.71469265647E+02  0.14356146160E+02 -0.76286453204E+02  0.10551577042E+03  0.00000000000E+00 0. -1.
        -12    1    3    3    0    0  0.21795044542E+02 -0.47799863138E+02 -0.86393175611E+02  0.10111197592E+03  0.00000000000E+00 0.  1.
          5    1    4    4  501    0 -0.57753288993E+02  0.86662816707E+02 -0.11173627832E+03  0.15280168351E+03  0.41800000000E+01 0. -1.
         -5    1    4    4    0  501  0.15901742196E+02 -0.11427579491E+02  0.16927846095E+02  0.26219827446E+02  0.41800000000E+01 0. -1.
</event>
<event>
11    1  0.8974665E-009  0.2111071E+03  0.7561462E-02  0.1046936E+00
         22   -1    0    0    0    0  0.00000000000E+00  0.00000000000E+00  0.32330941239E+04  0.32330941239E+04  0.00000000000E+00 0. -1.
         22   -1    0    0    0    0 -0.00000000000E+00 -0.00000000000E+00 -0.23461886999E+03  0.23461886999E+03  0.00000000000E+00 0. -1.
        -24    2    1    2    0    0  0.70975199282E+00  0.73399276023E+02 -0.17632086226E+03  0.20564851453E+03  0.76251607145E+02 0.  0.
         25    2    1    2    0    0  0.58034858029E+02  0.91371993186E+02  0.12808948065E+03  0.20921557320E+03  0.12508938856E+03 0.  0.
         24    2    1    2    0    0 -0.58744610021E+02 -0.16477126921E+03  0.30467066355E+04  0.30528489061E+04  0.82853005480E+02 0.  0.
        -13    1    5    5    0    0 -0.25313688433E+02 -0.59587104663E+01  0.22891321479E+03  0.23038565268E+03  0.00000000000E+00 0.  1.
         14    1    5    5    0    0 -0.33430921588E+02 -0.15881255874E+03  0.28177934207E+04  0.28224632534E+04  0.00000000000E+00 0. -1.
         13    1    3    3    0    0  0.32951398804E+02  0.63844230155E+02 -0.11190816094E+03  0.13298615301E+03  0.00000000000E+00 0. -1.
        -14    1    3    3    0    0 -0.32241646811E+02  0.95550458682E+01 -0.64412701318E+02  0.72662361521E+02  0.00000000000E+00 0.  1.
          5    1    4    4  501    0 -0.16507716475E+02  0.14124142535E+02 -0.17550333110E+02  0.28239736150E+02  0.41800000000E+01 0. -1.
         -5    1    4    4    0  501  0.74542574503E+02  0.77247850651E+02  0.14563981376E+03  0.18097583705E+03  0.41800000000E+01 0. -1.
</event>
<event>
11    1  0.8974665E-009  0.1287136E+03  0.7561462E-02  0.1120860E+00
         22   -1    0    0    0    0  0.00000000000E+00  0.00000000000E+00  0.36480684929E+02  0.36480684929E+02  0.00000000000E+00 0. -1.
         22   -1    0    0    0    0 -0.00000000000E+00 -0.00000000000E+00 -0.79538252090E+03  0.79538252090E+03  0.00000000000E+00 0. -1.
        -24    2    1    2    0    0 -0.88028165581E+01 -0.10703692468E+02 -0.29677030035E+03  0.30787118199E+03  0.80746485503E+02 0.  0.
         25    2    1    2    0    0  0.13633557393E+02 -0.20880635409E+02 -0.39393674222E+03  0.41407101572E+03  0.12508706713E+03 0.  0.
         24    2    1    2    0    0 -0.48307408353E+01  0.31584327877E+02 -0.68194793397E+02  0.10992100811E+03  0.80069921655E+02 0.  0.
        -11    1    5    5    0    0 -0.42505093085E+02  0.15537212945E+02 -0.36345501463E+02  0.58043805879E+02  0.00000000000E+00 0.  1.
         12    1    5    5    0    0  0.37674352250E+02  0.16047114932E+02 -0.31849291935E+02  0.51877202236E+02  0.00000000000E+00 0. -1.
         11    1    3    3    0    0  0.28506056866E+02  0.18903944816E+02 -0.11686129013E+03  0.12176418003E+03  0.00000000000E+00 0. -1.
        -12    1    3    3    0    0 -0.37308873424E+02 -0.29607637284E+02 -0.17990901022E+03  0.18610700196E+03  0.00000000000E+00 0.  1.
          5    1    4    4  501    0 -0.87317427989E+01 -0.18894085365E+02 -0.18396419696E+01  0.21309304932E+02  0.41800000000E+01 0. -1.
         -5    1    4    4    0  501  0.22365300192E+02 -0.19865500440E+01 -0.39209710025E+03  0.39276171079E+03  0.41800000000E+01 0. -1.
</event>
<event>
11    1  0.8974665E-009  0.3732056E+03  0.7561462E-02  0.9732301E-01
         22   -1    0    0    0    0  0.00000000000E+00  0.00000000000E+00  0.72596734953E+03  0.72596734953E+03  0.00000000000E+00 0.  1.
         22   -1    0    0    0    0 -0.00000000000E+00 -0.00000000000E+00 -0.10056271780E+04  0.10056271780E+04  0.00000000000E+00 0.  1.
         24    2    1    2    0    0 -0.79747023229E+02 -0.13223041784E+03 -0.63336131395E+03  0.65687024194E+03  0.80544954013E+02 0.  0.
         25    2    1    2    0    0  0.27592267702E+03 -0.17136900682E+03 -0.20517153743E+03  0.40403768250E+03  0.12510167433E+03 0.  0.
        -24    2    1    2    0    0 -0.19617565379E+03  0.30359942466E+03  0.55887302289E+03  0.67068660311E+03  0.82607300387E+02 0.  0.
        -13    1    3    3    0    0 -0.83569362824E+02 -0.12805158409E+03 -0.63298768065E+03  0.65119463330E+03  0.00000000000E+00 0.  1.
         14    1    3    3    0    0  0.38223395949E+01 -0.41788337530E+01 -0.37363330163E+00  0.56756086333E+01  0.00000000000E+00 0. -1.
         11    1    5    5    0    0 -0.51311427173E+02  0.10532497022E+03  0.25004936492E+03  0.27613564929E+03  0.00000000000E+00 0. -1.
        -12    1    5    5    0    0 -0.14486422662E+03  0.19827445444E+03  0.30882365797E+03  0.39455095382E+03  0.00000000000E+00 0.  1.
          5    1    4    4  501    0  0.40663490713E+02 -0.78484911507E+02 -0.89562407047E+02  0.12590590918E+03  0.41800000000E+01 0.  1.
         -5    1    4    4    0  501  0.23525918631E+03 -0.92884095314E+02 -0.11560913038E+03  0.27813177332E+03  0.41800000000E+01 0.  1.
</event>
<event>
11    1  0.8974665E-009  0.2023224E+03  0.7561462E-02  0.1052893E+00
         22   -1    0    0    0    0  0.00000000000E+00  0.00000000000E+00  0.14979463940E+04  0.14979463940E+04  0.00000000000E+00 0. -1.
         22   -1    0    0    0    0 -0.00000000000E+00 -0.00000000000E+00 -0.17794505102E+03  0.17794505102E+03  0.00000000000E+00 0. -1.
        -24    2    1    2    0    0 -0.46762266934E+01  0.74746135168E+02 -0.13223133541E+03  0.17194894585E+03  0.80451613374E+02 0.  0.
         25    2    1    2    0    0 -0.14876660587E+03 -0.91947180385E+02  0.74787923425E+03  0.77818476891E+03  0.12514950471E+03 0.  0.
         24    2    1    2    0    0  0.15344283257E+03  0.17201045217E+02  0.70435344413E+03  0.72575773025E+03  0.82279583931E+02 0.  0.
        -11    1    5    5    0    0  0.48060523177E+02  0.97735597839E+01  0.91018763280E+02  0.10339125508E+03  0.00000000000E+00 0.  1.
         12    1    5    5    0    0  0.10538230939E+03  0.74274854328E+01  0.61333468085E+03  0.62236647517E+03  0.00000000000E+00 0. -1.
         13    1    3    3    0    0  0.72365804809E+01  0.75327595580E+00 -0.80628329921E+02  0.80955933122E+02  0.00000000000E+00 0. -1.
        -14    1    3    3    0    0 -0.11912807174E+02  0.73992859212E+02 -0.51603005492E+02  0.90993012726E+02  0.00000000000E+00 0.  1.
          5    1    4    4  501    0 -0.34040125211E+02 -0.29101553358E+02  0.46482494294E+02  0.64681722365E+02  0.41800000000E+01 0. -1.
         -5    1    4    4    0  501 -0.11472648066E+03 -0.62845627027E+02  0.70139673996E+03  0.71350304654E+03  0.41800000000E+01 0. -1.
</event>
<event>
11    1  0.8974665E-009  0.1314686E+03  0.7561462E-02  0.1117478E+00
         22   -1    0    0    0    0  0.00000000000E+00  0.00000000000E+00  0.23620833000E+04  0.23620833000E+04  0.00000000000E+00 0.  1.
         22   -1    0    0    0    0 -0.00000000000E+00 -0.00000000000E+00 -0.14946516728E+03  0.14946516728E+03  0.00000000000E+00 0.  1.
         24    2    1    2    0    0 -0.23577029614E+02  0.41160585225E+01 -0.13002237898E+03  0.15495884712E+03  0.80830730555E+02 0.  0.
         25    2    1    2    0    0  0.38951838797E+02  0.29951152715E+02  0.10157082499E+04  0.10245612445E+04  0.12509267633E+03 0.  0.
        -24    2    1    2    0    0 -0.15374809183E+02 -0.34067211238E+02  0.13269322619E+04  0.13320283756E+04  0.11024248852E+03 0.  0.
        -11    1    3    3    0    0 -0.24318146287E+02  0.23681376398E+02 -0.13102837960E+03  0.13535367039E+03  0.00000000000E+00 0.  1.
         12    1    3    3    0    0  0.74111667311E+00 -0.19565317875E+02  0.10060006186E+01  0.19605176733E+02  0.00000000000E+00 0. -1.
         13    1    5    5    0    0 -0.37685200845E+02 -0.32736784809E+02  0.25375402258E+03  0.25861743061E+03  0.00000000000E+00 0. -1.
        -14    1    5    5    0    0  0.22310391661E+02 -0.13304264285E+01  0.10731782393E+04  0.10734109450E+04  0.00000000000E+00 0.  1.
          5    1    4    4  501    0  0.72911522476E+01  0.76788736187E+02  0.54339610940E+03  0.54885924882E+03  0.41800000000E+01 0. -1.
         -5    1    4    4    0  501  0.31660686550E+02 -0.46837583472E+02  0.47231214047E+03  0.47570199572E+03  0.41800000000E+01 0. -1.
</event>
<event>
11    1  0.8974665E-009  0.1400423E+03  0.7561462E-02  0.1107511E+00
         22   -1    0    0    0    0  0.00000000000E+00  0.00000000000E+00  0.98219919174E+03  0.98219919174E+03  0.00000000000E+00 0.  1.
         22   -1    0    0    0    0 -0.00000000000E+00 -0.00000000000E+00 -0.48944231598E+03  0.48944231598E+03  0.00000000000E+00 0.  1.
         24    2    1    2    0    0  0.86606495480E+01  0.64903839624E+01 -0.46292299430E+03  0.47004913730E+03  0.80816835442E+02 0.  0.
         25    2    1    2    0    0 -0.25955616721E+02  0.54684107786E+02  0.23108729916E+03  0.26965151323E+03  0.12508618257E+03 0.  0.
        -24    2    1    2    0    0  0.17294967173E+02 -0.61174491749E+02  0.72459257089E+03  0.73194085719E+03  0.81618565917E+02 0.  0.
        -13    1    3    3    0    0  0.43129208832E+02  0.15618333551E+02 -0.25652786317E+03  0.26059663386E+03  0.00000000000E+00 0.  1.
         14    1    3    3    0    0 -0.34468559284E+02 -0.91279495885E+01 -0.20639513113E+03  0.20945250344E+03  0.00000000000E+00 0. -1.
         13    1    5    5    0    0  0.91560576789E+00  0.18826521715E+02  0.79692804971E+02  0.81891510048E+02  0.00000000000E+00 0. -1.
        -14    1    5    5    0    0  0.16379361405E+02 -0.80001013463E+02  0.64489976592E+03  0.65004934714E+03  0.00000000000E+00 0.  1.
          5    1    4    4  501    0  0.33379547596E+02 -0.20515444762E+02  0.97986951807E+02  0.10561246515E+03  0.41800000000E+01 0.  1.
         -5    1    4    4    0  501 -0.59335164317E+02  0.75199552548E+02  0.13310034736E+03  0.16403904808E+03  0.41800000000E+01 0.  1.
</event>
<event>
11    1  0.8974665E-009  0.1374309E+03  0.7561462E-02  0.1110462E+00
         22   -1    0    0    0    0  0.00000000000E+00  0.00000000000E+00  0.22005225796E+04  0.22005225796E+04  0.00000000000E+00 0.  1.
         22   -1    0    0    0    0 -0.00000000000E+00 -0.00000000000E+00 -0.53854069932E+02  0.53854069932E+02  0.00000000000E+00 0. -1.
        -24    2    1    2    0    0 -0.57347548695E+02  0.57510655139E+02  0.41343847535E+02  0.12150796700E+03  0.80365760863E+02 0.  0.
         25    2    1    2    0    0  0.92599784590E+02 -0.12764873962E+02  0.51722947680E+03  0.54028797678E+03  0.12508838501E+03 0.  0.
         24    2    1    2    0    0 -0.35252235896E+02 -0.44745781177E+02  0.15880951853E+04  0.15925807057E+04  0.10498610198E+03 0.  0.
        -11    1    5    5    0    0 -0.14954992998E+02 -0.31677439620E+02  0.15187471068E+04  0.15191510413E+04  0.00000000000E+00 0.  1.
         12    1    5    5    0    0 -0.20297242897E+02 -0.13068341557E+02  0.69348078543E+02  0.73429664427E+02  0.00000000000E+00 0. -1.
         11    1    3    3    0    0 -0.61725238908E+02  0.17129596680E+02  0.72072512030E+00  0.64062060890E+02  0.00000000000E+00 0. -1.
        -12    1    3    3    0    0  0.43776902136E+01  0.40381058458E+02  0.40623122415E+02  0.57445906108E+02  0.00000000000E+00 0.  1.
          5    1    4    4  501    0  0.22884109581E+01  0.10167831477E+02  0.33848953876E+03  0.33867574740E+03  0.41800000000E+01 0.  1.
         -5    1    4    4    0  501  0.90311373632E+02 -0.22932705439E+02  0.17873993804E+03  0.20161222938E+03  0.41800000000E+01 0.  1.
</event>
<event>
11    1  0.8974665E-009  0.1358949E+03  0.7561462E-02  0.1112231E+00
         22   -1    0    0    0    0  0.00000000000E+00  0.00000000000E+00  0.10995948428E+04  0.10995948428E+04  0.00000000000E+00 0.  1.
         22   -1    0    0    0    0 -0.00000000000E+00 -0.00000000000E+00 -0.52685449762E+03  0.52685449762E+03  0.00000000000E+00 0. -1.
        -24    2    1    2    0    0 -0.20899121100E+01 -0.25560735100E+02 -0.32419093508E+03  0.33565359309E+03  0.83101463620E+02 0.  0.
         25    2    1    2    0    0 -0.89808023149E+01 -0.26665312342E+02 -0.17362208452E+03  0.21583316964E+03  0.12509050799E+03 0.  0.
         24    2    1    2    0    0  0.11070714425E+02  0.52226047442E+02  0.10705533648E+04  0.10749625777E+04  0.81301388984E+02 0.  0.
        -13    1    5    5    0    0  0.34923994850E+02 -0.24012574309E+01  0.52408702368E+03  0.52525485228E+03  0.00000000000E+00 0.  1.
         14    1    5    5    0    0 -0.23853280425E+02  0.54627304873E+02  0.54646634114E+03  0.54970772545E+03  0.00000000000E+00 0. -1.
         13    1    3    3    0    0 -0.25403183981E+02  0.15081918978E+02 -0.21234184925E+03  0.21438714276E+03  0.00000000000E+00 0. -1.
        -14    1    3    3    0    0  0.23313271871E+02 -0.40642654077E+02 -0.11184908582E+03  0.12126645033E+03  0.00000000000E+00 0.  1.
          5    1    4    4  501    0 -0.22847464455E+02  0.34919619653E+02 -0.14135534749E+02  0.44256888858E+02  0.41800000000E+01 0.  1.
         -5    1    4    4    0  501  0.13866662140E+02 -0.61584931995E+02 -0.15948654977E+03  0.17157628078E+03  0.41800000000E+01 0.  1.
</event>
<event>
11    1  0.8974665E-009  0.3179674E+03  0.7561462E-02  0.9928613E-01
         22   -1    0    0    0    0  0.00000000000E+00  0.00000000000E+00  0.23139724655E+04  0.23139724655E+04  0.00000000000E+00 0. -1.
         22   -1    0    0    0    0 -0.00000000000E+00 -0.00000000000E+00 -0.22020015329E+03  0.22020015329E+03  0.00000000000E+00 0.  1.
        -24    2    1    2    0    0 -0.12295534033E+03  0.27597915062E+03 -0.29552648140E+02  0.31364094469E+03  0.78833849848E+02 0.  0.
         25    2    1    2    0    0 -0.46863382847E+01 -0.27773265852E+03  0.46825947857E+03  0.55863401585E+03  0.12509049930E+03 0.  0.
         24    2    1    2    0    0  0.12764167861E+03  0.17535078959E+01  0.16550654818E+04  0.16618976583E+04  0.79791005854E+02 0.  0.
        -13    1    5    5    0    0 -0.45419010072E+01  0.13427180882E+02  0.30424679275E+03  0.30457680304E+03  0.00000000000E+00 0.  1.
         14    1    5    5    0    0  0.13218357962E+03 -0.11673672986E+02  0.13508186891E+04  0.13573208552E+04  0.00000000000E+00 0. -1.
         11    1    3    3    0    0 -0.10810890342E+03  0.17484489523E+03  0.53226108367E+01  0.20563706517E+03  0.00000000000E+00 0. -1.
        -12    1    3    3    0    0 -0.14846436908E+02  0.10113425539E+03 -0.34875258976E+02  0.10800387952E+03  0.00000000000E+00 0.  1.
          5    1    4    4  501    0 -0.16598859351E+02 -0.81188019320E+02  0.25584617895E+03  0.26896422866E+03  0.41800000000E+01 0. -1.
         -5    1    4    4    0  501  0.11912521066E+02 -0.19654463920E+03  0.21241329962E+03  0.28966978719E+03  0.41800000000E+01 0. -1.
</event>
<event>
11    1  0.8974665E-009  0.1340422E+03  0.7561462E-02  0.1114400E+00
         22   -1    0    0    0    0  0.00000000000E+00  0.00000000000E+00  0.66335156071E+03  0.66335156071E+03  0.00000000000E+00 0.  1.
         22   -1    0    0    0    0 -0.00000000000E+00 -0.00000000000E+00 -0.24423122379E+03  0.24423122379E+03  0.00000000000E+00 0.  1.
         24    2    1    2    0    0  0.48455085147E+02  0.20070755220E+02 -0.19555856920E+03  0.21738174223E+03  0.79126085305E+02 0.  0.
         25    2    1    2    0    0 -0.43312484039E+01  0.25011696595E+01  0.80770609317E+02  0.14898502946E+03  0.12509049568E+03 0.  0.
        -24    2    1    2    0    0 -0.44123836743E+02 -0.22571924880E+02  0.53390829681E+03  0.54121601281E+03  0.73486722340E+02 0.  0.
        -11    1    3    3    0    0  0.61673909353E+02  0.37203800713E+02 -0.16396796542E+03  0.17909016602E+03  0.00000000000E+00 0.  1.
         12    1    3    3    0    0 -0.13218824206E+02 -0.17133045492E+02 -0.31590603783E+02  0.38291576210E+02  0.00000000000E+00 0. -1.
         13    1    5    5    0    0  0.52390747833E+01 -0.34508046262E+02  0.15261140082E+03  0.15655188540E+03  0.00000000000E+00 0. -1.
        -14    1    5    5    0    0 -0.49362911526E+02  0.11936121382E+02  0.38129689598E+03  0.38466412741E+03  0.00000000000E+00 0.  1.
          5    1    4    4  501    0 -0.11292889629E+02 -0.57250830461E+02  0.63320037674E+02  0.86209550026E+02  0.41800000000E+01 0.  1.
         -5    1    4    4    0  501  0.69616412246E+01  0.59752000120E+02  0.17450571642E+02  0.62775479429E+02  0.41800000000E+01 0.  1.
</event>
<event>
11    1  0.8974665E-009  0.1352808E+03  0.7561462E-02  0.1112946E+00
         22   -1    0    0    0    0  0.00000000000E+00  0.00000000000E+00  0.17233265336E+04  0.17233265336E+04  0.00000000000E+00 0. -1.
         22   -1    0    0    0    0 -0.00000000000E+00 -0.00000000000E+00 -0.59307104289E+03  0.59307104289E+03  0.00000000000E+00 0. -1.
        -24    2    1    2    0    0 -0.26430009304E+02 -0.12306901236E+02 -0.50345594478E+03  0.51075824728E+03  0.80969707988E+02 0.  0.
         25    2    1    2    0    0  0.32150727510E+02 -0.39030741305E+02 -0.30845349021E+02  0.13840475370E+03  0.12508945696E+03 0.  0.
         24    2    1    2    0    0 -0.57207182055E+01  0.51337642541E+02  0.16645567845E+04  0.16672345755E+04  0.79079458714E+02 0.  0.
        -11    1    5    5    0    0 -0.77009962146E+01 -0.15716796896E+02  0.75682218012E+03  0.75702452759E+03  0.00000000000E+00 0.  1.
         12    1    5    5    0    0  0.19802780090E+01  0.67054439437E+02  0.90773460438E+03  0.91021004792E+03  0.00000000000E+00 0. -1.
         11    1    3    3    0    0 -0.48609596007E+02 -0.15260776065E+02 -0.19683306227E+03  0.20332003963E+03  0.00000000000E+00 0. -1.
        -12    1    3    3    0    0  0.22179586703E+02  0.29538748292E+01 -0.30662288251E+03  0.30743820765E+03  0.00000000000E+00 0.  1.
          5    1    4    4  501    0  0.32657061744E+02 -0.78708650902E+02  0.40280269163E+01  0.85412135025E+02  0.41800000000E+01 0.  1.
         -5    1    4    4    0  501 -0.50633423420E+00  0.39677909597E+02 -0.34873375937E+02  0.52992618671E+02  0.41800000000E+01 0.  1.
</event>
<event>
11    1  0.8974665E-009  0.2584051E+03  0.7561462E-02  0.1019515E+00
         22   -1    0    0    0    0  0.00000000000E+00  0.00000000000E+00  0.81136648200E+03  0.81136648200E+03  0.00000000000E+00 0. -1.
         22   -1    0    0    0    0 -0.00000000000E+00 -0.00000000000E+00 -0.13873323414E+04  0.13873323414E+04  0.00000000000E+00 0.  1.
        -24    2    1    2    0    0 -0.16205826366E+02 -0.22351391115E+03 -0.11586063328E+04  0.11820827867E+04  0.68774870377E+02 0.  0.
         25    2    1    2    0    0 -0.30949697543E+02  0.24356868324E+03 -0.12500205363E+03  0.30258398359E+03  0.12509183218E+03 0.  0.
         24    2    1    2    0    0  0.47155523909E+02 -0.20054772094E+02  0.70764252703E+03  0.71403205317E+03  0.80361617532E+02 0.  0.
        -13    1    5    5    0    0 -0.18238009061E+02 -0.20412695735E+02  0.14134332008E+03  0.14396957058E+03  0.00000000000E+00 0.  1.
         14    1    5    5    0    0  0.65393532970E+02  0.35792364112E+00  0.56629920695E+03  0.57006248259E+03  0.00000000000E+00 0. -1.
         11    1    3    3    0    0  0.16597417168E+02 -0.82168394841E+02 -0.55412814201E+03  0.56043297292E+03  0.00000000000E+00 0. -1.
        -12    1    3    3    0    0 -0.32803243534E+02 -0.14134551631E+03 -0.60447819083E+03  0.62164981377E+03  0.00000000000E+00 0.  1.
          5    1    4    4  501    0 -0.49566606142E+02  0.24585226462E+02 -0.30509145840E+02  0.63321103785E+02  0.41800000000E+01 0.  1.
         -5    1    4    4    0  501  0.18616908599E+02  0.21898345678E+03 -0.94492907787E+02  0.23926287980E+03  0.41800000000E+01 0.  1.
</event>
<event>
11    1  0.8974665E-009  0.1296277E+03  0.7561462E-02  0.1119727E+00
         22   -1    0    0    0    0  0.00000000000E+00  0.00000000000E+00  0.89017540646E+03  0.89017540646E+03  0.00000000000E+00 0.  1.
         22   -1    0    0    0    0 -0.00000000000E+00 -0.00000000000E+00 -0.15538291327E+04  0.15538291327E+04  0.00000000000E+00 0. -1.
         24    2    1    2    0    0  0.54434210746E+01  0.45168151672E+01 -0.15328803193E+04  0.15349744495E+04  0.79840183833E+02 0.  0.
         25    2    1    2    0    0 -0.25792587776E+02  0.22759102536E+02  0.23195347251E+03  0.26576968997E+03  0.12509148799E+03 0.  0.
        -24    2    1    2    0    0  0.20349166702E+02 -0.27275917703E+02  0.63727312052E+03  0.64326039970E+03  0.80677428109E+02 0.  0.
        -13    1    3    3    0    0  0.13939217928E+02 -0.34687389188E+02 -0.54539512915E+03  0.54667482443E+03  0.00000000000E+00 0.  1.
         14    1    3    3    0    0 -0.84957968533E+01  0.39204204355E+02 -0.98748519011E+03  0.98829962506E+03  0.00000000000E+00 0. -1.
         11    1    5    5    0    0 -0.14708370509E+02 -0.33221870073E+02  0.13734382298E+03  0.14206813339E+03  0.00000000000E+00 0. -1.
        -12    1    5    5    0    0  0.35057537210E+02  0.59459523699E+01  0.49992929754E+03  0.50119226631E+03  0.00000000000E+00 0.  1.
          5    1    4    4  501    0 -0.49844210160E+02  0.61069189238E+02  0.10814704814E+03  0.13389229844E+03  0.41800000000E+01 0.  1.
         -5    1    4    4    0  501  0.24051622384E+02 -0.38310086702E+02  0.12380642436E+03  0.13187739153E+03  0.41800000000E+01 0.  1.
</event>
<event>
11    1  0.8974665E-009  0.1371282E+03  0.7561462E-02  0.1110808E+00
         22   -1    0    0    0    0  0.00000000000E+00  0.00000000000E+00  0.20704357393E+04  0.20704357393E+04  0.00000000000E+00 0.  1.
         22   -1    0    0    0    0 -0.00000000000E+00 -0.00000000000E+00 -0.46847606155E+02  0.46847606155E+02  0.00000000000E+00 0. -1.
         24    2    1    2    0    0 -0.58420856472E+01  0.54818694824E+02  0.22937590071E+02  0.10200938503E+03  0.82707692075E+02 0.  0.
         25    2    1    2    0    0 -0.89499210636E+01 -0.73196290627E+02  0.92701035229E+03  0.93831395871E+03  0.12508834400E+03 0.  0.
        -24    2    1    2    0    0  0.14792006711E+02  0.18377595803E+02  0.10736401907E+04  0.10769600017E+04  0.81135975686E+02 0.  0.
        -13    1    3    3    0    0 -0.26015891993E+02 -0.12605590700E+02  0.45045323842E+01  0.29257791528E+02  0.00000000000E+00 0.  1.
         14    1    3    3    0    0  0.20173806346E+02  0.67424285524E+02  0.18433057687E+02  0.72751593499E+02  0.00000000000E+00 0. -1.
         11    1    5    5    0    0  0.67854410028E+01 -0.30895620205E+02  0.56226192670E+03  0.56315100619E+03  0.00000000000E+00 0. -1.
        -12    1    5    5    0    0  0.80065657080E+01  0.49273216008E+02  0.51137826403E+03  0.51380899548E+03  0.00000000000E+00 0.  1.
          5    1    4    4  501    0  0.16315248963E+02 -0.10074317679E+03  0.54765100547E+03  0.55709466988E+03  0.41800000000E+01 0. -1.
         -5    1    4    4    0  501 -0.25265170027E+02  0.27546886159E+02  0.37935934682E+03  0.38121928883E+03  0.41800000000E+01 0. -1.
</event>
<event>
11    1  0.8974665E-009  0.1363207E+03  0.7561462E-02  0.1111738E+00
         22   -1    0    0    0    0  0.00000000000E+00  0.00000000000E+00  0.18674655529E+03  0.18674655529E+03  0.00000000000E+00 0.  1.
         22   -1    0    0    0    0 -0.00000000000E+00 -0.00000000000E+00 -0.79093488871E+03  0.79093488871E+03  0.00000000000E+00 0. -1.
         24    2    1    2    0    0  0.47367595119E+02 -0.11236399190E+02 -0.49252045396E+03  0.50144521864E+03  0.80628555697E+02 0.  0.
         25    2    1    2    0    0 -0.77639525166E+02  0.11957963281E+02 -0.26342149840E+03  0.30199482595E+03  0.12505638858E+03 0.  0.
        -24    2    1    2    0    0  0.30271930047E+02 -0.72156409110E+00  0.15175361895E+03  0.17424139940E+03  0.80087414729E+02 0.  0.
        -13    1    3    3    0    0  0.38931036358E+01 -0.40104241879E+02 -0.16859384822E+03  0.17334183607E+03  0.00000000000E+00 0.  1.
         14    1    3    3    0    0  0.43474491483E+02  0.28867842689E+02 -0.32392660574E+03  0.32810338258E+03  0.00000000000E+00 0. -1.
         11    1    5    5    0    0  0.24281932645E+02 -0.26950976963E+02  0.23561482377E+02  0.43256339004E+02  0.00000000000E+00 0. -1.
        -12    1    5    5    0    0  0.59899974021E+01  0.26229412872E+02  0.12819213657E+03  0.13098506040E+03  0.00000000000E+00 0.  1.
          5    1    4    4  501    0 -0.10259313539E+03  0.39685276846E+02 -0.20029266964E+03  0.22854955379E+03  0.41800000000E+01 0.  1.
         -5    1    4    4    0  501  0.24953610227E+02 -0.27727313565E+02 -0.63128828766E+02  0.73445272157E+02  0.41800000000E+01 0.  1.
</event>
<event>
11    1  0.8974665E-009  0.1332948E+03  0.7561462E-02  0.1115286E+00
         22   -1    0    0    0    0  0.00000000000E+00  0.00000000000E+00  0.11254030539E+03  0.11254030539E+03  0.00000000000E+00 0. -1.
         22   -1    0    0    0    0 -0.00000000000E+00 -0.00000000000E+00 -0.16603296571E+04  0.16603296571E+04  0.00000000000E+00 0. -1.
         24    2    1    2    0    0  0.39246777095E+02  0.78384129205E+01 -0.14229848726E+04  0.14258297956E+04  0.80640611164E+02 0.  0.
         25    2    1    2    0    0 -0.25815498343E+01 -0.39439893165E+02 -0.19203538534E+03  0.23256559555E+03  0.12508795880E+03 0.  0.
        -24    2    1    2    0    0 -0.36665227260E+02  0.31601480245E+02  0.67230906252E+02  0.11447457131E+03  0.79002786519E+02 0.  0.
        -13    1    3    3    0    0  0.20074475656E+02  0.72540359266E+01 -0.82778636244E+02  0.85486304333E+02  0.00000000000E+00 0.  1.
         14    1    3    3    0    0  0.19172301439E+02  0.58437699396E+00 -0.13402062364E+04  0.13403434913E+04  0.00000000000E+00 0. -1.
         13    1    5    5    0    0 -0.18736830122E+02  0.57715433287E+02  0.48444173900E+02  0.77646493980E+02  0.00000000000E+00 0. -1.
        -14    1    5    5    0    0 -0.17928397139E+02 -0.26113953042E+02  0.18786732352E+02  0.36828077331E+02  0.00000000000E+00 0.  1.
          5    1    4    4  501    0 -0.30344512613E+02 -0.50666992105E+02 -0.19343766565E+03  0.20229566587E+03  0.41800000000E+01 0.  1.
         -5    1    4    4    0  501  0.27762962779E+02  0.11227098940E+02  0.14022803099E+01  0.30269929682E+02  0.41800000000E+01 0.  1.
</event>
<event>
11    1  0.8974665E-009  0.1444109E+03  0.7561462E-02  0.1102730E+00
         22   -1    0    0    0    0  0.00000000000E+00  0.00000000000E+00  0.38610088306E+03  0.38610088306E+03  0.00000000000E+00 0. -1.
         22   -1    0    0    0    0 -0.00000000000E+00 -0.00000000000E+00 -0.15410859396E+04  0.15410859396E+04  0.00000000000E+00 0.  1.
         24    2    1    2    0    0  0.66650475344E+02 -0.22391258883E+02 -0.13943629524E+04  0.13984346186E+04  0.80172845631E+02 0.  0.
         25    2    1    2    0    0 -0.11326686594E+03  0.49826288227E+02 -0.80000927777E+02  0.19329078130E+03  0.12509650584E+03 0.  0.
        -24    2    1    2    0    0  0.46616390595E+02 -0.27435029344E+02  0.31937882368E+03  0.33546142270E+03  0.87211033695E+02 0.  0.
        -11    1    3    3    0    0  0.26492730380E+02  0.39562567423E+01 -0.10879960730E+04  0.10883257654E+04  0.00000000000E+00 0.  1.
         12    1    3    3    0    0  0.40157744964E+02 -0.26347515625E+02 -0.30636687941E+03  0.31010885324E+03  0.00000000000E+00 0. -1.
         11    1    5    5    0    0  0.34485624124E+02 -0.45382025636E+01  0.30259780434E+03  0.30459035564E+03  0.00000000000E+00 0. -1.
        -12    1    5    5    0    0  0.12130766471E+02 -0.22896826781E+02  0.16781019341E+02  0.30871067068E+02  0.00000000000E+00 0.  1.
          5    1    4    4  501    0 -0.38856534913E+02  0.75114589492E+02 -0.53901521624E+01  0.84844316252E+02  0.41800000000E+01 0. -1.
         -5    1    4    4    0  501 -0.74410331026E+02 -0.25288301265E+02 -0.74610775614E+02  0.10844646505E+03  0.41800000000E+01 0. -1.
</event>
<event>
11    1  0.8974665E-009  0.1433101E+03  0.7561462E-02  0.1103917E+00
         22   -1    0    0    0    0  0.00000000000E+00  0.00000000000E+00  0.35933719870E+03  0.35933719870E+03  0.00000000000E+00 0.  1.
         22   -1    0    0    0    0 -0.00000000000E+00 -0.00000000000E+00 -0.80158685130E+03  0.80158685130E+03  0.00000000000E+00 0.  1.
         24    2    1    2    0    0 -0.25609203927E+02 -0.15925836504E+02 -0.72747120453E+03  0.73213912416E+03  0.76836710695E+02 0.  0.
         25    2    1    2    0    0  0.85550839861E+02 -0.15236321939E+02  0.33629247131E+02  0.15597709643E+03  0.12508731606E+03 0.  0.
        -24    2    1    2    0    0 -0.59941635934E+02  0.31162158443E+02  0.25159230479E+03  0.27280782942E+03  0.81002124214E+02 0.  0.
        -13    1    3    3    0    0 -0.43789657231E+02 -0.12076387940E+02 -0.67403222466E+03  0.67556110982E+03  0.00000000000E+00 0.  1.
         14    1    3    3    0    0  0.18180453304E+02 -0.38494485649E+01 -0.53438979867E+02  0.56578014333E+02  0.00000000000E+00 0. -1.
         11    1    5    5    0    0  0.16174213488E+02 -0.48847455719E+01  0.18940060911E+02  0.25380934352E+02  0.00000000000E+00 0. -1.
        -12    1    5    5    0    0 -0.76115849421E+02  0.36046904015E+02  0.23265224388E+03  0.24742689507E+03  0.00000000000E+00 0.  1.
          5    1    4    4  501    0  0.65717000268E+02 -0.56307483383E+02  0.57837357163E+02  0.10417240082E+03  0.41800000000E+01 0.  1.
         -5    1    4    4    0  501  0.19833839593E+02  0.41071161444E+02 -0.24208110032E+02  0.51804695605E+02  0.41800000000E+01 0.  1.
</event>
<event>
11    1  0.8974665E-009  0.1996551E+03  0.7561462E-02  0.1054768E+00
         22   -1    0    0    0    0  0.00000000000E+00  0.00000000000E+00  0.15522445252E+03  0.15522445252E+03  0.00000000000E+00 0. -1.
         22   -1    0    0    0    0 -0.00000000000E+00 -0.00000000000E+00 -0.12715407373E+04  0.12715407373E+04  0.00000000000E+00 0.  1.
        -24    2    1    2    0    0 -0.59908051163E+01  0.20236445568E+02 -0.44933813528E+03  0.45738431087E+03  0.82766204046E+02 0.  0.
         25    2    1    2    0    0 -0.16988535755E+02  0.13510323535E+03 -0.75162185093E+03  0.77403006039E+03  0.12508250496E+03 0.  0.
         24    2    1    2    0    0  0.22979340872E+02 -0.15533968092E+03  0.84643701455E+02  0.19535081854E+03  0.79617331880E+02 0.  0.
        -11    1    5    5    0    0  0.33308029114E+02 -0.44383428721E+02  0.59013073288E+02  0.81005286046E+02  0.00000000000E+00 0.  1.
         12    1    5    5    0    0 -0.10328688242E+02 -0.11095625220E+03  0.25630628167E+02  0.11434553250E+03  0.00000000000E+00 0. -1.
         13    1    3    3    0    0  0.84316499539E+00  0.42994317544E+02 -0.12525541590E+03  0.13243164834E+03  0.00000000000E+00 0. -1.
        -14    1    3    3    0    0 -0.68339701117E+01 -0.22757871975E+02 -0.32408271938E+03  0.32495266253E+03  0.00000000000E+00 0.  1.
          5    1    4    4  501    0 -0.58177961188E+02  0.74111288207E+02 -0.25334782401E+03  0.27033266643E+03  0.41800000000E+01 0.  1.
         -5    1    4    4    0  501  0.41189425433E+02  0.60991947141E+02 -0.49827402692E+03  0.50369739397E+03  0.41800000000E+01 0.  1.
</event>
<event>
11    1  0.8974665E-009  0.2322323E+03  0.7561462E-02  0.1033814E+00
         22   -1    0    0    0    0  0.00000000000E+00  0.00000000000E+00  0.14139445326E+03  0.14139445326E+03  0.00000000000E+00 0. -1.
         22   -1    0    0    0    0 -0.00000000000E+00 -0.00000000000E+00 -0.33840084977E+04  0.33840084977E+04  0.00000000000E+00 0.  1.
         24    2    1    2    0    0  0.51703524953E+02 -0.70517499279E+02 -0.10440910181E+04  0.10509958010E+04  0.82584183286E+02 0.  0.
         25    2    1    2    0    0 -0.23078012562E+03  0.14242780684E+03 -0.22420904912E+04  0.22618932472E+04  0.12508454815E+03 0.  0.
        -24    2    1    2    0    0  0.17907660067E+03 -0.71910307558E+02  0.43567464936E+02  0.21251390281E+03  0.77617740538E+02 0.  0.
        -13    1    3    3    0    0  0.11889033786E+02 -0.13902485326E+02 -0.68786392074E+03  0.68810711497E+03  0.00000000000E+00 0.  1.
         14    1    3    3    0    0  0.39814491167E+02 -0.56615013953E+02 -0.35622709738E+03  0.36288868599E+03  0.00000000000E+00 0. -1.
         11    1    5    5    0    0  0.18337046188E+03 -0.78742002042E+02  0.44272917991E+02  0.20441409061E+03  0.00000000000E+00 0. -1.
        -12    1    5    5    0    0 -0.42938612074E+01  0.68316944838E+01 -0.70545305474E+00  0.80998121954E+01  0.00000000000E+00 0.  1.
          5    1    4    4  501    0 -0.22953017140E+03  0.91759924388E+02 -0.19092177235E+04  0.19251581159E+04  0.41800000000E+01 0.  1.
         -5    1    4    4    0  501 -0.12499542261E+01  0.50667882449E+02 -0.33287276777E+03  0.33673513126E+03  0.41800000000E+01 0.  1.
</event>
<event>
11    1  0.8974665E-009  0.1481183E+03  0.7561462E-02  0.1098817E+00
         22   -1    0    0    0    0  0.00000000000E+00  0.00000000000E+00  0.24768171258E+03  0.24768171258E+03  0.00000000000E+00 0. -1.
         22   -1    0    0    0    0 -0.00000000000E+00 -0.00000000000E+00 -0.34103842800E+03  0.34103842800E+03  0.00000000000E+00 0.  1.
        -24    2    1    2    0    0  0.66498130124E+02  0.31991608408E+02 -0.22538016495E+03  0.25031372758E+03  0.80095437708E+02 0.  0.
         25    2    1    2    0    0 -0.93239477480E+02 -0.73039176366E+02 -0.59648308144E+01  0.17236885945E+03  0.12508846092E+03 0.  0.
         24    2    1    2    0    0  0.26741347356E+02  0.41047567958E+02  0.13798828034E+03  0.16603755356E+03  0.78279634559E+02 0.  0.
        -13    1    5    5    0    0 -0.86763921700E+01 -0.19293214988E+02  0.21572489218E+02  0.30213907670E+02  0.00000000000E+00 0.  1.
         14    1    5    5    0    0  0.35417739526E+02  0.60340782946E+02  0.11641579112E+03  0.13582364589E+03  0.00000000000E+00 0. -1.
         13    1    3    3    0    0  0.12882713309E+01  0.10779234504E+02 -0.14174652720E+03  0.14216163165E+03  0.00000000000E+00 0. -1.
        -14    1    3    3    0    0  0.65209858793E+02  0.21212373904E+02 -0.83633637752E+02  0.10815209593E+03  0.00000000000E+00 0.  1.
          5    1    4    4  501    0 -0.10452055445E+03 -0.81175884661E+01 -0.14024949057E+02  0.10585184524E+03  0.41800000000E+01 0. -1.
         -5    1    4    4    0  501  0.11281076969E+02 -0.64921587900E+02  0.80601182423E+01  0.66517014208E+02  0.41800000000E+01 0. -1.
</event>
<event>
11    1  0.8974665E-009  0.3011686E+03  0.7561462E-02  0.9996978E-01
         22   -1    0    0    0    0  0.00000000000E+00  0.00000000000E+00  0.10184925933E+04  0.10184925933E+04  0.00000000000E+00 0. -1.
         22   -1    0    0    0    0 -0.00000000000E+00 -0.00000000000E+00 -0.32532460498E+04  0.32532460498E+04  0.00000000000E+00 0.  1.
        -24    2    1    2    0    0  0.70160595115E+02 -0.41598858066E+02 -0.29198830022E+04  0.29221299458E+04  0.80459302339E+02 0.  0.
         25    2    1    2    0    0  0.12466532979E+03 -0.15825708384E+03 -0.26525385568E+03  0.35580073856E+03  0.12509120100E+03 0.  0.
         24    2    1    2    0    0 -0.19482592490E+03  0.19985594190E+03  0.95038340144E+03  0.99380795876E+03  0.80784346431E+02 0.  0.
        -11    1    5    5    0    0  0.51037538774E+01  0.90476121317E+01  0.78155552984E+02  0.78842869374E+02  0.00000000000E+00 0.  1.
         12    1    5    5    0    0 -0.19992967878E+03  0.19080832977E+03  0.87222784845E+03  0.91496508938E+03  0.00000000000E+00 0. -1.
         13    1    3    3    0    0 -0.12658948974E+02 -0.21138632873E+02 -0.36952094850E+03  0.37034149399E+03  0.00000000000E+00 0. -1.
        -14    1    3    3    0    0  0.82819544089E+02 -0.20460225193E+02 -0.25503620537E+04  0.25517884518E+04  0.00000000000E+00 0.  1.
          5    1    4    4  501    0  0.11608780127E+02 -0.87793771242E+02 -0.47722804161E+02  0.10068489699E+03  0.41800000000E+01 0. -1.
         -5    1    4    4    0  501  0.11305654966E+03 -0.70463312595E+02 -0.21753105152E+03  0.25511584157E+03  0.41800000000E+01 0. -1.
</event>
<event>
11    1  0.8974665E-009  0.3002166E+03  0.7561462E-02  0.1000100E+00
         22   -1    0    0    0    0  0.00000000000E+00  0.00000000000E+00  0.31844507819E+03  0.31844507819E+03  0.00000000000E+00 0. -1.
         22   -1    0    0    0    0 -0.00000000000E+00 -0.00000000000E+00 -0.29023405579E+04  0.29023405579E+04  0.00000000000E+00 0.  1.
         24    2    1    2    0    0  0.28049250361E+03  0.74676165909E+01 -0.21503994813E+04  0.21700826083E+04  0.79427880067E+02 0.  0.
         25    2    1    2    0    0 -0.24646325781E+03 -0.78309142641E+02 -0.70275616032E+03  0.75920354979E+03  0.12508936757E+03 0.  0.
        -24    2    1    2    0    0 -0.34029245805E+02  0.70841526050E+02  0.26926016181E+03  0.29149947801E+03  0.79337252038E+02 0.  0.
        -11    1    3    3    0    0  0.26904289299E+03  0.22449649997E+02 -0.20682824654E+04  0.20858284738E+04  0.00000000000E+00 0.  1.
         12    1    3    3    0    0  0.11449610622E+02 -0.14982033406E+02 -0.82117015811E+02  0.84254134581E+02  0.00000000000E+00 0. -1.
         11    1    5    5    0    0 -0.21919733507E+02  0.82593899781E+02  0.25645210128E+03  0.27031445994E+03  0.00000000000E+00 0. -1.
        -12    1    5    5    0    0 -0.12109512298E+02 -0.11752373732E+02  0.12808060524E+02  0.21185018074E+02  0.00000000000E+00 0.  1.
          5    1    4    4  501    0 -0.96598224014E+02 -0.78512674295E+02 -0.43331703808E+03  0.45086204631E+03  0.41800000000E+01 0. -1.
         -5    1    4    4    0  501 -0.14986503379E+03  0.20353165396E+00 -0.26943912223E+03  0.30834150348E+03  0.41800000000E+01 0. -1.
</event>
<event>
11    1  0.8974665E-009  0.1788556E+03  0.7561462E-02  0.1070572E+00
         22   -1    0    0    0    0  0.00000000000E+00  0.00000000000E+00  0.51362804851E+03  0.51362804851E+03  0.00000000000E+00 0.  1.
         22   -1    0    0    0    0 -0.00000000000E+00 -0.00000000000E+00 -0.19548713086E+03  0.19548713086E+03  0.00000000000E+00 0. -1.
         24    2    1    2    0    0  0.12547839315E+03 -0.25969694477E+02 -0.12279784174E+03  0.19560075150E+03  0.82225858889E+02 0.  0.
         25    2    1    2    0    0 -0.12493400212E+03  0.15070333039E+02  0.25571232052E+03  0.31124415964E+03  0.12509402952E+03 0.  0.
        -24    2    1    2    0    0 -0.54439103691E+00  0.10899361437E+02  0.18522643888E+03  0.20227026823E+03  0.80531579573E+02 0.  0.
        -13    1    3    3    0    0  0.33498777537E+02  0.76681150815E+01 -0.83096624542E+02  0.89922283644E+02  0.00000000000E+00 0.  1.
         14    1    3    3    0    0  0.91979615616E+02 -0.33637809558E+02 -0.39701217202E+02  0.10567846785E+03  0.00000000000E+00 0. -1.
         13    1    5    5    0    0 -0.83977476572E+00 -0.14489403193E+02 -0.78404257031E+00  0.14534880436E+02  0.00000000000E+00 0. -1.
        -14    1    5    5    0    0  0.29538372881E+00  0.25388764630E+02  0.18601048145E+03  0.18773538779E+03  0.00000000000E+00 0.  1.
          5    1    4    4  501    0 -0.12678734213E+03 -0.20611082603E+02  0.23946206403E+03  0.27177085819E+03  0.41800000000E+01 0.  1.
         -5    1    4    4    0  501  0.18533400176E+01  0.35681415642E+02  0.16250256489E+02  0.39473301450E+02  0.41800000000E+01 0.  1.
</event>
<event>
11    1  0.8974665E-009  0.3096049E+03  0.7561462E-02  0.9962062E-01
         22   -1    0    0    0    0  0.00000000000E+00  0.00000000000E+00  0.24110170788E+03  0.24110170788E+03  0.00000000000E+00 0.  1.
         22   -1    0    0    0    0 -0.00000000000E+00 -0.00000000000E+00 -0.16147587690E+04  0.16147587690E+04  0.00000000000E+00 0. -1.
        -24    2    1    2    0    0  0.26335707426E+03  0.10841019579E+03 -0.11327164002E+04  0.11706743282E+04  0.79512390488E+02 0.  0.
         25    2    1    2    0    0 -0.25759332426E+03 -0.10693152956E+03 -0.40222842178E+03  0.50519633846E+03  0.12508782669E+03 0.  0.
         24    2    1    2    0    0 -0.57637500004E+01 -0.14786662366E+01  0.16128776091E+03  0.17998981021E+03  0.79669207923E+02 0.  0.
        -11    1    5    5    0    0 -0.16249397921E+02 -0.46575694022E+01  0.16684849399E+03  0.16770258147E+03  0.00000000000E+00 0.  1.
         12    1    5    5    0    0  0.10485647921E+02  0.31789031656E+01 -0.55607330785E+01  0.12287228736E+02  0.00000000000E+00 0. -1.
         13    1    3    3    0    0  0.23436029437E+03  0.10738370428E+03 -0.90117097523E+03  0.93731805387E+03  0.00000000000E+00 0. -1.
        -14    1    3    3    0    0  0.28996779890E+02  0.10264915185E+01 -0.23154542500E+03  0.23335627433E+03  0.00000000000E+00 0.  1.
          5    1    4    4  501    0 -0.61626093497E+02  0.95372940894E+01 -0.16369626060E+03  0.17522178379E+03  0.41800000000E+01 0. -1.
         -5    1    4    4    0  501 -0.19596723076E+03 -0.11646882365E+03 -0.23853216118E+03  0.32997455467E+03  0.41800000000E+01 0. -1.
</event>
<event>
11    1  0.8974665E-009  0.1647521E+03  0.7561462E-02  0.1082691E+00
         22   -1    0    0    0    0  0.00000000000E+00  0.00000000000E+00  0.11287586968E+04  0.11287586968E+04  0.00000000000E+00 0. -1.
         22   -1    0    0    0    0 -0.00000000000E+00 -0.00000000000E+00 -0.72550633170E+03  0.72550633170E+03  0.00000000000E+00 0. -1.
         24    2    1    2    0    0  0.65357113815E+02 -0.16584725899E+02 -0.53500471847E+03  0.54528598728E+03  0.80994775632E+02 0.  0.
         25    2    1    2    0    0 -0.16580333867E+03 -0.17080052731E+02 -0.12125131359E+03  0.24110461988E+03  0.12508829428E+03 0.  0.
        -24    2    1    2    0    0  0.10044622486E+03  0.33664778630E+02  0.10595083972E+04  0.10678744214E+04  0.81086217479E+02 0.  0.
        -13    1    3    3    0    0  0.47428952534E+02 -0.84765731132E+01 -0.11325375350E+03  0.12307627924E+03  0.00000000000E+00 0.  1.
         14    1    3    3    0    0  0.17928161281E+02 -0.81081527858E+01 -0.42175096498E+03  0.42220970804E+03  0.00000000000E+00 0. -1.
         13    1    5    5    0    0  0.92457326662E+02  0.19436850140E+02  0.10285404124E+04  0.10328705284E+04  0.00000000000E+00 0. -1.
        -14    1    5    5    0    0  0.79888981937E+01  0.14227928490E+02  0.30967984772E+02  0.35003892988E+02  0.00000000000E+00 0.  1.
          5    1    4    4  501    0 -0.46688096552E+02 -0.31505082400E+02  0.16051106367E+02  0.58715066144E+02  0.41800000000E+01 0.  1.
         -5    1    4    4    0  501 -0.11911524212E+03  0.14425029669E+02 -0.13730241996E+03  0.18238955374E+03  0.41800000000E+01 0.  1.
</event>
<event>
11    1  0.8974665E-009  0.1585175E+03  0.7561462E-02  0.1088480E+00
         22   -1    0    0    0    0  0.00000000000E+00  0.00000000000E+00  0.40098016214E+03  0.40098016214E+03  0.00000000000E+00 0. -1.
         22   -1    0    0    0    0 -0.00000000000E+00 -0.00000000000E+00 -0.82022530701E+03  0.82022530701E+03  0.00000000000E+00 0. -1.
         24    2    1    2    0    0  0.11081295523E+02  0.41199945034E+02 -0.70675159417E+03  0.71275857744E+03  0.81894708431E+02 0.  0.
         25    2    1    2    0    0  0.66825731131E+02 -0.96681616385E+02 -0.23593772770E+02  0.17325678367E+03  0.12509290023E+03 0.  0.
        -24    2    1    2    0    0 -0.77907026654E+02  0.55481671351E+02  0.31110022206E+03  0.33519010804E+03  0.80133262142E+02 0.  0.
        -11    1    3    3    0    0  0.32959161400E+02  0.17165392550E+02 -0.13319342510E+03  0.13828031499E+03  0.00000000000E+00 0.  1.
         12    1    3    3    0    0 -0.21877865877E+02  0.24034552484E+02 -0.57355816906E+03  0.57447826245E+03  0.00000000000E+00 0. -1.
         11    1    5    5    0    0 -0.16988508081E+02  0.59044247239E+02  0.18818560158E+03  0.19796124161E+03  0.00000000000E+00 0. -1.
        -12    1    5    5    0    0 -0.60918518573E+02 -0.35625758886E+01  0.12291462048E+03  0.13722886643E+03  0.00000000000E+00 0.  1.
          5    1    4    4  501    0 -0.45277752457E+01  0.19914881840E+01 -0.48471444355E+02  0.48902148130E+02  0.41800000000E+01 0. -1.
         -5    1    4    4    0  501  0.71353506377E+02 -0.98673104569E+02  0.24877671584E+02  0.12435463554E+03  0.41800000000E+01 0. -1.
</event>
<event>
11    1  0.8974665E-009  0.1761579E+03  0.7561462E-02  0.1072794E+00
         22   -1    0    0    0    0  0.00000000000E+00  0.00000000000E+00  0.40347666976E+03  0.40347666976E+03  0.00000000000E+00 0.  1.
         22   -1    0    0    0    0 -0.00000000000E+00 -0.00000000000E+00 -0.11827152668E+04  0.11827152668E+04  0.00000000000E+00 0. -1.
        -24    2    1    2    0    0  0.49991630245E+01  0.11819004440E+03 -0.76273852736E+03  0.77591694630E+03  0.79266438102E+02 0.  0.
         25    2    1    2    0    0 -0.10154632794E+03 -0.13684891215E+03 -0.37468520150E+03  0.43020808184E+03  0.12510280566E+03 0.  0.
         24    2    1    2    0    0  0.96547164913E+02  0.18658867754E+02  0.35818513185E+03  0.38006690839E+03  0.80527993760E+02 0.  0.
        -13    1    5    5    0    0  0.90984187669E+02  0.36560246220E+02  0.34034611615E+03  0.35418957183E+03  0.00000000000E+00 0.  1.
         14    1    5    5    0    0  0.55629772443E+01 -0.17901378466E+02  0.17839015696E+02  0.25877336567E+02  0.00000000000E+00 0. -1.
         11    1    3    3    0    0 -0.10297433620E+02  0.10010988656E+03 -0.40213600977E+03  0.41453756992E+03  0.00000000000E+00 0. -1.
        -12    1    3    3    0    0  0.15296596644E+02  0.18080157842E+02 -0.36060251759E+03  0.36137937637E+03  0.00000000000E+00 0.  1.
          5    1    4    4  501    0 -0.12961525497E+03 -0.10963151036E+03 -0.27703541757E+03  0.32493888252E+03  0.41800000000E+01 0. -1.
         -5    1    4    4    0  501  0.28068927029E+02 -0.27217401795E+02 -0.97649783929E+02  0.10526919932E+03  0.41800000000E+01 0. -1.
</event>
<event>
11    1  0.8974665E-009  0.2901660E+03  0.7561462E-02  0.1004441E+00
         22   -1    0    0    0    0  0.00000000000E+00  0.00000000000E+00  0.63791316931E+03  0.63791316931E+03  0.00000000000E+00 0. -1.
         22   -1    0    0    0    0 -0.00000000000E+00 -0.00000000000E+00 -0.14195268952E+04  0.14195268952E+04  0.00000000000E+00 0. -1.
        -24    2    1    2    0    0 -0.48962308469E+02 -0.17555425496E+02 -0.11645222990E+04  0.11689678207E+04  0.87567575076E+02 0.  0.
         25    2    1    2    0    0 -0.20844651136E+03  0.90844158068E+02 -0.14049941014E+03  0.29510763310E+03  0.12508325914E+03 0.  0.
         24    2    1    2    0    0  0.25740881983E+03 -0.73288732572E+02  0.52340798327E+03  0.59336461075E+03  0.80592217302E+02 0.  0.
        -13    1    5    5    0    0  0.15754434640E+02 -0.20423655268E+02  0.20634683972E+02  0.33032076652E+02  0.00000000000E+00 0.  1.
         14    1    5    5    0    0  0.24165438519E+03 -0.52865077304E+02  0.50277329930E+03  0.56033253409E+03  0.00000000000E+00 0. -1.
         13    1    3    3    0    0 -0.35928255792E+02 -0.45162925049E+02 -0.99819235659E+03  0.99985924516E+03  0.00000000000E+00 0. -1.
        -14    1    3    3    0    0 -0.13034052677E+02  0.27607499552E+02 -0.16632994245E+03  0.16910857552E+03  0.00000000000E+00 0.  1.
          5    1    4    4  501    0 -0.82719359335E+02  0.40556480128E+02 -0.12977888697E+03  0.15920851859E+03  0.41800000000E+01 0.  1.
         -5    1    4    4    0  501 -0.12572715202E+03  0.50287677940E+02 -0.10720523165E+02  0.13589911451E+03  0.41800000000E+01 0.  1.
</event>
<event>
11    1  0.8974665E-009  0.1691382E+03  0.7561462E-02  0.1078784E+00
         22   -1    0    0    0    0  0.00000000000E+00  0.00000000000E+00  0.56142801903E+03  0.56142801903E+03  0.00000000000E+00 0.  1.
         22   -1    0    0    0    0 -0.00000000000E+00 -0.00000000000E+00 -0.41498350065E+03  0.41498350065E+03  0.00000000000E+00 0. -1.
        -24    2    1    2    0    0  0.19918885536E+02 -0.11430655652E+03 -0.37097761230E+03  0.39770214158E+03  0.84141866656E+02 0.  0.
         25    2    1    2    0    0 -0.29126358017E+02  0.73241679889E+02  0.19932911900E+03  0.24817841065E+03  0.12509091665E+03 0.  0.
         24    2    1    2    0    0  0.92074724814E+01  0.41064876629E+02  0.31809301167E+03  0.33053096745E+03  0.79350203075E+02 0.  0.
        -13    1    5    5    0    0 -0.30649965160E+01  0.15515983827E+01  0.25535425967E+03  0.25537736704E+03  0.00000000000E+00 0.  1.
         14    1    5    5    0    0  0.12272468997E+02  0.39513278246E+02  0.62738752000E+02  0.75153600417E+02  0.00000000000E+00 0. -1.
         13    1    3    3    0    0  0.60323122864E+01 -0.81762583006E+02 -0.34280779323E+03  0.35247509398E+03  0.00000000000E+00 0. -1.
        -14    1    3    3    0    0  0.13886573249E+02 -0.32543973512E+02 -0.28169819063E+02  0.45227047600E+02  0.00000000000E+00 0.  1.
          5    1    4    4  501    0 -0.84176548436E+01  0.17129528500E+02 -0.15625684768E+02  0.25018235033E+02  0.41800000000E+01 0. -1.
         -5    1    4    4    0  501 -0.20708703173E+02  0.56112151389E+02  0.21495480377E+03  0.22316017562E+03  0.41800000000E+01 0. -1.
</event>
<event>
11    1  0.8974665E-009  0.1615961E+03  0.7561462E-02  0.1085586E+00
         22   -1    0    0    0    0  0.00000000000E+00  0.00000000000E+00  0.58377992704E+03  0.58377992704E+03  0.00000000000E+00 0. -1.
         22   -1    0    0    0    0 -0.00000000000E+00 -0.00000000000E+00 -0.30891683428E+03  0.30891683428E+03  0.00000000000E+00 0.  1.
         24    2    1    2    0    0  0.28983721934E+00 -0.10410044580E+03 -0.26700519479E+03  0.29732673330E+03  0.79211271104E+02 0.  0.
         25    2    1    2    0    0 -0.44028176465E+02  0.64641054061E+02  0.29460074576E+03  0.32947668559E+03  0.12509332818E+03 0.  0.
        -24    2    1    2    0    0  0.43738339246E+02  0.39459391735E+02  0.24726754179E+03  0.26589334243E+03  0.78025293400E+02 0.  0.
        -13    1    3    3    0    0  0.34087943154E+02 -0.74873238315E+02 -0.20506610442E+03  0.22095270278E+03  0.00000000000E+00 0.  1.
         14    1    3    3    0    0 -0.33798105935E+02 -0.29227207481E+02 -0.61939090366E+02  0.76374030516E+02  0.00000000000E+00 0. -1.
         13    1    5    5    0    0 -0.77768862283E+01 -0.60762527964E+01  0.12681908693E+03  0.12720252205E+03  0.00000000000E+00 0. -1.
        -14    1    5    5    0    0  0.51515225474E+02  0.45535644531E+02  0.12044845487E+03  0.13869082038E+03  0.00000000000E+00 0.  1.
          5    1    4    4  501    0 -0.40901296447E+01  0.57048862250E+02  0.28041191446E+03  0.28621603033E+03  0.41800000000E+01 0.  1.
         -5    1    4    4    0  501 -0.39938046820E+02  0.75921918107E+01  0.14188831295E+02  0.43260655264E+02  0.41800000000E+01 0.  1.
</event>
<event>
11    1  0.8974665E-009  0.2543738E+03  0.7561462E-02  0.1021595E+00
         22   -1    0    0    0    0  0.00000000000E+00  0.00000000000E+00  0.89829272834E+03  0.89829272834E+03  0.00000000000E+00 0.  1.
         22   -1    0    0    0    0 -0.00000000000E+00 -0.00000000000E+00 -0.30820203145E+03  0.30820203145E+03  0.00000000000E+00 0. -1.
        -24    2    1    2    0    0  0.13670921015E+03 -0.55682239395E+02 -0.14591648298E+03  0.22300606952E+03  0.81548556807E+02 0.  0.
         25    2    1    2    0    0 -0.28207376571E+03 -0.97199810744E+02  0.15295336558E+03  0.35784853781E+03  0.12508969367E+03 0.  0.
         24    2    1    2    0    0  0.14536455556E+03  0.15288205014E+03  0.58305381428E+03  0.62564015246E+03  0.83486973517E+02 0.  0.
        -11    1    5    5    0    0  0.14036787656E+03  0.15993832750E+03  0.51788460665E+03  0.55989987960E+03  0.00000000000E+00 0.  1.
         12    1    5    5    0    0  0.49966790002E+01 -0.70562773638E+01  0.65169207632E+02  0.65740272852E+02  0.00000000000E+00 0. -1.
         13    1    3    3    0    0  0.86957599861E+02  0.60686366773E+01 -0.94143224288E+02  0.12830198441E+03  0.00000000000E+00 0. -1.
        -14    1    3    3    0    0  0.49751610287E+02 -0.61750876072E+02 -0.51773258688E+02  0.94704085113E+02  0.00000000000E+00 0.  1.
          5    1    4    4  501    0 -0.16100587466E+03 -0.40899489406E+02  0.15057231325E+03  0.22424351457E+03  0.41800000000E+01 0. -1.
         -5    1    4    4    0  501 -0.12106789105E+03 -0.56300321338E+02  0.23810523317E+01  0.13360502324E+03  0.41800000000E+01 0. -1.
</event>
<event>
11    1  0.8974665E-009  0.1351109E+03  0.7561462E-02  0.1113144E+00
         22   -1    0    0    0    0  0.00000000000E+00  0.00000000000E+00  0.13647874607E+03  0.13647874607E+03  0.00000000000E+00 0. -1.
         22   -1    0    0    0    0 -0.00000000000E+00 -0.00000000000E+00 -0.93989860696E+03  0.93989860696E+03  0.00000000000E+00 0.  1.
         24    2    1    2    0    0 -0.23881724984E+02  0.42834358062E+02 -0.63679363280E+03  0.64376640789E+03  0.80770899112E+02 0.  0.
         25    2    1    2    0    0 -0.58613521374E+01 -0.71118184874E+02 -0.26333975948E+03  0.30014569236E+03  0.12508979194E+03 0.  0.
        -24    2    1    2    0    0  0.29743077122E+02  0.28283826811E+02  0.96713531391E+02  0.13246525279E+03  0.80677819415E+02 0.  0.
        -13    1    3    3    0    0 -0.45884657548E+02  0.33151517485E+02 -0.56952697157E+03  0.57233329124E+03  0.00000000000E+00 0.  1.
         14    1    3    3    0    0  0.22002932563E+02  0.96828405771E+01 -0.67266661221E+02  0.71433116654E+02  0.00000000000E+00 0. -1.
         13    1    5    5    0    0 -0.12834696492E+02 -0.26338468990E+01  0.74003772673E+02  0.75154673530E+02  0.00000000000E+00 0. -1.
        -14    1    5    5    0    0  0.42577773614E+02  0.30917673710E+02  0.22709758719E+02  0.57310579256E+02  0.00000000000E+00 0.  1.
          5    1    4    4  501    0  0.51922906423E+02 -0.47604911055E+02 -0.19570118896E+03  0.20803519781E+03  0.41800000000E+01 0. -1.
         -5    1    4    4    0  501 -0.57784258560E+02 -0.23513273818E+02 -0.67638570529E+02  0.92110494550E+02  0.41800000000E+01 0. -1.
</event>
<event>
11    1  0.8974665E-009  0.1275589E+03  0.7561462E-02  0.1122305E+00
         22   -1    0    0    0    0  0.00000000000E+00  0.00000000000E+00  0.13506375698E+04  0.13506375698E+04  0.00000000000E+00 0. -1.
         22   -1    0    0    0    0 -0.00000000000E+00 -0.00000000000E+00 -0.32611455349E+03  0.32611455349E+03  0.00000000000E+00 0.  1.
        -24    2    1    2    0    0 -0.16855334549E+02  0.27687358980E+02 -0.18215303958E+03  0.20164806134E+03  0.80196749699E+02 0.  0.
         25    2    1    2    0    0 -0.42304295586E+01 -0.51555656156E+01 -0.10325722546E+03  0.16234035167E+03  0.12509140170E+03 0.  0.
         24    2    1    2    0    0  0.21085764108E+02 -0.22531793365E+02  0.13099332813E+04  0.13127637102E+04  0.80442938138E+02 0.  0.
        -13    1    5    5    0    0  0.33853841212E+02 -0.36510468186E+02  0.47244049620E+03  0.47505696427E+03  0.00000000000E+00 0.  1.
         14    1    5    5    0    0 -0.12768077104E+02  0.13978674822E+02  0.83749278511E+03  0.83770674598E+03  0.00000000000E+00 0. -1.
         11    1    3    3    0    0 -0.15788431939E+02  0.13870496073E+02 -0.21647052009E+01  0.21127025181E+02  0.00000000000E+00 0. -1.
        -12    1    3    3    0    0 -0.10669026102E+01  0.13816862908E+02 -0.17998833438E+03  0.18052103616E+03  0.00000000000E+00 0.  1.
          5    1    4    4  501    0 -0.39657022656E+02  0.54771032959E+01 -0.11616638520E+03  0.12294217973E+03  0.41800000000E+01 0.  1.
         -5    1    4    4    0  501  0.35426593097E+02 -0.10632668912E+02  0.12909159742E+02  0.39398171936E+02  0.41800000000E+01 0.  1.
</event>
<event>
11    1  0.8974665E-009  0.1646244E+03  0.7561462E-02  0.1082807E+00
         22   -1    0    0    0    0  0.00000000000E+00  0.00000000000E+00  0.21651024581E+03  0.21651024581E+03  0.00000000000E+00 0.  1.
         22   -1    0    0    0    0 -0.00000000000E+00 -0.00000000000E+00 -0.61145741297E+03  0.61145741297E+03  0.00000000000E+00 0. -1.
         24    2    1    2    0    0  0.48969109856E+02 -0.59034476442E+02 -0.39828976709E+03  0.41465622900E+03  0.86151068220E+02 0.  0.
         25    2    1    2    0    0 -0.80852507481E+02  0.15104111774E+03 -0.11423350578E+03  0.24092376294E+03  0.12507764985E+03 0.  0.
        -24    2    1    2    0    0  0.31883397625E+02 -0.92006641299E+02  0.11757610570E+03  0.17238766683E+03  0.80072429447E+02 0.  0.
        -13    1    3    3    0    0  0.38760537120E+02 -0.14245010148E+01 -0.60699891289E+02  0.72033917314E+02  0.00000000000E+00 0.  1.
         14    1    3    3    0    0  0.10208572736E+02 -0.57609975428E+02 -0.33758987580E+03  0.34262231169E+03  0.00000000000E+00 0. -1.
         13    1    5    5    0    0  0.37985411060E+02 -0.92268033134E+02  0.64171611414E+02  0.11863505849E+03  0.00000000000E+00 0. -1.
        -14    1    5    5    0    0 -0.61020134351E+01  0.26139183496E+00  0.53404494285E+02  0.53752608341E+02  0.00000000000E+00 0.  1.
          5    1    4    4  501    0  0.22513973045E+02  0.79919171536E+02 -0.24699323097E+02  0.86726477633E+02  0.41800000000E+01 0. -1.
         -5    1    4    4    0  501 -0.10336648053E+03  0.71121946206E+02 -0.89534182679E+02  0.15419728531E+03  0.41800000000E+01 0. -1.
</event>
<event>
11    1  0.8974665E-009  0.1637075E+03  0.7561462E-02  0.1083641E+00
         22   -1    0    0    0    0  0.00000000000E+00  0.00000000000E+00  0.52356696000E+03  0.52356696000E+03  0.00000000000E+00 0.  1.
         22   -1    0    0    0    0 -0.00000000000E+00 -0.00000000000E+00 -0.49159953939E+03  0.49159953939E+03  0.00000000000E+00 0. -1.
         24    2    1    2    0    0  0.24732357572E+02  0.26174206360E+02 -0.32097995488E+03  0.33256484780E+03  0.79211539334E+02 0.  0.
         25    2    1    2    0    0  0.46351786099E+02  0.54510825316E+02 -0.12259213208E+03  0.18921191826E+03  0.12510955604E+03 0.  0.
        -24    2    1    2    0    0 -0.71084143671E+02 -0.80685031676E+02  0.47553950757E+03  0.49338973333E+03  0.75713776003E+02 0.  0.
        -13    1    3    3    0    0 -0.98333343141E+01  0.42496552026E+02 -0.22619044421E+03  0.23035791380E+03  0.00000000000E+00 0.  1.
         14    1    3    3    0    0  0.34565691886E+02 -0.16322345666E+02 -0.94789510671E+02  0.10220693400E+03  0.00000000000E+00 0. -1.
         11    1    5    5    0    0 -0.44744755423E+02  0.14199935579E+01  0.18388849519E+03  0.18925931466E+03  0.00000000000E+00 0. -1.
        -12    1    5    5    0    0 -0.26339388248E+02 -0.82105025234E+02  0.29165101238E+03  0.30413041868E+03  0.00000000000E+00 0.  1.
          5    1    4    4  501    0  0.31885506061E+02  0.86526962473E+02 -0.12305329015E+03  0.15382842828E+03  0.41800000000E+01 0.  1.
         -5    1    4    4    0  501  0.14466280039E+02 -0.32016137156E+02  0.46115806381E+00  0.35383489982E+02  0.41800000000E+01 0.  1.
</event>
<event>
11    1  0.8974665E-009  0.1319174E+03  0.7561462E-02  0.1116935E+00
         22   -1    0    0    0    0  0.00000000000E+00  0.00000000000E+00  0.16958058320E+04  0.16958058320E+04  0.00000000000E+00 0. -1.
         22   -1    0    0    0    0 -0.00000000000E+00 -0.00000000000E+00 -0.16213060354E+03  0.16213060354E+03  0.00000000000E+00 0. -1.
        -24    2    1    2    0    0 -0.26174032281E+02  0.18841959186E+02 -0.11972539251E+03  0.14760387121E+03  0.80078922288E+02 0.  0.
         25    2    1    2    0    0  0.48672283739E+02  0.16566505830E+02  0.14139708643E+03  0.19566269110E+03  0.12508921743E+03 0.  0.
         24    2    1    2    0    0 -0.22498251458E+02 -0.35408465016E+02  0.15120035345E+04  0.15146698732E+04  0.79436803358E+02 0.  0.
        -13    1    5    5    0    0 -0.42583756048E+02 -0.34874890740E+02  0.61955984677E+03  0.62200003056E+03  0.00000000000E+00 0.  1.
         14    1    5    5    0    0  0.20085504591E+02 -0.53357427619E+00  0.89244368776E+03  0.89266984267E+03  0.00000000000E+00 0. -1.
         11    1    3    3    0    0 -0.44949319891E+02  0.10300749746E+02 -0.11825089012E+03  0.12692446501E+03  0.00000000000E+00 0. -1.
        -12    1    3    3    0    0  0.18775287610E+02  0.85412094407E+01 -0.14745023829E+01  0.20679406201E+02  0.00000000000E+00 0.  1.
          5    1    4    4  501    0  0.90859952239E+02  0.14066354858E+02  0.86972824185E+02  0.12662992461E+03  0.41800000000E+01 0.  1.
         -5    1    4    4    0  501 -0.42187668500E+02  0.25001509724E+01  0.54424262249E+02  0.69032766493E+02  0.41800000000E+01 0.  1.
</event>
<event>
11    1  0.8974665E-009  0.1371989E+03  0.7561462E-02  0.1110727E+00
         22   -1    0    0    0    0  0.00000000000E+00  0.00000000000E+00  0.27289437576E+03  0.27289437576E+03  0.00000000000E+00 0. -1.
         22   -1    0    0    0    0 -0.00000000000E+00 -0.00000000000E+00 -0.50153200941E+03  0.50153200941E+03  0.00000000000E+00 0.  1.
        -24    2    1    2    0    0  0.37989254578E+02  0.27154215048E+02 -0.26508567207E+03  0.28046122839E+03  0.78788020868E+02 0.  0.
         25    2    1    2    0    0 -0.52994093425E+02 -0.79829347322E+02 -0.19053639984E+03  0.24724958251E+03  0.12508851969E+03 0.  0.
         24    2    1    2    0    0  0.15004838847E+02  0.52675132274E+02  0.22698443825E+03  0.24671557427E+03  0.79666960719E+02 0.  0.
        -11    1    5    5    0    0  0.96557967175E+01 -0.10168953593E+02  0.34327316630E+01  0.14436955153E+02  0.00000000000E+00 0.  1.
         12    1    5    5    0    0  0.53490421297E+01  0.62844085867E+02  0.22355170659E+03  0.23227861912E+03  0.00000000000E+00 0. -1.
         13    1    3    3    0    0  0.10200073948E+02  0.11479401456E+01  0.21848205305E+01  0.10494413555E+02  0.00000000000E+00 0. -1.
        -14    1    3    3    0    0  0.27789180630E+02  0.26006274902E+02 -0.26727049260E+03  0.26996681483E+03  0.00000000000E+00 0.  1.
          5    1    4    4  501    0 -0.29751216146E+02 -0.18605282259E+00 -0.15329761260E+03  0.15621395554E+03  0.41800000000E+01 0.  1.
         -5    1    4    4    0  501 -0.23242877279E+02 -0.79643294499E+02 -0.37238787242E+02  0.91035626972E+02  0.41800000000E+01 0.  1.
</event>
<event>
11    1  0.8974665E-009  0.1430848E+03  0.7561462E-02  0.1104162E+00
         22   -1    0    0    0    0  0.00000000000E+00  0.00000000000E+00  0.11867455236E+03  0.11867455236E+03  0.00000000000E+00 0.  1.
         22   -1    0    0    0    0 -0.00000000000E+00 -0.00000000000E+00 -0.33793824372E+03  0.33793824372E+03  0.00000000000E+00 0.  1.
         24    2    1    2    0    0  0.75999228108E+02  0.67524457652E+01 -0.20715430630E+03  0.23456390239E+03  0.79283286298E+02 0.  0.
         25    2    1    2    0    0 -0.40906810431E+02 -0.38527726690E+01 -0.19419849090E+02  0.13309477080E+03  0.12509546945E+03 0.  0.
        -24    2    1    2    0    0 -0.35092417677E+02 -0.28996730963E+01  0.73104640333E+01  0.88954122903E+02  0.81360354071E+02 0.  0.
        -13    1    3    3    0    0  0.25391669755E+01  0.28356372566E+02 -0.91765524966E+02  0.96080397617E+02  0.00000000000E+00 0.  1.
         14    1    3    3    0    0  0.73460061133E+02 -0.21603926800E+02 -0.11538878134E+03  0.13848350477E+03  0.00000000000E+00 0. -1.
         13    1    5    5    0    0 -0.33891572150E+02  0.30757770537E+01 -0.33463344580E+02  0.47727293007E+02  0.00000000000E+00 0. -1.
        -14    1    5    5    0    0 -0.12008455272E+01 -0.59754501500E+01  0.40773808613E+02  0.41226829896E+02  0.00000000000E+00 0.  1.
          5    1    4    4  501    0 -0.81944024088E+02 -0.28402945067E+01  0.95864814513E+01  0.82657506515E+02  0.41800000000E+01 0.  1.
         -5    1    4    4    0  501  0.41037213657E+02 -0.10124781623E+01 -0.29006330541E+02  0.50437264282E+02  0.41800000000E+01 0.  1.
</event>
<event>
11    1  0.8974665E-009  0.1427062E+03  0.7561462E-02  0.1104574E+00
         22   -1    0    0    0    0  0.00000000000E+00  0.00000000000E+00  0.23658896649E+04  0.23658896649E+04  0.00000000000E+00 0.  1.
         22   -1    0    0    0    0 -0.00000000000E+00 -0.00000000000E+00 -0.25267152870E+02  0.25267152870E+02  0.00000000000E+00 0.  1.
         24    2    1    2    0    0  0.63875966679E+02  0.17524986800E+02  0.13428074647E+03  0.16990753450E+03  0.80311811869E+02 0.  0.
         25    2    1    2    0    0 -0.93148906235E+02  0.18221512087E+02  0.11051277584E+04  0.11162273130E+04  0.12508920654E+03 0.  0.
        -24    2    1    2    0    0  0.29272939555E+02 -0.35746498887E+02  0.11012140071E+04  0.11050219703E+04  0.79161531773E+02 0.  0.
        -11    1    3    3    0    0  0.63350632424E+02 -0.19975531074E+02  0.81064656220E+02  0.10480364000E+03  0.00000000000E+00 0.  1.
         12    1    3    3    0    0  0.52533425584E+00  0.37500517874E+02  0.53216090246E+02  0.65103894492E+02  0.00000000000E+00 0. -1.
         11    1    5    5    0    0  0.65985561993E+01  0.24421058843E+02  0.21609963876E+03  0.21757523511E+03  0.00000000000E+00 0. -1.
        -12    1    5    5    0    0  0.22674383356E+02 -0.60167557730E+02  0.88511436838E+03  0.88744673518E+03  0.00000000000E+00 0.  1.
          5    1    4    4  501    0 -0.19927565543E+02  0.55871622464E+02  0.24314434721E+03  0.25031059116E+03  0.41800000000E+01 0. -1.
         -5    1    4    4    0  501 -0.73221340692E+02 -0.37650110378E+02  0.86198341118E+03  0.86591672180E+03  0.41800000000E+01 0. -1.
</event>
<event>
11    1  0.8974665E-009  0.1861841E+03  0.7561462E-02  0.1064748E+00
         22   -1    0    0    0    0  0.00000000000E+00  0.00000000000E+00  0.14827971698E+04  0.14827971698E+04  0.00000000000E+00 0. -1.
         22   -1    0    0    0    0 -0.00000000000E+00 -0.00000000000E+00 -0.18429388322E+04  0.18429388322E+04  0.00000000000E+00 0. -1.
        -24    2    1    2    0    0  0.80354739346E+02 -0.11182102383E+03 -0.18027761552E+04  0.18097848710E+04  0.79740755585E+02 0.  0.
         25    2    1    2    0    0 -0.20272768483E+02  0.18106995810E+03  0.33416430966E+03  0.40063819647E+03  0.12509142158E+03 0.  0.
         24    2    1    2    0    0 -0.60081970864E+02 -0.69248934272E+02  0.11084701831E+04  0.11153129345E+04  0.82532036121E+02 0.  0.
        -11    1    5    5    0    0 -0.61244162813E+02 -0.12874542718E+02  0.72830010221E+03  0.73098402185E+03  0.00000000000E+00 0.  1.
         12    1    5    5    0    0  0.11621919497E+01 -0.56374391554E+02  0.38017008088E+03  0.38432891266E+03  0.00000000000E+00 0. -1.
         11    1    3    3    0    0  0.45483653921E+02 -0.66696099021E+02 -0.14654607515E+04  0.14676826450E+04  0.00000000000E+00 0. -1.
        -12    1    3    3    0    0  0.34871085425E+02 -0.45124924810E+02 -0.33731540370E+03  0.34210222596E+03  0.00000000000E+00 0.  1.
          5    1    4    4  501    0 -0.66762701467E+02  0.11088562439E+03  0.24985531046E+03  0.28142144298E+03  0.41800000000E+01 0.  1.
         -5    1    4    4    0  501  0.46489932984E+02  0.70184333709E+02  0.84308999203E+02  0.11921675349E+03  0.41800000000E+01 0.  1.
</event>
<event>
11    1  0.8974665E-009  0.2017406E+03  0.7561462E-02  0.1053300E+00
         22   -1    0    0    0    0  0.00000000000E+00  0.00000000000E+00  0.46536442311E+03  0.46536442311E+03  0.00000000000E+00 0. -1.
         22   -1    0    0    0    0 -0.00000000000E+00 -0.00000000000E+00 -0.87648143219E+03  0.87648143219E+03  0.00000000000E+00 0. -1.
         24    2    1    2    0    0  0.14778244663E+02  0.14575155270E+02 -0.79287289328E+03  0.79717204172E+03  0.80031290991E+02 0.  0.
         25    2    1    2    0    0  0.14835380980E+03 -0.22374061190E+02  0.13301383811E+03  0.23632948160E+03  0.12509792663E+03 0.  0.
        -24    2    1    2    0    0 -0.16313205446E+03  0.77989059199E+01  0.24874204608E+03  0.30834433199E+03  0.80812941115E+02 0.  0.
        -13    1    3    3    0    0 -0.13504722802E+02 -0.28249793293E+02 -0.31341340792E+03  0.31497363798E+03  0.00000000000E+00 0.  1.
         14    1    3    3    0    0  0.28282967465E+02  0.42824948563E+02 -0.47945948536E+03  0.48219840374E+03  0.00000000000E+00 0. -1.
         13    1    5    5    0    0 -0.16926801137E+03  0.63808669863E+01  0.24994260251E+03  0.30193323713E+03  0.00000000000E+00 0. -1.
        -14    1    5    5    0    0  0.61359569017E+01  0.14180389337E+01 -0.12005564266E+01  0.64110948558E+01  0.00000000000E+00 0.  1.
          5    1    4    4  501    0  0.29358633465E+02 -0.50659264595E+02  0.45101312461E+01  0.58873628494E+02  0.41800000000E+01 0. -1.
         -5    1    4    4    0  501  0.11899517634E+03  0.28285203405E+02  0.12850370686E+03  0.17745585310E+03  0.41800000000E+01 0. -1.
</event>
<event>
11    1  0.8974665E-009  0.1540078E+03  0.7561462E-02  0.1092853E+00
         22   -1    0    0    0    0  0.00000000000E+00  0.00000000000E+00  0.10844473982E+04  0.10844473982E+04  0.00000000000E+00 0. -1.
         22   -1    0    0    0    0 -0.00000000000E+00 -0.00000000000E+00 -0.53480079356E+02  0.53480079356E+02  0.00000000000E+00 0. -1.
         24    2    1    2    0    0 -0.18231442301E+02 -0.20820126045E+02  0.23485352288E+02  0.91685143953E+02  0.84194659645E+02 0.  0.
         25    2    1    2    0    0 -0.81515497325E+02  0.70249398805E+01  0.62483482493E+03  0.64246379612E+03  0.12508814811E+03 0.  0.
        -24    2    1    2    0    0  0.99746939626E+02  0.13795186165E+02  0.38264714165E+03  0.40377853750E+03  0.80489211765E+02 0.  0.
        -13    1    3    3    0    0  0.15082674568E+02  0.24014324074E+02  0.21858978095E+02  0.35804884530E+02  0.00000000000E+00 0.  1.
         14    1    3    3    0    0 -0.33314116868E+02 -0.44834450119E+02  0.16263741930E+01  0.55880259423E+02  0.00000000000E+00 0. -1.
         13    1    5    5    0    0  0.72600985956E+02  0.35552322136E+01  0.35918446504E+03  0.36646558196E+03  0.00000000000E+00 0. -1.
        -14    1    5    5    0    0  0.27145953670E+02  0.10239953951E+02  0.23462676613E+02  0.37312955544E+02  0.00000000000E+00 0.  1.
          5    1    4    4  501    0 -0.40094511788E+02  0.63177459604E+02  0.40187321295E+03  0.40880131233E+03  0.41800000000E+01 0.  1.
         -5    1    4    4    0  501 -0.41420985537E+02 -0.56152519724E+02  0.22296161198E+03  0.23366248379E+03  0.41800000000E+01 0.  1.
</event>
<event>
11    1  0.8974665E-009  0.2144619E+03  0.7561462E-02  0.1044743E+00
         22   -1    0    0    0    0  0.00000000000E+00  0.00000000000E+00  0.94498219319E+03  0.94498219319E+03  0.00000000000E+00 0.  1.
         22   -1    0    0    0    0 -0.00000000000E+00 -0.00000000000E+00 -0.63492811561E+03  0.63492811561E+03  0.00000000000E+00 0. -1.
        -24    2    1    2    0    0 -0.31288300114E+02 -0.17828460255E+02 -0.43544092793E+03  0.44407854182E+03  0.79373407795E+02 0.  0.
         25    2    1    2    0    0  0.17753618339E+03  0.10887393001E+03 -0.10479582721E+03  0.26457777411E+03  0.12508638657E+03 0.  0.
         24    2    1    2    0    0 -0.14624788328E+03 -0.91045469758E+02  0.85029083273E+03  0.87125399287E+03  0.80070587306E+02 0.  0.
        -11    1    5    5    0    0 -0.77597152846E+02 -0.35546098381E+02  0.59589627222E+03  0.60197774916E+03  0.00000000000E+00 0.  1.
         12    1    5    5    0    0 -0.68650730432E+02 -0.55499371377E+02  0.25439456051E+03  0.26927624371E+03  0.00000000000E+00 0. -1.
         13    1    3    3    0    0 -0.74826046532E+01  0.13273504093E+02 -0.34721867154E+03  0.34755284656E+03  0.00000000000E+00 0. -1.
        -14    1    3    3    0    0 -0.23805695461E+02 -0.31101964348E+02 -0.88222256392E+02  0.96525695261E+02  0.00000000000E+00 0.  1.
          5    1    4    4  501    0 -0.26060391247E+01 -0.15054757431E+02 -0.29140528592E+02  0.33167453442E+02  0.41800000000E+01 0. -1.
         -5    1    4    4    0  501  0.18014222252E+03  0.12392868744E+03 -0.75655298619E+02  0.23141032067E+03  0.41800000000E+01 0. -1.
</event>
<event>
11    1  0.8974665E-009  0.1464207E+03  0.7561462E-02  0.1100593E+00
         22   -1    0    0    0    0  0.00000000000E+00  0.00000000000E+00  0.78617105909E+03  0.78617105909E+03  0.00000000000E+00 0. -1.
         22   -1    0    0    0    0 -0.00000000000E+00 -0.00000000000E+00 -0.49924762725E+03  0.49924762725E+03  0.00000000000E+00 0.  1.
        -24    2    1    2    0    0 -0.30940990926E+02  0.47544804016E+01 -0.26171030414E+03  0.27548529458E+03  0.80124367287E+02 0.  0.
         25    2    1    2    0    0 -0.31591432614E+02 -0.48810241163E+02 -0.20567973303E+03  0.24765242140E+03  0.12508841268E+03 0.  0.
         24    2    1    2    0    0  0.62532423540E+02  0.44055760761E+02  0.75431346902E+03  0.76228097037E+03  0.78944627390E+02 0.  0.
        -13    1    5    5    0    0  0.22485970188E+01 -0.17907037335E+02  0.24664912560E+03  0.24730853066E+03  0.00000000000E+00 0.  1.
         14    1    5    5    0    0  0.60283826521E+02  0.61962798097E+02  0.50766434341E+03  0.51497243971E+03  0.00000000000E+00 0. -1.
         13    1    3    3    0    0 -0.53451024593E+02 -0.15064984877E+02 -0.15536369991E+03  0.16499043927E+03  0.00000000000E+00 0. -1.
        -14    1    3    3    0    0  0.22510033667E+02  0.19819465278E+02 -0.10634660423E+03  0.11049485531E+03  0.00000000000E+00 0.  1.
          5    1    4    4  501    0 -0.39508444097E+02 -0.83735037517E+02 -0.18279520882E+03  0.20494885808E+03  0.41800000000E+01 0.  1.
         -5    1    4    4    0  501  0.79170114838E+01  0.34924796354E+02 -0.22884524213E+02  0.42703563313E+02  0.41800000000E+01 0.  1.
</event>
<event>
11    1  0.8974665E-009  0.1603018E+03  0.7561462E-02  0.1086794E+00
         22   -1    0    0    0    0  0.00000000000E+00  0.00000000000E+00  0.19318914111E+04  0.19318914111E+04  0.00000000000E+00 0.  1.
         22   -1    0    0    0    0 -0.00000000000E+00 -0.00000000000E+00 -0.21869927860E+03  0.21869927860E+03  0.00000000000E+00 0.  1.
        -24    2    1    2    0    0  0.38633482761E+02  0.80626992884E+01 -0.18973351239E+03  0.20999897582E+03  0.80890116890E+02 0.  0.
         25    2    1    2    0    0 -0.95860902363E+02 -0.85118600524E+02  0.48022624837E+03  0.51254257950E+03  0.12509259539E+03 0.  0.
         24    2    1    2    0    0  0.57227419602E+02  0.77055901236E+02  0.14226993965E+04  0.14280491344E+04  0.77705648978E+02 0.  0.
        -13    1    5    5    0    0  0.27202054010E+02  0.24414809167E+02  0.10347082713E+04  0.10353536793E+04  0.00000000000E+00 0.  1.
         14    1    5    5    0    0  0.30025365593E+02  0.52641092069E+02  0.38799112523E+03  0.39269545505E+03  0.00000000000E+00 0. -1.
         13    1    3    3    0    0 -0.89259265215E+01 -0.26922795622E+02 -0.39915126759E+02  0.48966584857E+02  0.00000000000E+00 0. -1.
        -14    1    3    3    0    0  0.47559409282E+02  0.34985494910E+02 -0.14981838563E+03  0.16103239096E+03  0.00000000000E+00 0.  1.
          5    1    4    4  501    0  0.25707149972E+02  0.33704641139E+01  0.45591645653E+02  0.52614524053E+02  0.41800000000E+01 0.  1.
         -5    1    4    4    0  501 -0.12156805234E+03 -0.88489064638E+02  0.43463460272E+03  0.45992805545E+03  0.41800000000E+01 0.  1.
</event>
<event>
11    1  0.8974665E-009  0.3509004E+03  0.7561462E-02  0.9806886E-01
         22   -1    0    0    0    0  0.00000000000E+00  0.00000000000E+00  0.33492036625E+03  0.33492036625E+03  0.00000000000E+00 0.  1.
         22   -1    0    0    0    0 -0.00000000000E+00 -0.00000000000E+00 -0.22397148722E+04  0.22397148722E+04  0.00000000000E+00 0. -1.
         24    2    1    2    0    0  0.17163822179E+03 -0.29599780897E+03 -0.20751329510E+04  0.21049127835E+04  0.86062068569E+02 0.  0.
         25    2    1    2    0    0 -0.10645189944E+03  0.17914445531E+03  0.54174607159E+01  0.24310975311E+03  0.12509300706E+03 0.  0.
        -24    2    1    2    0    0 -0.65186322352E+02  0.11685335366E+03  0.16492098435E+03  0.22661270183E+03  0.79059614644E+02 0.  0.
        -11    1    3    3    0    0  0.83297122475E+02 -0.22353422986E+03 -0.13956433594E+04  0.14158835931E+04  0.00000000000E+00 0.  1.
         12    1    3    3    0    0  0.88341099316E+02 -0.72463579108E+02 -0.67948959160E+03  0.68902919040E+03  0.00000000000E+00 0. -1.
         11    1    5    5    0    0 -0.42210577010E+02  0.39312663571E+02  0.20736806747E+02  0.61296276254E+02  0.00000000000E+00 0. -1.
        -12    1    5    5    0    0 -0.22975745341E+02  0.77540690092E+02  0.14418417761E+03  0.16531642558E+03  0.00000000000E+00 0.  1.
          5    1    4    4  501    0 -0.11075762178E+03  0.64854469032E+02 -0.18741783287E+01  0.12843028412E+03  0.41800000000E+01 0. -1.
         -5    1    4    4    0  501  0.43057223365E+01  0.11428998627E+03  0.72916390446E+01  0.11467946899E+03  0.41800000000E+01 0. -1.
</event>
<event>
11    1  0.8974665E-009  0.1291013E+03  0.7561462E-02  0.1120378E+00
         22   -1    0    0    0    0  0.00000000000E+00  0.00000000000E+00  0.48820898472E+03  0.48820898472E+03  0.00000000000E+00 0. -1.
         22   -1    0    0    0    0 -0.00000000000E+00 -0.00000000000E+00 -0.14886688489E+04  0.14886688489E+04  0.00000000000E+00 0.  1.
        -24    2    1    2    0    0 -0.75640616714E+01 -0.72145176772E+01 -0.10543806633E+04  0.10575679537E+04  0.81376466739E+02 0.  0.
         25    2    1    2    0    0 -0.15706262248E+02  0.28939275464E+02 -0.41899008429E+03  0.43850984201E+03  0.12511603600E+03 0.  0.
         24    2    1    2    0    0  0.23270323919E+02 -0.21724757787E+02  0.47291088337E+03  0.48080003792E+03  0.80687668073E+02 0.  0.
        -11    1    5    5    0    0 -0.81573360562E+01  0.99104747790E+01  0.11483534121E+02  0.17222984579E+02  0.00000000000E+00 0.  1.
         12    1    5    5    0    0  0.31427659976E+02 -0.31635232566E+02  0.46142734925E+03  0.46357705335E+03  0.00000000000E+00 0. -1.
         13    1    3    3    0    0 -0.31607519662E+02 -0.11225164755E+02 -0.19657832795E+03  0.19941935373E+03  0.00000000000E+00 0. -1.
        -14    1    3    3    0    0  0.24043457991E+02  0.40106470776E+01 -0.85780233534E+03  0.85814860000E+03  0.00000000000E+00 0.  1.
          5    1    4    4  501    0 -0.38073027874E+02  0.27832275712E+02 -0.50156719180E+02  0.68973617432E+02  0.41800000000E+01 0. -1.
         -5    1    4    4    0  501  0.22366765626E+02  0.11069997524E+01 -0.36883336511E+03  0.36953622458E+03  0.41800000000E+01 0. -1.
</event>
<event>
11    1  0.8974665E-009  0.4305246E+03  0.7561462E-02  0.9563753E-01
         22   -1    0    0    0    0  0.00000000000E+00  0.00000000000E+00  0.60649282106E+03  0.60649282106E+03  0.00000000000E+00 0. -1.
         22   -1    0    0    0    0 -0.00000000000E+00 -0.00000000000E+00 -0.15612362055E+04  0.15612362055E+04  0.00000000000E+00 0.  1.
         24    2    1    2    0    0  0.67142823185E+02 -0.35082709549E+03 -0.77176019004E+03  0.85454832358E+03  0.83971642649E+02 0.  0.
         25    2    1    2    0    0 -0.25711001538E+03  0.54657186233E+03 -0.56520410130E+03  0.83662253722E+03  0.12504092516E+03 0.  0.
        -24    2    1    2    0    0  0.18996719220E+03 -0.19574476683E+03  0.38222090690E+03  0.47655816575E+03  0.81309998299E+02 0.  0.
        -13    1    3    3    0    0  0.85087919773E+02 -0.31259087219E+03 -0.69882049045E+03  0.77026169926E+03  0.00000000000E+00 0.  1.
         14    1    3    3    0    0 -0.17945096588E+02 -0.38236223302E+02 -0.72939699590E+02  0.84286624326E+02  0.00000000000E+00 0. -1.
         13    1    5    5    0    0  0.12460719391E+03 -0.17541886510E+03  0.27207168816E+03  0.34687423442E+03  0.00000000000E+00 0. -1.
        -14    1    5    5    0    0  0.65359998288E+02 -0.20325901732E+02  0.11014921873E+03  0.12968393133E+03  0.00000000000E+00 0.  1.
          5    1    4    4  501    0 -0.10442794471E+02  0.13965781802E+03 -0.11043337255E+03  0.17839944020E+03  0.41800000000E+01 0.  1.
         -5    1    4    4    0  501 -0.24666722091E+03  0.40691404430E+03 -0.45477072875E+03  0.65822309702E+03  0.41800000000E+01 0.  1.
</event>
<event>
11    1  0.8974665E-009  0.1300347E+03  0.7561462E-02  0.1119226E+00
         22   -1    0    0    0    0  0.00000000000E+00  0.00000000000E+00  0.18575118593E+03  0.18575118593E+03  0.00000000000E+00 0.  1.
         22   -1    0    0    0    0 -0.00000000000E+00 -0.00000000000E+00 -0.47594422039E+03  0.47594422039E+03  0.00000000000E+00 0.  1.
         24    2    1    2    0    0  0.19704983379E+02 -0.32233223957E+02 -0.35659696193E+03  0.36735997214E+03  0.79778999581E+02 0.  0.
         25    2    1    2    0    0  0.14417356376E+02  0.28955825298E+02 -0.58969946543E+02  0.14201614256E+03  0.12507929552E+03 0.  0.
        -24    2    1    2    0    0 -0.34122339755E+02  0.32773986589E+01  0.12537387401E+03  0.15231929163E+03  0.79419663221E+02 0.  0.
        -13    1    3    3    0    0  0.34192054459E+02 -0.38639917233E+02 -0.34183621569E+03  0.34570816906E+03  0.00000000000E+00 0.  1.
         14    1    3    3    0    0 -0.14487071080E+02  0.64066932757E+01 -0.14760746234E+02  0.21651803080E+02  0.00000000000E+00 0. -1.
         11    1    5    5    0    0 -0.10190300771E+02  0.35416950934E+02  0.25806032660E+02  0.44990598628E+02  0.00000000000E+00 0. -1.
        -12    1    5    5    0    0 -0.23932038984E+02 -0.32139552275E+02  0.99567841351E+02  0.10732869300E+03  0.00000000000E+00 0.  1.
          5    1    4    4  501    0  0.12047645128E+02 -0.28626164180E+02 -0.75642183086E+02  0.81876829999E+02  0.41800000000E+01 0.  1.
         -5    1    4    4    0  501  0.23697112485E+01  0.57581989478E+02  0.16672236542E+02  0.60139312558E+02  0.41800000000E+01 0.  1.
</event>
<event>
11    1  0.8974665E-009  0.1625230E+03  0.7561462E-02  0.1084728E+00
         22   -1    0    0    0    0  0.00000000000E+00  0.00000000000E+00  0.18304484880E+04  0.18304484880E+04  0.00000000000E+00 0.  1.
         22   -1    0    0    0    0 -0.00000000000E+00 -0.00000000000E+00 -0.23915905307E+03  0.23915905307E+03  0.00000000000E+00 0. -1.
        -24    2    1    2    0    0 -0.94639112384E+02  0.38982556416E+02 -0.19858149707E+03  0.23743821914E+03  0.80412036618E+02 0.  0.
         25    2    1    2    0    0  0.10723625766E+03 -0.10648488946E+03  0.48742254225E+03  0.52542167124E+03  0.12509416965E+03 0.  0.
         24    2    1    2    0    0 -0.12597145272E+02  0.67502333046E+02  0.13024483897E+04  0.13067476506E+04  0.80637222057E+02 0.  0.
        -13    1    5    5    0    0 -0.36830908415E+01  0.34524567695E+02  0.11497731067E+04  0.11502972259E+04  0.00000000000E+00 0.  1.
         14    1    5    5    0    0 -0.89140544301E+01  0.32977765350E+02  0.15267528300E+03  0.15645042477E+03  0.00000000000E+00 0. -1.
         11    1    3    3    0    0 -0.73660417715E+02  0.63902284011E+02 -0.15222676245E+03  0.18078259387E+03  0.00000000000E+00 0. -1.
        -12    1    3    3    0    0 -0.20978694669E+02 -0.24919727595E+02 -0.46354734620E+02  0.56655625274E+02  0.00000000000E+00 0.  1.
          5    1    4    4  501    0  0.98434639130E+02 -0.12395935929E+03  0.32234994104E+03  0.35914099992E+03  0.41800000000E+01 0.  1.
         -5    1    4    4    0  501  0.88016185261E+01  0.17474469833E+02  0.16507260121E+03  0.16628067132E+03  0.41800000000E+01 0.  1.
</event>
<event>
11    1  0.8974665E-009  0.1357159E+03  0.7561462E-02  0.1112439E+00
         22   -1    0    0    0    0  0.00000000000E+00  0.00000000000E+00  0.49035263085E+03  0.49035263085E+03  0.00000000000E+00 0. -1.
         22   -1    0    0    0    0 -0.00000000000E+00 -0.00000000000E+00 -0.12861032640E+04  0.12861032640E+04  0.00000000000E+00 0. -1.
         24    2    1    2    0    0  0.10308406323E+02 -0.13686770988E+02 -0.12275709248E+04  0.12302818023E+04  0.79808187912E+02 0.  0.
         25    2    1    2    0    0  0.27461228156E+02 -0.25335775826E+02  0.31059564182E+02  0.13419601773E+03  0.12509138283E+03 0.  0.
        -24    2    1    2    0    0 -0.37769634479E+02  0.39022546814E+02  0.40076072743E+03  0.41197807481E+03  0.78533235140E+02 0.  0.
        -11    1    3    3    0    0  0.15159264974E+02  0.31698982771E+02 -0.44803463277E+03  0.44941034811E+03  0.00000000000E+00 0.  1.
         12    1    3    3    0    0 -0.48508586513E+01 -0.45385753759E+02 -0.77953629199E+03  0.78087145421E+03  0.00000000000E+00 0. -1.
         11    1    5    5    0    0 -0.52075029568E+02  0.44018514407E+02  0.38111959425E+03  0.38717125853E+03  0.00000000000E+00 0. -1.
        -12    1    5    5    0    0  0.14305395089E+02 -0.49959675933E+01  0.19641133184E+02  0.24806816273E+02  0.00000000000E+00 0.  1.
          5    1    4    4  501    0 -0.36498702697E+01  0.17638622101E+02 -0.40789063869E+02  0.44784625419E+02  0.41800000000E+01 0.  1.
         -5    1    4    4    0  501  0.31111098426E+02 -0.42974397926E+02  0.71848628051E+02  0.89411392312E+02  0.41800000000E+01 0.  1.
</event>
<event>
11    1  0.8974665E-009  0.1299915E+03  0.7561462E-02  0.1119279E+00
         22   -1    0    0    0    0  0.00000000000E+00  0.00000000000E+00  0.15860710207E+04  0.15860710207E+04  0.00000000000E+00 0. -1.
         22   -1    0    0    0    0 -0.00000000000E+00 -0.00000000000E+00 -0.12327054640E+03  0.12327054640E+03  0.00000000000E+00 0.  1.
         24    2    1    2    0    0 -0.10054289441E+02  0.34406696791E+02 -0.97180661025E+02  0.13113028625E+03  0.80412446644E+02 0.  0.
         25    2    1    2    0    0 -0.50851807583E+01 -0.21981756078E+02  0.54033515423E+03  0.55508424195E+03  0.12508948838E+03 0.  0.
        -24    2    1    2    0    0  0.15139470199E+02 -0.12424940713E+02  0.10196459810E+04  0.10231270389E+04  0.82020901384E+02 0.  0.
        -13    1    3    3    0    0 -0.34362139579E+02  0.25212467785E+02 -0.96091411052E+02  0.10511890623E+03  0.00000000000E+00 0.  1.
         14    1    3    3    0    0  0.24307850138E+02  0.91942290065E+01 -0.10892499726E+01  0.26011380026E+02  0.00000000000E+00 0. -1.
         13    1    5    5    0    0  0.47441939958E+00 -0.32114238872E+02  0.91787354199E+03  0.91843529358E+03  0.00000000000E+00 0. -1.
        -14    1    5    5    0    0  0.14665050800E+02  0.19689298159E+02  0.10177243906E+03  0.10469174528E+03  0.00000000000E+00 0.  1.
          5    1    4    4  501    0 -0.50337539258E+02 -0.12556116994E+02  0.10409373305E+03  0.11638084719E+03  0.41800000000E+01 0. -1.
         -5    1    4    4    0  501  0.45252358499E+02 -0.94256390841E+01  0.43624142118E+03  0.43870339476E+03  0.41800000000E+01 0. -1.
</event>
<event>
11    1  0.8974665E-009  0.1521881E+03  0.7561462E-02  0.1094664E+00
         22   -1    0    0    0    0  0.00000000000E+00  0.00000000000E+00  0.23820952036E+03  0.23820952036E+03  0.00000000000E+00 0. -1.
         22   -1    0    0    0    0 -0.00000000000E+00 -0.00000000000E+00 -0.10273752930E+04  0.10273752930E+04  0.00000000000E+00 0.  1.
        -24    2    1    2    0    0 -0.49483791514E+01  0.89484125246E+01 -0.81555088268E+03  0.81949371632E+03  0.79637606137E+02 0.  0.
         25    2    1    2    0    0  0.81543773453E+02  0.31609333846E+02 -0.16275505009E+03  0.22312308094E+03  0.12508463512E+03 0.  0.
         24    2    1    2    0    0 -0.76595394301E+02 -0.40557746371E+02  0.18914016012E+03  0.22296801611E+03  0.80180738454E+02 0.  0.
        -13    1    5    5    0    0 -0.77189695366E+02 -0.45223682234E+02  0.10189058690E+03  0.13559174829E+03  0.00000000000E+00 0.  1.
         14    1    5    5    0    0  0.59430106497E+00  0.46659358633E+01  0.87249573218E+02  0.87376267819E+02  0.00000000000E+00 0. -1.
         13    1    3    3    0    0  0.31119684226E+00  0.18533906261E+02 -0.42511826999E+02  0.46377343170E+02  0.00000000000E+00 0. -1.
        -14    1    3    3    0    0 -0.52595759937E+01 -0.95854937359E+01 -0.77303905568E+03  0.77311637315E+03  0.00000000000E+00 0.  1.
          5    1    4    4  501    0  0.25172499326E+02 -0.40937147515E+02 -0.10219037420E+03  0.11300375988E+03  0.41800000000E+01 0.  1.
         -5    1    4    4    0  501  0.56371274127E+02  0.72546481361E+02 -0.60564675893E+02  0.11011932106E+03  0.41800000000E+01 0.  1.
</event>
<event>
11    1  0.8974665E-009  0.1343901E+03  0.7561462E-02  0.1113990E+00
         22   -1    0    0    0    0  0.00000000000E+00  0.00000000000E+00  0.49808493050E+03  0.49808493050E+03  0.00000000000E+00 0.  1.
         22   -1    0    0    0    0 -0.00000000000E+00 -0.00000000000E+00 -0.58286416820E+03  0.58286416820E+03  0.00000000000E+00 0. -1.
         24    2    1    2    0    0 -0.10798222799E+02 -0.50311812421E+02 -0.50232075114E+03  0.51149276541E+03  0.81552633017E+02 0.  0.
         25    2    1    2    0    0 -0.18907825052E+02  0.23857746414E+02 -0.12975053844E+02  0.12938584313E+03  0.12508255861E+03 0.  0.
        -24    2    1    2    0    0  0.29706047851E+02  0.26454066006E+02  0.43051656729E+03  0.44007049016E+03  0.82068597612E+02 0.  0.
        -11    1    3    3    0    0 -0.45743646601E+01  0.22340843886E+02 -0.95184529146E+02  0.97878152344E+02  0.00000000000E+00 0.  1.
         12    1    3    3    0    0 -0.62238581390E+01 -0.72652656306E+02 -0.40713622199E+03  0.41361461306E+03  0.00000000000E+00 0. -1.
         13    1    5    5    0    0 -0.22758755860E+02  0.14888405674E+00  0.48532228032E+02  0.53603733941E+02  0.00000000000E+00 0. -1.
        -14    1    5    5    0    0  0.52464803711E+02  0.26305181949E+02  0.38198433926E+03  0.38646675622E+03  0.00000000000E+00 0.  1.
          5    1    4    4  501    0  0.25208164967E+01 -0.35928398338E+02 -0.45280633177E+02  0.58008727480E+02  0.41800000000E+01 0.  1.
         -5    1    4    4    0  501 -0.21428641549E+02  0.59786144752E+02  0.32305579333E+02  0.71377115653E+02  0.41800000000E+01 0.  1.
</event>
<event>
11    1  0.8974665E-009  0.1444003E+03  0.7561462E-02  0.1102742E+00
         22   -1    0    0    0    0  0.00000000000E+00  0.00000000000E+00  0.30105405160E+04  0.30105405160E+04  0.00000000000E+00 0.  1.
         22   -1    0    0    0    0 -0.00000000000E+00 -0.00000000000E+00 -0.11097418367E+03  0.11097418367E+03  0.00000000000E+00 0. -1.
        -24    2    1    2    0    0  0.33009792385E+02  0.50632372175E+02 -0.65740958843E+01  0.10345223601E+03  0.83701032810E+02 0.  0.
         25    2    1    2    0    0 -0.62482192784E+02  0.15877215722E+02  0.35229203640E+02  0.14506700768E+03  0.12508888653E+03 0.  0.
         24    2    1    2    0    0  0.29472400398E+02 -0.66509587897E+02  0.28709112246E+04  0.28729954560E+04  0.81728104217E+02 0.  0.
        -13    1    5    5    0    0  0.42674664211E+02 -0.79234692145E+02  0.22139579398E+04  0.22157863215E+04  0.00000000000E+00 0.  1.
         14    1    5    5    0    0 -0.13202263812E+02  0.12725104248E+02  0.65695328481E+03  0.65720913450E+03  0.00000000000E+00 0. -1.
         13    1    3    3    0    0  0.60375977648E+02  0.39948182376E+02 -0.12543047234E+02  0.73474104186E+02  0.00000000000E+00 0. -1.
        -14    1    3    3    0    0 -0.27366185262E+02  0.10684189800E+02  0.59689513493E+01  0.29978131824E+02  0.00000000000E+00 0.  1.
          5    1    4    4  501    0 -0.10746400436E+02  0.39489794900E+02 -0.35413260681E+02  0.54281676978E+02  0.41800000000E+01 0.  1.
         -5    1    4    4    0  501 -0.51735792347E+02 -0.23612579178E+02  0.70642464320E+02  0.90785330701E+02  0.41800000000E+01 0.  1.
</event>
<event>
11    1  0.8974665E-009  0.1672441E+03  0.7561462E-02  0.1080455E+00
         22   -1    0    0    0    0  0.00000000000E+00  0.00000000000E+00  0.63410136530E+03  0.63410136530E+03  0.00000000000E+00 0.  1.
         22   -1    0    0    0    0 -0.00000000000E+00 -0.00000000000E+00 -0.16343534945E+04  0.16343534945E+04  0.00000000000E+00 0.  1.
         24    2    1    2    0    0 -0.94562822400E+01  0.11733733551E+03 -0.75732853493E+03  0.77057004648E+03  0.79838682017E+02 0.  0.
         25    2    1    2    0    0 -0.92682596716E+02 -0.90069613631E+02 -0.85385585914E+03  0.87259321118E+03  0.12508591039E+03 0.  0.
        -24    2    1    2    0    0  0.10213887896E+03 -0.27267721879E+02  0.61093226488E+03  0.62529160211E+03  0.81089309723E+02 0.  0.
        -11    1    3    3    0    0 -0.13088876321E+02  0.12917814892E+03 -0.69426573705E+03  0.70630250352E+03  0.00000000000E+00 0.  1.
         12    1    3    3    0    0  0.36325940807E+01 -0.11840813415E+02 -0.63062797878E+02  0.64267542961E+02  0.00000000000E+00 0. -1.
         11    1    5    5    0    0 -0.32156063574E+01 -0.22109253347E+02  0.53674589949E+02  0.58138806438E+02  0.00000000000E+00 0. -1.
        -12    1    5    5    0    0  0.10535448531E+03 -0.51584685314E+01  0.55725767493E+03  0.56715279568E+03  0.00000000000E+00 0.  1.
          5    1    4    4  501    0 -0.27226802073E+02 -0.98898854833E+02 -0.65543279780E+03  0.66342437932E+03  0.41800000000E+01 0. -1.
         -5    1    4    4    0  501 -0.65455794643E+02  0.88292412023E+01 -0.19842306134E+03  0.20916883186E+03  0.41800000000E+01 0. -1.
</event>
<event>
11    1  0.8974665E-009  0.1896216E+03  0.7561462E-02  0.1062115E+00
         22   -1    0    0    0    0  0.00000000000E+00  0.00000000000E+00  0.66457238040E+03  0.66457238040E+03  0.00000000000E+00 0.  1.
         22   -1    0    0    0    0 -0.00000000000E+00 -0.00000000000E+00 -0.36730356606E+03  0.36730356606E+03  0.00000000000E+00 0. -1.
         24    2    1    2    0    0 -0.72165500825E+02 -0.58189309966E+02 -0.26201740195E+03  0.29024847251E+03  0.83649277121E+02 0.  0.
         25    2    1    2    0    0  0.18627748674E+03  0.11884869588E+03  0.12901642059E+03  0.28481042645E+03  0.12508967845E+03 0.  0.
        -24    2    1    2    0    0 -0.11411198592E+03 -0.60659385916E+02  0.43026979571E+03  0.45681704750E+03  0.82756337232E+02 0.  0.
        -13    1    3    3    0    0 -0.61293324750E+01  0.14752229245E+01 -0.13504255816E+03  0.13518963538E+03  0.00000000000E+00 0.  1.
         14    1    3    3    0    0 -0.66036168350E+02 -0.59664532891E+02 -0.12697484379E+03  0.15505883713E+03  0.00000000000E+00 0. -1.
         11    1    5    5    0    0  0.10933693709E+02  0.47528663328E+01  0.25432598775E+02  0.28088297865E+02  0.00000000000E+00 0. -1.
        -12    1    5    5    0    0 -0.12504567963E+03 -0.65412252249E+02  0.40483719693E+03  0.42872874963E+03  0.00000000000E+00 0.  1.
          5    1    4    4  501    0  0.98452002459E+02  0.10439743313E+03  0.13288645669E+03  0.19562183826E+03  0.41800000000E+01 0. -1.
         -5    1    4    4    0  501  0.87825484284E+02  0.14451262750E+02 -0.38700360969E+01  0.89188588195E+02  0.41800000000E+01 0. -1.
</event>
<event>
11    1  0.8974665E-009  0.2115966E+03  0.7561462E-02  0.1046613E+00
         22   -1    0    0    0    0  0.00000000000E+00  0.00000000000E+00  0.15332459627E+04  0.15332459627E+04  0.00000000000E+00 0.  1.
         22   -1    0    0    0    0 -0.00000000000E+00 -0.00000000000E+00 -0.10327074154E+03  0.10327074154E+03  0.00000000000E+00 0. -1.
         24    2    1    2    0    0  0.68515599339E+02  0.31304242986E+02 -0.15984657714E+02  0.11130736516E+03  0.80370873298E+02 0.  0.
         25    2    1    2    0    0 -0.71584175913E+02 -0.19465731997E+03  0.43455994569E+03  0.49749968166E+03  0.12509124829E+03 0.  0.
        -24    2    1    2    0    0  0.30685765738E+01  0.16335307699E+03  0.10113999332E+04  0.10277096574E+04  0.81016487160E+02 0.  0.
        -11    1    3    3    0    0  0.57412175229E+01 -0.14150458625E+02 -0.28946588165E+02  0.32727695066E+02  0.00000000000E+00 0.  1.
         12    1    3    3    0    0  0.62774381816E+02  0.45454701611E+02  0.12961930450E+02  0.78579670093E+02  0.00000000000E+00 0. -1.
         11    1    5    5    0    0  0.21270382952E+02  0.19460939753E+02  0.78993256353E+02  0.84089784851E+02  0.00000000000E+00 0. -1.
        -12    1    5    5    0    0 -0.18201806378E+02  0.14389213723E+03  0.93240667685E+03  0.94361987259E+03  0.00000000000E+00 0.  1.
          5    1    4    4  501    0  0.11337054878E+02  0.48045537010E+01  0.94100565716E+00  0.13037271233E+02  0.41800000000E+01 0.  1.
         -5    1    4    4    0  501 -0.82921230790E+02 -0.19946187367E+03  0.43361894003E+03  0.48446241043E+03  0.41800000000E+01 0.  1.
</event>
<event>
11    1  0.8974665E-009  0.2250422E+03  0.7561462E-02  0.1038104E+00
         22   -1    0    0    0    0  0.00000000000E+00  0.00000000000E+00  0.95953548240E+03  0.95953548240E+03  0.00000000000E+00 0.  1.
         22   -1    0    0    0    0 -0.00000000000E+00 -0.00000000000E+00 -0.25876752005E+03  0.25876752005E+03  0.00000000000E+00 0.  1.
         24    2    1    2    0    0 -0.44980857591E+01 -0.43402941109E+01 -0.11485423788E+03  0.14025449973E+03  0.80254332008E+02 0.  0.
         25    2    1    2    0    0  0.18174048992E+03 -0.54665807278E+02 -0.10417557994E+02  0.22753592754E+03  0.12508443806E+03 0.  0.
        -24    2    1    2    0    0 -0.17724240417E+03  0.59006101389E+02  0.82603975823E+03  0.85051257518E+03  0.78315825475E+02 0.  0.
        -11    1    3    3    0    0 -0.21205225517E+02 -0.12252215952E+02 -0.11884554492E+03  0.12134266328E+03  0.00000000000E+00 0.  1.
         12    1    3    3    0    0  0.16707139758E+02  0.79119218415E+01  0.39913070326E+01  0.18911836451E+02  0.00000000000E+00 0. -1.
         13    1    5    5    0    0 -0.24388503343E+02  0.17890026654E+01  0.34296201099E+02  0.42121598208E+02  0.00000000000E+00 0. -1.
        -14    1    5    5    0    0 -0.15285390082E+03  0.57217098724E+02  0.79174355713E+03  0.80839097697E+03  0.00000000000E+00 0.  1.
          5    1    4    4  501    0  0.14992409788E+03 -0.38643968565E+02 -0.60208093874E+02  0.16617183396E+03  0.41800000000E+01 0. -1.
         -5    1    4    4    0  501  0.31816392041E+02 -0.16021838713E+02  0.49790535879E+02  0.61364093584E+02  0.41800000000E+01 0. -1.
</event>
<event>
11    1  0.8974665E-009  0.1442591E+03  0.7561462E-02  0.1102894E+00
         22   -1    0    0    0    0  0.00000000000E+00  0.00000000000E+00  0.11703548835E+04  0.11703548835E+04  0.00000000000E+00 0. -1.
         22   -1    0    0    0    0 -0.00000000000E+00 -0.00000000000E+00 -0.63557098326E+03  0.63557098326E+03  0.00000000000E+00 0.  1.
         24    2    1    2    0    0  0.68373042650E+02 -0.51237837456E+01 -0.58225295061E+03  0.59204415290E+03  0.82441824120E+02 0.  0.
         25    2    1    2    0    0  0.78406008405E+01  0.60386514773E+01  0.41515807046E+02  0.13217087694E+03  0.12509051980E+03 0.  0.
        -24    2    1    2    0    0 -0.76213643490E+02 -0.91486773171E+00  0.10755210438E+04  0.10817108369E+04  0.86853109242E+02 0.  0.
        -11    1    3    3    0    0  0.45889596659E+02 -0.31126392164E+01 -0.55388292140E+03  0.55578937937E+03  0.00000000000E+00 0.  1.
         12    1    3    3    0    0  0.22483445991E+02 -0.20111445292E+01 -0.28370029210E+02  0.36254773525E+02  0.00000000000E+00 0. -1.
         13    1    5    5    0    0 -0.94673506979E+02  0.39071562526E+01  0.95496802263E+03  0.95965736752E+03  0.00000000000E+00 0. -1.
        -14    1    5    5    0    0  0.18459863489E+02 -0.48220239843E+01  0.12055302119E+03  0.12205346941E+03  0.00000000000E+00 0.  1.
          5    1    4    4  501    0 -0.44114985350E+01 -0.18156756631E+02 -0.40979231087E+02  0.45231614068E+02  0.41800000000E+01 0. -1.
         -5    1    4    4    0  501  0.12252099375E+02  0.24195408108E+02  0.82495038133E+02  0.86939262875E+02  0.41800000000E+01 0. -1.
</event>
<event>
11    1  0.8974665E-009  0.1776771E+03  0.7561462E-02  0.1071537E+00
         22   -1    0    0    0    0  0.00000000000E+00  0.00000000000E+00  0.27054711559E+03  0.27054711559E+03  0.00000000000E+00 0. -1.
         22   -1    0    0    0    0 -0.00000000000E+00 -0.00000000000E+00 -0.62593427737E+03  0.62593427737E+03  0.00000000000E+00 0. -1.
        -24    2    1    2    0    0 -0.12273315910E+03  0.33514008705E+01 -0.30674576685E+03  0.34022907946E+03  0.81167732481E+02 0.  0.
         25    2    1    2    0    0  0.12614118762E+03 -0.60120971525E+02 -0.26159382332E+03  0.32187717619E+03  0.12508979865E+03 0.  0.
         24    2    1    2    0    0 -0.34080285216E+01  0.56769570655E+02  0.21295242839E+03  0.23437513731E+03  0.79677910495E+02 0.  0.
        -11    1    5    5    0    0 -0.29270328402E+02 -0.49497867157E+01  0.84033529557E+02  0.89122873624E+02  0.00000000000E+00 0.  1.
         12    1    5    5    0    0  0.25862299880E+02  0.61719357370E+02  0.12891889884E+03  0.14525226369E+03  0.00000000000E+00 0. -1.
         11    1    3    3    0    0 -0.48129156132E+02 -0.17600827171E+02 -0.21058866351E+03  0.21673437657E+03  0.00000000000E+00 0. -1.
        -12    1    3    3    0    0 -0.74604002965E+02  0.20952228041E+02 -0.96157103339E+02  0.12349470289E+03  0.00000000000E+00 0.  1.
          5    1    4    4  501    0  0.79871698923E+02 -0.72234633213E+02 -0.80474894162E+02  0.13450283088E+03  0.41800000000E+01 0.  1.
         -5    1    4    4    0  501  0.46269488696E+02  0.12113661688E+02 -0.18111892916E+03  0.18737434531E+03  0.41800000000E+01 0.  1.
</event>
<event>
11    1  0.8974665E-009  0.1502395E+03  0.7561462E-02  0.1096634E+00
         22   -1    0    0    0    0  0.00000000000E+00  0.00000000000E+00  0.21317697556E+03  0.21317697556E+03  0.00000000000E+00 0.  1.
         22   -1    0    0    0    0 -0.00000000000E+00 -0.00000000000E+00 -0.42032685724E+03  0.42032685724E+03  0.00000000000E+00 0.  1.
        -24    2    1    2    0    0  0.76365096727E+02 -0.65512282983E+01 -0.24810042771E+03  0.27215602172E+03  0.81489455372E+02 0.  0.
         25    2    1    2    0    0 -0.11065698347E+03 -0.16760785987E+02 -0.98023437974E+02  0.19436508171E+03  0.12507317321E+03 0.  0.
         24    2    1    2    0    0  0.34291886746E+02  0.23312014285E+02  0.13897398400E+03  0.16698272937E+03  0.82765211116E+02 0.  0.
        -11    1    5    5    0    0  0.37615777401E+02  0.51440287137E+02  0.87738034894E+02  0.10843898108E+03  0.00000000000E+00 0.  1.
         12    1    5    5    0    0 -0.33238906554E+01 -0.28128272852E+02  0.51235949109E+02  0.58543748290E+02  0.00000000000E+00 0. -1.
         11    1    3    3    0    0  0.36537227810E+02 -0.32450103275E+02 -0.56255217663E+02  0.74515956230E+02  0.00000000000E+00 0. -1.
        -12    1    3    3    0    0  0.39827868917E+02  0.25898874977E+02 -0.19184521005E+03  0.19764006549E+03  0.00000000000E+00 0.  1.
          5    1    4    4  501    0 -0.39060511088E+02  0.16673230682E+02 -0.10654980129E+03  0.11477827627E+03  0.41800000000E+01 0. -1.
         -5    1    4    4    0  501 -0.71596472385E+02 -0.33434016669E+02  0.85263633188E+01  0.79586805439E+02  0.41800000000E+01 0. -1.
</event>
<event>
11    1  0.8974665E-009  0.1683179E+03  0.7561462E-02  0.1079505E+00
         22   -1    0    0    0    0  0.00000000000E+00  0.00000000000E+00  0.12959870444E+04  0.12959870444E+04  0.00000000000E+00 0. -1.
         22   -1    0    0    0    0 -0.00000000000E+00 -0.00000000000E+00 -0.11282875608E+04  0.11282875608E+04  0.00000000000E+00 0. -1.
        -24    2    1    2    0    0  0.71689222999E+02  0.87175400618E+02 -0.11033067147E+04  0.11118946142E+04  0.79278188538E+02 0.  0.
         25    2    1    2    0    0 -0.34922103753E+02 -0.91372417243E+02  0.31981394628E+03  0.35706879026E+03  0.12509471925E+03 0.  0.
         24    2    1    2    0    0 -0.36767119246E+02  0.41970166258E+01  0.95119225210E+03  0.95531120072E+03  0.80519275663E+02 0.  0.
        -13    1    5    5    0    0  0.49342719116E+01 -0.28771597816E+02  0.18622508123E+03  0.18849915851E+03  0.00000000000E+00 0.  1.
         14    1    5    5    0    0 -0.41701391158E+02  0.32968614442E+02  0.76496717087E+03  0.76681204221E+03  0.00000000000E+00 0. -1.
         13    1    3    3    0    0  0.79113948695E+02  0.91667928846E+02 -0.86545615240E+03  0.87388579219E+03  0.00000000000E+00 0. -1.
        -14    1    3    3    0    0 -0.74247256966E+01 -0.44925282281E+01 -0.23785056232E+03  0.23800882202E+03  0.00000000000E+00 0.  1.
          5    1    4    4  501    0 -0.34881007991E+02  0.68636736044E-01  0.21525505798E+03  0.21810296150E+03  0.41800000000E+01 0.  1.
         -5    1    4    4    0  501 -0.41095761859E-01 -0.91441053980E+02  0.10455888830E+03  0.13896582876E+03  0.41800000000E+01 0.  1.
</event>
<event>
11    1  0.8974665E-009  0.1513088E+03  0.7561462E-02  0.1095549E+00
         22   -1    0    0    0    0  0.00000000000E+00  0.00000000000E+00  0.25177991196E+03  0.25177991196E+03  0.00000000000E+00 0. -1.
         22   -1    0    0    0    0 -0.00000000000E+00 -0.00000000000E+00 -0.11876203048E+04  0.11876203048E+04  0.00000000000E+00 0.  1.
        -24    2    1    2    0    0 -0.41007760368E+02 -0.75100625005E+02 -0.11125534389E+04  0.11185674559E+04  0.78078542653E+02 0.  0.
         25    2    1    2    0    0  0.38877373003E+02  0.61523230818E+02  0.24023801457E+02  0.14670184239E+03  0.12509088481E+03 0.  0.
         24    2    1    2    0    0  0.21303873652E+01  0.13577394187E+02  0.15268924456E+03  0.17413091845E+03  0.82575342407E+02 0.  0.
        -11    1    5    5    0    0  0.40503013650E+02 -0.17265095152E+01  0.57407307481E+02  0.70278545104E+02  0.00000000000E+00 0.  1.
         12    1    5    5    0    0 -0.38372626284E+02  0.15303903702E+02  0.95281937078E+02  0.10385237335E+03  0.00000000000E+00 0. -1.
         11    1    3    3    0    0 -0.56039303697E+01 -0.68461703925E+02 -0.46865233256E+03  0.47365960114E+03  0.00000000000E+00 0. -1.
        -12    1    3    3    0    0 -0.35403829999E+02 -0.66389210802E+01 -0.64390110633E+03  0.64490785480E+03  0.00000000000E+00 0.  1.
          5    1    4    4  501    0  0.71336311524E+02  0.61345455171E+02  0.48406079554E+02  0.10589029771E+03  0.41800000000E+01 0.  1.
         -5    1    4    4    0  501 -0.32458938520E+02  0.17777564664E+00 -0.24382278097E+02  0.40811544681E+02  0.41800000000E+01 0.  1.
</event>
<event>
11    1  0.8974665E-009  0.1400460E+03  0.7561462E-02  0.1107507E+00
         22   -1    0    0    0    0  0.00000000000E+00  0.00000000000E+00  0.21532045756E+03  0.21532045756E+03  0.00000000000E+00 0.  1.
         22   -1    0    0    0    0 -0.00000000000E+00 -0.00000000000E+00 -0.86752888188E+03  0.86752888188E+03  0.00000000000E+00 0.  1.
        -24    2    1    2    0    0 -0.49857221922E+02 -0.29571356302E+02 -0.60018561982E+03  0.60827616729E+03  0.80105616302E+02 0.  0.
         25    2    1    2    0    0  0.86141479742E+02  0.36234866091E+02 -0.22864147954E+03  0.27687270659E+03  0.12509296317E+03 0.  0.
         24    2    1    2    0    0 -0.36284257820E+02 -0.66635097890E+01  0.17661867504E+03  0.19770046556E+03  0.80810692246E+02 0.  0.
        -11    1    5    5    0    0 -0.22443496576E+02 -0.26288662967E+02  0.16901086722E+03  0.17250935505E+03  0.00000000000E+00 0.  1.
         12    1    5    5    0    0 -0.13840761244E+02  0.19625153178E+02  0.76078078155E+01  0.25191110512E+02  0.00000000000E+00 0. -1.
         11    1    3    3    0    0  0.14200781141E+02 -0.29497045848E+02 -0.14812740104E+03  0.15170189464E+03  0.00000000000E+00 0. -1.
        -12    1    3    3    0    0 -0.64058003063E+02 -0.74310453660E-01 -0.45205821878E+03  0.45657427265E+03  0.00000000000E+00 0.  1.
          5    1    4    4  501    0  0.88272512285E+02  0.84368378200E+01 -0.23207390552E+03  0.24847331181E+03  0.41800000000E+01 0.  1.
         -5    1    4    4    0  501 -0.21310325430E+01  0.27798028271E+02  0.34324259850E+01  0.28399394775E+02  0.41800000000E+01 0.  1.
</event>
<event>
11    1  0.8974665E-009  0.1524139E+03  0.7561462E-02  0.1094437E+00
         22   -1    0    0    0    0  0.00000000000E+00  0.00000000000E+00  0.78615133693E+03  0.78615133693E+03  0.00000000000E+00 0.  1.
         22   -1    0    0    0    0 -0.00000000000E+00 -0.00000000000E+00 -0.83860659801E+03  0.83860659801E+03  0.00000000000E+00 0.  1.
        -24    2    1    2    0    0  0.69616885957E+01 -0.22545689651E+02 -0.76201392688E+03  0.76650235566E+03  0.79396871723E+02 0.  0.
         25    2    1    2    0    0  0.79997537037E+02  0.31143536032E+02  0.13755149142E+02  0.15233620474E+03  0.12509032487E+03 0.  0.
         24    2    1    2    0    0 -0.86959225633E+02 -0.85978463814E+01  0.69580351666E+03  0.70591937454E+03  0.80893755425E+02 0.  0.
        -11    1    5    5    0    0 -0.85780771969E+02 -0.96736752366E+01  0.69793695117E+03  0.70325522298E+03  0.00000000000E+00 0.  1.
         12    1    5    5    0    0 -0.11784536634E+01  0.10758288552E+01 -0.21334345083E+01  0.26641515654E+01  0.00000000000E+00 0. -1.
         13    1    3    3    0    0  0.23930461363E+02 -0.16649410949E+02 -0.97968184799E+02  0.10221367374E+03  0.00000000000E+00 0. -1.
        -14    1    3    3    0    0 -0.16968772767E+02 -0.58962787018E+01 -0.66404574208E+03  0.66428868192E+03  0.00000000000E+00 0.  1.
          5    1    4    4  501    0 -0.17097897435E+02 -0.19839782807E+02  0.31484613982E+02  0.41166836120E+02  0.41800000000E+01 0.  1.
         -5    1    4    4    0  501  0.97095434472E+02  0.50983318839E+02 -0.17729464841E+02  0.11116936862E+03  0.41800000000E+01 0.  1.
</event>
<event>
11    1  0.8974665E-009  0.1273451E+03  0.7561462E-02  0.1122575E+00
         22   -1    0    0    0    0  0.00000000000E+00  0.00000000000E+00  0.59765172107E+03  0.59765172107E+03  0.00000000000E+00 0.  1.
         22   -1    0    0    0    0 -0.00000000000E+00 -0.00000000000E+00 -0.44152481060E+03  0.44152481060E+03  0.00000000000E+00 0. -1.
         24    2    1    2    0    0  0.23457071429E+02  0.16326044463E+02 -0.31687902393E+03  0.32730675984E+03  0.76815527764E+02 0.  0.
         25    2    1    2    0    0 -0.33751827217E+02 -0.37113115835E+02 -0.77318312224E+02  0.15537972231E+03  0.12509263565E+03 0.  0.
        -24    2    1    2    0    0  0.10294755787E+02  0.20787071373E+02  0.55032424662E+03  0.55649004952E+03  0.79286281695E+02 0.  0.
        -11    1    3    3    0    0  0.27143026912E+02 -0.17249038708E+02 -0.58742609382E+02  0.66969899233E+02  0.00000000000E+00 0.  1.
         12    1    3    3    0    0 -0.36859554824E+01  0.33575083171E+02 -0.25813641454E+03  0.26033686061E+03  0.00000000000E+00 0. -1.
         11    1    5    5    0    0  0.15977764679E+02  0.27306038149E+02  0.79181325928E+02  0.85267760961E+02  0.00000000000E+00 0. -1.
        -12    1    5    5    0    0 -0.56830088911E+01 -0.65189667766E+01  0.47114292069E+03  0.47122228856E+03  0.00000000000E+00 0.  1.
          5    1    4    4  501    0  0.40215855624E+02 -0.13134641263E+02 -0.63311643397E+02  0.76260543102E+02  0.41800000000E+01 0. -1.
         -5    1    4    4    0  501 -0.73967682841E+02 -0.23978474572E+02 -0.14006668828E+02  0.79119179213E+02  0.41800000000E+01 0. -1.
</event>
<event>
11    1  0.8974665E-009  0.1744249E+03  0.7561462E-02  0.1074244E+00
         22   -1    0    0    0    0  0.00000000000E+00  0.00000000000E+00  0.21235414120E+04  0.21235414120E+04  0.00000000000E+00 0. -1.
         22   -1    0    0    0    0 -0.00000000000E+00 -0.00000000000E+00 -0.91820501825E+02  0.91820501825E+02  0.00000000000E+00 0. -1.
         24    2    1    2    0    0 -0.10633658559E+01 -0.13837768402E+01 -0.58546837245E+02  0.10003299194E+03  0.81091440613E+02 0.  0.
         25    2    1    2    0    0 -0.11143796735E+03 -0.46785526183E+02  0.13273912050E+04  0.13387400258E+04  0.12510051787E+03 0.  0.
        -24    2    1    2    0    0  0.11250133321E+03  0.48169303024E+02  0.76287654252E+03  0.77658889617E+03  0.78312596654E+02 0.  0.
        -13    1    3    3    0    0 -0.74724365668E+01 -0.40630872287E+02 -0.28449032567E+02  0.50160268590E+02  0.00000000000E+00 0.  1.
         14    1    3    3    0    0  0.64090707109E+01  0.39247095446E+02 -0.30097804678E+02  0.49872723354E+02  0.00000000000E+00 0. -1.
         11    1    5    5    0    0  0.12454549972E+03  0.47265138702E+02  0.69858832613E+03  0.71117594464E+03  0.00000000000E+00 0. -1.
        -12    1    5    5    0    0 -0.12044166513E+02  0.90416432122E+00  0.64288216393E+02  0.65412951524E+02  0.00000000000E+00 0.  1.
          5    1    4    4  501    0 -0.13176153594E+03 -0.23132161389E+02  0.86647934988E+03  0.87675545930E+03  0.41800000000E+01 0.  1.
         -5    1    4    4    0  501  0.20323568584E+02 -0.23653364795E+02  0.46091185507E+03  0.46198456646E+03  0.41800000000E+01 0.  1.
</event>
<event>
11    1  0.8974665E-009  0.1292467E+03  0.7561462E-02  0.1120198E+00
         22   -1    0    0    0    0  0.00000000000E+00  0.00000000000E+00  0.87488703096E+02  0.87488703096E+02  0.00000000000E+00 0. -1.
         22   -1    0    0    0    0 -0.00000000000E+00 -0.00000000000E+00 -0.14998749847E+04  0.14998749847E+04  0.00000000000E+00 0. -1.
         24    2    1    2    0    0 -0.20524098312E+01  0.15190863900E+02 -0.95943809716E+03  0.96286791805E+03  0.79738263131E+02 0.  0.
         25    2    1    2    0    0  0.29018373998E+02  0.34570046981E+01 -0.50822299585E+03  0.52420709186E+03  0.12509374380E+03 0.  0.
        -24    2    1    2    0    0 -0.26965964167E+02 -0.18647868598E+02  0.55274811382E+02  0.10028867790E+03  0.76990959958E+02 0.  0.
        -11    1    3    3    0    0  0.27857704221E+02  0.34648278186E+02 -0.45389019894E+03  0.45606235051E+03  0.00000000000E+00 0.  1.
         12    1    3    3    0    0 -0.29910114052E+02 -0.19457414286E+02 -0.50554789822E+03  0.50680556754E+03  0.00000000000E+00 0. -1.
         11    1    5    5    0    0 -0.32682738972E+02  0.10928650154E+02  0.60584931231E+02  0.69700292059E+02  0.00000000000E+00 0. -1.
        -12    1    5    5    0    0  0.57167748045E+01 -0.29576518752E+02 -0.53101198488E+01  0.30588385843E+02  0.00000000000E+00 0.  1.
          5    1    4    4  501    0  0.45482594322E+02  0.87555842608E+01 -0.50370683445E+03  0.50584916142E+03  0.41800000000E+01 0. -1.
         -5    1    4    4    0  501 -0.16464220324E+02 -0.52985795627E+01 -0.45161614021E+01  0.18357930440E+02  0.41800000000E+01 0. -1.
</event>
<event>
11    1  0.8974665E-009  0.1400509E+03  0.7561462E-02  0.1107502E+00
         22   -1    0    0    0    0  0.00000000000E+00  0.00000000000E+00  0.84198304693E+03  0.84198304693E+03  0.00000000000E+00 0. -1.
         22   -1    0    0    0    0 -0.00000000000E+00 -0.00000000000E+00 -0.25180011553E+04  0.25180011553E+04  0.00000000000E+00 0. -1.
        -24    2    1    2    0    0 -0.36043229367E+00  0.34523007466E+02 -0.24924317247E+04  0.24939268314E+04  0.79140193823E+02 0.  0.
         25    2    1    2    0    0 -0.10271277657E+02  0.33801859136E+02  0.18737397223E+03  0.22804611157E+03  0.12509180112E+03 0.  0.
         24    2    1    2    0    0  0.10631709950E+02 -0.68324866602E+02  0.62903964401E+03  0.63801125931E+03  0.81155237772E+02 0.  0.
        -11    1    5    5    0    0  0.25491439269E+02 -0.69424809827E+02  0.31292960565E+03  0.32155023836E+03  0.00000000000E+00 0.  1.
         12    1    5    5    0    0 -0.14859729318E+02  0.10999432251E+01  0.31611003836E+03  0.31646102095E+03  0.00000000000E+00 0. -1.
         13    1    3    3    0    0 -0.11738888022E+02  0.53346315863E+02 -0.21964033353E+04  0.21970824387E+04  0.00000000000E+00 0. -1.
        -14    1    3    3    0    0  0.11378455729E+02 -0.18823308397E+02 -0.29602838931E+03  0.29684439269E+03  0.00000000000E+00 0.  1.
          5    1    4    4  501    0  0.15555866078E+02  0.26656583037E+02 -0.68897804147E+01  0.31898273665E+02  0.41800000000E+01 0.  1.
         -5    1    4    4    0  501 -0.25827143734E+02  0.71452760992E+01  0.19426375264E+03  0.19614783791E+03  0.41800000000E+01 0.  1.
</event>
<event>
11    1  0.8974665E-009  0.1510399E+03  0.7561462E-02  0.1095821E+00
         22   -1    0    0    0    0  0.00000000000E+00  0.00000000000E+00  0.20461417997E+03  0.20461417997E+03  0.00000000000E+00 0.  1.
         22   -1    0    0    0    0 -0.00000000000E+00 -0.00000000000E+00 -0.95166774753E+03  0.95166774753E+03  0.00000000000E+00 0.  1.
        -24    2    1    2    0    0  0.26393090044E-01  0.10637450167E+02 -0.74848466562E+03  0.75284684897E+03  0.80224231315E+02 0.  0.
         25    2    1    2    0    0  0.51537186745E+02  0.57557325012E+02 -0.15110111102E+03  0.21082688327E+03  0.12508997434E+03 0.  0.
         24    2    1    2    0    0 -0.51563579835E+02 -0.68194775179E+02  0.15253220908E+03  0.19260819526E+03  0.80762069985E+02 0.  0.
        -13    1    5    5    0    0 -0.64071427258E+02 -0.74868960588E+02  0.14784620158E+03  0.17767669620E+03  0.00000000000E+00 0.  1.
         14    1    5    5    0    0  0.12507847423E+02  0.66741854086E+01  0.46860075017E+01  0.14931499065E+02  0.00000000000E+00 0. -1.
         11    1    3    3    0    0 -0.83980806129E+01  0.44881603472E+02 -0.42080549238E+03  0.42327549953E+03  0.00000000000E+00 0. -1.
        -12    1    3    3    0    0  0.84244737030E+01 -0.34244153305E+02 -0.32767917324E+03  0.32957134944E+03  0.00000000000E+00 0.  1.
          5    1    4    4  501    0  0.28141457383E+02  0.61148983416E+02 -0.10583969230E+02  0.68268825983E+02  0.41800000000E+01 0. -1.
         -5    1    4    4    0  501  0.23395729362E+02 -0.35916584040E+01 -0.14051714179E+03  0.14255805729E+03  0.41800000000E+01 0. -1.
</event>
<event>
11    1  0.8974665E-009  0.1854779E+03  0.7561462E-02  0.1065296E+00
         22   -1    0    0    0    0  0.00000000000E+00  0.00000000000E+00  0.16195157430E+04  0.16195157430E+04  0.00000000000E+00 0.  1.
         22   -1    0    0    0    0 -0.00000000000E+00 -0.00000000000E+00 -0.46597794931E+03  0.46597794931E+03  0.00000000000E+00 0. -1.
        -24    2    1    2    0    0  0.73933414061E+02 -0.12018879520E+03 -0.34304218600E+03  0.38261411066E+03  0.93830272798E+02 0.  0.
         25    2    1    2    0    0  0.75478058363E+01  0.13898782371E+03 -0.14215837544E+02  0.18768212873E+03  0.12509159402E+03 0.  0.
         24    2    1    2    0    0 -0.81481219897E+02 -0.18799028510E+02  0.15107958172E+04  0.15151974529E+04  0.79540727384E+02 0.  0.
        -11    1    5    5    0    0 -0.72346162395E+02 -0.22722275321E+01  0.14431884980E+04  0.14450024813E+04  0.00000000000E+00 0.  1.
         12    1    5    5    0    0 -0.91350575024E+01 -0.16526800978E+02  0.67607319213E+02  0.70194971596E+02  0.00000000000E+00 0. -1.
         11    1    3    3    0    0  0.74994589662E+02 -0.12418806563E+03 -0.34747850853E+03  0.37654771014E+03  0.00000000000E+00 0. -1.
        -12    1    3    3    0    0 -0.10611756015E+01  0.39992704333E+01  0.44363225281E+01  0.60664005167E+01  0.00000000000E+00 0.  1.
          5    1    4    4  501    0  0.42943224415E+02  0.14206720114E+03  0.18025348281E+01  0.14848545954E+03  0.41800000000E+01 0.  1.
         -5    1    4    4    0  501 -0.35395418579E+02 -0.30793774376E+01 -0.16018372372E+02  0.39196669185E+02  0.41800000000E+01 0.  1.
</event>
<event>
11    1  0.8974665E-009  0.1935329E+03  0.7561462E-02  0.1059193E+00
         22   -1    0    0    0    0  0.00000000000E+00  0.00000000000E+00  0.79396815907E+03  0.79396815907E+03  0.00000000000E+00 0.  1.
         22   -1    0    0    0    0 -0.00000000000E+00 -0.00000000000E+00 -0.45733101537E+03  0.45733101537E+03  0.00000000000E+00 0. -1.
        -24    2    1    2    0    0  0.80850109582E+02 -0.74294650659E+01 -0.23655978519E+03  0.26263314035E+03  0.80147971105E+02 0.  0.
         25    2    1    2    0    0 -0.21870928242E+02 -0.12992414710E+03 -0.15613228863E+03  0.23954718537E+03  0.12508773307E+03 0.  0.
         24    2    1    2    0    0 -0.58979181339E+02  0.13735361216E+03  0.72932921752E+03  0.74911884872E+03  0.83146758093E+02 0.  0.
        -11    1    5    5    0    0 -0.52908736814E+02  0.46434422200E+02  0.44532657762E+03  0.45085613086E+03  0.00000000000E+00 0.  1.
         12    1    5    5    0    0 -0.60704445255E+01  0.90919189962E+02  0.28400263990E+03  0.29826271787E+03  0.00000000000E+00 0. -1.
         11    1    3    3    0    0  0.85145051324E+02 -0.30491051978E+02 -0.18150914522E+03  0.20279288403E+03  0.00000000000E+00 0. -1.
        -12    1    3    3    0    0 -0.42949417419E+01  0.23061586912E+02 -0.55050639971E+02  0.59840256322E+02  0.00000000000E+00 0.  1.
          5    1    4    4  501    0  0.42397679987E+02 -0.89622924313E+02 -0.11911507399E+03  0.15503452868E+03  0.41800000000E+01 0.  1.
         -5    1    4    4    0  501 -0.64268608229E+02 -0.40301222783E+02 -0.37017214640E+02  0.84512656692E+02  0.41800000000E+01 0.  1.
</event>
<event>
11    1  0.8974665E-009  0.1995255E+03  0.7561462E-02  0.1054860E+00
         22   -1    0    0    0    0  0.00000000000E+00  0.00000000000E+00  0.84857137871E+03  0.84857137871E+03  0.00000000000E+00 0.  1.
         22   -1    0    0    0    0 -0.00000000000E+00 -0.00000000000E+00 -0.19220540747E+04  0.19220540747E+04  0.00000000000E+00 0.  1.
         24    2    1    2    0    0  0.93288055443E+02  0.82671016018E+02 -0.16075240214E+04  0.16143270133E+04  0.79881590151E+02 0.  0.
         25    2    1    2    0    0 -0.24573933509E+03 -0.87009135493E+02 -0.23235840543E+03  0.37093950724E+03  0.12508908421E+03 0.  0.
        -24    2    1    2    0    0  0.15245127965E+03  0.43381194744E+01  0.76639973084E+03  0.78535893282E+03  0.78484992102E+02 0.  0.
        -13    1    3    3    0    0  0.10277729662E+03  0.75703148920E+02 -0.15651897345E+04  0.15703862724E+04  0.00000000000E+00 0.  1.
         14    1    3    3    0    0 -0.94892411721E+01  0.69678670979E+01 -0.42334286896E+02  0.43940740969E+02  0.00000000000E+00 0. -1.
         11    1    5    5    0    0  0.45721232124E+02 -0.29369405766E+02  0.34934912420E+03  0.35355028446E+03  0.00000000000E+00 0. -1.
        -12    1    5    5    0    0  0.10673004753E+03  0.33707525240E+02  0.41705060664E+03  0.43180864837E+03  0.00000000000E+00 0.  1.
          5    1    4    4  501    0 -0.22191708637E+03 -0.97669275088E+02 -0.15164191078E+03  0.28600563286E+03  0.41800000000E+01 0.  1.
         -5    1    4    4    0  501 -0.23822248722E+02  0.10660139596E+02 -0.80716494643E+02  0.84933874384E+02  0.41800000000E+01 0.  1.
</event>
<event>
11    1  0.8974665E-009  0.1536072E+03  0.7561462E-02  0.1093249E+00
         22   -1    0    0    0    0  0.00000000000E+00  0.00000000000E+00  0.16871281852E+04  0.16871281852E+04  0.00000000000E+00 0. -1.
         22   -1    0    0    0    0 -0.00000000000E+00 -0.00000000000E+00 -0.67898215647E+03  0.67898215647E+03  0.00000000000E+00 0.  1.
         24    2    1    2    0    0  0.61643689931E+02  0.44308420665E+02 -0.63057286937E+03  0.64002564058E+03  0.79041105563E+02 0.  0.
         25    2    1    2    0    0 -0.15240377841E+02 -0.11996038279E+03  0.14208789640E+03  0.22462982754E+03  0.12508727578E+03 0.  0.
        -24    2    1    2    0    0 -0.46403312090E+02  0.75651962121E+02  0.14966310017E+04  0.15014548736E+04  0.81153529208E+02 0.  0.
        -11    1    3    3    0    0  0.71507639904E+02  0.50241931286E+02 -0.61175809923E+03  0.61796890390E+03  0.00000000000E+00 0.  1.
         12    1    3    3    0    0 -0.98639499728E+01 -0.59335106205E+01 -0.18814770141E+02  0.22056736676E+02  0.00000000000E+00 0. -1.
         11    1    5    5    0    0 -0.31660726658E+02  0.92124909318E+02  0.12788411461E+04  0.12825459359E+04  0.00000000000E+00 0. -1.
        -12    1    5    5    0    0 -0.14742585432E+02 -0.16472947197E+02  0.21778985557E+03  0.21890893769E+03  0.00000000000E+00 0.  1.
          5    1    4    4  501    0  0.40807615332E+02 -0.13106692717E+02  0.73045267551E+01  0.43679232757E+02  0.41800000000E+01 0. -1.
         -5    1    4    4    0  501 -0.56047993173E+02 -0.10685369007E+03  0.13478336964E+03  0.18095059478E+03  0.41800000000E+01 0. -1.
</event>
<event>
11    1  0.8974665E-009  0.1705536E+03  0.7561462E-02  0.1077551E+00
         22   -1    0    0    0    0  0.00000000000E+00  0.00000000000E+00  0.35224536187E+04  0.35224536187E+04  0.00000000000E+00 0. -1.
         22   -1    0    0    0    0 -0.00000000000E+00 -0.00000000000E+00 -0.25838942672E+03  0.25838942672E+03  0.00000000000E+00 0.  1.
         24    2    1    2    0    0  0.57806989391E+00 -0.11854470368E+02 -0.22508277481E+03  0.24029417602E+03  0.83295695465E+02 0.  0.
         25    2    1    2    0    0  0.53034329097E+02  0.11391965567E+03  0.30231018495E+03  0.35047033897E+03  0.12509069736E+03 0.  0.
        -24    2    1    2    0    0 -0.53612398991E+02 -0.10206518530E+03  0.31868367818E+04  0.31900785304E+04  0.85911377597E+02 0.  0.
        -11    1    3    3    0    0 -0.12559315718E+02 -0.41935038043E+02 -0.17515877450E+03  0.18054606092E+03  0.00000000000E+00 0.  1.
         12    1    3    3    0    0  0.13137385612E+02  0.30080567675E+02 -0.49924000302E+02  0.59748115104E+02  0.00000000000E+00 0. -1.
         11    1    5    5    0    0  0.22930827592E+01 -0.32154510256E+02  0.18340842101E+04  0.18343674824E+04  0.00000000000E+00 0. -1.
        -12    1    5    5    0    0 -0.55905481750E+02 -0.69910675040E+02  0.13527525717E+04  0.13557110480E+04  0.00000000000E+00 0.  1.
          5    1    4    4  501    0  0.38323131120E+02  0.21873111041E+02  0.22491666799E+03  0.22924239422E+03  0.41800000000E+01 0. -1.
         -5    1    4    4    0  501  0.14711197977E+02  0.92046544624E+02  0.77393516960E+02  0.12122794476E+03  0.41800000000E+01 0. -1.
</event>
<event>
11    1  0.8974665E-009  0.1383275E+03  0.7561462E-02  0.1109440E+00
         22   -1    0    0    0    0  0.00000000000E+00  0.00000000000E+00  0.55432201901E+03  0.55432201901E+03  0.00000000000E+00 0.  1.
         22   -1    0    0    0    0 -0.00000000000E+00 -0.00000000000E+00 -0.16300035116E+03  0.16300035116E+03  0.00000000000E+00 0. -1.
        -24    2    1    2    0    0 -0.30080368996E+02  0.25034211381E+02 -0.96086017660E+02  0.13111773551E+03  0.80173545749E+02 0.  0.
         25    2    1    2    0    0 -0.31604306015E+02 -0.87735501592E+01  0.55108056792E+02  0.14057234097E+03  0.12509147765E+03 0.  0.
         24    2    1    2    0    0  0.61684675011E+02 -0.16260661222E+02  0.43229962872E+03  0.44563229369E+03  0.87382858477E+02 0.  0.
        -13    1    5    5    0    0  0.27717387745E+02 -0.16937531338E+02  0.39012847806E+03  0.39147843228E+03  0.00000000000E+00 0.  1.
         14    1    5    5    0    0  0.33967287266E+02  0.67687011566E+00  0.42171150663E+02  0.54153861410E+02  0.00000000000E+00 0. -1.
         13    1    3    3    0    0 -0.42444396320E+02  0.39934402196E+02 -0.95340808728E+02  0.11174145635E+03  0.00000000000E+00 0. -1.
        -14    1    3    3    0    0  0.12364027324E+02 -0.14900190814E+02 -0.74520893206E+00  0.19376279166E+02  0.00000000000E+00 0.  1.
          5    1    4    4  501    0  0.15286923733E+02 -0.18027573901E+02 -0.32668818477E+02  0.40538963463E+02  0.41800000000E+01 0.  1.
         -5    1    4    4    0  501 -0.46891229748E+02  0.92540237420E+01  0.87776875269E+02  0.10003337750E+03  0.41800000000E+01 0.  1.
</event>
<event>
11    1  0.8974665E-009  0.1834140E+03  0.7561462E-02  0.1066914E+00
         22   -1    0    0    0    0  0.00000000000E+00  0.00000000000E+00  0.57781944691E+02  0.57781944691E+02  0.00000000000E+00 0. -1.
         22   -1    0    0    0    0 -0.00000000000E+00 -0.00000000000E+00 -0.18888410428E+04  0.18888410428E+04  0.00000000000E+00 0.  1.
        -24    2    1    2    0    0 -0.30067046442E+02 -0.60170929209E+02 -0.12677941202E+04  0.12713419767E+04  0.66962096877E+02 0.  0.
         25    2    1    2    0    0  0.14795186242E+03  0.88202028745E+02 -0.41912238299E+03  0.47008528643E+03  0.12508898083E+03 0.  0.
         24    2    1    2    0    0 -0.11788481598E+03 -0.28031099536E+02 -0.14414259487E+03  0.20519572435E+03  0.81520704448E+02 0.  0.
        -13    1    5    5    0    0 -0.21567536232E+02 -0.28583715629E+00 -0.87385436034E+02  0.90008081597E+02  0.00000000000E+00 0.  1.
         14    1    5    5    0    0 -0.96317279750E+02 -0.27745262380E+02 -0.56757158840E+02  0.11518764275E+03  0.00000000000E+00 0. -1.
         13    1    3    3    0    0  0.10957044403E+02 -0.29500725622E+02 -0.21376637136E+03  0.21607038473E+03  0.00000000000E+00 0. -1.
        -14    1    3    3    0    0 -0.41024090845E+02 -0.30670203586E+02 -0.10540277489E+04  0.10552715920E+04  0.00000000000E+00 0.  1.
          5    1    4    4  501    0  0.31185116661E+02 -0.57615093341E+00 -0.64830775643E+01  0.32130143880E+02  0.41800000000E+01 0.  1.
         -5    1    4    4    0  501  0.11676674576E+03  0.88778179678E+02 -0.41263930543E+03  0.43795514255E+03  0.41800000000E+01 0.  1.
</event>
<event>
11    1  0.8974665E-009  0.1362109E+03  0.7561462E-02  0.1111865E+00
         22   -1    0    0    0    0  0.00000000000E+00  0.00000000000E+00  0.19603684272E+03  0.19603684272E+03  0.00000000000E+00 0.  1.
         22   -1    0    0    0    0 -0.00000000000E+00 -0.00000000000E+00 -0.10823522617E+04  0.10823522617E+04  0.00000000000E+00 0. -1.
        -24    2    1    2    0    0  0.24155837861E+02  0.46692891582E+02 -0.80066466995E+03  0.80645963969E+03  0.80929019034E+02 0.  0.
         25    2    1    2    0    0 -0.28252393971E+02 -0.55466831377E+02 -0.25116183003E+03  0.28741036880E+03  0.12509071940E+03 0.  0.
         24    2    1    2    0    0  0.40965561101E+01  0.87739397954E+01  0.16551108104E+03  0.18451909589E+03  0.80991450227E+02 0.  0.
        -13    1    5    5    0    0 -0.23185606667E+01  0.44749588457E+02  0.84452806313E+02  0.95604277544E+02  0.00000000000E+00 0.  1.
         14    1    5    5    0    0  0.64151167768E+01 -0.35975648662E+02  0.81058274725E+02  0.88914818345E+02  0.00000000000E+00 0. -1.
         13    1    3    3    0    0  0.24868991525E+02  0.66116517715E+02 -0.72125323203E+03  0.72470413644E+03  0.00000000000E+00 0. -1.
        -14    1    3    3    0    0 -0.71315366377E+00 -0.19423626133E+02 -0.79411437912E+02  0.81755503249E+02  0.00000000000E+00 0.  1.
          5    1    4    4  501    0  0.33830954456E+01  0.27527299157E+02 -0.15054028843E+03  0.15313082111E+03  0.41800000000E+01 0.  1.
         -5    1    4    4    0  501 -0.31635489417E+02 -0.82994130534E+02 -0.10062154161E+03  0.13427954770E+03  0.41800000000E+01 0.  1.
</event>
<event>
11    1  0.8974665E-009  0.1569621E+03  0.7561462E-02  0.1089970E+00
         22   -1    0    0    0    0  0.00000000000E+00  0.00000000000E+00  0.92533214079E+03  0.92533214079E+03  0.00000000000E+00 0.  1.
         22   -1    0    0    0    0 -0.00000000000E+00 -0.00000000000E+00 -0.26178390759E+03  0.26178390759E+03  0.00000000000E+00 0.  1.
        -24    2    1    2    0    0 -0.72143187478E+02 -0.64586303835E+02 -0.22735184506E+03  0.26003394663E+03  0.80949130981E+02 0.  0.
         25    2    1    2    0    0 -0.42722263842E+01  0.66965237924E+02  0.41590535674E+03  0.43946271147E+03  0.12509042328E+03 0.  0.
         24    2    1    2    0    0  0.76415413862E+02 -0.23789340890E+01  0.47499472151E+03  0.48761939027E+03  0.79421089769E+02 0.  0.
        -13    1    5    5    0    0  0.70767655582E+02 -0.42562052870E+01  0.47628251920E+03  0.48153007638E+03  0.00000000000E+00 0.  1.
         14    1    5    5    0    0  0.56477582804E+01  0.18772711980E+01 -0.12877976922E+01  0.60893138891E+01  0.00000000000E+00 0. -1.
         11    1    3    3    0    0 -0.29215522023E+02 -0.16236842680E+02 -0.12534516816E+02  0.35697281396E+02  0.00000000000E+00 0. -1.
        -12    1    3    3    0    0 -0.42927665455E+02 -0.48349461155E+02 -0.21481732825E+03  0.22433666524E+03  0.00000000000E+00 0.  1.
          5    1    4    4  501    0  0.67648856759E+01  0.41748871430E+02  0.28756725922E+02  0.51314263413E+02  0.41800000000E+01 0. -1.
         -5    1    4    4    0  501 -0.11037112060E+02  0.25216366494E+02  0.38714863082E+03  0.38814844806E+03  0.41800000000E+01 0. -1.
</event>
<event>
11    1  0.8974665E-009  0.1381907E+03  0.7561462E-02  0.1109596E+00
         22   -1    0    0    0    0  0.00000000000E+00  0.00000000000E+00  0.82460687079E+03  0.82460687079E+03  0.00000000000E+00 0. -1.
         22   -1    0    0    0    0 -0.00000000000E+00 -0.00000000000E+00 -0.47723428741E+03  0.47723428741E+03  0.00000000000E+00 0.  1.
         24    2    1    2    0    0 -0.50564913010E+01 -0.10327071671E+02 -0.38492823855E+03  0.39327661608E+03  0.79778013297E+02 0.  0.
         25    2    1    2    0    0  0.21225145932E+02 -0.46464171891E+02 -0.31058139929E+02  0.13864139292E+03  0.12508957464E+03 0.  0.
        -24    2    1    2    0    0 -0.16168654631E+02  0.56791243562E+02  0.76335896186E+03  0.76992314921E+03  0.81105365435E+02 0.  0.
        -11    1    3    3    0    0  0.18024928166E+01 -0.17728612005E+02 -0.38247733230E+03  0.38289223338E+03  0.00000000000E+00 0.  1.
         12    1    3    3    0    0 -0.68589841177E+01  0.74015403333E+01 -0.24509062513E+01  0.10384382692E+02  0.00000000000E+00 0. -1.
         13    1    5    5    0    0 -0.15031447852E+02  0.59312412199E+02  0.28224437782E+03  0.28880061544E+03  0.00000000000E+00 0. -1.
        -14    1    5    5    0    0 -0.11372067787E+01 -0.25211686371E+01  0.48111458403E+03  0.48112253377E+03  0.00000000000E+00 0.  1.
          5    1    4    4  501    0 -0.95685695759E+01 -0.84645487674E+02 -0.13359120587E+02  0.86327021321E+02  0.41800000000E+01 0. -1.
         -5    1    4    4    0  501  0.30793715508E+02  0.38181315783E+02 -0.17699019343E+02  0.52314371595E+02  0.41800000000E+01 0. -1.
</event>
<event>
11    1  0.8974665E-009  0.4225231E+03  0.7561462E-02  0.9585544E-01
         22   -1    0    0    0    0  0.00000000000E+00  0.00000000000E+00  0.11056964364E+04  0.11056964364E+04  0.00000000000E+00 0. -1.
         22   -1    0    0    0    0 -0.00000000000E+00 -0.00000000000E+00 -0.70686243407E+03  0.70686243407E+03  0.00000000000E+00 0. -1.
        -24    2    1    2    0    0 -0.11947707163E+03 -0.37612356548E+03 -0.30984346416E+03  0.50804393520E+03  0.79761899786E+02 0.  0.
         25    2    1    2    0    0  0.25399382796E+03  0.35059033227E+03 -0.11566075797E+03  0.46524310236E+03  0.12508911878E+03 0.  0.
         24    2    1    2    0    0 -0.13451675633E+03  0.25533233209E+02  0.82433822443E+03  0.83927183288E+03  0.78083272641E+02 0.  0.
        -11    1    5    5    0    0  0.74832595036E+01  0.75665024370E+01  0.24260697913E+02  0.26492123266E+02  0.00000000000E+00 0.  1.
         12    1    5    5    0    0 -0.14200001583E+03  0.17966730772E+02  0.80007752652E+03  0.81277970961E+03  0.00000000000E+00 0. -1.
         11    1    3    3    0    0 -0.85742321443E+02 -0.33922335826E+03 -0.24980911489E+03  0.42991723199E+03  0.00000000000E+00 0. -1.
        -12    1    3    3    0    0 -0.33734750189E+02 -0.36900207217E+02 -0.60034349265E+02  0.78126703211E+02  0.00000000000E+00 0.  1.
          5    1    4    4  501    0  0.73019333652E+02  0.12815859861E+03 -0.99562890231E+02  0.17800755881E+03  0.41800000000E+01 0.  1.
         -5    1    4    4    0  501  0.18097449431E+03  0.22243173366E+03 -0.16097867740E+02  0.28723554355E+03  0.41800000000E+01 0.  1.
</event>
<event>
11    1  0.8974665E-009  0.1612583E+03  0.7561462E-02  0.1085900E+00
         22   -1    0    0    0    0  0.00000000000E+00  0.00000000000E+00  0.35199539244E+03  0.35199539244E+03  0.00000000000E+00 0. -1.
         22   -1    0    0    0    0 -0.00000000000E+00 -0.00000000000E+00 -0.67463490185E+03  0.67463490185E+03  0.00000000000E+00 0. -1.
         24    2    1    2    0    0  0.21082246589E+02  0.12240190256E+02 -0.56215785896E+03  0.56839130823E+03  0.80330178078E+02 0.  0.
         25    2    1    2    0    0 -0.48122353123E+02  0.86690837449E+02 -0.27332201224E+02  0.16194327945E+03  0.12509002505E+03 0.  0.
        -24    2    1    2    0    0  0.27040106534E+02 -0.98931027705E+02  0.26685055077E+03  0.29629570662E+03  0.77867924788E+02 0.  0.
        -11    1    3    3    0    0  0.36843126101E+02  0.38048165712E+02 -0.39284812621E+03  0.39640223148E+03  0.00000000000E+00 0.  1.
         12    1    3    3    0    0 -0.15760879511E+02 -0.25807975456E+02 -0.16930973275E+03  0.17198907676E+03  0.00000000000E+00 0. -1.
         13    1    5    5    0    0  0.46766961802E+02 -0.29292196802E+02  0.13584450210E+03  0.14662506696E+03  0.00000000000E+00 0. -1.
        -14    1    5    5    0    0 -0.19726855268E+02 -0.69638830904E+02  0.13100604866E+03  0.14967063965E+03  0.00000000000E+00 0.  1.
          5    1    4    4  501    0  0.35700560002E+02  0.15494437409E+02 -0.33771922882E+02  0.51697415315E+02  0.41800000000E+01 0. -1.
         -5    1    4    4    0  501 -0.83822913125E+02  0.71196400040E+02  0.64397216580E+01  0.11024586413E+03  0.41800000000E+01 0. -1.
</event>
<event>
11    1  0.8974665E-009  0.1277109E+03  0.7561462E-02  0.1122114E+00
         22   -1    0    0    0    0  0.00000000000E+00  0.00000000000E+00  0.10279884071E+04  0.10279884071E+04  0.00000000000E+00 0.  1.
         22   -1    0    0    0    0 -0.00000000000E+00 -0.00000000000E+00 -0.21178883264E+03  0.21178883264E+03  0.00000000000E+00 0. -1.
        -24    2    1    2    0    0  0.15048145630E+02 -0.20214403580E+02 -0.14304036556E+03  0.16559820213E+03  0.79543381677E+02 0.  0.
         25    2    1    2    0    0 -0.57350089916E+01  0.31605513754E+02  0.19194778317E+02  0.13056778657E+03  0.12509080121E+03 0.  0.
         24    2    1    2    0    0 -0.93131366387E+01 -0.11391110174E+02  0.94004516174E+03  0.94361125107E+03  0.80627508583E+02 0.  0.
        -13    1    5    5    0    0 -0.10940006861E+02  0.15553005345E+02  0.83293834039E+03  0.83315536283E+03  0.00000000000E+00 0.  1.
         14    1    5    5    0    0  0.16268702218E+01 -0.26944115519E+02  0.10710682135E+03  0.11045588825E+03  0.00000000000E+00 0. -1.
         13    1    3    3    0    0  0.36060020013E+02  0.11632731171E+02 -0.10539397555E+03  0.11199792659E+03  0.00000000000E+00 0. -1.
        -14    1    3    3    0    0 -0.21011874383E+02 -0.31847134751E+02 -0.37646390013E+02  0.53600275540E+02  0.00000000000E+00 0.  1.
          5    1    4    4  501    0 -0.60016996254E+02 -0.94536293071E+01  0.11020647924E+02  0.61889724729E+02  0.41800000000E+01 0. -1.
         -5    1    4    4    0  501  0.54281987262E+02  0.41059143061E+02  0.81741303927E+01  0.68678061837E+02  0.41800000000E+01 0. -1.
</event>
<event>
11    1  0.8974665E-009  0.2405378E+03  0.7561462E-02  0.1029064E+00
         22   -1    0    0    0    0  0.00000000000E+00  0.00000000000E+00  0.13099841330E+04  0.13099841330E+04  0.00000000000E+00 0.  1.
         22   -1    0    0    0    0 -0.00000000000E+00 -0.00000000000E+00 -0.10256361008E+03  0.10256361008E+03  0.00000000000E+00 0.  1.
        -24    2    1    2    0    0 -0.65971387168E+02  0.16033024698E+02  0.19989109077E+02  0.12145347326E+03  0.98702076371E+02 0.  0.
         25    2    1    2    0    0  0.92305162211E+02  0.18896895983E+03  0.36626855419E+03  0.44048801819E+03  0.12509008606E+03 0.  0.
         24    2    1    2    0    0 -0.26333775043E+02 -0.20500198453E+03  0.82116285965E+03  0.85060625162E+03  0.80642866091E+02 0.  0.
        -13    1    5    5    0    0  0.51524479376E+01 -0.92699720567E+02  0.50832280089E+03  0.51673189937E+03  0.00000000000E+00 0.  1.
         14    1    5    5    0    0 -0.31486222980E+02 -0.11230226396E+03  0.31284005876E+03  0.33387435225E+03  0.00000000000E+00 0. -1.
         13    1    3    3    0    0 -0.25497903405E+02 -0.41809799602E+02  0.11886003758E+02  0.50393248617E+02  0.00000000000E+00 0. -1.
        -14    1    3    3    0    0 -0.40473483763E+02  0.57842824300E+02  0.81031053194E+01  0.71060224646E+02  0.00000000000E+00 0.  1.
          5    1    4    4  501    0 -0.21563714293E+02  0.48351310590E+01  0.69984409117E+02  0.73509606079E+02  0.41800000000E+01 0.  1.
         -5    1    4    4    0  501  0.11386887650E+03  0.18413382877E+03  0.29628414507E+03  0.36697841211E+03  0.41800000000E+01 0.  1.
</event>
<event>
11    1  0.8974665E-009  0.1614930E+03  0.7561462E-02  0.1085681E+00
         22   -1    0    0    0    0  0.00000000000E+00  0.00000000000E+00  0.15069328954E+04  0.15069328954E+04  0.00000000000E+00 0.  1.
         22   -1    0    0    0    0 -0.00000000000E+00 -0.00000000000E+00 -0.73418438065E+02  0.73418438065E+02  0.00000000000E+00 0.  1.
         24    2    1    2    0    0  0.41135475688E+01  0.24542297917E+02  0.10481816130E+03  0.13447122664E+03  0.80476196448E+02 0.  0.
         25    2    1    2    0    0  0.91000663068E+02 -0.60941435235E+02  0.70171934226E+02  0.18046119834E+03  0.12508862677E+03 0.  0.
        -24    2    1    2    0    0 -0.95114210637E+02  0.36399137318E+02  0.12585243618E+04  0.12654189085E+04  0.83844107825E+02 0.  0.
        -11    1    3    3    0    0 -0.82841311985E+01  0.42095902786E+02  0.20671216091E+02  0.47623429483E+02  0.00000000000E+00 0.  1.
         12    1    3    3    0    0  0.12397678767E+02 -0.17553604869E+02  0.84146945211E+02  0.86847797157E+02  0.00000000000E+00 0. -1.
         13    1    5    5    0    0 -0.32506810048E+02 -0.31577641283E+01  0.11637180456E+03  0.12086794889E+03  0.00000000000E+00 0. -1.
        -14    1    5    5    0    0 -0.62607400589E+02  0.39556901446E+02  0.11421525573E+04  0.11445509596E+04  0.00000000000E+00 0.  1.
          5    1    4    4  501    0  0.81087208462E+02  0.20657237169E+02  0.39511702648E+02  0.92631009224E+02  0.41800000000E+01 0. -1.
         -5    1    4    4    0  501  0.99134546055E+01 -0.81598672404E+02  0.30660231577E+02  0.87830189119E+02  0.41800000000E+01 0. -1.
</event>
<event>
11    1  0.8974665E-009  0.2584746E+03  0.7561462E-02  0.1019479E+00
         22   -1    0    0    0    0  0.00000000000E+00  0.00000000000E+00  0.11368622145E+03  0.11368622145E+03  0.00000000000E+00 0. -1.
         22   -1    0    0    0    0 -0.00000000000E+00 -0.00000000000E+00 -0.11283800749E+04  0.11283800749E+04  0.00000000000E+00 0. -1.
        -24    2    1    2    0    0  0.48678495755E+02 -0.10673424459E+03 -0.47627409609E+03  0.49678451750E+03  0.78714975090E+02 0.  0.
         25    2    1    2    0    0  0.15500413599E+03 -0.72129229770E+02 -0.33645174359E+03  0.39758733024E+03  0.12508797482E+03 0.  0.
         24    2    1    2    0    0 -0.20368263175E+03  0.17886347436E+03 -0.20196801382E+03  0.34769444865E+03  0.81373177886E+02 0.  0.
        -13    1    5    5    0    0 -0.18547720203E+02  0.10850095831E+01 -0.40234215265E+02  0.44316895745E+02  0.00000000000E+00 0.  1.
         14    1    5    5    0    0 -0.18513491155E+03  0.17777846477E+03 -0.16173379856E+03  0.30337755291E+03  0.00000000000E+00 0. -1.
         13    1    3    3    0    0  0.66726879733E+02 -0.93721059548E+02 -0.43426936801E+03  0.44925048411E+03  0.00000000000E+00 0. -1.
        -14    1    3    3    0    0 -0.18048383978E+02 -0.13013185040E+02 -0.42004728083E+02  0.47534033391E+02  0.00000000000E+00 0.  1.
          5    1    4    4  501    0  0.23589305619E+02  0.12340062466E+02 -0.15841965123E+03  0.16069533527E+03  0.41800000000E+01 0. -1.
         -5    1    4    4    0  501  0.13141483038E+03 -0.84469292236E+02 -0.17803209236E+03  0.23689199497E+03  0.41800000000E+01 0. -1.
</event>
<event>
11    1  0.8974665E-009  0.1357770E+03  0.7561462E-02  0.1112368E+00
         22   -1    0    0    0    0  0.00000000000E+00  0.00000000000E+00  0.19270277157E+04  0.19270277157E+04  0.00000000000E+00 0.  1.
         22   -1    0    0    0    0 -0.00000000000E+00 -0.00000000000E+00 -0.37086740609E+03  0.37086740609E+03  0.00000000000E+00 0. -1.
         24    2    1    2    0    0  0.80328191372E+01  0.52367986575E+02 -0.35387076934E+03  0.36675070211E+03  0.80465047741E+02 0.  0.
         25    2    1    2    0    0  0.79384606558E+01 -0.41744325541E+02  0.45490853079E+03  0.47370297460E+03  0.12508848422E+03 0.  0.
        -24    2    1    2    0    0 -0.15971279793E+02 -0.10623661034E+02  0.14551225482E+04  0.14574414451E+04  0.79912400477E+02 0.  0.
        -13    1    3    3    0    0 -0.18341954983E+02  0.46068246999E+02 -0.10188904672E+03  0.11331411446E+03  0.00000000000E+00 0.  1.
         14    1    3    3    0    0  0.26374774120E+02  0.62997395757E+01 -0.25198172261E+03  0.25343658765E+03  0.00000000000E+00 0. -1.
         11    1    5    5    0    0  0.15107056676E+02 -0.13961958830E+02  0.10716125743E+03  0.10911780125E+03  0.00000000000E+00 0. -1.
        -12    1    5    5    0    0 -0.31078336469E+02  0.33382977955E+01  0.13479612908E+04  0.13483236439E+04  0.00000000000E+00 0.  1.
          5    1    4    4  501    0  0.25174348837E+02  0.32107908206E+02  0.28038240054E+03  0.28336624454E+03  0.41800000000E+01 0.  1.
         -5    1    4    4    0  501 -0.17235888181E+02 -0.73852233747E+02  0.17452613025E+03  0.19033673006E+03  0.41800000000E+01 0.  1.
</event>
<event>
11    1  0.8974665E-009  0.2443439E+03  0.7561462E-02  0.1026956E+00
         22   -1    0    0    0    0  0.00000000000E+00  0.00000000000E+00  0.21910845787E+03  0.21910845787E+03  0.00000000000E+00 0. -1.
         22   -1    0    0    0    0 -0.00000000000E+00 -0.00000000000E+00 -0.16361869873E+04  0.16361869873E+04  0.00000000000E+00 0. -1.
        -24    2    1    2    0    0 -0.12048262099E+03  0.18710093928E+03 -0.14045484789E+04  0.14243105571E+04  0.79883103108E+02 0.  0.
         25    2    1    2    0    0  0.17327342378E+03  0.10963954288E+01 -0.43165699131E+02  0.21802431246E+03  0.12508573767E+03 0.  0.
         24    2    1    2    0    0 -0.52790802791E+02 -0.18819733471E+03  0.30635648636E+02  0.21296057554E+03  0.78794404096E+02 0.  0.
        -11    1    5    5    0    0  0.16300263142E+02 -0.51336791747E+02  0.25422364976E+02  0.59560569225E+02  0.00000000000E+00 0.  1.
         12    1    5    5    0    0 -0.69091065933E+02 -0.13686054296E+03  0.52132836601E+01  0.15340000632E+03  0.00000000000E+00 0. -1.
         11    1    3    3    0    0 -0.98046605210E+02  0.19001096038E+03 -0.12710582547E+04  0.12889167501E+04  0.00000000000E+00 0. -1.
        -12    1    3    3    0    0 -0.22436015779E+02 -0.29100211017E+01 -0.13349022424E+03  0.13539380707E+03  0.00000000000E+00 0.  1.
          5    1    4    4  501    0  0.96147608287E+02  0.11918660031E+02  0.39194653711E+02  0.10459498227E+03  0.41800000000E+01 0.  1.
         -5    1    4    4    0  501  0.77125815493E+02 -0.10822264602E+02 -0.82360352843E+02  0.11342933019E+03  0.41800000000E+01 0. -1.
</event>
<event>
11    1  0.8974665E-009  0.1934626E+03  0.7561462E-02  0.1059245E+00
         22   -1    0    0    0    0  0.00000000000E+00  0.00000000000E+00  0.58949878152E+03  0.58949878152E+03  0.00000000000E+00 0. -1.
         22   -1    0    0    0    0 -0.00000000000E+00 -0.00000000000E+00 -0.12449333017E+03  0.12449333017E+03  0.00000000000E+00 0.  1.
         24    2    1    2    0    0  0.36020683319E+02  0.28113041554E+02 -0.13020476607E+02  0.93636107297E+02  0.80686771198E+02 0.  0.
         25    2    1    2    0    0  0.63930745003E+02  0.97928145592E+02  0.97346311654E+02  0.19698293364E+03  0.12509560302E+03 0.  0.
        -24    2    1    2    0    0 -0.99951428322E+02 -0.12604118715E+03  0.38067961630E+03  0.42337307076E+03  0.91929961907E+02 0.  0.
        -13    1    3    3    0    0 -0.53908379314E+01  0.13077400543E+02 -0.39690629791E+02  0.42135799883E+02  0.00000000000E+00 0.  1.
         14    1    3    3    0    0  0.41411521250E+02  0.15035641011E+02  0.26670153184E+02  0.51500307414E+02  0.00000000000E+00 0. -1.
         13    1    5    5    0    0  0.70193551122E+01 -0.40010872268E+02  0.14547615741E+03  0.15104123152E+03  0.00000000000E+00 0. -1.
        -14    1    5    5    0    0 -0.10697078343E+03 -0.86030314878E+02  0.23520345889E+03  0.27233183924E+03  0.00000000000E+00 0.  1.
          5    1    4    4  501    0 -0.37482381218E+02  0.17326800865E+02  0.20308873874E+02  0.46206814303E+02  0.41800000000E+01 0. -1.
         -5    1    4    4    0  501  0.10141312622E+03  0.80601344727E+02  0.77037437779E+02  0.15077611933E+03  0.41800000000E+01 0. -1.
</event>
<event>
11    1  0.1276594E-008  0.1564927E+03  0.7561462E-02  0.1090423E+00
         22   -1    0    0    0    0  0.00000000000E+00  0.00000000000E+00  0.53799054848E+03  0.53799054848E+03  0.00000000000E+00 0. -1.
         22   -1    0    0    0    0 -0.00000000000E+00 -0.00000000000E+00 -0.10132801671E+04  0.10132801671E+04  0.00000000000E+00 0. -1.
         24    2    1    2    0    0 -0.13069474980E+02 -0.19550124094E+02 -0.84182700722E+03  0.84578169728E+03  0.78236505821E+02 0.  0.
         25    2    1    2    0    0 -0.73084450903E+02 -0.20308772179E+02 -0.12888217238E+03  0.19496618214E+03  0.12508962639E+03 0.  0.
        -24    2    1    2    0    0  0.86153925884E+02  0.39858896273E+02  0.49541956099E+03  0.51052283615E+03  0.78624387196E+02 0.  0.
        -11    1    3    3    0    0 -0.13895156825E+02 -0.26018670115E+02 -0.10885183595E+03  0.11277751889E+03  0.00000000000E+00 0.  1.
         12    1    3    3    0    0  0.82568184469E+00  0.64685460217E+01 -0.73297517127E+03  0.73300417839E+03  0.00000000000E+00 0. -1.
         13    1    5    5    0    0  0.46204001055E+02  0.61525385648E+02  0.33983185825E+03  0.34843345803E+03  0.00000000000E+00 0. -1.
        -14    1    5    5    0    0  0.39949924829E+02 -0.21666489376E+02  0.15558770274E+03  0.16208937812E+03  0.00000000000E+00 0.  1.
          5    1    4    4  501    0  0.18787495781E+02 -0.61579586972E+01  0.13909606597E+02  0.24532427697E+02  0.41800000000E+01 0. -1.
         -5    1    4    4    0  501 -0.91871946684E+02 -0.14150813482E+02 -0.14279177898E+03  0.17043375444E+03  0.41800000000E+01 0. -1.
</event>
<event>
11    1  0.8974665E-009  0.2714945E+03  0.7561462E-02  0.1013033E+00
         22   -1    0    0    0    0  0.00000000000E+00  0.00000000000E+00  0.34824572349E+03  0.34824572349E+03  0.00000000000E+00 0. -1.
         22   -1    0    0    0    0 -0.00000000000E+00 -0.00000000000E+00 -0.10372276970E+04  0.10372276970E+04  0.00000000000E+00 0. -1.
        -24    2    1    2    0    0  0.18865338499E+03  0.16354516553E+03 -0.74461880488E+03  0.78924950193E+03  0.78233566155E+02 0.  0.
         25    2    1    2    0    0 -0.18179981664E+03 -0.12149333937E+03 -0.20211194378E+03  0.32296770332E+03  0.12508834769E+03 0.  0.
         24    2    1    2    0    0 -0.68535683491E+01 -0.42051826164E+02  0.25774877512E+03  0.27325621527E+03  0.80119914050E+02 0.  0.
        -11    1    5    5    0    0  0.26054472674E+02 -0.49164791667E+02  0.13611075929E+03  0.14704472476E+03  0.00000000000E+00 0.  1.
         12    1    5    5    0    0 -0.32908041023E+02  0.71129655028E+01  0.12163801583E+03  0.12621149051E+03  0.00000000000E+00 0. -1.
         11    1    3    3    0    0  0.15981192425E+03  0.16434077676E+03 -0.69527392890E+03  0.73208850438E+03  0.00000000000E+00 0. -1.
        -12    1    3    3    0    0  0.28841460745E+02 -0.79561122676E+00 -0.49344875984E+02  0.57160997551E+02  0.00000000000E+00 0.  1.
          5    1    4    4  501    0 -0.13407479920E+03 -0.93842073490E+02 -0.66845323241E+02  0.17682804127E+03  0.41800000000E+01 0.  1.
         -5    1    4    4    0  501 -0.47725017438E+02 -0.27651265881E+02 -0.13526662054E+03  0.14613966206E+03  0.41800000000E+01 0.  1.
</event>
<event>
11    1  0.8974665E-009  0.2094241E+03  0.7561462E-02  0.1048052E+00
         22   -1    0    0    0    0  0.00000000000E+00  0.00000000000E+00  0.50506399346E+03  0.50506399346E+03  0.00000000000E+00 0.  1.
         22   -1    0    0    0    0 -0.00000000000E+00 -0.00000000000E+00 -0.38101290312E+03  0.38101290312E+03  0.00000000000E+00 0.  1.
        -24    2    1    2    0    0 -0.34149213173E+02  0.40326479303E+02 -0.28396039268E+03  0.30035116420E+03  0.82370647251E+02 0.  0.
         25    2    1    2    0    0  0.81648037658E+02  0.12996705851E+03  0.10082665558E+03  0.22219719626E+03  0.12509093173E+03 0.  0.
         24    2    1    2    0    0 -0.47498824485E+02 -0.17029353781E+03  0.30718482744E+03  0.36352853612E+03  0.80835951254E+02 0.  0.
        -13    1    5    5    0    0 -0.29625228754E+02 -0.70084191916E+02  0.20768908746E+03  0.22118816692E+03  0.00000000000E+00 0.  1.
         14    1    5    5    0    0 -0.17873595732E+02 -0.10020934590E+03  0.99495739980E+02  0.14234036920E+03  0.00000000000E+00 0. -1.
         11    1    3    3    0    0 -0.57246858214E-02  0.48068797737E+02 -0.79403474641E+02  0.92819831576E+02  0.00000000000E+00 0. -1.
        -12    1    3    3    0    0 -0.34143488487E+02 -0.77423184344E+01 -0.20455691804E+03  0.20753133262E+03  0.00000000000E+00 0.  1.
          5    1    4    4  501    0  0.32854910632E+02  0.11676809368E+03  0.14720562492E+02  0.12226365042E+03  0.41800000000E+01 0. -1.
         -5    1    4    4    0  501  0.48793127026E+02  0.13198964829E+02  0.86106093087E+02  0.99933545841E+02  0.41800000000E+01 0. -1.
</event>
<event>
11    1  0.8974665E-009  0.1333732E+03  0.7561462E-02  0.1115192E+00
         22   -1    0    0    0    0  0.00000000000E+00  0.00000000000E+00  0.44516101262E+02  0.44516101262E+02  0.00000000000E+00 0. -1.
         22   -1    0    0    0    0 -0.00000000000E+00 -0.00000000000E+00 -0.22873381298E+04  0.22873381298E+04  0.00000000000E+00 0. -1.
         24    2    1    2    0    0 -0.36383927170E+02 -0.24991447889E+02 -0.16914414114E+04  0.16936779963E+04  0.74984960096E+02 0.  0.
         25    2    1    2    0    0  0.33125714517E+01 -0.13918809555E+02 -0.51997922832E+03  0.53500572006E+03  0.12509203102E+03 0.  0.
        -24    2    1    2    0    0  0.33071355718E+02  0.38910257444E+02 -0.31401388784E+02  0.10317051469E+03  0.83966571808E+02 0.  0.
        -11    1    3    3    0    0 -0.43817738546E+02  0.14504303416E+02 -0.10076721143E+04  0.10087286350E+04  0.00000000000E+00 0.  1.
         12    1    3    3    0    0  0.74338113760E+01 -0.39495751305E+02 -0.68376929710E+03  0.68494936132E+03  0.00000000000E+00 0. -1.
         11    1    5    5    0    0 -0.11184478706E+02  0.46407146031E+02  0.11069505730E+01  0.47748728844E+02  0.00000000000E+00 0. -1.
        -12    1    5    5    0    0  0.44255834424E+02 -0.74968885868E+01 -0.32508339357E+02  0.55421785850E+02  0.00000000000E+00 0.  1.
          5    1    4    4  501    0 -0.23843518541E+02 -0.25186626053E+02 -0.49491299693E+03  0.49614436048E+03  0.41800000000E+01 0. -1.
         -5    1    4    4    0  501  0.27156089993E+02  0.11267816498E+02 -0.25066231398E+02  0.38861359586E+02  0.41800000000E+01 0. -1.
</event>
<event>
11    1  0.8974665E-009  0.1706153E+03  0.7561462E-02  0.1077497E+00
         22   -1    0    0    0    0  0.00000000000E+00  0.00000000000E+00  0.16625409463E+04  0.16625409463E+04  0.00000000000E+00 0. -1.
         22   -1    0    0    0    0 -0.00000000000E+00 -0.00000000000E+00 -0.18157321494E+03  0.18157321494E+03  0.00000000000E+00 0. -1.
        -24    2    1    2    0    0  0.10246913092E+03  0.27595983418E+02 -0.82699454954E+02  0.15612512871E+03  0.79211077973E+02 0.  0.
         25    2    1    2    0    0 -0.14353416536E+03 -0.12350912554E+03  0.15888237008E+03  0.27703021002E+03  0.12508224905E+03 0.  0.
         24    2    1    2    0    0  0.41065034443E+02  0.95913142120E+02  0.14047848162E+04  0.14109588225E+04  0.80614830964E+02 0.  0.
        -11    1    5    5    0    0  0.20945597291E+02  0.10616123228E+03  0.10868900751E+04  0.10922632287E+04  0.00000000000E+00 0.  1.
         12    1    5    5    0    0  0.20119437152E+02 -0.10248090160E+02  0.31789474113E+03  0.31869559386E+03  0.00000000000E+00 0. -1.
         13    1    3    3    0    0  0.72417136161E+02  0.24541746048E+01 -0.90746013085E+02  0.11612537825E+03  0.00000000000E+00 0. -1.
        -14    1    3    3    0    0  0.30051994754E+02  0.25141808814E+02  0.80465581313E+01  0.39999750460E+02  0.00000000000E+00 0.  1.
          5    1    4    4  501    0 -0.10247741555E+01 -0.56944128964E+02  0.56256743588E+01  0.57382964349E+02  0.41800000000E+01 0. -1.
         -5    1    4    4    0  501 -0.14250939120E+03 -0.66564996574E+02  0.15325669572E+03  0.21964724567E+03  0.41800000000E+01 0. -1.
</event>
<event>
11    1  0.8974665E-009  0.1799228E+03  0.7561462E-02  0.1069705E+00
         22   -1    0    0    0    0  0.00000000000E+00  0.00000000000E+00  0.61260914246E+03  0.61260914246E+03  0.00000000000E+00 0. -1.
         22   -1    0    0    0    0 -0.00000000000E+00 -0.00000000000E+00 -0.28474762041E+03  0.28474762041E+03  0.00000000000E+00 0.  1.
         24    2    1    2    0    0  0.70478905924E+01  0.41593547424E+02 -0.18743691923E+03  0.20799770529E+03  0.79691597837E+02 0.  0.
         25    2    1    2    0    0  0.47963650674E+02 -0.15342132717E+03  0.62726643643E+02  0.21312337040E+03  0.12509326030E+03 0.  0.
        -24    2    1    2    0    0 -0.55011541266E+02  0.11182777975E+03  0.45257179764E+03  0.47623568717E+03  0.80296175017E+02 0.  0.
        -11    1    3    3    0    0 -0.18275299958E+01 -0.22619781635E+02 -0.73352372028E+02  0.76782581809E+02  0.00000000000E+00 0.  1.
         12    1    3    3    0    0  0.88754205882E+01  0.64213329060E+02 -0.11408454721E+03  0.13121512348E+03  0.00000000000E+00 0. -1.
         13    1    5    5    0    0 -0.54764599917E+02  0.38461171767E+02  0.29390540451E+03  0.30142795149E+03  0.00000000000E+00 0. -1.
        -14    1    5    5    0    0 -0.24694134897E+00  0.73366607980E+02  0.15866639313E+03  0.17480773568E+03  0.00000000000E+00 0.  1.
          5    1    4    4  501    0  0.43983908969E+02  0.54328546773E+01  0.97614612888E+01  0.45572565043E+02  0.41800000000E+01 0. -1.
         -5    1    4    4    0  501  0.39797417050E+01 -0.15885418185E+03  0.52965182354E+02  0.16755080536E+03  0.41800000000E+01 0. -1.
</event>
<event>
11    1  0.8974665E-009  0.1423218E+03  0.7561462E-02  0.1104993E+00
         22   -1    0    0    0    0  0.00000000000E+00  0.00000000000E+00  0.56146970696E+03  0.56146970696E+03  0.00000000000E+00 0. -1.
         22   -1    0    0    0    0 -0.00000000000E+00 -0.00000000000E+00 -0.40439959930E+03  0.40439959930E+03  0.00000000000E+00 0. -1.
         24    2    1    2    0    0  0.19032219577E+02 -0.25990559799E+02 -0.35412126891E+03  0.36548086626E+03  0.84478730615E+02 0.  0.
         25    2    1    2    0    0  0.10379365684E+02 -0.40562204934E+02  0.77789084796E+02  0.15313798581E+03  0.12508827796E+03 0.  0.
        -24    2    1    2    0    0 -0.29411585261E+02  0.66552764733E+02  0.43340229178E+03  0.44725045419E+03  0.83072922238E+02 0.  0.
        -13    1    3    3    0    0  0.11147071805E+02  0.20363840978E+02 -0.29833003872E+02  0.37801472845E+02  0.00000000000E+00 0.  1.
         14    1    3    3    0    0  0.78851477718E+01 -0.46354400777E+02 -0.32428826504E+03  0.32767939342E+03  0.00000000000E+00 0. -1.
         13    1    5    5    0    0  0.18630043713E+02  0.40748925816E+02  0.29684034048E+03  0.30020283346E+03  0.00000000000E+00 0. -1.
        -14    1    5    5    0    0 -0.48041628974E+02  0.25803838916E+02  0.13656195130E+03  0.14704762072E+03  0.00000000000E+00 0.  1.
          5    1    4    4  501    0  0.44067630431E+02 -0.68310686908E+02  0.26369914298E+02  0.85563723492E+02  0.41800000000E+01 0. -1.
         -5    1    4    4    0  501 -0.33688264747E+02  0.27748481974E+02  0.51419170498E+02  0.67574262321E+02  0.41800000000E+01 0. -1.
</event>
<event>
11    1  0.8974665E-009  0.1424324E+03  0.7561462E-02  0.1104872E+00
         22   -1    0    0    0    0  0.00000000000E+00  0.00000000000E+00  0.60658814715E+03  0.60658814715E+03  0.00000000000E+00 0.  1.
         22   -1    0    0    0    0 -0.00000000000E+00 -0.00000000000E+00 -0.12109746062E+04  0.12109746062E+04  0.00000000000E+00 0. -1.
        -24    2    1    2    0    0  0.64235006503E+02 -0.18602150826E+02 -0.11426195007E+04  0.11473776301E+04  0.80149401843E+02 0.  0.
         25    2    1    2    0    0 -0.41884554703E+02 -0.48912770541E+02  0.21400795327E+02  0.14231311654E+03  0.12509298163E+03 0.  0.
         24    2    1    2    0    0 -0.22350451800E+02  0.67514921366E+02  0.51683224633E+03  0.52787200669E+03  0.80470350388E+02 0.  0.
        -11    1    5    5    0    0 -0.81056824637E+01  0.84670787991E+02  0.41495762212E+03  0.42358549619E+03  0.00000000000E+00 0.  1.
         12    1    5    5    0    0 -0.14244769336E+02 -0.17155866625E+02  0.10187462421E+03  0.10428651049E+03  0.00000000000E+00 0. -1.
         11    1    3    3    0    0  0.40423303388E+02 -0.36351422469E+02 -0.10104967593E+04  0.10119580871E+04  0.00000000000E+00 0. -1.
        -12    1    3    3    0    0  0.23811703115E+02  0.17749271643E+02 -0.13212274137E+03  0.13541954304E+03  0.00000000000E+00 0.  1.
          5    1    4    4  501    0 -0.59978366454E+02  0.17717287760E+02 -0.14567714153E+02  0.64350582155E+02  0.41800000000E+01 0. -1.
         -5    1    4    4    0  501  0.18093811751E+02 -0.66630058301E+02  0.35968509480E+02  0.77962534381E+02  0.41800000000E+01 0. -1.
</event>
<event>
11    1  0.8974665E-009  0.1320147E+03  0.7561462E-02  0.1116818E+00
         22   -1    0    0    0    0  0.00000000000E+00  0.00000000000E+00  0.30471885243E+03  0.30471885243E+03  0.00000000000E+00 0. -1.
         22   -1    0    0    0    0 -0.00000000000E+00 -0.00000000000E+00 -0.65314877384E+03  0.65314877384E+03  0.00000000000E+00 0. -1.
         24    2    1    2    0    0  0.30838972311E+02  0.27246771077E+02 -0.57762509248E+03  0.58444479286E+03  0.78940101908E+02 0.  0.
         25    2    1    2    0    0 -0.37876394816E+02 -0.58058539826E+02  0.17120827654E+02  0.14403320554E+03  0.12508807388E+03 0.  0.
        -24    2    1    2    0    0  0.70374225050E+01  0.30811768749E+02  0.21207434342E+03  0.22938962786E+03  0.81517996947E+02 0.  0.
        -11    1    3    3    0    0 -0.73714833150E+01 -0.11636914346E+02 -0.35409663077E+03  0.35436447405E+03  0.00000000000E+00 0.  1.
         12    1    3    3    0    0  0.38210455626E+02  0.38883685423E+02 -0.22352846171E+03  0.23008031881E+03  0.00000000000E+00 0. -1.
         11    1    5    5    0    0  0.19253129265E+02  0.18264478783E+02  0.21009729063E+03  0.21176672473E+03  0.00000000000E+00 0. -1.
        -12    1    5    5    0    0 -0.12215706760E+02  0.12547289966E+02  0.19770527858E+01  0.17622903134E+02  0.00000000000E+00 0.  1.
          5    1    4    4  501    0 -0.71578972302E+02 -0.26015232413E+01  0.29953771317E+02  0.77749713923E+02  0.41800000000E+01 0.  1.
         -5    1    4    4    0  501  0.33702577486E+02 -0.55457016585E+02 -0.12832943663E+02  0.66283491616E+02  0.41800000000E+01 0.  1.
</event>
<event>
11    1  0.8974665E-009  0.1668010E+03  0.7561462E-02  0.1080850E+00
         22   -1    0    0    0    0  0.00000000000E+00  0.00000000000E+00  0.75193670392E+03  0.75193670392E+03  0.00000000000E+00 0. -1.
         22   -1    0    0    0    0 -0.00000000000E+00 -0.00000000000E+00 -0.21536309019E+03  0.21536309019E+03  0.00000000000E+00 0. -1.
         24    2    1    2    0    0 -0.56162998157E+02 -0.96292120555E+02 -0.16055739795E+03  0.21088144220E+03  0.79157120879E+02 0.  0.
         25    2    1    2    0    0  0.47287709233E+02  0.87483119169E+02  0.21770849733E+03  0.27006120723E+03  0.12508653906E+03 0.  0.
        -24    2    1    2    0    0  0.88752889236E+01  0.88090013861E+01  0.47942251435E+03  0.48635714468E+03  0.80876174885E+02 0.  0.
        -11    1    3    3    0    0 -0.18650309702E+02 -0.73553932010E+02 -0.47276802546E+02  0.89404200266E+02  0.00000000000E+00 0.  1.
         12    1    3    3    0    0 -0.37512688455E+02 -0.22738188545E+02 -0.11328059541E+03  0.12147724194E+03  0.00000000000E+00 0. -1.
         13    1    5    5    0    0 -0.71358282041E+01  0.25937801836E+01  0.46139629816E+03  0.46145876489E+03  0.00000000000E+00 0. -1.
        -14    1    5    5    0    0  0.16011117128E+02  0.62152212025E+01  0.18026216186E+02  0.24898379792E+02  0.00000000000E+00 0.  1.
          5    1    4    4  501    0  0.44766813676E+02  0.86430325816E+02  0.23376056728E+03  0.25325035842E+03  0.41800000000E+01 0. -1.
         -5    1    4    4    0  501  0.25208955572E+01  0.10527933532E+01 -0.16052069941E+02  0.16810848808E+02  0.41800000000E+01 0. -1.
</event>
<event>
11    1  0.8974665E-009  0.2245564E+03  0.7561462E-02  0.1038400E+00
         22   -1    0    0    0    0  0.00000000000E+00  0.00000000000E+00  0.44414875325E+03  0.44414875325E+03  0.00000000000E+00 0. -1.
         22   -1    0    0    0    0 -0.00000000000E+00 -0.00000000000E+00 -0.11366793052E+04  0.11366793052E+04  0.00000000000E+00 0. -1.
         24    2    1    2    0    0 -0.18783425250E+03 -0.44920346102E+01 -0.10594774739E+04  0.10790133585E+04  0.80470027523E+02 0.  0.
         25    2    1    2    0    0  0.13720837388E+03  0.84502930864E+02  0.29473724801E+03  0.35844735239E+03  0.12509027094E+03 0.  0.
        -24    2    1    2    0    0  0.50625878623E+02 -0.80010896254E+02  0.72209673984E+02  0.14336734752E+03  0.79845076323E+02 0.  0.
        -11    1    3    3    0    0 -0.10682744732E+03 -0.70730590908E+01 -0.38246907958E+03  0.39717090591E+03  0.00000000000E+00 0.  1.
         12    1    3    3    0    0 -0.81006805178E+02  0.25810244806E+01 -0.67700839432E+03  0.68184245259E+03  0.00000000000E+00 0. -1.
         13    1    5    5    0    0 -0.75509550463E+00 -0.70790497963E+02  0.33158024697E+02  0.78174928033E+02  0.00000000000E+00 0. -1.
        -14    1    5    5    0    0  0.51380974128E+02 -0.92203982913E+01  0.39051649287E+02  0.65192419490E+02  0.00000000000E+00 0.  1.
          5    1    4    4  501    0  0.73073961215E+01  0.19499688554E+02  0.15632335330E+03  0.15775962436E+03  0.41800000000E+01 0. -1.
         -5    1    4    4    0  501  0.12990097776E+03  0.65003242310E+02  0.13841389471E+03  0.20068772803E+03  0.41800000000E+01 0. -1.
</event>
<event>
11    1  0.8974665E-009  0.2200435E+03  0.7561462E-02  0.1041190E+00
         22   -1    0    0    0    0  0.00000000000E+00  0.00000000000E+00  0.41739337933E+04  0.41739337933E+04  0.00000000000E+00 0. -1.
         22   -1    0    0    0    0 -0.00000000000E+00 -0.00000000000E+00 -0.37042968919E+02  0.37042968919E+02  0.00000000000E+00 0.  1.
         24    2    1    2    0    0  0.15814492789E+03 -0.11223602920E+02  0.36399537367E+03  0.40479460707E+03  0.78931960485E+02 0.  0.
         25    2    1    2    0    0 -0.29558080773E+03  0.28407598756E+02  0.19670679759E+04  0.19932833464E+04  0.12508825582E+03 0.  0.
        -24    2    1    2    0    0  0.13743587984E+03 -0.17183995836E+02  0.18058274748E+04  0.18128988087E+04  0.80033187498E+02 0.  0.
        -13    1    3    3    0    0  0.14850507596E+03 -0.31323554348E+02  0.33824738280E+03  0.37073739306E+03  0.00000000000E+00 0.  1.
         14    1    3    3    0    0  0.96398519260E+01  0.20099951428E+02  0.25747990867E+02  0.34057214012E+02  0.00000000000E+00 0. -1.
         11    1    5    5    0    0  0.68941724273E+02 -0.47699130698E+02  0.10607432673E+04  0.10640509610E+04  0.00000000000E+00 0. -1.
        -12    1    5    5    0    0  0.68494155566E+02  0.30515134862E+02  0.74508420754E+03  0.74884784778E+03  0.00000000000E+00 0.  1.
          5    1    4    4  501    0 -0.84524201951E+02 -0.48249434330E+02  0.56231694431E+03  0.57069270793E+03  0.41800000000E+01 0. -1.
         -5    1    4    4    0  501 -0.21105660577E+03  0.76657033086E+02  0.14047510316E+04  0.14225906385E+04  0.41800000000E+01 0. -1.
</event>
<event>
11    1  0.8974665E-009  0.1705593E+03  0.7561462E-02  0.1077546E+00
         22   -1    0    0    0    0  0.00000000000E+00  0.00000000000E+00  0.41718170727E+03  0.41718170727E+03  0.00000000000E+00 0.  1.
         22   -1    0    0    0    0 -0.00000000000E+00 -0.00000000000E+00 -0.28749395038E+03  0.28749395038E+03  0.00000000000E+00 0.  1.
         24    2    1    2    0    0 -0.32491384416E+01  0.11625717892E+03 -0.22264757292E+03  0.26331511366E+03  0.78972266038E+02 0.  0.
         25    2    1    2    0    0 -0.23042725984E+02 -0.11173471827E+03  0.23913897679E+03  0.29300248053E+03  0.12508952351E+03 0.  0.
        -24    2    1    2    0    0  0.26291864426E+02 -0.45224606461E+01  0.11319635303E+03  0.14835806345E+03  0.92113983017E+02 0.  0.
        -11    1    3    3    0    0 -0.22732916047E+01  0.46652813216E+02 -0.16926586868E+03  0.17559210443E+03  0.00000000000E+00 0.  1.
         12    1    3    3    0    0 -0.97584683697E+00  0.69604365700E+02 -0.53381704241E+02  0.87723009235E+02  0.00000000000E+00 0. -1.
         13    1    5    5    0    0  0.40817108955E+02 -0.36667803587E+02  0.42689484918E+02  0.69519467244E+02  0.00000000000E+00 0. -1.
        -14    1    5    5    0    0 -0.14525244529E+02  0.32145342940E+02  0.70506868112E+02  0.78838596210E+02  0.00000000000E+00 0.  1.
          5    1    4    4  501    0  0.89587469537E+01  0.80768781355E+00 -0.12205436302E+02  0.15727573936E+02  0.41800000000E+01 0. -1.
         -5    1    4    4    0  501 -0.32001472938E+02 -0.11254240608E+03  0.25134441309E+03  0.27727490660E+03  0.41800000000E+01 0. -1.
</event>
<event>
11    1  0.8974665E-009  0.1435971E+03  0.7561462E-02  0.1103607E+00
         22   -1    0    0    0    0  0.00000000000E+00  0.00000000000E+00  0.73720570756E+03  0.73720570756E+03  0.00000000000E+00 0.  1.
         22   -1    0    0    0    0 -0.00000000000E+00 -0.00000000000E+00 -0.56843594138E+03  0.56843594138E+03  0.00000000000E+00 0. -1.
         24    2    1    2    0    0  0.10250102868E+02 -0.32630462939E+02 -0.54340721476E+03  0.55050562592E+03  0.81211030018E+02 0.  0.
         25    2    1    2    0    0  0.21234915775E+02  0.86454509383E+02  0.39663451023E+03  0.42531626094E+03  0.12509869413E+03 0.  0.
        -24    2    1    2    0    0 -0.31485018642E+02 -0.53824046444E+02  0.31554247071E+03  0.32981976207E+03  0.72977326990E+02 0.  0.
        -11    1    3    3    0    0  0.44267720155E+02 -0.16873432906E+02 -0.22740083215E+03  0.23228319407E+03  0.00000000000E+00 0.  1.
         12    1    3    3    0    0 -0.34017617288E+02 -0.15757030033E+02 -0.31600638261E+03  0.31822243185E+03  0.00000000000E+00 0. -1.
         13    1    5    5    0    0 -0.16269129117E+02  0.16533711838E+02  0.96663614386E+02  0.99407758930E+02  0.00000000000E+00 0. -1.
        -14    1    5    5    0    0 -0.15215889526E+02 -0.70357758282E+02  0.21887885633E+03  0.23041200314E+03  0.00000000000E+00 0.  1.
          5    1    4    4  501    0 -0.13458252288E+02  0.15463707521E+02  0.56640227319E-01  0.20921912270E+02  0.41800000000E+01 0. -1.
         -5    1    4    4    0  501  0.34693168063E+02  0.70990801862E+02  0.39657787000E+03  0.40439434867E+03  0.41800000000E+01 0. -1.
</event>
<event>
11    1  0.8974665E-009  0.1293222E+03  0.7561462E-02  0.1120105E+00
         22   -1    0    0    0    0  0.00000000000E+00  0.00000000000E+00  0.10094967750E+04  0.10094967750E+04  0.00000000000E+00 0. -1.
         22   -1    0    0    0    0 -0.00000000000E+00 -0.00000000000E+00 -0.15632248527E+03  0.15632248527E+03  0.00000000000E+00 0. -1.
        -24    2    1    2    0    0 -0.27683055781E+01 -0.32734874345E+02 -0.99577703707E+02  0.13248900675E+03  0.80983839866E+02 0.  0.
         25    2    1    2    0    0  0.30160202773E+02  0.29920116999E+02  0.76025045092E+02  0.15238679118E+03  0.12504829233E+03 0.  0.
         24    2    1    2    0    0 -0.27391897194E+02  0.28147573460E+01  0.87672694839E+03  0.88094346238E+03  0.81565942543E+02 0.  0.
        -13    1    5    5    0    0 -0.47651588404E+02  0.14479239240E+02  0.33195474057E+03  0.33566988550E+03  0.00000000000E+00 0.  1.
         14    1    5    5    0    0  0.20259691209E+02 -0.11664481894E+02  0.54477220782E+03  0.54527357688E+03  0.00000000000E+00 0. -1.
         11    1    3    3    0    0 -0.27686661176E+02 -0.49697714634E+02 -0.59245229815E+02  0.82136540606E+02  0.00000000000E+00 0. -1.
        -12    1    3    3    0    0  0.24918355598E+02  0.16962840289E+02 -0.40332473892E+02  0.50352466143E+02  0.00000000000E+00 0.  1.
          5    1    4    4  501    0 -0.36015713931E+02  0.50033807998E+02  0.45151042236E+02  0.76528443129E+02  0.41800000000E+01 0. -1.
         -5    1    4    4    0  501  0.66175916704E+02 -0.20113690999E+02  0.30874002856E+02  0.75858348054E+02  0.41800000000E+01 0. -1.
</event>
<event>
11    1  0.8974665E-009  0.1649664E+03  0.7561462E-02  0.1082497E+00
         22   -1    0    0    0    0  0.00000000000E+00  0.00000000000E+00  0.70776448848E+03  0.70776448848E+03  0.00000000000E+00 0.  1.
         22   -1    0    0    0    0 -0.00000000000E+00 -0.00000000000E+00 -0.12575480698E+04  0.12575480698E+04  0.00000000000E+00 0.  1.
        -24    2    1    2    0    0  0.98951109903E+02 -0.42128476577E+02 -0.12023965037E+04  0.12097864456E+04  0.79118653014E+02 0.  0.
         25    2    1    2    0    0 -0.10381626674E+03  0.30543815989E+02  0.92487570691E+02  0.18950649088E+03  0.12509203579E+03 0.  0.
         24    2    1    2    0    0  0.48651568341E+01  0.11584660588E+02  0.56012535168E+03  0.56601962177E+03  0.80498003224E+02 0.  0.
        -13    1    5    5    0    0 -0.39977015813E+01  0.15727301226E+02  0.55449400957E+03  0.55473140912E+03  0.00000000000E+00 0.  1.
         14    1    5    5    0    0  0.88628584153E+01 -0.41426406381E+01  0.56313421090E+01  0.11288212644E+02  0.00000000000E+00 0. -1.
         11    1    3    3    0    0  0.10085723578E+02 -0.64295895595E+01 -0.18544372436E+02  0.22067061223E+02  0.00000000000E+00 0. -1.
        -12    1    3    3    0    0  0.88865386325E+02 -0.35698887018E+02 -0.11838521312E+04  0.11877193844E+04  0.00000000000E+00 0.  1.
          5    1    4    4  501    0 -0.10696237694E+03  0.64792331627E+01  0.15103472308E+02  0.10829828170E+03  0.41800000000E+01 0. -1.
         -5    1    4    4    0  501  0.31461102039E+01  0.24064582827E+02  0.77384098382E+02  0.81208209182E+02  0.41800000000E+01 0. -1.
</event>
<event>
11    1  0.1078200E-008  0.1623790E+03  0.7561462E-02  0.1084861E+00
         22   -1    0    0    0    0  0.00000000000E+00  0.00000000000E+00  0.27880958460E+04  0.27880958460E+04  0.00000000000E+00 0.  1.
         22   -1    0    0    0    0 -0.00000000000E+00 -0.00000000000E+00 -0.34602531696E+03  0.34602531696E+03  0.00000000000E+00 0. -1.
         24    2    1    2    0    0  0.73006660584E+01  0.11985288578E+02 -0.20674118139E+03  0.22219652488E+03  0.80202448343E+02 0.  0.
         25    2    1    2    0    0 -0.56308230566E+02 -0.10299165853E+03 -0.73397563266E+02  0.18658409800E+03  0.12509406372E+03 0.  0.
        -24    2    1    2    0    0  0.49007564508E+02  0.91006369957E+02  0.27222092737E+04  0.27253405401E+04  0.79836262616E+02 0.  0.
        -11    1    3    3    0    0 -0.24280521022E+02 -0.17927507879E+02 -0.41429252771E+02  0.51257411415E+02  0.00000000000E+00 0.  1.
         12    1    3    3    0    0  0.31581187080E+02  0.29912796457E+02 -0.16531192862E+03  0.17093911347E+03  0.00000000000E+00 0. -1.
         11    1    5    5    0    0  0.30139628334E+02 -0.47990378030E+01  0.44971211702E+03  0.45074650986E+03  0.00000000000E+00 0. -1.
        -12    1    5    5    0    0  0.18867936174E+02  0.95805407760E+02  0.22724971567E+04  0.22745940302E+04  0.00000000000E+00 0.  1.
          5    1    4    4  501    0  0.11258005758E+02 -0.84801544022E+02 -0.78662754641E+02  0.11628992188E+03  0.41800000000E+01 0. -1.
         -5    1    4    4    0  501 -0.67566236324E+02 -0.18190114512E+02  0.52651913752E+01  0.70294176126E+02  0.41800000000E+01 0. -1.
</event>
<event>
11    1  0.8974665E-009  0.1907644E+03  0.7561462E-02  0.1061254E+00
         22   -1    0    0    0    0  0.00000000000E+00  0.00000000000E+00  0.15929761602E+03  0.15929761602E+03  0.00000000000E+00 0. -1.
         22   -1    0    0    0    0 -0.00000000000E+00 -0.00000000000E+00 -0.30362257344E+04  0.30362257344E+04  0.00000000000E+00 0.  1.
        -24    2    1    2    0    0  0.11817612057E+03  0.80782622624E+02 -0.27497042190E+04  0.27546123399E+04  0.80773905051E+02 0.  0.
         25    2    1    2    0    0 -0.12716813666E+03 -0.93169064648E+02 -0.22986945097E+03  0.30551513741E+03  0.12508926856E+03 0.  0.
         24    2    1    2    0    0  0.89920160848E+01  0.12386442024E+02  0.10264555161E+03  0.13539587306E+03  0.86957764897E+02 0.  0.
        -13    1    5    5    0    0 -0.16114541964E+02  0.33471232486E+02  0.12055579056E+02  0.39055586709E+02  0.00000000000E+00 0.  1.
         14    1    5    5    0    0  0.25106558049E+02 -0.21084790462E+02  0.90589972559E+02  0.96340286350E+02  0.00000000000E+00 0. -1.
         13    1    3    3    0    0  0.80605285919E+02  0.73586909718E+02 -0.13567361074E+04  0.13611190655E+04  0.00000000000E+00 0. -1.
        -14    1    3    3    0    0  0.37570834652E+02  0.71957129062E+01 -0.13929681116E+04  0.13934932744E+04  0.00000000000E+00 0.  1.
          5    1    4    4  501    0 -0.13345911910E+03 -0.71598253455E+02 -0.23724762440E+03  0.28149876386E+03  0.41800000000E+01 0. -1.
         -5    1    4    4    0  501  0.62909824430E+01 -0.21570811193E+02  0.73781734283E+01  0.24016373555E+02  0.41800000000E+01 0. -1.
</event>
<event>
11    1  0.8974665E-009  0.1375541E+03  0.7561462E-02  0.1110321E+00
         22   -1    0    0    0    0  0.00000000000E+00  0.00000000000E+00  0.11637528626E+04  0.11637528626E+04  0.00000000000E+00 0. -1.
         22   -1    0    0    0    0 -0.00000000000E+00 -0.00000000000E+00 -0.94321939507E+03  0.94321939507E+03  0.00000000000E+00 0. -1.
         24    2    1    2    0    0  0.45407784508E+02 -0.34180742229E+02 -0.89868543251E+03  0.90395749421E+03  0.79205143132E+02 0.  0.
         25    2    1    2    0    0 -0.92042611135E+02  0.90313492129E+01  0.11311085258E+03  0.19234061501E+03  0.12508972650E+03 0.  0.
        -24    2    1    2    0    0  0.46634826627E+02  0.25149393016E+02  0.10061080475E+04  0.10106741485E+04  0.80009575510E+02 0.  0.
        -11    1    3    3    0    0  0.47178912814E+02  0.71224333901E+01 -0.29269124806E+03  0.29655479353E+03  0.00000000000E+00 0.  1.
         12    1    3    3    0    0 -0.17711283058E+01 -0.41303175619E+02 -0.60599418445E+03  0.60740270068E+03  0.00000000000E+00 0. -1.
         13    1    5    5    0    0  0.12234353240E+02 -0.27669714544E+02  0.44736538963E+03  0.44838720358E+03  0.00000000000E+00 0. -1.
        -14    1    5    5    0    0  0.34400473387E+02  0.52819107560E+02  0.55874265788E+03  0.56228694492E+03  0.00000000000E+00 0.  1.
          5    1    4    4  501    0 -0.49041691456E+02  0.60298900462E+02  0.95152572763E+02  0.12293302811E+03  0.41800000000E+01 0. -1.
         -5    1    4    4    0  501 -0.43000919680E+02 -0.51267551249E+02  0.17958279820E+02  0.69407586894E+02  0.41800000000E+01 0. -1.
</event>
<event>
11    1  0.8974665E-009  0.1299602E+03  0.7561462E-02  0.1119318E+00
         22   -1    0    0    0    0  0.00000000000E+00  0.00000000000E+00  0.72959769380E+02  0.72959769380E+02  0.00000000000E+00 0.  1.
         22   -1    0    0    0    0 -0.00000000000E+00 -0.00000000000E+00 -0.16077940632E+04  0.16077940632E+04  0.00000000000E+00 0. -1.
        -24    2    1    2    0    0 -0.20464349534E+02  0.29695608918E+02 -0.13090768446E+04  0.13117607300E+04  0.75719275843E+02 0.  0.
         25    2    1    2    0    0  0.24621692062E+02 -0.14320556248E+02 -0.25254204860E+03  0.28325941383E+03  0.12508838140E+03 0.  0.
         24    2    1    2    0    0 -0.41573425282E+01 -0.15375052670E+02  0.26784599417E+02  0.85733688782E+02  0.79869736977E+02 0.  0.
        -11    1    5    5    0    0 -0.15293575644E+02  0.16179927732E+02  0.43096171973E+02  0.48507355691E+02  0.00000000000E+00 0.  1.
         12    1    5    5    0    0  0.11136233116E+02 -0.31554980402E+02 -0.16311572556E+02  0.37226333091E+02  0.00000000000E+00 0. -1.
         13    1    3    3    0    0 -0.11399460745E+01  0.43652580098E+02 -0.11572844436E+04  0.11581079961E+04  0.00000000000E+00 0. -1.
        -14    1    3    3    0    0 -0.19324403460E+02 -0.13956971180E+02 -0.15179240099E+03  0.15365273382E+03  0.00000000000E+00 0.  1.
          5    1    4    4  501    0  0.65632566001E+02 -0.22355636268E+02 -0.21825575141E+03  0.22904247121E+03  0.41800000000E+01 0.  1.
         -5    1    4    4    0  501 -0.41010873939E+02  0.80350800201E+01 -0.34286297185E+02  0.54216942617E+02  0.41800000000E+01 0.  1.
</event>
<event>
11    1  0.8974665E-009  0.1392647E+03  0.7561462E-02  0.1108382E+00
         22   -1    0    0    0    0  0.00000000000E+00  0.00000000000E+00  0.71571227857E+03  0.71571227857E+03  0.00000000000E+00 0. -1.
         22   -1    0    0    0    0 -0.00000000000E+00 -0.00000000000E+00 -0.82308685995E+03  0.82308685995E+03  0.00000000000E+00 0.  1.
         24    2    1    2    0    0 -0.22806747255E+02  0.55642956877E+02 -0.77067037777E+03  0.77718184026E+03  0.80389646599E+02 0.  0.
         25    2    1    2    0    0  0.29712270219E+02 -0.11325444013E+03  0.12007594020E+03  0.20922310145E+03  0.12508672014E+03 0.  0.
        -24    2    1    2    0    0 -0.69055229640E+01  0.57611483249E+02  0.54321985619E+03  0.55239419681E+03  0.81760426015E+02 0.  0.
        -11    1    3    3    0    0  0.98641242438E+01  0.52054093465E+02 -0.64872438412E+03  0.65088421102E+03  0.00000000000E+00 0.  1.
         12    1    3    3    0    0 -0.32670871498E+02  0.35888634111E+01 -0.12194599365E+03  0.12629762924E+03  0.00000000000E+00 0. -1.
         11    1    5    5    0    0  0.25298719345E+02  0.22076707936E+02  0.39899344924E+03  0.40040376967E+03  0.00000000000E+00 0. -1.
        -12    1    5    5    0    0 -0.32204242309E+02  0.35534775313E+02  0.14422640695E+03  0.15199042713E+03  0.00000000000E+00 0.  1.
          5    1    4    4  501    0  0.44953012159E+02 -0.10931663111E+03  0.14014162863E+03  0.18337951798E+03  0.41800000000E+01 0.  1.
         -5    1    4    4    0  501 -0.15240741941E+02 -0.39378090186E+01 -0.20065688427E+02  0.25843583475E+02  0.41800000000E+01 0.  1.
</event>
<event>
11    1  0.8974665E-009  0.1821403E+03  0.7561462E-02  0.1067925E+00
         22   -1    0    0    0    0  0.00000000000E+00  0.00000000000E+00  0.10444456956E+04  0.10444456956E+04  0.00000000000E+00 0.  1.
         22   -1    0    0    0    0 -0.00000000000E+00 -0.00000000000E+00 -0.16327652400E+03  0.16327652400E+03  0.00000000000E+00 0. -1.
        -24    2    1    2    0    0  0.57718945968E+01  0.14894799874E+02 -0.93805854666E+02  0.12395076807E+03  0.79429746974E+02 0.  0.
         25    2    1    2    0    0  0.11213541256E+03 -0.74627580684E+02  0.13107375973E+03  0.22576624970E+03  0.12508574046E+03 0.  0.
         24    2    1    2    0    0 -0.11790730716E+03  0.59732780810E+02  0.84390126656E+03  0.85800520184E+03  0.80829700613E+02 0.  0.
        -13    1    5    5    0    0 -0.60635663955E+02  0.61654766165E+02  0.65263591217E+03  0.65834005482E+03  0.00000000000E+00 0.  1.
         14    1    5    5    0    0 -0.57271643204E+02 -0.19219853551E+01  0.19126535439E+03  0.19966514701E+03  0.00000000000E+00 0. -1.
         11    1    3    3    0    0  0.35793630962E+02  0.63380830858E+01 -0.83511656168E+02  0.91079921117E+02  0.00000000000E+00 0. -1.
        -12    1    3    3    0    0 -0.30021736365E+02  0.85567167879E+01 -0.10294198498E+02  0.32870846951E+02  0.00000000000E+00 0.  1.
          5    1    4    4  501    0  0.98650201180E+02 -0.47835003526E+01  0.11693406990E+03  0.15312019192E+03  0.41800000000E+01 0.  1.
         -5    1    4    4    0  501  0.13485211382E+02 -0.69844080331E+02  0.14139689822E+02  0.72646057784E+02  0.41800000000E+01 0.  1.
</event>
<event>
11    1  0.8974665E-009  0.1585613E+03  0.7561462E-02  0.1088438E+00
         22   -1    0    0    0    0  0.00000000000E+00  0.00000000000E+00  0.83553622949E+02  0.83553622949E+02  0.00000000000E+00 0. -1.
         22   -1    0    0    0    0 -0.00000000000E+00 -0.00000000000E+00 -0.79005733461E+03  0.79005733461E+03  0.00000000000E+00 0.  1.
        -24    2    1    2    0    0  0.18314648997E+02 -0.96145430872E+02 -0.46085491548E+03  0.47812207292E+03  0.81449943171E+02 0.  0.
         25    2    1    2    0    0  0.44435061188E+02  0.10115134060E+03 -0.24281052431E+03  0.29463827422E+03  0.12509473831E+03 0.  0.
         24    2    1    2    0    0 -0.62749710184E+02 -0.50059097250E+01 -0.28382718646E+01  0.10085061041E+03  0.78741377771E+02 0.  0.
        -13    1    5    5    0    0 -0.19622156352E+02  0.30873116908E+02 -0.20628642605E+02  0.41996657762E+02  0.00000000000E+00 0.  1.
         14    1    5    5    0    0 -0.43127553832E+02 -0.35879026633E+02  0.17790370740E+02  0.58853952652E+02  0.00000000000E+00 0. -1.
         11    1    3    3    0    0 -0.56937832287E+01 -0.55331280256E+02 -0.10221393200E+03  0.11636862824E+03  0.00000000000E+00 0. -1.
        -12    1    3    3    0    0  0.24008432225E+02 -0.40814150616E+02 -0.35864098348E+03  0.36175344468E+03  0.00000000000E+00 0.  1.
          5    1    4    4  501    0 -0.10810151851E+02 -0.17790742690E+02 -0.93435396464E+02  0.95817616444E+02  0.41800000000E+01 0. -1.
         -5    1    4    4    0  501  0.55245213039E+02  0.11894208329E+03 -0.14937512785E+03  0.19882065778E+03  0.41800000000E+01 0. -1.
</event>
<event>
11    1  0.8974665E-009  0.1582642E+03  0.7561462E-02  0.1088721E+00
         22   -1    0    0    0    0  0.00000000000E+00  0.00000000000E+00  0.69425716908E+03  0.69425716908E+03  0.00000000000E+00 0. -1.
         22   -1    0    0    0    0 -0.00000000000E+00 -0.00000000000E+00 -0.20914083510E+03  0.20914083510E+03  0.00000000000E+00 0.  1.
        -24    2    1    2    0    0 -0.83509795867E+01  0.28407213543E+01 -0.16914214991E+03  0.18855271257E+03  0.82856804082E+02 0.  0.
         25    2    1    2    0    0 -0.33427235318E+02  0.87079921990E+02  0.29724028097E+03  0.33570729597E+03  0.12508921241E+03 0.  0.
         24    2    1    2    0    0  0.41778214904E+02 -0.89920643345E+02  0.35701820292E+03  0.37913799565E+03  0.80327337722E+02 0.  0.
        -13    1    5    5    0    0 -0.41348657418E+01 -0.80200886009E+02  0.23897388707E+03  0.25210671933E+03  0.00000000000E+00 0.  1.
         14    1    5    5    0    0  0.45913080646E+02 -0.97197573353E+01  0.11804431586E+03  0.12703127632E+03  0.00000000000E+00 0. -1.
         11    1    3    3    0    0 -0.20467594305E+01  0.10891656315E+02  0.63435027049E+01  0.12769394192E+02  0.00000000000E+00 0. -1.
        -12    1    3    3    0    0 -0.63042201562E+01 -0.80509349611E+01 -0.17548565262E+03  0.17578331838E+03  0.00000000000E+00 0.  1.
          5    1    4    4  501    0  0.19924658273E+02  0.97462883207E+02  0.21636829922E+03  0.23817791442E+03  0.41800000000E+01 0. -1.
         -5    1    4    4    0  501 -0.53351893590E+02 -0.10382961217E+02  0.80871981750E+02  0.97529381549E+02  0.41800000000E+01 0. -1.
</event>
<event>
11    1  0.8974665E-009  0.1290766E+03  0.7561462E-02  0.1120409E+00
         22   -1    0    0    0    0  0.00000000000E+00  0.00000000000E+00  0.10818622070E+03  0.10818622070E+03  0.00000000000E+00 0. -1.
         22   -1    0    0    0    0 -0.00000000000E+00 -0.00000000000E+00 -0.16043474435E+04  0.16043474435E+04  0.00000000000E+00 0. -1.
         24    2    1    2    0    0 -0.12490425040E+01  0.15668355540E+02 -0.94097125486E+03  0.94455337930E+03  0.80666761432E+02 0.  0.
         25    2    1    2    0    0  0.36721694541E+01  0.16491791889E+02 -0.63650445058E+03  0.64890091060E+03  0.12509601169E+03 0.  0.
        -24    2    1    2    0    0 -0.24231269501E+01 -0.32160147429E+02  0.81314482634E+02  0.11907937430E+03  0.80794218053E+02 0.  0.
        -11    1    3    3    0    0  0.11646097854E+02  0.14426486303E+02 -0.47529781614E+02  0.51017989401E+02  0.00000000000E+00 0.  1.
         12    1    3    3    0    0 -0.12895140358E+02  0.12418692375E+01 -0.89344147325E+03  0.89353538990E+03  0.00000000000E+00 0. -1.
         13    1    5    5    0    0 -0.36853740969E+02 -0.36093741861E+02  0.56175294407E+02  0.76266769478E+02  0.00000000000E+00 0. -1.
        -14    1    5    5    0    0  0.34430614019E+02  0.39335944320E+01  0.25139188227E+02  0.42812604822E+02  0.00000000000E+00 0.  1.
          5    1    4    4  501    0  0.42610162464E+02 -0.28171105860E+02 -0.14442287461E+03  0.15324710849E+03  0.41800000000E+01 0. -1.
         -5    1    4    4    0  501 -0.38937993009E+02  0.44662897749E+02 -0.49208157597E+03  0.49565380211E+03  0.41800000000E+01 0. -1.
</event>
<event>
11    1  0.8974665E-009  0.1302671E+03  0.7561462E-02  0.1118941E+00
         22   -1    0    0    0    0  0.00000000000E+00  0.00000000000E+00  0.54416589008E+02  0.54416589008E+02  0.00000000000E+00 0. -1.
         22   -1    0    0    0    0 -0.00000000000E+00 -0.00000000000E+00 -0.11846903479E+04  0.11846903479E+04  0.00000000000E+00 0.  1.
         24    2    1    2    0    0 -0.26869274625E+02 -0.19294036560E+02 -0.78074695830E+03  0.78562910249E+03  0.80950948215E+02 0.  0.
         25    2    1    2    0    0  0.16620795677E+02  0.52599556342E+02 -0.33837367176E+03  0.36494780237E+03  0.12508873864E+03 0.  0.
        -24    2    1    2    0    0  0.10248478949E+02 -0.33305519782E+02 -0.11153128864E+02  0.88530032085E+02  0.80615664289E+02 0.  0.
        -13    1    3    3    0    0 -0.26706335334E+02 -0.29722016542E+01 -0.75269044779E+03  0.75316994930E+03  0.00000000000E+00 0.  1.
         14    1    3    3    0    0 -0.16293929118E+00 -0.16321834905E+02 -0.28056510505E+02  0.32459153187E+02  0.00000000000E+00 0. -1.
         11    1    5    5    0    0 -0.31697673296E+02  0.97371472747E+00  0.47641687699E+01  0.32068487909E+02  0.00000000000E+00 0. -1.
        -12    1    5    5    0    0  0.41946152245E+02 -0.34279234509E+02 -0.15917297634E+02  0.56461544175E+02  0.00000000000E+00 0.  1.
          5    1    4    4  501    0 -0.69003174451E+01  0.16531169787E+02  0.48379156674E+01  0.19020299246E+02  0.41800000000E+01 0.  1.
         -5    1    4    4    0  501  0.23521113122E+02  0.36068386554E+02 -0.34321158743E+03  0.34592750312E+03  0.41800000000E+01 0.  1.
</event>
<event>
11    1  0.1329523E-008  0.1629040E+03  0.7561462E-02  0.1084377E+00
         22   -1    0    0    0    0  0.00000000000E+00  0.00000000000E+00  0.34097970478E+03  0.34097970478E+03  0.00000000000E+00 0.  1.
         22   -1    0    0    0    0 -0.00000000000E+00 -0.00000000000E+00 -0.14348991951E+04  0.14348991951E+04  0.00000000000E+00 0.  1.
        -24    2    1    2    0    0 -0.89172134960E+00  0.11665400853E+03 -0.11903790214E+04  0.11987718318E+04  0.80266663760E+02 0.  0.
         25    2    1    2    0    0 -0.18984375619E+02 -0.46555184148E+02 -0.21141001456E+03  0.25073720089E+03  0.12508860047E+03 0.  0.
         24    2    1    2    0    0  0.19876096968E+02 -0.70098824380E+02  0.30786954561E+03  0.32636986719E+03  0.80154405273E+02 0.  0.
        -13    1    5    5    0    0  0.26068618438E+02 -0.74178476553E+02  0.30901982409E+03  0.31886560010E+03  0.00000000000E+00 0.  1.
         14    1    5    5    0    0 -0.61925214694E+01  0.40796521731E+01 -0.11502784711E+01  0.75042670903E+01  0.00000000000E+00 0. -1.
         13    1    3    3    0    0  0.16031571733E+02 -0.59302488489E+01 -0.10842367541E+03  0.10976280123E+03  0.00000000000E+00 0. -1.
        -14    1    3    3    0    0 -0.16923293082E+02  0.12258425738E+03 -0.10819553460E+04  0.10890090306E+04  0.00000000000E+00 0.  1.
          5    1    4    4  501    0 -0.29410393101E+02 -0.62475807907E+02 -0.43539197382E+02  0.81739414634E+02  0.41800000000E+01 0.  1.
         -5    1    4    4    0  501  0.10426017483E+02  0.15920623760E+02 -0.16787081718E+03  0.16899778626E+03  0.41800000000E+01 0.  1.
</event>
<event>
11    1  0.8974665E-009  0.1438804E+03  0.7561462E-02  0.1103301E+00
         22   -1    0    0    0    0  0.00000000000E+00  0.00000000000E+00  0.84646673081E+03  0.84646673081E+03  0.00000000000E+00 0.  1.
         22   -1    0    0    0    0 -0.00000000000E+00 -0.00000000000E+00 -0.12166522450E+03  0.12166522450E+03  0.00000000000E+00 0. -1.
         24    2    1    2    0    0 -0.18486787523E+01  0.84507014571E+02 -0.44507647914E+02  0.12436609954E+03  0.79631293265E+02 0.  0.
         25    2    1    2    0    0  0.32515620821E+02 -0.24723203087E+02  0.97362930869E+02  0.16369901503E+03  0.12509726155E+03 0.  0.
        -24    2    1    2    0    0 -0.30666942069E+02 -0.59783811484E+02  0.67194622336E+03  0.68006684073E+03  0.80402831573E+02 0.  0.
        -11    1    3    3    0    0 -0.26814011413E+02  0.69567610016E+02 -0.42254296824E+01  0.74675952136E+02  0.00000000000E+00 0.  1.
         12    1    3    3    0    0  0.24965332661E+02  0.14939404555E+02 -0.40282218231E+02  0.49690147403E+02  0.00000000000E+00 0. -1.
         13    1    5    5    0    0 -0.15041351566E+02 -0.68388816161E+02  0.31561966756E+03  0.32329405653E+03  0.00000000000E+00 0. -1.
        -14    1    5    5    0    0 -0.15625590503E+02  0.86050046767E+01  0.35632655580E+03  0.35677278421E+03  0.00000000000E+00 0.  1.
          5    1    4    4  501    0  0.46408651376E+02  0.40226033261E+02  0.65593774747E+02  0.89955057445E+02  0.41800000000E+01 0.  1.
         -5    1    4    4    0  501 -0.13893030554E+02 -0.64949236348E+02  0.31769156121E+02  0.73743957589E+02  0.41800000000E+01 0.  1.
</event>
<event>
11    1  0.8974665E-009  0.1414449E+03  0.7561462E-02  0.1105956E+00
         22   -1    0    0    0    0  0.00000000000E+00  0.00000000000E+00  0.33352233924E+04  0.33352233924E+04  0.00000000000E+00 0.  1.
         22   -1    0    0    0    0 -0.00000000000E+00 -0.00000000000E+00 -0.25832719984E+03  0.25832719984E+03  0.00000000000E+00 0. -1.
         24    2    1    2    0    0 -0.56225252569E+02  0.34786950842E+02 -0.24256572114E+03  0.26395781039E+03  0.80400159321E+02 0.  0.
         25    2    1    2    0    0  0.56696424257E+01 -0.71713243925E+02  0.14274751511E+04  0.14347537730E+04  0.12513252093E+03 0.  0.
        -24    2    1    2    0    0  0.50555610143E+02  0.36926293082E+02  0.18919867626E+04  0.18948390089E+04  0.82955041743E+02 0.  0.
        -13    1    3    3    0    0  0.15208680314E+02  0.28130328725E+02 -0.85424354080E+02  0.91213703034E+02  0.00000000000E+00 0.  1.
         14    1    3    3    0    0 -0.71433932883E+02  0.66566221173E+01 -0.15714136706E+03  0.17274410735E+03  0.00000000000E+00 0. -1.
         13    1    5    5    0    0  0.25266201293E+02  0.66329909205E+01  0.14050021487E+03  0.14290796995E+03  0.00000000000E+00 0. -1.
        -14    1    5    5    0    0  0.25289408850E+02  0.30293302162E+02  0.17514865477E+04  0.17519310389E+04  0.00000000000E+00 0.  1.
          5    1    4    4  501    0 -0.75256297554E+01 -0.10327725665E+03  0.85793179355E+03  0.86416853774E+03  0.41800000000E+01 0.  1.
         -5    1    4    4    0  501  0.13195272181E+02  0.31564012727E+02  0.56954335760E+03  0.57058523526E+03  0.41800000000E+01 0.  1.
</event>
<event>
11    1  0.8974665E-009  0.1740321E+03  0.7561462E-02  0.1074575E+00
         22   -1    0    0    0    0  0.00000000000E+00  0.00000000000E+00  0.66596958367E+02  0.66596958367E+02  0.00000000000E+00 0.  1.
         22   -1    0    0    0    0 -0.00000000000E+00 -0.00000000000E+00 -0.24131711722E+04  0.24131711722E+04  0.00000000000E+00 0.  1.
        -24    2    1    2    0    0 -0.12641097566E+03 -0.52581431529E+01 -0.13261224973E+04  0.13346314623E+04  0.81442491864E+02 0.  0.
         25    2    1    2    0    0  0.97323116037E+02 -0.10624126864E+03 -0.98018306312E+03  0.99858206537E+03  0.12509319712E+03 0.  0.
         24    2    1    2    0    0  0.29087859627E+02  0.11149941179E+03 -0.40268653377E+02  0.14655460286E+03  0.81107735563E+02 0.  0.
        -13    1    5    5    0    0  0.53296593378E+02  0.91876418130E+02 -0.16784748951E+02  0.10753385919E+03  0.00000000000E+00 0.  1.
         14    1    5    5    0    0 -0.24208733751E+02  0.19622993662E+02 -0.23483904426E+02  0.39020743678E+02  0.00000000000E+00 0. -1.
         11    1    3    3    0    0 -0.12954728809E+03  0.40565956838E+00 -0.98921398085E+03  0.99766074611E+03  0.00000000000E+00 0. -1.
        -12    1    3    3    0    0  0.31363124216E+01 -0.56638027213E+01 -0.33690851649E+03  0.33697071624E+03  0.00000000000E+00 0.  1.
          5    1    4    4  501    0  0.40458034044E+02 -0.15088353839E+02 -0.72018990384E+02  0.84075670180E+02  0.41800000000E+01 0. -1.
         -5    1    4    4    0  501  0.56865081992E+02 -0.91152914801E+02 -0.90816407274E+03  0.91450639519E+03  0.41800000000E+01 0. -1.
</event>
<event>
11    1  0.8974665E-009  0.1410098E+03  0.7561462E-02  0.1106436E+00
         22   -1    0    0    0    0  0.00000000000E+00  0.00000000000E+00  0.64113768703E+03  0.64113768703E+03  0.00000000000E+00 0. -1.
         22   -1    0    0    0    0 -0.00000000000E+00 -0.00000000000E+00 -0.52293866064E+03  0.52293866064E+03  0.00000000000E+00 0. -1.
         24    2    1    2    0    0 -0.13221832998E+02 -0.63602763676E+02 -0.45539301862E+03  0.47173935457E+03  0.10457097506E+03 0.  0.
         25    2    1    2    0    0  0.14078544934E+02  0.64973569067E+02  0.32531565122E+02  0.14534481978E+03  0.12508814413E+03 0.  0.
        -24    2    1    2    0    0 -0.85671193572E+00 -0.13708053913E+01  0.54106047988E+03  0.54699217332E+03  0.80320493787E+02 0.  0.
        -11    1    3    3    0    0  0.42446712997E+02 -0.34037765147E+02 -0.14192209331E+03  0.15199399156E+03  0.00000000000E+00 0.  1.
         12    1    3    3    0    0 -0.55668545995E+02 -0.29564998529E+02 -0.31347092531E+03  0.31974536301E+03  0.00000000000E+00 0. -1.
         11    1    5    5    0    0  0.11731292831E+02 -0.31577198360E+02  0.42709707507E+03  0.42842345200E+03  0.00000000000E+00 0. -1.
        -12    1    5    5    0    0 -0.12588004767E+02  0.30206392969E+02  0.11396340482E+03  0.11856872133E+03  0.00000000000E+00 0.  1.
          5    1    4    4  501    0  0.29711904895E+02 -0.22483963016E+02 -0.19540937377E+02  0.42280569047E+02  0.41800000000E+01 0.  1.
         -5    1    4    4    0  501 -0.15633359961E+02  0.87457532083E+02  0.52072502499E+02  0.10306425073E+03  0.41800000000E+01 0.  1.
</event>
<event>
11    1  0.8974665E-009  0.1320319E+03  0.7561462E-02  0.1116797E+00
         22   -1    0    0    0    0  0.00000000000E+00  0.00000000000E+00  0.92772849337E+03  0.92772849337E+03  0.00000000000E+00 0. -1.
         22   -1    0    0    0    0 -0.00000000000E+00 -0.00000000000E+00 -0.12226203625E+03  0.12226203625E+03  0.00000000000E+00 0.  1.
        -24    2    1    2    0    0 -0.22451987130E+02 -0.13631722495E+02 -0.63394376227E+02  0.10465907787E+03  0.79023794259E+02 0.  0.
         25    2    1    2    0    0  0.56952056759E+02 -0.93748685470E+01  0.97585970407E+02  0.16882234461E+03  0.12508612029E+03 0.  0.
         24    2    1    2    0    0 -0.34500069629E+02  0.23006591042E+02  0.77127486294E+03  0.77650910714E+03  0.79886927748E+02 0.  0.
        -11    1    5    5    0    0 -0.53848995525E+01 -0.83784835769E+01  0.10288574156E+02  0.14319598053E+02  0.00000000000E+00 0.  1.
         12    1    5    5    0    0 -0.29115170077E+02  0.31385074619E+02  0.76098628879E+03  0.76218950908E+03  0.00000000000E+00 0. -1.
         11    1    3    3    0    0 -0.12931168349E+02 -0.24448197330E+02  0.10342125797E+02  0.29527767161E+02  0.00000000000E+00 0. -1.
        -12    1    3    3    0    0 -0.95208187806E+01  0.10816474834E+02 -0.73736502024E+02  0.75131310708E+02  0.00000000000E+00 0.  1.
          5    1    4    4  501    0  0.34085219936E+02 -0.63914978195E+02  0.77650125380E+02  0.10627295530E+03  0.41800000000E+01 0.  1.
         -5    1    4    4    0  501  0.22866836823E+02  0.54540109648E+02  0.19935845028E+02  0.62549389315E+02  0.41800000000E+01 0.  1.
</event>
<event>
11    1  0.8974665E-009  0.1677540E+03  0.7561462E-02  0.1080003E+00
         22   -1    0    0    0    0  0.00000000000E+00  0.00000000000E+00  0.33636559491E+03  0.33636559491E+03  0.00000000000E+00 0. -1.
         22   -1    0    0    0    0 -0.00000000000E+00 -0.00000000000E+00 -0.87257231606E+03  0.87257231606E+03  0.00000000000E+00 0.  1.
         24    2    1    2    0    0 -0.49515305915E+02  0.94376271944E+02 -0.58473372646E+03  0.60077565920E+03  0.87516944651E+02 0.  0.
         25    2    1    2    0    0  0.65524979206E+02 -0.11377474571E+03 -0.24413398000E+03  0.30411683963E+03  0.12508971299E+03 0.  0.
        -24    2    1    2    0    0 -0.16009673291E+02  0.19398473765E+02  0.29266098531E+03  0.30404541214E+03  0.78489170562E+02 0.  0.
        -11    1    3    3    0    0 -0.64183371272E+02  0.87471000124E+02 -0.56458342967E+03  0.57491315002E+03  0.00000000000E+00 0.  1.
         12    1    3    3    0    0  0.14668065357E+02  0.69052718200E+01 -0.20150296789E+02  0.25862509176E+02  0.00000000000E+00 0. -1.
         11    1    5    5    0    0 -0.59318569218E+01  0.19055583038E+02  0.29326537073E+03  0.29394366781E+03  0.00000000000E+00 0. -1.
        -12    1    5    5    0    0 -0.10077816369E+02  0.34289072710E+00 -0.60438542261E+00  0.10101744332E+02  0.00000000000E+00 0.  1.
          5    1    4    4  501    0 -0.29757264822E+02  0.32680140136E+01 -0.45249290996E+02  0.54416408012E+02  0.41800000000E+01 0.  1.
         -5    1    4    4    0  501  0.95282244028E+02 -0.11704275972E+03 -0.19888468900E+03  0.24970043162E+03  0.41800000000E+01 0.  1.
</event>
<event>
11    1  0.8974665E-009  0.1400874E+03  0.7561462E-02  0.1107461E+00
         22   -1    0    0    0    0  0.00000000000E+00  0.00000000000E+00  0.14404857020E+04  0.14404857020E+04  0.00000000000E+00 0. -1.
         22   -1    0    0    0    0 -0.00000000000E+00 -0.00000000000E+00 -0.25345235749E+03  0.25345235749E+03  0.00000000000E+00 0. -1.
         24    2    1    2    0    0  0.14334686776E+02 -0.19063000673E+02 -0.23570464769E+03  0.25024635121E+03  0.80608151628E+02 0.  0.
         25    2    1    2    0    0 -0.61773927467E+02  0.47174213091E+02  0.79592246900E+03  0.80943325268E+03  0.12509272318E+03 0.  0.
        -24    2    1    2    0    0  0.47439240691E+02 -0.28111212418E+02  0.62681552322E+03  0.63425845562E+03  0.79657809127E+02 0.  0.
        -13    1    3    3    0    0 -0.16157966548E+02 -0.41214632925E+02 -0.15458231055E+03  0.16079619580E+03  0.00000000000E+00 0.  1.
         14    1    3    3    0    0  0.30492653324E+02  0.22151632252E+02 -0.81122337147E+02  0.89450155407E+02  0.00000000000E+00 0. -1.
         13    1    5    5    0    0  0.38842640987E+02  0.12787856669E+01  0.55272180165E+03  0.55408643376E+03  0.00000000000E+00 0. -1.
        -14    1    5    5    0    0  0.85965997039E+01 -0.29389998085E+02  0.74093721571E+02  0.80172021867E+02  0.00000000000E+00 0.  1.
          5    1    4    4  501    0 -0.69724967191E+01 -0.41380744145E+02  0.19126144806E+03  0.19585554781E+03  0.41800000000E+01 0.  1.
         -5    1    4    4    0  501 -0.54801430748E+02  0.88554957236E+02  0.60466102094E+03  0.61357770487E+03  0.41800000000E+01 0.  1.
</event>
<event>
11    1  0.8974665E-009  0.1452714E+03  0.7561462E-02  0.1101811E+00
         22   -1    0    0    0    0  0.00000000000E+00  0.00000000000E+00  0.20271225152E+04  0.20271225152E+04  0.00000000000E+00 0. -1.
         22   -1    0    0    0    0 -0.00000000000E+00 -0.00000000000E+00 -0.93351413455E+02  0.93351413455E+02  0.00000000000E+00 0.  1.
        -24    2    1    2    0    0  0.17322683452E+02  0.52556075140E+02 -0.54191944687E+02  0.11187386042E+03  0.80726559329E+02 0.  0.
         25    2    1    2    0    0 -0.86315853501E+02 -0.50060016701E+02  0.80875892340E+03  0.82443727002E+03  0.12509749871E+03 0.  0.
         24    2    1    2    0    0  0.68993170050E+02 -0.24960584393E+01  0.11792041230E+04  0.11841627982E+04  0.83383937700E+02 0.  0.
        -11    1    5    5    0    0 -0.17903654196E+02  0.36289040129E+01  0.11999834869E+03  0.12138086120E+03  0.00000000000E+00 0.  1.
         12    1    5    5    0    0  0.86896824246E+02 -0.61249624521E+01  0.10592057743E+04  0.10627819370E+04  0.00000000000E+00 0. -1.
         11    1    3    3    0    0 -0.41840059183E+00 -0.50303282326E+01  0.17504948521E+02  0.18218191016E+02  0.00000000000E+00 0. -1.
        -12    1    3    3    0    0  0.17741084044E+02  0.57586403373E+02 -0.71696893208E+02  0.93655669408E+02  0.00000000000E+00 0.  1.
          5    1    4    4  501    0 -0.11220294282E+03 -0.22722173789E+02  0.47892597685E+03  0.49243614943E+03  0.41800000000E+01 0.  1.
         -5    1    4    4    0  501  0.25887089314E+02 -0.27337842912E+02  0.32983294655E+03  0.33200112059E+03  0.41800000000E+01 0.  1.
</event>
<event>
11    1  0.8974665E-009  0.1774470E+03  0.7561462E-02  0.1071727E+00
         22   -1    0    0    0    0  0.00000000000E+00  0.00000000000E+00  0.95069686259E+03  0.95069686259E+03  0.00000000000E+00 0. -1.
         22   -1    0    0    0    0 -0.00000000000E+00 -0.00000000000E+00 -0.20662692594E+03  0.20662692594E+03  0.00000000000E+00 0.  1.
        -24    2    1    2    0    0  0.96930844620E+02  0.84886016250E+02 -0.15280554460E+03  0.21505106918E+03  0.79348620040E+02 0.  0.
         25    2    1    2    0    0 -0.77082932021E+02 -0.56467256377E+02  0.29696719430E+03  0.33611422990E+03  0.12511167650E+03 0.  0.
         24    2    1    2    0    0 -0.19847912599E+02 -0.28418759873E+02  0.59990828694E+03  0.60615848946E+03  0.79602738984E+02 0.  0.
        -13    1    5    5    0    0 -0.23231081936E+02 -0.30068151442E+02  0.11264982578E+03  0.11888549175E+03  0.00000000000E+00 0.  1.
         14    1    5    5    0    0  0.33831693371E+01  0.16493915690E+01  0.48725846116E+03  0.48727299771E+03  0.00000000000E+00 0. -1.
         13    1    3    3    0    0  0.80553363866E+02  0.25942977763E+02 -0.59395138365E+02  0.10339083609E+03  0.00000000000E+00 0. -1.
        -14    1    3    3    0    0  0.16377480754E+02  0.58943038487E+02 -0.93410406230E+02  0.11166023309E+03  0.00000000000E+00 0.  1.
          5    1    4    4  501    0 -0.15065985502E+02  0.39294150799E+02  0.97688348948E+02  0.10644951915E+03  0.41800000000E+01 0.  1.
         -5    1    4    4    0  501 -0.62016946519E+02 -0.95761407176E+02  0.19927884535E+03  0.22966471075E+03  0.41800000000E+01 0.  1.
</event>
<event>
11    1  0.8974665E-009  0.1428890E+03  0.7561462E-02  0.1104375E+00
         22   -1    0    0    0    0  0.00000000000E+00  0.00000000000E+00  0.22135021848E+04  0.22135021848E+04  0.00000000000E+00 0.  1.
         22   -1    0    0    0    0 -0.00000000000E+00 -0.00000000000E+00 -0.42624307689E+02  0.42624307689E+02  0.00000000000E+00 0.  1.
        -24    2    1    2    0    0 -0.23615137436E+02  0.11634461306E+02  0.21269567114E+02  0.85873539895E+02  0.78922968538E+02 0.  0.
         25    2    1    2    0    0 -0.17100777148E+02 -0.68158677756E+02  0.59172894923E+03  0.60887501897E+03  0.12509035705E+03 0.  0.
         24    2    1    2    0    0  0.40715914585E+02  0.56524216451E+02  0.15578793608E+04  0.15613779336E+04  0.77847133403E+02 0.  0.
        -11    1    5    5    0    0  0.90236643485E-01  0.63273179998E+02  0.93342660681E+03  0.93556866864E+03  0.00000000000E+00 0.  1.
         12    1    5    5    0    0  0.40625677941E+02 -0.67489635473E+01  0.62445275397E+03  0.62580926500E+03  0.00000000000E+00 0. -1.
         13    1    3    3    0    0  0.26106521882E+02  0.15819978894E+02 -0.24524914951E+01  0.30624123359E+02  0.00000000000E+00 0. -1.
        -14    1    3    3    0    0 -0.49721659319E+02 -0.41855175886E+01  0.23722058609E+02  0.55249416536E+02  0.00000000000E+00 0.  1.
          5    1    4    4  501    0  0.53849317598E+02 -0.38675596042E+02  0.26282427833E+03  0.27108969810E+03  0.41800000000E+01 0. -1.
         -5    1    4    4    0  501 -0.70950094747E+02 -0.29483081714E+02  0.32890467091E+03  0.33778532087E+03  0.41800000000E+01 0. -1.
</event>
<event>
11    1  0.8974665E-009  0.5138184E+03  0.7561462E-02  0.9363163E-01
         22   -1    0    0    0    0  0.00000000000E+00  0.00000000000E+00  0.30338507775E+04  0.30338507775E+04  0.00000000000E+00 0. -1.
         22   -1    0    0    0    0 -0.00000000000E+00 -0.00000000000E+00 -0.10108863292E+04  0.10108863292E+04  0.00000000000E+00 0.  1.
        -24    2    1    2    0    0 -0.15503743435E+03 -0.36867343574E+02 -0.98102136474E+03  0.99712491260E+03  0.80370182040E+02 0.  0.
         25    2    1    2    0    0 -0.34176536172E+02  0.11907265808E+02  0.21797927243E+03  0.25391200138E+03  0.12508606091E+03 0.  0.
         24    2    1    2    0    0  0.18921397052E+03  0.24960077766E+02  0.27860065406E+04  0.27937001927E+04  0.80643602671E+02 0.  0.
        -13    1    5    5    0    0  0.73040127772E+02  0.17873751393E+02  0.61566507534E+03  0.62024012790E+03  0.00000000000E+00 0.  1.
         14    1    5    5    0    0  0.11617384275E+03  0.70863263729E+01  0.21703414652E+04  0.21734600648E+04  0.00000000000E+00 0. -1.
         11    1    3    3    0    0 -0.40371910217E+02  0.38845602064E+01 -0.10278651344E+03  0.11049908727E+03  0.00000000000E+00 0. -1.
        -12    1    3    3    0    0 -0.11466552413E+03 -0.40751903780E+02 -0.87823485131E+03  0.88662582533E+03  0.00000000000E+00 0.  1.
          5    1    4    4  501    0 -0.55374558779E+02 -0.43579289788E+02  0.12270470266E+03  0.14156063264E+03  0.41800000000E+01 0. -1.
         -5    1    4    4    0  501  0.21198022607E+02  0.55486555596E+02  0.95274569767E+02  0.11235136874E+03  0.41800000000E+01 0. -1.
</event>
<event>
11    1  0.8974665E-009  0.1360109E+03  0.7561462E-02  0.1112096E+00
         22   -1    0    0    0    0  0.00000000000E+00  0.00000000000E+00  0.13967099010E+03  0.13967099010E+03  0.00000000000E+00 0.  1.
         22   -1    0    0    0    0 -0.00000000000E+00 -0.00000000000E+00 -0.96427206849E+03  0.96427206849E+03  0.00000000000E+00 0. -1.
        -24    2    1    2    0    0  0.15784298253E+02  0.35246617509E+02 -0.82222352580E+03  0.82708517802E+03  0.80789214607E+02 0.  0.
         25    2    1    2    0    0 -0.37757600565E+02  0.18440621254E+02 -0.76023424094E+02  0.15229283900E+03  0.12509138614E+03 0.  0.
         24    2    1    2    0    0  0.21973302312E+02 -0.53687238762E+02  0.73645871510E+02  0.12456504157E+03  0.82021884711E+02 0.  0.
        -13    1    5    5    0    0 -0.11277469272E+02 -0.35124749715E+02  0.77952502296E+02  0.86241068929E+02  0.00000000000E+00 0.  1.
         14    1    5    5    0    0  0.33250771585E+02 -0.18562489047E+02 -0.43066307863E+01  0.38323972645E+02  0.00000000000E+00 0. -1.
         11    1    3    3    0    0  0.13155212243E+02  0.20263573391E+02 -0.79873939962E+03  0.79910468684E+03  0.00000000000E+00 0. -1.
        -12    1    3    3    0    0  0.26290860092E+01  0.14983044117E+02 -0.23484126178E+02  0.27980491179E+02  0.00000000000E+00 0.  1.
          5    1    4    4  501    0  0.99177760977E+01  0.32420852084E+02 -0.93433214387E+02  0.99482218930E+02  0.41800000000E+01 0. -1.
         -5    1    4    4    0  501 -0.47675376663E+02 -0.13980230830E+02  0.17409790292E+02  0.52810620068E+02  0.41800000000E+01 0. -1.
</event>
<event>
11    1  0.8974665E-009  0.1360421E+03  0.7561462E-02  0.1112060E+00
         22   -1    0    0    0    0  0.00000000000E+00  0.00000000000E+00  0.16489570294E+04  0.16489570294E+04  0.00000000000E+00 0.  1.
         22   -1    0    0    0    0 -0.00000000000E+00 -0.00000000000E+00 -0.78488829730E+03  0.78488829730E+03  0.00000000000E+00 0. -1.
         24    2    1    2    0    0  0.26991317013E+01  0.19627302390E+02 -0.63274478716E+03  0.63785133887E+03  0.78075915050E+02 0.  0.
         25    2    1    2    0    0  0.50497587142E+02 -0.25175894840E+02 -0.11632244224E+03  0.17989490038E+03  0.12508969831E+03 0.  0.
        -24    2    1    2    0    0 -0.53196718843E+02  0.55485924502E+01  0.16131359615E+04  0.16160990875E+04  0.81902090160E+02 0.  0.
        -13    1    3    3    0    0  0.20026333457E+02 -0.94870108756E+01 -0.57694087743E+02  0.61803439771E+02  0.00000000000E+00 0.  1.
         14    1    3    3    0    0 -0.17327201755E+02  0.29114313266E+02 -0.57505069942E+03  0.57604789910E+03  0.00000000000E+00 0. -1.
         13    1    5    5    0    0 -0.70422656289E+02 -0.20582877252E+01  0.91466106716E+03  0.91737040220E+03  0.00000000000E+00 0. -1.
        -14    1    5    5    0    0  0.17225937446E+02  0.76068801754E+01  0.69847489439E+03  0.69872868529E+03  0.00000000000E+00 0.  1.
          5    1    4    4  501    0 -0.30469366944E+02 -0.41537845329E+02 -0.27569641574E+02  0.58577576367E+02  0.41800000000E+01 0. -1.
         -5    1    4    4    0  501  0.80966954086E+02  0.16361950488E+02 -0.88752800670E+02  0.12131732401E+03  0.41800000000E+01 0. -1.
</event>
<event>
11    1  0.8974665E-009  0.1513683E+03  0.7561462E-02  0.1095489E+00
         22   -1    0    0    0    0  0.00000000000E+00  0.00000000000E+00  0.75605533446E+02  0.75605533446E+02  0.00000000000E+00 0. -1.
         22   -1    0    0    0    0 -0.00000000000E+00 -0.00000000000E+00 -0.13774403716E+04  0.13774403716E+04  0.00000000000E+00 0. -1.
        -24    2    1    2    0    0 -0.75172670787E+02  0.42070631000E+02 -0.11977993610E+04  0.12033147937E+04  0.76304094767E+02 0.  0.
         25    2    1    2    0    0  0.62486364040E+02 -0.34672455418E+02 -0.82241288877E+02  0.16588408389E+03  0.12508866789E+03 0.  0.
         24    2    1    2    0    0  0.12686306747E+02 -0.73981755816E+01 -0.21794188215E+02  0.83847027487E+02  0.79621994434E+02 0.  0.
        -13    1    5    5    0    0  0.40174681193E+02 -0.12166128881E+02 -0.33387496718E+02  0.53635292840E+02  0.00000000000E+00 0.  1.
         14    1    5    5    0    0 -0.27488374446E+02  0.47679532992E+01  0.11593308503E+02  0.30211734647E+02  0.00000000000E+00 0. -1.
         13    1    3    3    0    0 -0.25773442618E+02  0.20341816434E+02 -0.90425227817E+03  0.90484818750E+03  0.00000000000E+00 0. -1.
        -14    1    3    3    0    0 -0.49399228169E+02  0.21728814566E+02 -0.29354708288E+03  0.29846660616E+03  0.00000000000E+00 0.  1.
          5    1    4    4  501    0  0.25958312965E+02  0.41406803805E+02 -0.15906398485E+01  0.49075044050E+02  0.41800000000E+01 0. -1.
         -5    1    4    4    0  501  0.36528051074E+02 -0.76079259224E+02 -0.80650649028E+02  0.11680903984E+03  0.41800000000E+01 0. -1.
</event>
<event>
11    1  0.8974665E-009  0.1375055E+03  0.7561462E-02  0.1110376E+00
         22   -1    0    0    0    0  0.00000000000E+00  0.00000000000E+00  0.33848167006E+03  0.33848167006E+03  0.00000000000E+00 0.  1.
         22   -1    0    0    0    0 -0.00000000000E+00 -0.00000000000E+00 -0.26886194905E+03  0.26886194905E+03  0.00000000000E+00 0.  1.
         24    2    1    2    0    0 -0.24628018437E+02 -0.37775411470E+02 -0.80576793623E+02  0.12148321338E+03  0.78943210346E+02 0.  0.
         25    2    1    2    0    0 -0.17595844572E+02  0.75605613164E+02 -0.12493327308E+03  0.19308389271E+03  0.12508894600E+03 0.  0.
        -24    2    1    2    0    0  0.42223863009E+02 -0.37830201695E+02  0.27512978771E+03  0.29277651302E+03  0.82508834228E+02 0.  0.
        -11    1    3    3    0    0 -0.25638492448E+02 -0.33075570063E+02 -0.96322129832E+02  0.10502037100E+03  0.00000000000E+00 0.  1.
         12    1    3    3    0    0  0.10104740105E+01 -0.46998414067E+01  0.15745336209E+02  0.16462842382E+02  0.00000000000E+00 0. -1.
         13    1    5    5    0    0  0.54351371590E+02 -0.37634621407E+02  0.11862581775E+03  0.13580324355E+03  0.00000000000E+00 0. -1.
        -14    1    5    5    0    0 -0.12127508581E+02 -0.19558028774E+00  0.15650396995E+03  0.15697326947E+03  0.00000000000E+00 0.  1.
          5    1    4    4  501    0 -0.35559021374E+02  0.99784407809E+02 -0.12332980072E+03  0.16263174410E+03  0.41800000000E+01 0. -1.
         -5    1    4    4    0  501  0.17963176802E+02 -0.24178794645E+02 -0.16034723599E+01  0.30452148609E+02  0.41800000000E+01 0. -1.
</event>
<event>
11    1  0.2318861E-008  0.1873594E+03  0.7561462E-02  0.1063841E+00
         22   -1    0    0    0    0  0.00000000000E+00  0.00000000000E+00  0.22118665099E+04  0.22118665099E+04  0.00000000000E+00 0.  1.
         22   -1    0    0    0    0 -0.00000000000E+00 -0.00000000000E+00 -0.29776135758E+03  0.29776135758E+03  0.00000000000E+00 0. -1.
         24    2    1    2    0    0 -0.13172138012E+02  0.14690599146E+02 -0.19247663861E+03  0.20948351226E+03  0.80291759083E+02 0.  0.
         25    2    1    2    0    0  0.10083204637E+03 -0.12236294304E+03  0.15231454103E+02  0.20253481603E+03  0.12509421691E+03 0.  0.
        -24    2    1    2    0    0 -0.87659908359E+02  0.10767234389E+03  0.20913503368E+04  0.20976095392E+04  0.83318391762E+02 0.  0.
        -13    1    3    3    0    0 -0.18089716861E+02 -0.17762961695E+02 -0.15997963161E+02  0.29978250275E+02  0.00000000000E+00 0.  1.
         14    1    3    3    0    0  0.49175788492E+01  0.32453560842E+02 -0.17647867545E+03  0.17950526199E+03  0.00000000000E+00 0. -1.
         13    1    5    5    0    0 -0.36966261441E+02 -0.58494560143E+01  0.52586031379E+03  0.52719046866E+03  0.00000000000E+00 0. -1.
        -14    1    5    5    0    0 -0.50693646918E+02  0.11352179991E+03  0.15654900230E+04  0.15704190705E+04  0.00000000000E+00 0.  1.
          5    1    4    4  501    0  0.33312310129E+01  0.23745679991E+02  0.11180606156E+02  0.26784935548E+02  0.41800000000E+01 0.  1.
         -5    1    4    4    0  501  0.97500815357E+02 -0.14610862303E+03  0.40508479475E+01  0.17574988048E+03  0.41800000000E+01 0.  1.
</event>
<event>
11    1  0.8974665E-009  0.1495544E+03  0.7561462E-02  0.1097335E+00
         22   -1    0    0    0    0  0.00000000000E+00  0.00000000000E+00  0.79994893727E+03  0.79994893727E+03  0.00000000000E+00 0.  1.
         22   -1    0    0    0    0 -0.00000000000E+00 -0.00000000000E+00 -0.17322373174E+03  0.17322373174E+03  0.00000000000E+00 0. -1.
        -24    2    1    2    0    0  0.70964648854E+02  0.45995352237E+02 -0.11118057506E+03  0.16125367359E+03  0.80560990312E+02 0.  0.
         25    2    1    2    0    0 -0.90955731393E+02  0.36011392297E+02  0.17107400188E+03  0.23341602681E+03  0.12508781716E+03 0.  0.
         24    2    1    2    0    0  0.19991082539E+02 -0.82006744534E+02  0.56683177870E+03  0.57850296862E+03  0.79010567827E+02 0.  0.
        -13    1    5    5    0    0  0.21705357669E+02 -0.33828379569E+01  0.28673863792E+03  0.28757888069E+03  0.00000000000E+00 0.  1.
         14    1    5    5    0    0 -0.17142751298E+01 -0.78623906577E+02  0.28009314078E+03  0.29092408793E+03  0.00000000000E+00 0. -1.
         11    1    3    3    0    0  0.62716296663E+02  0.68449910490E+02 -0.90055719683E+02  0.12933969522E+03  0.00000000000E+00 0. -1.
        -12    1    3    3    0    0  0.82483521915E+01 -0.22454558252E+02 -0.21124855376E+02  0.31913978362E+02  0.00000000000E+00 0.  1.
          5    1    4    4  501    0  0.20601347197E+02 -0.24121535135E+02  0.34827306869E+02  0.47293526696E+02  0.41800000000E+01 0. -1.
         -5    1    4    4    0  501 -0.11155707859E+03  0.60132927432E+02  0.13624669501E+03  0.18612250011E+03  0.41800000000E+01 0. -1.
</event>
<event>
11    1  0.8974665E-009  0.2240412E+03  0.7561462E-02  0.1038715E+00
         22   -1    0    0    0    0  0.00000000000E+00  0.00000000000E+00  0.76931059367E+03  0.76931059367E+03  0.00000000000E+00 0.  1.
         22   -1    0    0    0    0 -0.00000000000E+00 -0.00000000000E+00 -0.14569683440E+04  0.14569683440E+04  0.00000000000E+00 0.  1.
        -24    2    1    2    0    0  0.46462503759E+02 -0.17661387900E+03 -0.12510201648E+04  0.12670005432E+04  0.82992150572E+02 0.  0.
         25    2    1    2    0    0  0.97997681859E+02  0.27008038662E+03 -0.49595399164E+02  0.31725728901E+03  0.12508206477E+03 0.  0.
         24    2    1    2    0    0 -0.14446018562E+03 -0.93466507617E+02  0.61295781363E+03  0.64202110553E+03  0.82879945562E+02 0.  0.
        -13    1    5    5    0    0  0.22650695390E+01 -0.18404093978E+02  0.13887721402E+03  0.14010967771E+03  0.00000000000E+00 0.  1.
         14    1    5    5    0    0 -0.14672525516E+03 -0.75062413639E+02  0.47408059961E+03  0.50191142781E+03  0.00000000000E+00 0. -1.
         11    1    3    3    0    0  0.53427800525E+01 -0.14219118169E+03 -0.77352568717E+03  0.78650420607E+03  0.00000000000E+00 0. -1.
        -12    1    3    3    0    0  0.41119723707E+02 -0.34422697306E+02 -0.47749447767E+03  0.48049633711E+03  0.00000000000E+00 0.  1.
          5    1    4    4  501    0  0.12007469956E+03  0.23076969058E+03 -0.15606739781E+02  0.26064079936E+03  0.41800000000E+01 0.  1.
         -5    1    4    4    0  501 -0.22077017704E+02  0.39310696039E+02 -0.33988659382E+02  0.56616489651E+02  0.41800000000E+01 0.  1.
</event>
<event>
11    1  0.8974665E-009  0.2243691E+03  0.7561462E-02  0.1038515E+00
         22   -1    0    0    0    0  0.00000000000E+00  0.00000000000E+00  0.81700273885E+03  0.81700273885E+03  0.00000000000E+00 0.  1.
         22   -1    0    0    0    0 -0.00000000000E+00 -0.00000000000E+00 -0.84337048875E+03  0.84337048875E+03  0.00000000000E+00 0.  1.
         24    2    1    2    0    0 -0.15234370076E+02  0.18797139953E+03 -0.78522435146E+03  0.81178493255E+03  0.82777783936E+02 0.  0.
         25    2    1    2    0    0 -0.28169827175E+02 -0.14747435625E+03  0.19609335668E+03  0.27684099152E+03  0.12508439207E+03 0.  0.
        -24    2    1    2    0    0  0.43404197251E+02 -0.40497043281E+02  0.56276324489E+03  0.57174730353E+03  0.81661339933E+02 0.  0.
        -11    1    3    3    0    0 -0.92266795726E+01  0.18299781268E+03 -0.78227394794E+03  0.80344624007E+03  0.00000000000E+00 0.  1.
         12    1    3    3    0    0 -0.60076905034E+01  0.49735868457E+01 -0.29504035247E+01  0.83386924787E+01  0.00000000000E+00 0. -1.
         13    1    5    5    0    0  0.53266794870E+02 -0.15001082183E+01  0.20826493417E+03  0.21497414859E+03  0.00000000000E+00 0. -1.
        -14    1    5    5    0    0 -0.98625976192E+01 -0.38996935063E+02  0.35449831072E+03  0.35677315493E+03  0.00000000000E+00 0.  1.
          5    1    4    4  501    0 -0.65457096617E+02 -0.10945575223E+03  0.18077151737E+03  0.22127134267E+03  0.41800000000E+01 0.  1.
         -5    1    4    4    0  501  0.37287269442E+02 -0.38018604023E+02  0.15321839310E+02  0.55569648858E+02  0.41800000000E+01 0.  1.
</event>
<event>
11    1  0.8974665E-009  0.1308756E+03  0.7561462E-02  0.1118198E+00
         22   -1    0    0    0    0  0.00000000000E+00  0.00000000000E+00  0.13359430638E+04  0.13359430638E+04  0.00000000000E+00 0.  1.
         22   -1    0    0    0    0 -0.00000000000E+00 -0.00000000000E+00 -0.77389017822E+02  0.77389017822E+02  0.00000000000E+00 0. -1.
         24    2    1    2    0    0  0.45796915200E+01 -0.38064439480E+02 -0.69248445388E+01  0.89698651427E+02  0.80796159987E+02 0.  0.
         25    2    1    2    0    0  0.25296987628E+02  0.11135162099E+02  0.12298435450E+03  0.17758444911E+03  0.12508859138E+03 0.  0.
        -24    2    1    2    0    0 -0.29876679148E+02  0.26929277381E+02  0.11424945360E+04  0.11460489811E+04  0.80726081836E+02 0.  0.
        -11    1    3    3    0    0 -0.25127557325E+02 -0.48455638502E+02  0.74674168721E+01  0.55091790264E+02  0.00000000000E+00 0.  1.
         12    1    3    3    0    0  0.29707248845E+02  0.10391199022E+02 -0.14392261411E+02  0.34606861163E+02  0.00000000000E+00 0. -1.
         13    1    5    5    0    0  0.26041744477E+02  0.21827999056E+01  0.22358202297E+03  0.22510410495E+03  0.00000000000E+00 0. -1.
        -14    1    5    5    0    0 -0.55918423625E+02  0.24746477475E+02  0.91891251307E+03  0.92094487616E+03  0.00000000000E+00 0.  1.
          5    1    4    4  501    0  0.11424553039E+02 -0.55364357971E+02  0.36049561171E+02  0.67177197071E+02  0.41800000000E+01 0.  1.
         -5    1    4    4    0  501  0.13872434588E+02  0.66499520070E+02  0.86934793330E+02  0.11040725204E+03  0.41800000000E+01 0.  1.
</event>
<event>
11    1  0.8974665E-009  0.1323663E+03  0.7561462E-02  0.1116395E+00
         22   -1    0    0    0    0  0.00000000000E+00  0.00000000000E+00  0.13544351369E+04  0.13544351369E+04  0.00000000000E+00 0.  1.
         22   -1    0    0    0    0 -0.00000000000E+00 -0.00000000000E+00 -0.12562830948E+04  0.12562830948E+04  0.00000000000E+00 0. -1.
         24    2    1    2    0    0 -0.25357842491E+02 -0.24212874367E+02 -0.12372907987E+04  0.12402278681E+04  0.77764778658E+02 0.  0.
         25    2    1    2    0    0  0.51028545286E+02  0.53942530046E+02  0.32505496697E+03  0.35612572035E+03  0.12510430910E+03 0.  0.
        -24    2    1    2    0    0 -0.25670702795E+02 -0.29729655679E+02  0.10103878739E+04  0.10143646432E+04  0.80679217865E+02 0.  0.
        -13    1    3    3    0    0 -0.86056251206E-01  0.17355408279E+01  0.57645224025E+00  0.18307934971E+01  0.00000000000E+00 0.  1.
         14    1    3    3    0    0 -0.25271786240E+02 -0.25948415194E+02 -0.12378672510E+04  0.12383970746E+04  0.00000000000E+00 0. -1.
         13    1    5    5    0    0 -0.10081891112E+02 -0.48362423702E+02  0.34348944511E+03  0.34702387160E+03  0.00000000000E+00 0. -1.
        -14    1    5    5    0    0 -0.15588811683E+02  0.18632768022E+02  0.66689842876E+03  0.66734077155E+03  0.00000000000E+00 0.  1.
          5    1    4    4  501    0  0.77901860871E+02  0.41984785635E+02  0.31078733683E+03  0.32316816565E+03  0.41800000000E+01 0.  1.
         -5    1    4    4    0  501 -0.26873315585E+02  0.11957744411E+02  0.14267630140E+02  0.32957554699E+02  0.41800000000E+01 0.  1.
</event>
<event>
11    1  0.8974665E-009  0.1296602E+03  0.7561462E-02  0.1119687E+00
         22   -1    0    0    0    0  0.00000000000E+00  0.00000000000E+00  0.27570685776E+03  0.27570685776E+03  0.00000000000E+00 0. -1.
         22   -1    0    0    0    0 -0.00000000000E+00 -0.00000000000E+00 -0.18446292408E+04  0.18446292408E+04  0.00000000000E+00 0.  1.
         24    2    1    2    0    0  0.18300637562E+02 -0.86014079552E+01 -0.17822986664E+04  0.17842485398E+04  0.80903757232E+02 0.  0.
         25    2    1    2    0    0 -0.32727710043E+02  0.36609443088E+02  0.36229008003E+02  0.13917541470E+03  0.12508357489E+03 0.  0.
        -24    2    1    2    0    0  0.14427072481E+02 -0.28008035133E+02  0.17714727537E+03  0.19691214406E+03  0.80004030257E+02 0.  0.
        -13    1    3    3    0    0  0.17643578171E+02  0.27236586237E+02 -0.13729731809E+04  0.13733566481E+04  0.00000000000E+00 0.  1.
         14    1    3    3    0    0  0.65705939064E+00 -0.35837994192E+02 -0.40932548547E+03  0.41089189163E+03  0.00000000000E+00 0. -1.
         13    1    5    5    0    0 -0.87318724079E+00 -0.23152902494E+02  0.17923367369E+03  0.18072500971E+03  0.00000000000E+00 0. -1.
        -14    1    5    5    0    0  0.15300259721E+02 -0.48551326391E+01 -0.20863983279E+01  0.16187134350E+02  0.00000000000E+00 0.  1.
          5    1    4    4  501    0 -0.29444732427E+01 -0.93466852079E+01  0.72550884372E+02  0.73328941559E+02  0.41800000000E+01 0.  1.
         -5    1    4    4    0  501 -0.29783236800E+02  0.45956128296E+02 -0.36321876369E+02  0.65846473142E+02  0.41800000000E+01 0.  1.
</event>
<event>
11    1  0.8974665E-009  0.1856874E+03  0.7561462E-02  0.1065133E+00
         22   -1    0    0    0    0  0.00000000000E+00  0.00000000000E+00  0.13913975437E+04  0.13913975437E+04  0.00000000000E+00 0.  1.
         22   -1    0    0    0    0 -0.00000000000E+00 -0.00000000000E+00 -0.46301095642E+03  0.46301095642E+03  0.00000000000E+00 0. -1.
         24    2    1    2    0    0 -0.72465834988E+02 -0.12463902732E+03 -0.35315022246E+03  0.38978161117E+03  0.80177555516E+02 0.  0.
         25    2    1    2    0    0 -0.31573658411E+02  0.12960092656E+03  0.68449533938E+01  0.18299946280E+03  0.12509457993E+03 0.  0.
        -24    2    1    2    0    0  0.10403949340E+03 -0.49618992396E+01  0.12746918563E+04  0.12816274261E+04  0.82949949910E+02 0.  0.
        -11    1    3    3    0    0  0.50160633510E+01  0.24439916434E+01 -0.67039690713E+02  0.67271495581E+02  0.00000000000E+00 0.  1.
         12    1    3    3    0    0 -0.77481898339E+02 -0.12708301897E+03 -0.28611053175E+03  0.32251011559E+03  0.00000000000E+00 0. -1.
         11    1    5    5    0    0  0.64006331437E+02  0.22299257842E+02  0.40870060201E+03  0.41428281336E+03  0.00000000000E+00 0. -1.
        -12    1    5    5    0    0  0.40033161963E+02 -0.27261157082E+02  0.86599125432E+03  0.86734461277E+03  0.00000000000E+00 0.  1.
          5    1    4    4  501    0 -0.54097160531E+02  0.14470616509E+03 -0.68354511961E+00  0.15454551635E+03  0.41800000000E+01 0. -1.
         -5    1    4    4    0  501  0.22523502120E+02 -0.15105238522E+02  0.75284985135E+01  0.28453946447E+02  0.41800000000E+01 0. -1.
</event>
<event>
11    1  0.8974665E-009  0.1583233E+03  0.7561462E-02  0.1088665E+00
         22   -1    0    0    0    0  0.00000000000E+00  0.00000000000E+00  0.44001998867E+03  0.44001998867E+03  0.00000000000E+00 0.  1.
         22   -1    0    0    0    0 -0.00000000000E+00 -0.00000000000E+00 -0.33591195735E+03  0.33591195735E+03  0.00000000000E+00 0.  1.
         24    2    1    2    0    0  0.88487483879E+01 -0.29967286449E+02 -0.22627672026E+03  0.24240884141E+03  0.81145262667E+02 0.  0.
         25    2    1    2    0    0  0.52816284881E+02  0.10248925907E+03 -0.10949076436E+02  0.17046538964E+03  0.12507980899E+03 0.  0.
        -24    2    1    2    0    0 -0.61665033269E+02 -0.72521972617E+02  0.34133382801E+03  0.36305771497E+03  0.78994363173E+02 0.  0.
        -13    1    3    3    0    0 -0.14854030171E+02 -0.34013150785E+02 -0.21027521165E+03  0.21352564547E+03  0.00000000000E+00 0.  1.
         14    1    3    3    0    0  0.23702778559E+02  0.40458643361E+01 -0.16001508616E+02  0.28883195939E+02  0.00000000000E+00 0. -1.
         11    1    5    5    0    0 -0.30401503402E+02  0.11646828247E+02  0.68791778595E+02  0.76106562263E+02  0.00000000000E+00 0. -1.
        -12    1    5    5    0    0 -0.31263529867E+02 -0.84168800864E+02  0.27254204942E+03  0.28695115271E+03  0.00000000000E+00 0.  1.
          5    1    4    4  501    0  0.16853884347E+02  0.12368130110E+03 -0.22609272249E+02  0.12692426581E+03  0.41800000000E+01 0. -1.
         -5    1    4    4    0  501  0.35962400534E+02 -0.21192042038E+02  0.11660195812E+02  0.43541123829E+02  0.41800000000E+01 0. -1.
</event>
<event>
11    1  0.8974665E-009  0.1959597E+03  0.7561462E-02  0.1057418E+00
         22   -1    0    0    0    0  0.00000000000E+00  0.00000000000E+00  0.81306063254E+03  0.81306063254E+03  0.00000000000E+00 0. -1.
         22   -1    0    0    0    0 -0.00000000000E+00 -0.00000000000E+00 -0.92393123822E+03  0.92393123822E+03  0.00000000000E+00 0. -1.
        -24    2    1    2    0    0  0.14854939079E+01 -0.86633738646E+02 -0.84429886494E+03  0.85260181546E+03  0.81127498525E+02 0.  0.
         25    2    1    2    0    0  0.20156511660E+02 -0.76349828987E+02  0.22488679317E+02  0.14962913748E+03  0.12509019441E+03 0.  0.
         24    2    1    2    0    0 -0.21642005568E+02  0.16298356763E+03  0.71093957995E+03  0.73476091782E+03  0.86061026578E+02 0.  0.
        -11    1    5    5    0    0  0.17159237553E+02  0.10297212924E+02  0.17518066890E+03  0.17631998974E+03  0.00000000000E+00 0.  1.
         12    1    5    5    0    0 -0.38801243121E+02  0.15268635471E+03  0.53575891105E+03  0.55844092808E+03  0.00000000000E+00 0. -1.
         11    1    3    3    0    0 -0.26504665086E+02 -0.21731218138E+02 -0.49717737824E+03  0.49835739038E+03  0.00000000000E+00 0. -1.
        -12    1    3    3    0    0  0.27990158994E+02 -0.64902520508E+02 -0.34712148671E+03  0.35424442508E+03  0.00000000000E+00 0.  1.
          5    1    4    4  501    0 -0.38926595577E+02  0.28880851724E+01  0.31441770034E+02  0.50295906215E+02  0.41800000000E+01 0. -1.
         -5    1    4    4    0  501  0.59083107237E+02 -0.79237914160E+02 -0.89530907168E+01  0.99333231270E+02  0.41800000000E+01 0. -1.
</event>
<event>
11    1  0.8974665E-009  0.1398761E+03  0.7561462E-02  0.1107697E+00
         22   -1    0    0    0    0  0.00000000000E+00  0.00000000000E+00  0.24492430744E+03  0.24492430744E+03  0.00000000000E+00 0. -1.
         22   -1    0    0    0    0 -0.00000000000E+00 -0.00000000000E+00 -0.25035683909E+03  0.25035683909E+03  0.00000000000E+00 0.  1.
         24    2    1    2    0    0 -0.28362913774E+02 -0.21338392010E+02 -0.13877301296E+03  0.16395655794E+03  0.79774820062E+02 0.  0.
         25    2    1    2    0    0  0.67340221608E+02  0.63877008969E+02 -0.13874109904E+02  0.15638231832E+03  0.12509180963E+03 0.  0.
        -24    2    1    2    0    0 -0.38977307834E+02 -0.42538616959E+02  0.14721459121E+03  0.17494227027E+03  0.74859185154E+02 0.  0.
        -11    1    3    3    0    0  0.61583621787E+01 -0.30568178375E+02 -0.11920455512E+03  0.12321552222E+03  0.00000000000E+00 0.  1.
         12    1    3    3    0    0 -0.34521275953E+02  0.92297863656E+01 -0.19568457835E+02  0.40741035723E+02  0.00000000000E+00 0. -1.
         11    1    5    5    0    0 -0.44733021031E+02 -0.10567542233E+02  0.13060521596E+03  0.13845735284E+03  0.00000000000E+00 0. -1.
        -12    1    5    5    0    0  0.57557131967E+01 -0.31971074726E+02  0.16609375254E+02  0.36484917430E+02  0.00000000000E+00 0.  1.
          5    1    4    4  501    0  0.12928878205E+02 -0.18918261305E+02 -0.46486235251E+02  0.51995182183E+02  0.41800000000E+01 0. -1.
         -5    1    4    4    0  501  0.54411343404E+02  0.82795270273E+02  0.32612125347E+02  0.10438713613E+03  0.41800000000E+01 0. -1.
</event>
<event>
11    1  0.8974665E-009  0.1457305E+03  0.7561462E-02  0.1101323E+00
         22   -1    0    0    0    0  0.00000000000E+00  0.00000000000E+00  0.18870280262E+04  0.18870280262E+04  0.00000000000E+00 0. -1.
         22   -1    0    0    0    0 -0.00000000000E+00 -0.00000000000E+00 -0.14503954947E+03  0.14503954947E+03  0.00000000000E+00 0. -1.
         24    2    1    2    0    0 -0.90402470501E+01 -0.16100675991E+02 -0.12376742874E+03  0.14748899694E+03  0.78061962362E+02 0.  0.
         25    2    1    2    0    0 -0.22173936749E+02  0.80335153931E+02  0.85636514632E+03  0.86945617514E+03  0.12508939292E+03 0.  0.
        -24    2    1    2    0    0  0.31214183799E+02 -0.64234477940E+02  0.10093907591E+04  0.10151224035E+04  0.80643637061E+02 0.  0.
        -11    1    3    3    0    0 -0.13053836141E+02  0.17268970589E+02 -0.26673448077E+01  0.21811343643E+02  0.00000000000E+00 0.  1.
         12    1    3    3    0    0  0.40135890909E+01 -0.33369646579E+02 -0.12110008393E+03  0.12567765330E+03  0.00000000000E+00 0. -1.
         11    1    5    5    0    0 -0.25906820448E+02 -0.34267342659E+02  0.36958708411E+03  0.37207529730E+03  0.00000000000E+00 0. -1.
        -12    1    5    5    0    0  0.57121004247E+02 -0.29967135281E+02  0.63980367499E+03  0.64304710625E+03  0.00000000000E+00 0.  1.
          5    1    4    4  501    0  0.11657739937E+02 -0.25915459140E+02  0.77747204259E+02  0.82883135154E+02  0.41800000000E+01 0.  1.
         -5    1    4    4    0  501 -0.33831676686E+02  0.10625061307E+03  0.77861794207E+03  0.78657303999E+03  0.41800000000E+01 0.  1.
</event>
<event>
11    1  0.8974665E-009  0.1458150E+03  0.7561462E-02  0.1101233E+00
         22   -1    0    0    0    0  0.00000000000E+00  0.00000000000E+00  0.16608832202E+03  0.16608832202E+03  0.00000000000E+00 0. -1.
         22   -1    0    0    0    0 -0.00000000000E+00 -0.00000000000E+00 -0.64744596331E+03  0.64744596331E+03  0.00000000000E+00 0. -1.
         24    2    1    2    0    0  0.22321045891E+02  0.38071688435E+02 -0.39299679182E+03  0.40310834421E+03  0.78116427503E+02 0.  0.
         25    2    1    2    0    0  0.37466539019E+02 -0.82380978482E+02 -0.20101836661E+03  0.25346580996E+03  0.12508463512E+03 0.  0.
        -24    2    1    2    0    0 -0.59787584909E+02  0.44309290047E+02  0.11265751713E+03  0.15696013115E+03  0.80043101595E+02 0.  0.
        -11    1    3    3    0    0  0.19196898333E+02 -0.93674462441E+01 -0.28987631704E+02  0.36007676216E+02  0.00000000000E+00 0.  1.
         12    1    3    3    0    0  0.31241475580E+01  0.47439134679E+02 -0.36400916011E+03  0.36710066800E+03  0.00000000000E+00 0. -1.
         13    1    5    5    0    0 -0.57592890078E+02  0.56032225179E+02  0.11889485098E+03  0.14350099942E+03  0.00000000000E+00 0. -1.
        -14    1    5    5    0    0 -0.21946948317E+01 -0.11722935131E+02 -0.62373338485E+01  0.13459131734E+02  0.00000000000E+00 0.  1.
          5    1    4    4  501    0 -0.10024891735E+02 -0.49633384901E+01 -0.14746211390E+03  0.14794485668E+03  0.41800000000E+01 0. -1.
         -5    1    4    4    0  501  0.47491430753E+02 -0.77417639992E+02 -0.53556252710E+02  0.10552095328E+03  0.41800000000E+01 0. -1.
</event>
<event>
11    1  0.8974665E-009  0.1353130E+03  0.7561462E-02  0.1112908E+00
         22   -1    0    0    0    0  0.00000000000E+00  0.00000000000E+00  0.25506734919E+03  0.25506734919E+03  0.00000000000E+00 0.  1.
         22   -1    0    0    0    0 -0.00000000000E+00 -0.00000000000E+00 -0.16562759148E+04  0.16562759148E+04  0.00000000000E+00 0.  1.
         24    2    1    2    0    0  0.50687042100E+02  0.16284445882E+02 -0.14572766652E+04  0.14604092479E+04  0.79407385883E+02 0.  0.
         25    2    1    2    0    0 -0.14704594037E+02 -0.40836469512E+02 -0.16524721541E+03  0.21174965279E+03  0.12508969154E+03 0.  0.
        -24    2    1    2    0    0 -0.35982448063E+02  0.24552023630E+02  0.22131531504E+03  0.23918436328E+03  0.79568539859E+02 0.  0.
        -13    1    3    3    0    0 -0.10867155976E+02  0.20131418101E+02 -0.77860416321E+03  0.77894018515E+03  0.00000000000E+00 0.  1.
         14    1    3    3    0    0  0.61554198076E+02 -0.38469722183E+01 -0.67867250199E+03  0.68146906273E+03  0.00000000000E+00 0. -1.
         13    1    5    5    0    0  0.23546625245E+02  0.86056856214E+00  0.35275608780E+02  0.42421135221E+02  0.00000000000E+00 0. -1.
        -14    1    5    5    0    0 -0.59529073309E+02  0.23691455068E+02  0.18603970626E+03  0.19676322806E+03  0.00000000000E+00 0.  1.
          5    1    4    4  501    0  0.28205014920E+02  0.17804292224E+02 -0.27869840736E+01  0.33730629529E+02  0.41800000000E+01 0.  1.
         -5    1    4    4    0  501 -0.42909608957E+02 -0.58640761736E+02 -0.16246023133E+03  0.17801902326E+03  0.41800000000E+01 0.  1.
</event>
<event>
11    1  0.8974665E-009  0.1325286E+03  0.7561462E-02  0.1116201E+00
         22   -1    0    0    0    0  0.00000000000E+00  0.00000000000E+00  0.20817429263E+02  0.20817429263E+02  0.00000000000E+00 0.  1.
         22   -1    0    0    0    0 -0.00000000000E+00 -0.00000000000E+00 -0.16723748261E+04  0.16723748261E+04  0.00000000000E+00 0.  1.
        -24    2    1    2    0    0  0.23159189818E+01 -0.32415584341E+02 -0.95407313473E+03  0.95798843844E+03  0.80188329473E+02 0.  0.
         25    2    1    2    0    0  0.36241435743E+02 -0.23257724922E+00 -0.47356956560E+03  0.49115159825E+03  0.12509301838E+03 0.  0.
         24    2    1    2    0    0 -0.38557354725E+02  0.32648161590E+02 -0.22391469646E+03  0.24405221862E+03  0.82892231629E+02 0.  0.
        -11    1    5    5    0    0 -0.36994799518E+02  0.25027055313E+02 -0.39954851873E+02  0.59927947380E+02  0.00000000000E+00 0.  1.
         12    1    5    5    0    0 -0.15625552075E+01  0.76211062773E+01 -0.18395984458E+03  0.18412427124E+03  0.00000000000E+00 0. -1.
         11    1    3    3    0    0 -0.61814806594E+01 -0.11394163083E+02 -0.21263629165E+02  0.24903405004E+02  0.00000000000E+00 0. -1.
        -12    1    3    3    0    0  0.84973996411E+01 -0.21021421259E+02 -0.93280950557E+03  0.93308503344E+03  0.00000000000E+00 0.  1.
          5    1    4    4  501    0 -0.44133886448E+02  0.11719814149E+02 -0.12316021815E+03  0.13141942669E+03  0.41800000000E+01 0. -1.
         -5    1    4    4    0  501  0.80375322192E+02 -0.11952391399E+02 -0.35040934745E+03  0.35973217156E+03  0.41800000000E+01 0. -1.
</event>
<event>
11    1  0.8974665E-009  0.1503345E+03  0.7561462E-02  0.1096537E+00
         22   -1    0    0    0    0  0.00000000000E+00  0.00000000000E+00  0.11378722957E+04  0.11378722957E+04  0.00000000000E+00 0. -1.
         22   -1    0    0    0    0 -0.00000000000E+00 -0.00000000000E+00 -0.56944245055E+02  0.56944245055E+02  0.00000000000E+00 0. -1.
         24    2    1    2    0    0 -0.17885252102E+02  0.91468036654E+02  0.50343101789E+02  0.13509983959E+03  0.83852577703E+02 0.  0.
         25    2    1    2    0    0  0.99173924295E+01 -0.39819451235E+02  0.38922191485E+03  0.41088512990E+03  0.12509575374E+03 0.  0.
        -24    2    1    2    0    0  0.79678596727E+01 -0.51648585419E+02  0.64136303399E+03  0.64883157125E+03  0.83095146168E+02 0.  0.
        -11    1    3    3    0    0  0.10483170823E+02  0.27679124909E+02  0.57752534761E+02  0.64895193177E+02  0.00000000000E+00 0.  1.
         12    1    3    3    0    0 -0.28368422926E+02  0.63788911745E+02 -0.74094329719E+01  0.70204646412E+02  0.00000000000E+00 0. -1.
         11    1    5    5    0    0 -0.35203347295E+02 -0.34522822690E+02  0.40124954664E+03  0.40426760892E+03  0.00000000000E+00 0. -1.
        -12    1    5    5    0    0  0.43171206968E+02 -0.17125762728E+02  0.24011348736E+03  0.24456396233E+03  0.00000000000E+00 0.  1.
          5    1    4    4  501    0 -0.49671328962E+01 -0.57526164221E+01 -0.80629942245E+01  0.11842688916E+02  0.41800000000E+01 0.  1.
         -5    1    4    4    0  501  0.14884525326E+02 -0.34066834813E+02  0.39728490907E+03  0.39904244098E+03  0.41800000000E+01 0.  1.
</event>
<event>
11    1  0.8974665E-009  0.1813227E+03  0.7561462E-02  0.1068578E+00
         22   -1    0    0    0    0  0.00000000000E+00  0.00000000000E+00  0.33041570791E+03  0.33041570791E+03  0.00000000000E+00 0. -1.
         22   -1    0    0    0    0 -0.00000000000E+00 -0.00000000000E+00 -0.18712679118E+04  0.18712679118E+04  0.00000000000E+00 0.  1.
        -24    2    1    2    0    0  0.14688603263E+02 -0.11644415427E+03 -0.10974140099E+04  0.11064816107E+04  0.78797521994E+02 0.  0.
         25    2    1    2    0    0  0.49615297374E+01  0.18171907517E+03 -0.74484901821E+03  0.77684864557E+03  0.12508924471E+03 0.  0.
         24    2    1    2    0    0 -0.19650133000E+02 -0.65274920910E+02  0.30141082419E+03  0.31835336350E+03  0.76507751820E+02 0.  0.
        -13    1    5    5    0    0 -0.34054888944E+02 -0.44183716937E+02  0.93479864078E+02  0.10885964032E+03  0.00000000000E+00 0.  1.
         14    1    5    5    0    0  0.14404755943E+02 -0.21091203973E+02  0.20793096011E+03  0.20949372318E+03  0.00000000000E+00 0. -1.
         13    1    3    3    0    0 -0.17001469086E+02 -0.80428199452E+01 -0.58549972052E+02  0.61496635120E+02  0.00000000000E+00 0. -1.
        -14    1    3    3    0    0  0.31690072349E+02 -0.10840133432E+03 -0.10388640379E+04  0.10449849756E+04  0.00000000000E+00 0.  1.
          5    1    4    4  501    0  0.29420484270E+02  0.19161588655E+03 -0.64937368612E+03  0.67770632984E+03  0.41800000000E+01 0.  1.
         -5    1    4    4    0  501 -0.24458954533E+02 -0.98968113793E+01 -0.95475332086E+02  0.99142315735E+02  0.41800000000E+01 0.  1.
</event>
<event>
11    1  0.8974665E-009  0.1395825E+03  0.7561462E-02  0.1108026E+00
         22   -1    0    0    0    0  0.00000000000E+00  0.00000000000E+00  0.33758846673E+03  0.33758846673E+03  0.00000000000E+00 0. -1.
         22   -1    0    0    0    0 -0.00000000000E+00 -0.00000000000E+00 -0.11812104383E+04  0.11812104383E+04  0.00000000000E+00 0.  1.
        -24    2    1    2    0    0  0.49204736548E+02 -0.34972714597E+02 -0.10132669608E+04  0.10182437051E+04  0.80412139866E+02 0.  0.
         25    2    1    2    0    0 -0.72588566251E+02  0.43791655591E+02 -0.12319768112E+03  0.19496588355E+03  0.12508884070E+03 0.  0.
         24    2    1    2    0    0  0.23383829704E+02 -0.88189409937E+01  0.29284267039E+03  0.30558931634E+03  0.83686459150E+02 0.  0.
        -11    1    5    5    0    0 -0.22050837500E+02  0.17961493902E+02  0.16268813249E+03  0.16515533038E+03  0.00000000000E+00 0.  1.
         12    1    5    5    0    0  0.45434667204E+02 -0.26780434895E+02  0.13015453790E+03  0.14043398596E+03  0.00000000000E+00 0. -1.
         13    1    3    3    0    0 -0.21589762956E+02 -0.11585009697E+02 -0.33391025980E+03  0.33480799261E+03  0.00000000000E+00 0. -1.
        -14    1    3    3    0    0  0.70794499503E+02 -0.23387704900E+02 -0.67935670103E+03  0.68343571251E+03  0.00000000000E+00 0.  1.
          5    1    4    4  501    0 -0.85838164078E+02  0.47847634008E+02 -0.14106498829E+03  0.17197206114E+03  0.41800000000E+01 0.  1.
         -5    1    4    4    0  501  0.13249597827E+02 -0.40559784170E+01  0.17867307172E+02  0.22993822411E+02  0.41800000000E+01 0.  1.
</event>
<event>
11    1  0.8974665E-009  0.1452913E+03  0.7561462E-02  0.1101790E+00
         22   -1    0    0    0    0  0.00000000000E+00  0.00000000000E+00  0.19499627533E+04  0.19499627533E+04  0.00000000000E+00 0.  1.
         22   -1    0    0    0    0 -0.00000000000E+00 -0.00000000000E+00 -0.11933756054E+03  0.11933756054E+03  0.00000000000E+00 0. -1.
         24    2    1    2    0    0 -0.34796193601E+02 -0.65053859562E+02 -0.79879698506E+02  0.13525619711E+03  0.80440617169E+02 0.  0.
         25    2    1    2    0    0  0.79297681900E+02  0.43475958601E+02  0.58935789598E+03  0.60923743397E+03  0.12509692266E+03 0.  0.
        -24    2    1    2    0    0 -0.44501488299E+02  0.21577900961E+02  0.13211469953E+04  0.13248066828E+04  0.85072764693E+02 0.  0.
        -13    1    3    3    0    0 -0.19934986239E+02  0.94714053335E+01  0.36064311195E+01  0.22363307912E+02  0.00000000000E+00 0.  1.
         14    1    3    3    0    0 -0.14861207362E+02 -0.74525264895E+02 -0.83486129625E+02  0.11289288920E+03  0.00000000000E+00 0. -1.
         13    1    5    5    0    0 -0.12842337380E+02 -0.17698155104E+02  0.89699738764E+02  0.92326558789E+02  0.00000000000E+00 0. -1.
        -14    1    5    5    0    0 -0.31659150920E+02  0.39276056065E+02  0.12314472565E+04  0.12324801240E+04  0.00000000000E+00 0.  1.
          5    1    4    4  501    0 -0.29086539187E+02  0.29099557512E+01  0.22474546442E+03  0.22667706276E+03  0.41800000000E+01 0. -1.
         -5    1    4    4    0  501  0.10838422109E+03  0.40566002849E+02  0.36461243156E+03  0.38256037121E+03  0.41800000000E+01 0. -1.
</event>
<event>
11    1  0.8974665E-009  0.1517348E+03  0.7561462E-02  0.1095119E+00
         22   -1    0    0    0    0  0.00000000000E+00  0.00000000000E+00  0.36249675810E+03  0.36249675810E+03  0.00000000000E+00 0. -1.
         22   -1    0    0    0    0 -0.00000000000E+00 -0.00000000000E+00 -0.39739838091E+03  0.39739838091E+03  0.00000000000E+00 0. -1.
         24    2    1    2    0    0  0.44428951414E+02  0.41254979141E+02 -0.27902136852E+03  0.29658943807E+03  0.80227586629E+02 0.  0.
         25    2    1    2    0    0 -0.20467174608E+02  0.47041865620E+02 -0.50775935660E+02  0.14439640989E+03  0.12506112582E+03 0.  0.
        -24    2    1    2    0    0 -0.23961776806E+02 -0.88296844761E+02  0.29489568138E+03  0.31890929105E+03  0.79807101679E+02 0.  0.
        -11    1    3    3    0    0 -0.10777976269E+02 -0.14117493727E+02 -0.24047741137E+02  0.29895856827E+02  0.00000000000E+00 0.  1.
         12    1    3    3    0    0  0.55206927683E+02  0.55372472868E+02 -0.25497362739E+03  0.26669358125E+03  0.00000000000E+00 0. -1.
         11    1    5    5    0    0  0.10928632831E+02 -0.70365067267E+02  0.24667394904E+03  0.25674640181E+03  0.00000000000E+00 0. -1.
        -12    1    5    5    0    0 -0.34890409637E+02 -0.17931777494E+02  0.48221732338E+02  0.62162889238E+02  0.00000000000E+00 0.  1.
          5    1    4    4  501    0 -0.31307871355E+02  0.49468523156E+02  0.27789962307E+02  0.64938986727E+02  0.41800000000E+01 0. -1.
         -5    1    4    4    0  501  0.10840696747E+02 -0.24266575361E+01 -0.78565897967E+02  0.79457423166E+02  0.41800000000E+01 0. -1.
</event>
<event>
11    1  0.8974665E-009  0.1375707E+03  0.7561462E-02  0.1110302E+00
         22   -1    0    0    0    0  0.00000000000E+00  0.00000000000E+00  0.39555195704E+03  0.39555195704E+03  0.00000000000E+00 0. -1.
         22   -1    0    0    0    0 -0.00000000000E+00 -0.00000000000E+00 -0.30090757159E+03  0.30090757159E+03  0.00000000000E+00 0.  1.
        -24    2    1    2    0    0  0.11479550520E+02  0.20196772619E+02 -0.13167423798E+03  0.15797948314E+03  0.84141086516E+02 0.  0.
         25    2    1    2    0    0 -0.68165574961E+02 -0.16567263760E+02 -0.11471928439E+03  0.18365370811E+03  0.12508857044E+03 0.  0.
         24    2    1    2    0    0  0.56686024441E+02 -0.36295088582E+01  0.34103790782E+03  0.35482633738E+03  0.79802233228E+02 0.  0.
        -11    1    5    5    0    0  0.58251913523E+02 -0.20451563969E+02  0.13912863558E+03  0.15221146191E+03  0.00000000000E+00 0.  1.
         12    1    5    5    0    0 -0.15658890820E+01  0.16822055111E+02  0.20190927224E+03  0.20261487547E+03  0.00000000000E+00 0. -1.
         13    1    3    3    0    0  0.31791137001E+01  0.12601815787E+02  0.96629414765E+01  0.16195214201E+02  0.00000000000E+00 0. -1.
        -14    1    3    3    0    0  0.83004368197E+01  0.75949568320E+01 -0.14133717946E+03  0.14178426894E+03  0.00000000000E+00 0.  1.
          5    1    4    4  501    0 -0.98828572096E+02 -0.37601387970E+02 -0.80696455213E+02  0.13308020636E+03  0.41800000000E+01 0. -1.
         -5    1    4    4    0  501  0.30662997135E+02  0.21034124210E+02 -0.34022829173E+02  0.50573501752E+02  0.41800000000E+01 0. -1.
</event>
<event>
11    1  0.8974665E-009  0.1535231E+03  0.7561462E-02  0.1093332E+00
         22   -1    0    0    0    0  0.00000000000E+00  0.00000000000E+00  0.19023217101E+03  0.19023217101E+03  0.00000000000E+00 0.  1.
         22   -1    0    0    0    0 -0.00000000000E+00 -0.00000000000E+00 -0.13429985823E+04  0.13429985823E+04  0.00000000000E+00 0. -1.
         24    2    1    2    0    0 -0.86030334003E+02 -0.27833833714E+02 -0.11290419472E+04  0.11354018955E+04  0.78903770454E+02 0.  0.
         25    2    1    2    0    0  0.80612765061E+02 -0.23842481134E+01 -0.17061416223E+03  0.22641620429E+03  0.12510396748E+03 0.  0.
        -24    2    1    2    0    0  0.54175689422E+01  0.30218081828E+02  0.14688969814E+03  0.17141265356E+03  0.82844624806E+02 0.  0.
        -13    1    3    3    0    0 -0.34495172399E+02 -0.45321794979E+02 -0.36424536574E+03  0.36867149128E+03  0.00000000000E+00 0.  1.
         14    1    3    3    0    0 -0.51535161605E+02  0.17487961265E+02 -0.76479658148E+03  0.76673040419E+03  0.00000000000E+00 0. -1.
         11    1    5    5    0    0 -0.34828641258E+01  0.34362578398E+01 -0.10462293563E+02  0.11549796408E+02  0.00000000000E+00 0. -1.
        -12    1    5    5    0    0  0.89004330680E+01  0.26781823988E+02  0.15735199170E+03  0.15986285715E+03  0.00000000000E+00 0.  1.
          5    1    4    4  501    0  0.91583060448E+02 -0.34432386516E+01 -0.48574849645E+02  0.10380896528E+03  0.41800000000E+01 0. -1.
         -5    1    4    4    0  501 -0.10970295387E+02  0.10589905383E+01 -0.12203931259E+03  0.12260723901E+03  0.41800000000E+01 0. -1.
</event>
<event>
11    1  0.8974665E-009  0.1296504E+03  0.7561462E-02  0.1119699E+00
         22   -1    0    0    0    0  0.00000000000E+00  0.00000000000E+00  0.22101446005E+03  0.22101446005E+03  0.00000000000E+00 0. -1.
         22   -1    0    0    0    0 -0.00000000000E+00 -0.00000000000E+00 -0.27168572223E+03  0.27168572223E+03  0.00000000000E+00 0. -1.
        -24    2    1    2    0    0  0.40995581243E+01 -0.73668448186E+01 -0.15232344737E+03  0.16432690963E+03  0.61072283662E+02 0.  0.
         25    2    1    2    0    0 -0.27792155437E+02 -0.17454014551E+02 -0.61717167605E+02  0.14329564386E+03  0.12509031235E+03 0.  0.
         24    2    1    2    0    0  0.23692597313E+02  0.24820859370E+02  0.16336935279E+03  0.18507762880E+03  0.79917263612E+02 0.  0.
        -11    1    5    5    0    0 -0.16936396237E+02  0.39881454810E+02  0.73837648369E+02  0.85611741437E+02  0.00000000000E+00 0.  1.
         12    1    5    5    0    0  0.40628993550E+02 -0.15060595441E+02  0.89531704423E+02  0.99465887362E+02  0.00000000000E+00 0. -1.
         13    1    3    3    0    0  0.13998517645E+02 -0.14019496590E+02 -0.15103718533E+03  0.15233100845E+03  0.00000000000E+00 0. -1.
        -14    1    3    3    0    0 -0.98989595203E+01  0.66526517718E+01 -0.12862620326E+01  0.11995901183E+02  0.00000000000E+00 0.  1.
          5    1    4    4  501    0  0.44376206196E+02  0.44260871747E+01  0.14786120384E+01  0.44816253944E+02  0.41800000000E+01 0. -1.
         -5    1    4    4    0  501 -0.72168361634E+02 -0.21880101726E+02 -0.63195779643E+02  0.98479389911E+02  0.41800000000E+01 0. -1.
</event>
<event>
11    1  0.8974665E-009  0.1712011E+03  0.7561462E-02  0.1076991E+00
         22   -1    0    0    0    0  0.00000000000E+00  0.00000000000E+00  0.20809574946E+03  0.20809574946E+03  0.00000000000E+00 0. -1.
         22   -1    0    0    0    0 -0.00000000000E+00 -0.00000000000E+00 -0.91855581652E+03  0.91855581652E+03  0.00000000000E+00 0. -1.
         24    2    1    2    0    0  0.77573582976E+02  0.70948903986E+02 -0.57945166438E+03  0.59417066058E+03  0.78886848044E+02 0.  0.
         25    2    1    2    0    0 -0.15472885836E+03 -0.95308841386E+02 -0.27252091322E+03  0.35062808127E+03  0.12509040081E+03 0.  0.
        -24    2    1    2    0    0  0.77155275389E+02  0.24359937400E+02  0.14151251054E+03  0.18185282413E+03  0.80612132673E+02 0.  0.
        -13    1    3    3    0    0 -0.32692917972E+01 -0.37634821409E+01 -0.68904626664E+00  0.50325790046E+01  0.00000000000E+00 0.  1.
         14    1    3    3    0    0  0.80842874773E+02  0.74712386127E+02 -0.57876261811E+03  0.58913808158E+03  0.00000000000E+00 0. -1.
         11    1    5    5    0    0  0.93151120432E+02  0.11887647090E+02  0.11496187414E+03  0.14844082961E+03  0.00000000000E+00 0. -1.
        -12    1    5    5    0    0 -0.15995845043E+02  0.12472290309E+02  0.26550636397E+02  0.33411994512E+02  0.00000000000E+00 0.  1.
          5    1    4    4  501    0 -0.69706693546E+02 -0.95401908452E+02 -0.22232311425E+03  0.25180465999E+03  0.41800000000E+01 0.  1.
         -5    1    4    4    0  501 -0.85022164819E+02  0.93067065577E-01 -0.50197798964E+02  0.98823421277E+02  0.41800000000E+01 0.  1.
</event>
<event>
11    1  0.8974665E-009  0.2203758E+03  0.7561462E-02  0.1040982E+00
         22   -1    0    0    0    0  0.00000000000E+00  0.00000000000E+00  0.71368434982E+03  0.71368434982E+03  0.00000000000E+00 0.  1.
         22   -1    0    0    0    0 -0.00000000000E+00 -0.00000000000E+00 -0.57554456302E+03  0.57554456302E+03  0.00000000000E+00 0. -1.
         24    2    1    2    0    0 -0.91797657589E+01 -0.51134893670E+02 -0.47195053877E+03  0.48171428838E+03  0.81316044734E+02 0.  0.
         25    2    1    2    0    0  0.18694090373E+03  0.68752502258E+02  0.90346470280E+02  0.25196194886E+03  0.12509408829E+03 0.  0.
        -24    2    1    2    0    0 -0.17776113798E+03 -0.17617608589E+02  0.51974385529E+03  0.55555267560E+03  0.81213902416E+02 0.  0.
        -13    1    3    3    0    0 -0.67410921944E+01  0.68428319903E+01 -0.43807698880E+01  0.10557358497E+02  0.00000000000E+00 0.  1.
         14    1    3    3    0    0 -0.24386735645E+01 -0.57977725660E+02 -0.46756976889E+03  0.47115692988E+03  0.00000000000E+00 0. -1.
         13    1    5    5    0    0  0.26589148103E+01  0.10627125990E+02  0.13545953063E+02  0.17421207742E+02  0.00000000000E+00 0. -1.
        -14    1    5    5    0    0 -0.18042005279E+03 -0.28244734579E+02  0.50619790223E+03  0.53813146786E+03  0.00000000000E+00 0.  1.
          5    1    4    4  501    0  0.10681857980E+03  0.12706574030E+02  0.10802755745E+03  0.15250931638E+03  0.41800000000E+01 0.  1.
         -5    1    4    4    0  501  0.80122323931E+02  0.56045928229E+02 -0.17681087171E+02  0.99452632477E+02  0.41800000000E+01 0.  1.
</event>
<event>
11    1  0.8974665E-009  0.2117527E+03  0.7561462E-02  0.1046510E+00
         22   -1    0    0    0    0  0.00000000000E+00  0.00000000000E+00  0.57874981208E+03  0.57874981208E+03  0.00000000000E+00 0.  1.
         22   -1    0    0    0    0 -0.00000000000E+00 -0.00000000000E+00 -0.14630985493E+04  0.14630985493E+04  0.00000000000E+00 0. -1.
         24    2    1    2    0    0  0.63124790044E+02 -0.11643392141E+03 -0.13215689878E+04  0.13305952226E+04  0.79984120835E+02 0.  0.
         25    2    1    2    0    0  0.59990904829E+02 -0.27892418726E+02 -0.74253855069E+02  0.15980764261E+03  0.12509177415E+03 0.  0.
        -24    2    1    2    0    0 -0.12311569487E+03  0.14432634013E+03  0.51147410569E+03  0.55144549618E+03  0.80615182706E+02 0.  0.
        -11    1    3    3    0    0  0.54620181273E+02 -0.44333802659E+02 -0.39735946603E+03  0.40353859233E+03  0.00000000000E+00 0.  1.
         12    1    3    3    0    0  0.85046087705E+01 -0.72100118747E+02 -0.92420952181E+03  0.92705663025E+03  0.00000000000E+00 0. -1.
         13    1    5    5    0    0 -0.47023926396E+02  0.13853923097E+02  0.19055313955E+03  0.19675792190E+03  0.00000000000E+00 0. -1.
        -14    1    5    5    0    0 -0.76091768476E+02  0.13047241703E+03  0.32092096614E+03  0.35468757427E+03  0.00000000000E+00 0.  1.
          5    1    4    4  501    0  0.58792431393E+02  0.30996752989E+02 -0.21759001872E+01  0.66629990444E+02  0.41800000000E+01 0. -1.
         -5    1    4    4    0  501  0.11984734354E+01 -0.58889171714E+02 -0.72077954882E+02  0.93177652169E+02  0.41800000000E+01 0. -1.
</event>
<event>
11    1  0.8974665E-009  0.1533892E+03  0.7561462E-02  0.1093465E+00
         22   -1    0    0    0    0  0.00000000000E+00  0.00000000000E+00  0.98905980675E+03  0.98905980675E+03  0.00000000000E+00 0.  1.
         22   -1    0    0    0    0 -0.00000000000E+00 -0.00000000000E+00 -0.52668157933E+03  0.52668157933E+03  0.00000000000E+00 0. -1.
        -24    2    1    2    0    0  0.31760572548E+02  0.77573240581E+02 -0.30576316413E+03  0.32748726418E+03  0.82039344434E+02 0.  0.
         25    2    1    2    0    0 -0.26097379820E+02 -0.10049862360E+03 -0.17693065832E+03  0.24028038338E+03  0.12509659549E+03 0.  0.
         24    2    1    2    0    0 -0.56631927276E+01  0.22925383023E+02  0.94507204987E+03  0.94797373852E+03  0.70252292135E+02 0.  0.
        -11    1    5    5    0    0  0.20343324012E+02  0.29847935794E+02  0.76985969145E+03  0.77070662033E+03  0.00000000000E+00 0.  1.
         12    1    5    5    0    0 -0.26006516740E+02 -0.69225527716E+01  0.17521235842E+03  0.17726711819E+03  0.00000000000E+00 0. -1.
         11    1    3    3    0    0 -0.76937443864E+01  0.54416871049E+02 -0.24686986644E+03  0.25291326678E+03  0.00000000000E+00 0. -1.
        -12    1    3    3    0    0  0.39454316934E+02  0.23156369532E+02 -0.58893297693E+02  0.74573997397E+02  0.00000000000E+00 0.  1.
          5    1    4    4  501    0  0.46422931341E+02 -0.19683966796E+02 -0.34970352973E+02  0.61505650880E+02  0.41800000000E+01 0.  1.
         -5    1    4    4    0  501 -0.72520311161E+02 -0.80814656807E+02 -0.14196030535E+03  0.17877473250E+03  0.41800000000E+01 0.  1.
</event>
<event>
11    1  0.8974665E-009  0.1900139E+03  0.7561462E-02  0.1061819E+00
         22   -1    0    0    0    0  0.00000000000E+00  0.00000000000E+00  0.37562402426E+03  0.37562402426E+03  0.00000000000E+00 0. -1.
         22   -1    0    0    0    0 -0.00000000000E+00 -0.00000000000E+00 -0.10591994033E+04  0.10591994033E+04  0.00000000000E+00 0.  1.
         24    2    1    2    0    0  0.10581954416E+03  0.12177834433E+03 -0.94314598025E+03  0.96036515810E+03  0.82153245553E+02 0.  0.
         25    2    1    2    0    0  0.74451626189E+02 -0.88195313146E+02  0.35215750351E+02  0.17381035835E+03  0.12509369966E+03 0.  0.
        -24    2    1    2    0    0 -0.18027117035E+03 -0.33583031185E+02  0.22435485090E+03  0.30064791106E+03  0.80178254280E+02 0.  0.
        -11    1    3    3    0    0  0.37095758424E+02  0.52663443953E+02 -0.60597515426E+03  0.60938938390E+03  0.00000000000E+00 0.  1.
         12    1    3    3    0    0  0.68723785738E+02  0.69114900378E+02 -0.33717082599E+03  0.35097577421E+03  0.00000000000E+00 0. -1.
         11    1    5    5    0    0 -0.88853654452E+02 -0.32615117633E+02  0.16920505918E+03  0.19387900830E+03  0.00000000000E+00 0. -1.
        -12    1    5    5    0    0 -0.91417515899E+02 -0.96791355221E+00  0.55149791721E+02  0.10676890276E+03  0.00000000000E+00 0.  1.
          5    1    4    4  501    0  0.57032590773E+01 -0.43194236106E+01 -0.40589607271E+02  0.41426720880E+02  0.41800000000E+01 0.  1.
         -5    1    4    4    0  501  0.68748367111E+02 -0.83875889536E+02  0.75805357622E+02  0.13238363747E+03  0.41800000000E+01 0.  1.
</event>
<event>
11    1  0.8974665E-009  0.1289745E+03  0.7561462E-02  0.1120535E+00
         22   -1    0    0    0    0  0.00000000000E+00  0.00000000000E+00  0.56165984416E+03  0.56165984416E+03  0.00000000000E+00 0. -1.
         22   -1    0    0    0    0 -0.00000000000E+00 -0.00000000000E+00 -0.48491284204E+03  0.48491284204E+03  0.00000000000E+00 0. -1.
        -24    2    1    2    0    0  0.47987694693E+02 -0.39137646384E+00 -0.45676425486E+03  0.46609708237E+03  0.79435090827E+02 0.  0.
         25    2    1    2    0    0 -0.33219467492E+01 -0.25183745445E+02  0.37048051654E+03  0.39185377059E+03  0.12509319735E+03 0.  0.
         24    2    1    2    0    0 -0.44665747943E+02  0.25575121909E+02  0.16303074044E+03  0.18862183325E+03  0.79687249605E+02 0.  0.
        -13    1    5    5    0    0 -0.43724131805E+02  0.32749621491E+02  0.46138767340E+02  0.71506106464E+02  0.00000000000E+00 0.  1.
         14    1    5    5    0    0 -0.94161613832E+00 -0.71744995821E+01  0.11689197310E+03  0.11711572679E+03  0.00000000000E+00 0. -1.
         11    1    3    3    0    0  0.45630475713E+02  0.91879676480E+01 -0.45323628217E+03  0.45562011209E+03  0.00000000000E+00 0. -1.
        -12    1    3    3    0    0  0.23572189797E+01 -0.95793441119E+01 -0.35279726915E+01  0.10476970280E+02  0.00000000000E+00 0.  1.
          5    1    4    4  501    0  0.48739679661E+02 -0.44371044273E+02  0.25860425644E+03  0.26690443944E+03  0.41800000000E+01 0.  1.
         -5    1    4    4    0  501 -0.52061626410E+02  0.19187298828E+02  0.11187626010E+03  0.12494933115E+03  0.41800000000E+01 0.  1.
</event>
<event>
11    1  0.8974665E-009  0.1366301E+03  0.7561462E-02  0.1111381E+00
         22   -1    0    0    0    0  0.00000000000E+00  0.00000000000E+00  0.83876147406E+03  0.83876147406E+03  0.00000000000E+00 0.  1.
         22   -1    0    0    0    0 -0.00000000000E+00 -0.00000000000E+00 -0.78366803929E+03  0.78366803929E+03  0.00000000000E+00 0. -1.
        -24    2    1    2    0    0 -0.19715430573E+02 -0.46923522236E+02 -0.74704459083E+03  0.75312942040E+03  0.80856589356E+02 0.  0.
         25    2    1    2    0    0  0.26883901478E+02 -0.12133626621E+02  0.10715574176E+03  0.16733209203E+03  0.12509079494E+03 0.  0.
         24    2    1    2    0    0 -0.71684709048E+01  0.59057148856E+02  0.69498228386E+03  0.70196800092E+03  0.78864222761E+02 0.  0.
        -13    1    5    5    0    0 -0.17785145666E+02  0.72801087326E+02  0.63831318565E+03  0.64269746592E+03  0.00000000000E+00 0.  1.
         14    1    5    5    0    0  0.10616674761E+02 -0.13743938470E+02  0.56669098202E+02  0.59270534995E+02  0.00000000000E+00 0. -1.
         13    1    3    3    0    0 -0.44190814291E+02 -0.17142689225E+02 -0.56841562555E+03  0.57038848448E+03  0.00000000000E+00 0. -1.
        -14    1    3    3    0    0  0.24475383717E+02 -0.29780833010E+02 -0.17862896528E+03  0.18274093592E+03  0.00000000000E+00 0.  1.
          5    1    4    4  501    0 -0.48806200171E+02 -0.14248262525E+02  0.56560792250E+02  0.76168587882E+02  0.41800000000E+01 0. -1.
         -5    1    4    4    0  501  0.75690101649E+02  0.21146359039E+01  0.50594949507E+02  0.91163504147E+02  0.41800000000E+01 0. -1.
</event>
<event>
11    1  0.8974665E-009  0.2146826E+03  0.7561462E-02  0.1044600E+00
         22   -1    0    0    0    0  0.00000000000E+00  0.00000000000E+00  0.19668450819E+04  0.19668450819E+04  0.00000000000E+00 0.  1.
         22   -1    0    0    0    0 -0.00000000000E+00 -0.00000000000E+00 -0.26101141188E+03  0.26101141188E+03  0.00000000000E+00 0.  1.
         24    2    1    2    0    0 -0.24684689479E+02 -0.99795207758E+01 -0.21695999007E+03  0.23314631744E+03  0.81096506165E+02 0.  0.
         25    2    1    2    0    0 -0.88259790849E+01 -0.16364229937E+03  0.32395255696E+03  0.38399129340E+03  0.12508938480E+03 0.  0.
        -24    2    1    2    0    0  0.33510668564E+02  0.17362182015E+03  0.15988411031E+04  0.16107188830E+04  0.82794598117E+02 0.  0.
        -11    1    3    3    0    0  0.26609223773E+02 -0.33096050732E+01 -0.12300598942E+03  0.12589470882E+03  0.00000000000E+00 0.  1.
         12    1    3    3    0    0 -0.51293913252E+02 -0.66699157026E+01 -0.93954000649E+02  0.10725160861E+03  0.00000000000E+00 0. -1.
         11    1    5    5    0    0 -0.17744485141E+02  0.35307414578E+02  0.18317387010E+03  0.18738769160E+03  0.00000000000E+00 0. -1.
        -12    1    5    5    0    0  0.51255153705E+02  0.13831440557E+03  0.14156672330E+04  0.14233311914E+04  0.00000000000E+00 0.  1.
          5    1    4    4  501    0  0.35662775109E+02 -0.20565692176E+02  0.14380218244E+03  0.14963729915E+03  0.41800000000E+01 0.  1.
         -5    1    4    4    0  501 -0.44488754194E+02 -0.14307660720E+03  0.18015037453E+03  0.23435399424E+03  0.41800000000E+01 0.  1.
</event>
<event>
11    1  0.8974665E-009  0.2554171E+03  0.7561462E-02  0.1021052E+00
         22   -1    0    0    0    0  0.00000000000E+00  0.00000000000E+00  0.20861254724E+04  0.20861254724E+04  0.00000000000E+00 0. -1.
         22   -1    0    0    0    0 -0.00000000000E+00 -0.00000000000E+00 -0.19599839639E+04  0.19599839639E+04  0.00000000000E+00 0.  1.
         24    2    1    2    0    0 -0.22770872450E+02 -0.10302187956E+03 -0.17200196445E+04  0.17253641672E+04  0.85334118016E+02 0.  0.
         25    2    1    2    0    0  0.20588387070E+03 -0.25767215136E+02 -0.16659076618E+03  0.29402616975E+03  0.12508711977E+03 0.  0.
        -24    2    1    2    0    0 -0.18311299825E+03  0.12878909469E+03  0.20127519192E+04  0.20267190993E+04  0.79391550419E+02 0.  0.
        -11    1    3    3    0    0 -0.53523635378E+02 -0.66762943062E+02 -0.12572708506E+04  0.12601793768E+04  0.00000000000E+00 0.  1.
         12    1    3    3    0    0  0.30752762929E+02 -0.36258936496E+02 -0.46274879392E+03  0.46518479036E+03  0.00000000000E+00 0. -1.
         13    1    5    5    0    0 -0.16847472350E+03  0.13837780332E+03  0.19192916561E+04  0.19316346989E+04  0.00000000000E+00 0. -1.
        -14    1    5    5    0    0 -0.14638274747E+02 -0.95887086251E+01  0.93460263122E+02  0.95084400421E+02  0.00000000000E+00 0.  1.
          5    1    4    4  501    0  0.12109088118E+03 -0.41306694567E+02 -0.16351776009E+03  0.20766505432E+03  0.41800000000E+01 0. -1.
         -5    1    4    4    0  501  0.84792989518E+02  0.15539479431E+02 -0.30730060936E+01  0.86361115433E+02  0.41800000000E+01 0. -1.
</event>
<event>
11    1  0.8974665E-009  0.1747346E+03  0.7561462E-02  0.1073983E+00
         22   -1    0    0    0    0  0.00000000000E+00  0.00000000000E+00  0.89274445722E+03  0.89274445722E+03  0.00000000000E+00 0.  1.
         22   -1    0    0    0    0 -0.00000000000E+00 -0.00000000000E+00 -0.92795654182E+02  0.92795654182E+02  0.00000000000E+00 0.  1.
        -24    2    1    2    0    0 -0.20116463388E+02  0.61959723605E+02  0.73161856202E+00  0.10261298610E+03  0.79279317625E+02 0.  0.
         25    2    1    2    0    0 -0.16633431128E+02  0.68833529409E+02  0.12385819691E+03  0.18974586706E+03  0.12509162771E+03 0.  0.
         24    2    1    2    0    0  0.36749894516E+02 -0.13079325301E+03  0.67535898756E+03  0.69318125823E+03  0.77026390934E+02 0.  0.
        -13    1    5    5    0    0 -0.12557036310E+02 -0.93191057879E+02  0.39289547963E+03  0.40399147310E+03  0.00000000000E+00 0.  1.
         14    1    5    5    0    0  0.49306930827E+02 -0.37602195136E+02  0.28246350794E+03  0.28918978513E+03  0.00000000000E+00 0. -1.
         13    1    3    3    0    0 -0.27599045798E+02  0.53276977500E+02  0.32924149989E+02  0.68440801522E+02  0.00000000000E+00 0. -1.
        -14    1    3    3    0    0  0.74825824097E+01  0.86827461053E+01 -0.32192531427E+02  0.34172184583E+02  0.00000000000E+00 0.  1.
          5    1    4    4  501    0 -0.52480829273E+02  0.83635166110E+02  0.11112587189E+03  0.14871284495E+03  0.41800000000E+01 0. -1.
         -5    1    4    4    0  501  0.35847398145E+02 -0.14801636701E+02  0.12732325022E+02  0.41033022107E+02  0.41800000000E+01 0. -1.
</event>
<event>
11    1  0.4246227E-008  0.1747848E+03  0.7561462E-02  0.1073941E+00
         22   -1    0    0    0    0  0.00000000000E+00  0.00000000000E+00  0.73663216918E+03  0.73663216918E+03  0.00000000000E+00 0.  1.
         22   -1    0    0    0    0 -0.00000000000E+00 -0.00000000000E+00 -0.13893074716E+04  0.13893074716E+04  0.00000000000E+00 0. -1.
        -24    2    1    2    0    0 -0.74260816171E+02  0.10338229293E+02 -0.98537954370E+03  0.99147424978E+03  0.80167293932E+02 0.  0.
         25    2    1    2    0    0 -0.48475010078E+02  0.31993159709E+01 -0.38192148243E+03  0.40481036954E+03  0.12508938530E+03 0.  0.
         24    2    1    2    0    0  0.12273582625E+03 -0.13537545264E+02  0.71462572370E+03  0.72965502149E+03  0.80369006706E+02 0.  0.
        -13    1    5    5    0    0  0.11309563438E+03 -0.31424982603E+02  0.67492730359E+03  0.68505840421E+03  0.00000000000E+00 0.  1.
         14    1    5    5    0    0  0.96401918663E+01  0.17887437339E+02  0.39698420109E+02  0.44596617281E+02  0.00000000000E+00 0. -1.
         13    1    3    3    0    0 -0.38096115179E+02  0.36388179828E+02 -0.29571780991E+03  0.30037382829E+03  0.00000000000E+00 0. -1.
        -14    1    3    3    0    0 -0.36164700992E+02 -0.26049950535E+02 -0.68966173380E+03  0.69110042149E+03  0.00000000000E+00 0.  1.
          5    1    4    4  501    0 -0.20724518408E+02 -0.30093793525E+02 -0.34713559761E+03  0.34907841182E+03  0.41800000000E+01 0. -1.
         -5    1    4    4    0  501 -0.27750491670E+02  0.33293109495E+02 -0.34785884823E+02  0.55731957715E+02  0.41800000000E+01 0. -1.
</event>
<event>
11    1  0.8974665E-009  0.1297549E+03  0.7561462E-02  0.1119571E+00
         22   -1    0    0    0    0  0.00000000000E+00  0.00000000000E+00  0.29769850555E+03  0.29769850555E+03  0.00000000000E+00 0.  1.
         22   -1    0    0    0    0 -0.00000000000E+00 -0.00000000000E+00 -0.24560514819E+04  0.24560514819E+04  0.00000000000E+00 0.  1.
         24    2    1    2    0    0  0.25691670810E+02 -0.23241446247E+02 -0.23959755402E+04  0.23975856927E+04  0.80734983566E+02 0.  0.
         25    2    1    2    0    0 -0.15515963474E+02  0.89259059279E+01  0.26010506473E+02  0.12901645865E+03  0.12509309828E+03 0.  0.
        -24    2    1    2    0    0 -0.10175707336E+02  0.14315540319E+02  0.21161205739E+03  0.22714783613E+03  0.80672156962E+02 0.  0.
        -11    1    3    3    0    0 -0.28407315720E+01 -0.36104254204E+02 -0.20154074605E+04  0.20157328243E+04  0.00000000000E+00 0.  1.
         12    1    3    3    0    0  0.28532402382E+02  0.12862807957E+02 -0.38056807970E+03  0.38185286839E+03  0.00000000000E+00 0. -1.
         13    1    5    5    0    0  0.35304972137E+02  0.16179821055E+01  0.90652934492E+02  0.97298578899E+02  0.00000000000E+00 0. -1.
        -14    1    5    5    0    0 -0.45480679473E+02  0.12697558213E+02  0.12095912290E+03  0.12984925723E+03  0.00000000000E+00 0.  1.
          5    1    4    4  501    0  0.41956524984E+02  0.59101660045E+01 -0.27200951288E+02  0.50523699408E+02  0.41800000000E+01 0. -1.
         -5    1    4    4    0  501 -0.57472488459E+02  0.30157399234E+01  0.53211457761E+02  0.78492759245E+02  0.41800000000E+01 0. -1.
</event>
<event>
11    1  0.8974665E-009  0.1778966E+03  0.7561462E-02  0.1071357E+00
         22   -1    0    0    0    0  0.00000000000E+00  0.00000000000E+00  0.87041482468E+02  0.87041482468E+02  0.00000000000E+00 0.  1.
         22   -1    0    0    0    0 -0.00000000000E+00 -0.00000000000E+00 -0.20741295743E+04  0.20741295743E+04  0.00000000000E+00 0.  1.
         24    2    1    2    0    0  0.87381052698E+02 -0.10463286005E+03 -0.17310282918E+04  0.17382550665E+04  0.80549646187E+02 0.  0.
         25    2    1    2    0    0 -0.16262875248E+02  0.81403657451E+02 -0.27203549114E+03  0.31071110558E+03  0.12508815344E+03 0.  0.
        -24    2    1    2    0    0 -0.71118177450E+02  0.23229202603E+02  0.15975691076E+02  0.11220488470E+03  0.82081194121E+02 0.  0.
        -13    1    3    3    0    0  0.28992181427E+02 -0.60460117962E+02 -0.43273944851E+03  0.43790341714E+03  0.00000000000E+00 0.  1.
         14    1    3    3    0    0  0.58388871271E+02 -0.44172742093E+02 -0.12982888433E+04  0.13003516494E+04  0.00000000000E+00 0. -1.
         11    1    5    5    0    0 -0.36548458943E+02 -0.13539122135E+02 -0.25757068253E+02  0.46717493985E+02  0.00000000000E+00 0. -1.
        -12    1    5    5    0    0 -0.34569718507E+02  0.36768324738E+02  0.41732759329E+02  0.65487390717E+02  0.00000000000E+00 0.  1.
          5    1    4    4  501    0  0.12755473895E+02  0.69991832834E+02 -0.26993066045E+03  0.27918021532E+03  0.41800000000E+01 0.  1.
         -5    1    4    4    0  501 -0.29018349144E+02  0.11411824618E+02 -0.21048306940E+01  0.31530890257E+02  0.41800000000E+01 0.  1.
</event>
<event>
11    1  0.8974665E-009  0.1643540E+03  0.7561462E-02  0.1083052E+00
         22   -1    0    0    0    0  0.00000000000E+00  0.00000000000E+00  0.10699220832E+03  0.10699220832E+03  0.00000000000E+00 0.  1.
         22   -1    0    0    0    0 -0.00000000000E+00 -0.00000000000E+00 -0.76633481074E+03  0.76633481074E+03  0.00000000000E+00 0. -1.
         24    2    1    2    0    0  0.12154975365E+03  0.52581085801E+02 -0.49446044967E+03  0.51814252613E+03  0.80258506731E+02 0.  0.
         25    2    1    2    0    0 -0.52588904625E+02 -0.27456955281E+02 -0.19871260241E+03  0.24218415578E+03  0.12508792775E+03 0.  0.
        -24    2    1    2    0    0 -0.68960849025E+02 -0.25124130521E+02  0.33830449656E+02  0.11300033715E+03  0.78979467207E+02 0.  0.
        -11    1    3    3    0    0  0.12080633871E+03  0.68436702414E+02 -0.43670569933E+03  0.45824624552E+03  0.00000000000E+00 0.  1.
         12    1    3    3    0    0  0.74341494238E+00 -0.15855616612E+02 -0.57754750342E+02  0.59896280611E+02  0.00000000000E+00 0. -1.
         11    1    5    5    0    0 -0.46483675579E+02  0.24483744658E+02  0.96727487529E+01  0.53420482180E+02  0.00000000000E+00 0. -1.
        -12    1    5    5    0    0 -0.22477173446E+02 -0.49607875179E+02  0.24157700903E+02  0.59579854974E+02  0.00000000000E+00 0.  1.
          5    1    4    4  501    0 -0.63916893767E+02  0.33048316848E+02 -0.13764537940E+03  0.15537465503E+03  0.41800000000E+01 0. -1.
         -5    1    4    4    0  501  0.11327989142E+02 -0.60505272128E+02 -0.61067223018E+02  0.86809500750E+02  0.41800000000E+01 0. -1.
</event>
<event>
11    1  0.8974665E-009  0.1471024E+03  0.7561462E-02  0.1099877E+00
         22   -1    0    0    0    0  0.00000000000E+00  0.00000000000E+00  0.10945129293E+04  0.10945129293E+04  0.00000000000E+00 0. -1.
         22   -1    0    0    0    0 -0.00000000000E+00 -0.00000000000E+00 -0.11760840418E+04  0.11760840418E+04  0.00000000000E+00 0.  1.
        -24    2    1    2    0    0  0.41031624782E+02  0.34878478659E+02 -0.10443866863E+04  0.10490202843E+04  0.82461529719E+02 0.  0.
         25    2    1    2    0    0 -0.11617620284E+03 -0.48399280665E+02 -0.64223159421E+02  0.18871154655E+03  0.12509209856E+03 0.  0.
         24    2    1    2    0    0  0.75144578054E+02  0.13520802006E+02  0.10270387332E+04  0.10328651402E+04  0.78564105456E+02 0.  0.
        -11    1    5    5    0    0 -0.10424867642E+02 -0.42739701557E+01  0.30732892651E+02  0.32733092994E+02  0.00000000000E+00 0.  1.
         12    1    5    5    0    0  0.85569445696E+02  0.17794772162E+02  0.99630584055E+03  0.10001320472E+04  0.00000000000E+00 0. -1.
         11    1    3    3    0    0  0.29815187137E+01 -0.26126254815E+02 -0.24521336583E+03  0.24661927221E+03  0.00000000000E+00 0. -1.
        -12    1    3    3    0    0  0.38050106068E+02  0.61004733474E+02 -0.79917332045E+03  0.80240101208E+03  0.00000000000E+00 0.  1.
          5    1    4    4  501    0 -0.14788600235E+02 -0.66184035160E+02 -0.12254440542E+01  0.67955892460E+02  0.41800000000E+01 0.  1.
         -5    1    4    4    0  501 -0.10138760260E+03  0.17784754495E+02 -0.62997715367E+02  0.12075565409E+03  0.41800000000E+01 0.  1.
</event>
<event>
11    1  0.8974665E-009  0.1316224E+03  0.7561462E-02  0.1117291E+00
         22   -1    0    0    0    0  0.00000000000E+00  0.00000000000E+00  0.13233153984E+03  0.13233153984E+03  0.00000000000E+00 0.  1.
         22   -1    0    0    0    0 -0.00000000000E+00 -0.00000000000E+00 -0.99500108533E+03  0.99500108533E+03  0.00000000000E+00 0. -1.
         24    2    1    2    0    0  0.42900161863E+02 -0.37095989968E+01 -0.84023706906E+03  0.84869871789E+03  0.11152128279E+03 0.  0.
         25    2    1    2    0    0 -0.25899131183E+02 -0.27869293411E+02 -0.97833637210E+02  0.16329757060E+03  0.12508882238E+03 0.  0.
        -24    2    1    2    0    0 -0.17001030680E+02  0.31578892407E+02  0.75401160780E+02  0.11533633668E+03  0.79566789690E+02 0.  0.
        -11    1    3    3    0    0  0.21551664360E+02 -0.62642072553E+01 -0.26709739575E+02  0.34887314562E+02  0.00000000000E+00 0.  1.
         12    1    3    3    0    0  0.21348497503E+02  0.25546082585E+01 -0.81352732949E+03  0.81381140333E+03  0.00000000000E+00 0. -1.
         11    1    5    5    0    0 -0.44616346183E+02  0.27999443040E+02  0.26268010636E+02  0.58860814979E+02  0.00000000000E+00 0. -1.
        -12    1    5    5    0    0  0.27615315503E+02  0.35794493672E+01  0.49133150144E+02  0.56475521699E+02  0.00000000000E+00 0.  1.
          5    1    4    4  501    0 -0.14667072772E+02 -0.58946478830E+02 -0.11170116787E+03  0.12721805569E+03  0.41800000000E+01 0. -1.
         -5    1    4    4    0  501 -0.11232058412E+02  0.31077185419E+02  0.13867530660E+02  0.36079514913E+02  0.41800000000E+01 0. -1.
</event>
<event>
11    1  0.8974665E-009  0.1586812E+03  0.7561462E-02  0.1088324E+00
         22   -1    0    0    0    0  0.00000000000E+00  0.00000000000E+00  0.43392199778E+03  0.43392199778E+03  0.00000000000E+00 0.  1.
         22   -1    0    0    0    0 -0.00000000000E+00 -0.00000000000E+00 -0.29735601562E+04  0.29735601562E+04  0.00000000000E+00 0.  1.
        -24    2    1    2    0    0 -0.97201437274E+02  0.28638451832E+02 -0.24274508187E+04  0.24310227109E+04  0.84176383100E+02 0.  0.
         25    2    1    2    0    0  0.70811353586E+02 -0.31497327908E+02 -0.53009643713E+03  0.55014095700E+03  0.12508601221E+03 0.  0.
         24    2    1    2    0    0  0.26390083688E+02  0.28588760765E+01  0.41790909739E+03  0.42631848608E+03  0.79967669711E+02 0.  0.
        -13    1    5    5    0    0  0.77607705672E+01 -0.15047680883E+02  0.38036460396E+03  0.38074124311E+03  0.00000000000E+00 0.  1.
         14    1    5    5    0    0  0.18629313121E+02  0.17906556960E+02  0.37544493438E+02  0.45577242973E+02  0.00000000000E+00 0. -1.
         13    1    3    3    0    0 -0.59502650463E+02 -0.47414203893E+01 -0.61908733737E+03  0.62195834086E+03  0.00000000000E+00 0. -1.
        -14    1    3    3    0    0 -0.37698786811E+02  0.33379872221E+02 -0.18083634813E+04  0.18090643701E+04  0.00000000000E+00 0.  1.
          5    1    4    4  501    0  0.54310318271E+02 -0.14907211958E+02 -0.52197673311E+03  0.52502287373E+03  0.41800000000E+01 0.  1.
         -5    1    4    4    0  501  0.16501035315E+02 -0.16590115950E+02 -0.81197040273E+01  0.25118083271E+02  0.41800000000E+01 0.  1.
</event>
<event>
11    1  0.8974665E-009  0.2639541E+03  0.7561462E-02  0.1016717E+00
         22   -1    0    0    0    0  0.00000000000E+00  0.00000000000E+00  0.25738664371E+03  0.25738664371E+03  0.00000000000E+00 0.  1.
         22   -1    0    0    0    0 -0.00000000000E+00 -0.00000000000E+00 -0.17464669596E+04  0.17464669596E+04  0.00000000000E+00 0.  1.
         24    2    1    2    0    0 -0.92125329095E+02  0.23154583120E+03 -0.14293661277E+04  0.14532878228E+04  0.82809545372E+02 0.  0.
         25    2    1    2    0    0  0.41752735097E+02 -0.17235554692E+03 -0.25157437136E+03  0.33224471878E+03  0.12508862215E+03 0.  0.
        -24    2    1    2    0    0  0.50372593998E+02 -0.59190284274E+02  0.19186018316E+03  0.21832106169E+03  0.69374837761E+02 0.  0.
        -11    1    3    3    0    0 -0.75056514277E+02  0.96587440921E+02 -0.80789107948E+03  0.81709889878E+03  0.00000000000E+00 0.  1.
         12    1    3    3    0    0 -0.17068814818E+02  0.13495839028E+03 -0.62147504819E+03  0.63618892404E+03  0.00000000000E+00 0. -1.
         11    1    5    5    0    0  0.51321479845E+02 -0.72057643787E+02  0.18097586338E+03  0.20144096268E+03  0.00000000000E+00 0. -1.
        -12    1    5    5    0    0 -0.94888584715E+00  0.12867359513E+02  0.10884319786E+02  0.16880099004E+02  0.00000000000E+00 0.  1.
          5    1    4    4  501    0 -0.10534456652E+02 -0.12062078275E+03 -0.22189966258E+03  0.25281867150E+03  0.41800000000E+01 0. -1.
         -5    1    4    4    0  501  0.52287191749E+02 -0.51734764173E+02 -0.29674708779E+02  0.79426047278E+02  0.41800000000E+01 0. -1.
</event>
<event>
11    1  0.8974665E-009  0.2643224E+03  0.7561462E-02  0.1016534E+00
         22   -1    0    0    0    0  0.00000000000E+00  0.00000000000E+00  0.17009550550E+04  0.17009550550E+04  0.00000000000E+00 0. -1.
         22   -1    0    0    0    0 -0.00000000000E+00 -0.00000000000E+00 -0.21842627349E+03  0.21842627349E+03  0.00000000000E+00 0.  1.
         24    2    1    2    0    0 -0.14830693188E+02  0.21158035526E+03 -0.31051167945E+02  0.22918877271E+03  0.81099459395E+02 0.  0.
         25    2    1    2    0    0 -0.10459344716E+03 -0.31357395824E+03  0.29865073113E+03  0.46271814345E+03  0.12508958630E+03 0.  0.
        -24    2    1    2    0    0  0.11942414035E+03  0.10199360298E+03  0.12149292183E+04  0.12274744123E+04  0.77302050389E+02 0.  0.
        -13    1    3    3    0    0  0.12188742400E+02  0.11077927662E+03  0.19646969609E+02  0.11316632442E+03  0.00000000000E+00 0.  1.
         14    1    3    3    0    0 -0.27019435588E+02  0.10080107865E+03 -0.50698137554E+02  0.11602244829E+03  0.00000000000E+00 0. -1.
         13    1    5    5    0    0  0.10053747800E+03  0.10048859351E+03  0.11714986496E+04  0.11800910252E+04  0.00000000000E+00 0. -1.
        -14    1    5    5    0    0  0.18886662347E+02  0.15050094689E+01  0.43430568768E+02  0.47383387085E+02  0.00000000000E+00 0.  1.
          5    1    4    4  501    0 -0.56549668313E+02 -0.29659836116E+03  0.26233611650E+03  0.40000770399E+03  0.41800000000E+01 0. -1.
         -5    1    4    4    0  501 -0.48043778848E+02 -0.16975597080E+02  0.36314614630E+02  0.62710439465E+02  0.41800000000E+01 0. -1.
</event>
<event>
11    1  0.8974665E-009  0.1676918E+03  0.7561462E-02  0.1080058E+00
         22   -1    0    0    0    0  0.00000000000E+00  0.00000000000E+00  0.57319077157E+03  0.57319077157E+03  0.00000000000E+00 0.  1.
         22   -1    0    0    0    0 -0.00000000000E+00 -0.00000000000E+00 -0.63992094050E+03  0.63992094050E+03  0.00000000000E+00 0.  1.
         24    2    1    2    0    0  0.40094196025E+01  0.11390008585E+03 -0.58615819318E+03  0.60252758026E+03  0.80428555502E+02 0.  0.
         25    2    1    2    0    0 -0.90918591927E+02 -0.50059382224E+02  0.17159987992E+03  0.23636144702E+03  0.12509229689E+03 0.  0.
        -24    2    1    2    0    0  0.86909172325E+02 -0.63840703623E+02  0.34782814433E+03  0.37422268479E+03  0.86193736160E+02 0.  0.
        -11    1    3    3    0    0 -0.60753790765E+01  0.12454587871E+03 -0.51591784566E+03  0.53077284181E+03  0.00000000000E+00 0.  1.
         12    1    3    3    0    0  0.10084798679E+02 -0.10645792862E+02 -0.70240347521E+02  0.71754738449E+02  0.00000000000E+00 0. -1.
         11    1    5    5    0    0  0.51485300802E+02  0.21984595001E+01  0.72973182451E+02  0.89334510577E+02  0.00000000000E+00 0. -1.
        -12    1    5    5    0    0  0.35423871523E+02 -0.66039163123E+02  0.27485496188E+03  0.28488817422E+03  0.00000000000E+00 0.  1.
          5    1    4    4  501    0  0.25663436020E+00  0.17470892155E+02 -0.11200689990E+02  0.21171343608E+02  0.41800000000E+01 0. -1.
         -5    1    4    4    0  501 -0.91175226287E+02 -0.67530274379E+02  0.18280056991E+03  0.21519010341E+03  0.41800000000E+01 0. -1.
</event>
<event>
11    1  0.1229870E-008  0.2232174E+03  0.7561462E-02  0.1039220E+00
         22   -1    0    0    0    0  0.00000000000E+00  0.00000000000E+00  0.14469781904E+04  0.14469781904E+04  0.00000000000E+00 0. -1.
         22   -1    0    0    0    0 -0.00000000000E+00 -0.00000000000E+00 -0.90711507243E+03  0.90711507243E+03  0.00000000000E+00 0. -1.
        -24    2    1    2    0    0  0.21988627940E+02 -0.52389818975E+02 -0.60331521753E+03  0.61126695584E+03  0.80186324914E+02 0.  0.
         25    2    1    2    0    0  0.13074352847E+03  0.15601266088E+03 -0.24275981537E+03  0.34060614933E+03  0.12508557235E+03 0.  0.
         24    2    1    2    0    0 -0.15273215641E+03 -0.10362284191E+03  0.13859381509E+04  0.14022201577E+04  0.10645190254E+03 0.  0.
        -13    1    5    5    0    0 -0.11346671719E+03 -0.19744212291E+02  0.91874993587E+03  0.92594058907E+03  0.00000000000E+00 0.  1.
         14    1    5    5    0    0 -0.39265439214E+02 -0.83878629614E+02  0.46718821504E+03  0.47627956863E+03  0.00000000000E+00 0. -1.
         13    1    3    3    0    0 -0.89564906425E+01 -0.24589626178E+02 -0.48759800617E+03  0.48829978913E+03  0.00000000000E+00 0. -1.
        -14    1    3    3    0    0  0.30945118583E+02 -0.27800192798E+02 -0.11571721136E+03  0.12296716671E+03  0.00000000000E+00 0.  1.
          5    1    4    4  501    0  0.12389554178E+03  0.17710903896E+03 -0.21601544442E+03  0.30561063722E+03  0.41800000000E+01 0. -1.
         -5    1    4    4    0  501  0.68479866873E+01 -0.21096378084E+02 -0.26744370950E+02  0.34995512105E+02  0.41800000000E+01 0. -1.
</event>
<event>
11    1  0.8974665E-009  0.2192964E+03  0.7561462E-02  0.1041659E+00
         22   -1    0    0    0    0  0.00000000000E+00  0.00000000000E+00  0.63759221915E+03  0.63759221915E+03  0.00000000000E+00 0. -1.
         22   -1    0    0    0    0 -0.00000000000E+00 -0.00000000000E+00 -0.23672216027E+04  0.23672216027E+04  0.00000000000E+00 0. -1.
         24    2    1    2    0    0 -0.10874227553E+03  0.14201079497E+03 -0.21395779826E+04  0.21485857961E+04  0.81455701688E+02 0.  0.
         25    2    1    2    0    0  0.13393039869E+03 -0.14566501309E+03 -0.15774418141E+03  0.28230387621E+03  0.12512635222E+03 0.  0.
        -24    2    1    2    0    0 -0.25188123161E+02  0.36542181259E+01  0.56769278040E+03  0.57392414958E+03  0.80411701218E+02 0.  0.
        -11    1    3    3    0    0 -0.33340374360E+02  0.25482574871E+02 -0.21802628885E+03  0.22202793702E+03  0.00000000000E+00 0.  1.
         12    1    3    3    0    0 -0.75401901168E+02  0.11652822010E+03 -0.19215516937E+04  0.19265578591E+04  0.00000000000E+00 0. -1.
         13    1    5    5    0    0 -0.41578094403E+02 -0.18113000543E+02  0.47895069131E+03  0.48109311306E+03  0.00000000000E+00 0. -1.
        -14    1    5    5    0    0  0.16389971243E+02  0.21767218669E+02  0.88742089089E+02  0.92831036522E+02  0.00000000000E+00 0.  1.
          5    1    4    4  501    0  0.72492719472E+02  0.23592928908E+01 -0.62417609369E+02  0.95781997258E+02  0.41800000000E+01 0. -1.
         -5    1    4    4    0  501  0.61437679216E+02 -0.14802430598E+03 -0.95326572040E+02  0.18652187895E+03  0.41800000000E+01 0. -1.
</event>
<event>
11    1  0.8974665E-009  0.1529046E+03  0.7561462E-02  0.1093947E+00
         22   -1    0    0    0    0  0.00000000000E+00  0.00000000000E+00  0.29382773274E+03  0.29382773274E+03  0.00000000000E+00 0.  1.
         22   -1    0    0    0    0 -0.00000000000E+00 -0.00000000000E+00 -0.48521846414E+03  0.48521846414E+03  0.00000000000E+00 0.  1.
         24    2    1    2    0    0 -0.28336730830E+02  0.84272752211E+02 -0.42167996841E+03  0.43824187381E+03  0.79605760616E+02 0.  0.
         25    2    1    2    0    0  0.43192710837E+02 -0.62842980566E+02  0.77784092387E+02  0.16587252976E+03  0.12509388724E+03 0.  0.
        -24    2    1    2    0    0 -0.14855980006E+02 -0.21429771645E+02  0.15250514463E+03  0.17493179330E+03  0.81629516203E+02 0.  0.
        -11    1    3    3    0    0  0.88922320106E+01  0.79885163101E+02 -0.31772545975E+03  0.32773492161E+03  0.00000000000E+00 0.  1.
         12    1    3    3    0    0 -0.37228962841E+02  0.43875891099E+01 -0.10395450867E+03  0.11050695220E+03  0.00000000000E+00 0. -1.
         11    1    5    5    0    0  0.25933436488E+02  0.25499815929E+01  0.16286433594E+02  0.30729358168E+02  0.00000000000E+00 0. -1.
        -12    1    5    5    0    0 -0.40789416494E+02 -0.23979753238E+02  0.13621871103E+03  0.14420243513E+03  0.00000000000E+00 0.  1.
          5    1    4    4  501    0  0.48317744239E+02 -0.24068047881E+02 -0.22133343150E+02  0.58491303765E+02  0.41800000000E+01 0.  1.
         -5    1    4    4    0  501 -0.51250334019E+01 -0.38774932686E+02  0.99917435537E+02  0.10738122600E+03  0.41800000000E+01 0.  1.
</event>
<event>
11    1  0.8974665E-009  0.1701079E+03  0.7561462E-02  0.1077938E+00
         22   -1    0    0    0    0  0.00000000000E+00  0.00000000000E+00  0.23434074348E+03  0.23434074348E+03  0.00000000000E+00 0. -1.
         22   -1    0    0    0    0 -0.00000000000E+00 -0.00000000000E+00 -0.57340831407E+03  0.57340831407E+03  0.00000000000E+00 0. -1.
         24    2    1    2    0    0  0.10928583291E+03  0.31741070612E+02 -0.44774854649E+03  0.46868931334E+03  0.78993814428E+02 0.  0.
         25    2    1    2    0    0 -0.10548329374E+03 -0.90936747315E+02 -0.56582952832E+01  0.18728017220E+03  0.12508249008E+03 0.  0.
        -24    2    1    2    0    0 -0.38025391774E+01  0.59195676703E+02  0.11433927118E+03  0.15177957201E+03  0.80280645860E+02 0.  0.
        -13    1    3    3    0    0  0.10015959409E+03  0.21703645914E+02 -0.24611679666E+03  0.26660170692E+03  0.00000000000E+00 0.  1.
         14    1    3    3    0    0  0.91262388210E+01  0.10037424698E+02 -0.20163174983E+03  0.20208760642E+03  0.00000000000E+00 0. -1.
         11    1    5    5    0    0 -0.18324180438E+02  0.64876972714E+02  0.11787396858E+03  0.13579053592E+03  0.00000000000E+00 0. -1.
        -12    1    5    5    0    0  0.14521641261E+02 -0.56812960113E+01 -0.35346973966E+01  0.15989036086E+02  0.00000000000E+00 0.  1.
          5    1    4    4  501    0 -0.82875295030E+02  0.96501130607E+01 -0.91546870130E+01  0.84039989902E+02  0.41800000000E+01 0. -1.
         -5    1    4    4    0  501 -0.22607998707E+02 -0.10058686038E+03  0.34963917298E+01  0.10324018230E+03  0.41800000000E+01 0. -1.
</event>
<event>
11    1  0.1328071E-008  0.1697919E+03  0.7561462E-02  0.1078213E+00
         22   -1    0    0    0    0  0.00000000000E+00  0.00000000000E+00  0.11892288694E+04  0.11892288694E+04  0.00000000000E+00 0. -1.
         22   -1    0    0    0    0 -0.00000000000E+00 -0.00000000000E+00 -0.89577767180E+03  0.89577767180E+03  0.00000000000E+00 0. -1.
        -24    2    1    2    0    0  0.23215070806E+02  0.14330260064E+02 -0.25890151393E+03  0.27022481735E+03  0.72437297901E+02 0.  0.
         25    2    1    2    0    0 -0.13783374276E+03 -0.17256639918E+02 -0.61308430640E+03  0.64094898761E+03  0.12508919096E+03 0.  0.
         24    2    1    2    0    0  0.11461867195E+03  0.29263798537E+01  0.11654370180E+04  0.11738327363E+04  0.80584404518E+02 0.  0.
        -13    1    5    5    0    0  0.24979610704E+01  0.25568368185E+02  0.19994040608E+03  0.20158409472E+03  0.00000000000E+00 0.  1.
         14    1    5    5    0    0  0.11212071088E+03 -0.22641988331E+02  0.96549661189E+03  0.97224864156E+03  0.00000000000E+00 0. -1.
         11    1    3    3    0    0  0.28476779932E+01 -0.73135010435E+01 -0.22501478622E+03  0.22515161689E+03  0.00000000000E+00 0. -1.
        -12    1    3    3    0    0  0.20367392813E+02  0.21643761108E+02 -0.33886727711E+02  0.45073200461E+02  0.00000000000E+00 0.  1.
          5    1    4    4  501    0 -0.18104278258E+02  0.13519884603E+02 -0.95741777882E+01  0.24893562446E+02  0.41800000000E+01 0. -1.
         -5    1    4    4    0  501 -0.11972946450E+03 -0.30776524521E+02 -0.60351012861E+03  0.61605542516E+03  0.41800000000E+01 0. -1.
</event>
<event>
11    1  0.8974665E-009  0.1359618E+03  0.7561462E-02  0.1112153E+00
         22   -1    0    0    0    0  0.00000000000E+00  0.00000000000E+00  0.35020689710E+03  0.35020689710E+03  0.00000000000E+00 0.  1.
         22   -1    0    0    0    0 -0.00000000000E+00 -0.00000000000E+00 -0.17434003595E+04  0.17434003595E+04  0.00000000000E+00 0. -1.
         24    2    1    2    0    0 -0.53712168311E+02 -0.59536594803E+01 -0.16928559734E+04  0.16959273346E+04  0.86531695153E+02 0.  0.
         25    2    1    2    0    0 -0.77534914811E+01  0.60727110543E+01  0.63998124795E+02  0.14090630368E+03  0.12514724124E+03 0.  0.
        -24    2    1    2    0    0  0.61465659792E+02 -0.11905157393E+00  0.23566438621E+03  0.25677361838E+03  0.81344616672E+02 0.  0.
        -11    1    3    3    0    0 -0.15751499819E+02 -0.10213284476E+02 -0.65867470664E+02  0.68490471002E+02  0.00000000000E+00 0.  1.
         12    1    3    3    0    0 -0.37960668492E+02  0.42596249952E+01 -0.16269885028E+04  0.16274368636E+04  0.00000000000E+00 0. -1.
         11    1    5    5    0    0  0.29638652055E+02  0.23559376941E+02  0.32880186643E+02  0.50145793554E+02  0.00000000000E+00 0. -1.
        -12    1    5    5    0    0  0.31827007737E+02 -0.23678428515E+02  0.20278419956E+03  0.20662782482E+03  0.00000000000E+00 0.  1.
          5    1    4    4  501    0 -0.20983195626E+02 -0.56920910480E+02  0.26877085474E+02  0.66484093376E+02  0.41800000000E+01 0. -1.
         -5    1    4    4    0  501  0.13229704145E+02  0.62993621534E+02  0.37121039321E+02  0.74422210300E+02  0.41800000000E+01 0. -1.
</event>
<event>
11    1  0.8974665E-009  0.1470826E+03  0.7561462E-02  0.1099898E+00
         22   -1    0    0    0    0  0.00000000000E+00  0.00000000000E+00  0.33130006404E+04  0.33130006404E+04  0.00000000000E+00 0.  1.
         22   -1    0    0    0    0 -0.00000000000E+00 -0.00000000000E+00 -0.28341142631E+03  0.28341142631E+03  0.00000000000E+00 0.  1.
         24    2    1    2    0    0 -0.46726408512E+02 -0.61491554653E+02 -0.26130596719E+03  0.28440742573E+03  0.81499734829E+02 0.  0.
         25    2    1    2    0    0  0.39695455358E+02  0.75185569366E+02  0.56748182916E+03  0.58729269476E+03  0.12509390027E+03 0.  0.
        -24    2    1    2    0    0  0.70309531537E+01 -0.13694014713E+02  0.27234133521E+04  0.27247119462E+04  0.82691855694E+02 0.  0.
        -11    1    3    3    0    0  0.94875972265E+01 -0.38338363841E+02 -0.17129099315E+03  0.17578523538E+03  0.00000000000E+00 0.  1.
         12    1    3    3    0    0 -0.56214005738E+02 -0.23153190812E+02 -0.90014974041E+02  0.10862219035E+03  0.00000000000E+00 0. -1.
         11    1    5    5    0    0  0.26605095997E+00  0.12832358975E+02  0.70592652755E+02  0.71750002390E+02  0.00000000000E+00 0. -1.
        -12    1    5    5    0    0  0.67649021937E+01 -0.26526373688E+02  0.26528206994E+04  0.26529619438E+04  0.00000000000E+00 0.  1.
          5    1    4    4  501    0  0.63054124575E+01 -0.88449157892E+01  0.36856684140E+03  0.36875056575E+03  0.41800000000E+01 0. -1.
         -5    1    4    4    0  501  0.33390042901E+02  0.84030485155E+02  0.19891498776E+03  0.21854212902E+03  0.41800000000E+01 0. -1.
</event>
<event>
11    1  0.8974665E-009  0.1263806E+03  0.7561462E-02  0.1123798E+00
         22   -1    0    0    0    0  0.00000000000E+00  0.00000000000E+00  0.25975928466E+03  0.25975928466E+03  0.00000000000E+00 0. -1.
         22   -1    0    0    0    0 -0.00000000000E+00 -0.00000000000E+00 -0.11531446307E+03  0.11531446307E+03  0.00000000000E+00 0. -1.
         24    2    1    2    0    0  0.26718198817E+01  0.12075840092E+02 -0.39604375592E+02  0.90658262988E+02  0.80606758691E+02 0.  0.
         25    2    1    2    0    0  0.16752017701E+02 -0.51551508432E+01  0.14424854693E+03  0.19173425177E+03  0.12508866589E+03 0.  0.
        -24    2    1    2    0    0 -0.19423837582E+02 -0.69206892491E+01  0.39800650255E+02  0.92681232973E+02  0.81120513920E+02 0.  0.
        -13    1    3    3    0    0  0.18375887490E+01  0.22039482443E+02  0.20242913403E+02  0.29981512000E+02  0.00000000000E+00 0.  1.
         14    1    3    3    0    0  0.83423113265E+00 -0.99636423509E+01 -0.59847288995E+02  0.60676750988E+02  0.00000000000E+00 0. -1.
         11    1    5    5    0    0  0.10777085889E+02 -0.18495989338E+02  0.53448869235E+02  0.57576286997E+02  0.00000000000E+00 0. -1.
        -12    1    5    5    0    0 -0.30200923472E+02  0.11575300089E+02 -0.13648218980E+02  0.35104945977E+02  0.00000000000E+00 0.  1.
          5    1    4    4  501    0 -0.51853902421E+02 -0.88689137725E+01  0.37585043734E+02  0.64788831910E+02  0.41800000000E+01 0. -1.
         -5    1    4    4    0  501  0.68605920121E+02  0.37137629293E+01  0.10666350319E+03  0.12694541986E+03  0.41800000000E+01 0. -1.
</event>
<event>
11    1  0.8974665E-009  0.1290082E+03  0.7561462E-02  0.1120494E+00
         22   -1    0    0    0    0  0.00000000000E+00  0.00000000000E+00  0.74627188799E+03  0.74627188799E+03  0.00000000000E+00 0. -1.
         22   -1    0    0    0    0 -0.00000000000E+00 -0.00000000000E+00 -0.61467880625E+02  0.61467880625E+02  0.00000000000E+00 0. -1.
        -24    2    1    2    0    0  0.10340913129E+02  0.27541597529E+02  0.78275072454E+01  0.88402873312E+02  0.82995927981E+02 0.  0.
         25    2    1    2    0    0 -0.90491601901E+00 -0.44547346040E+02  0.23511852373E+03  0.27002832937E+03  0.12509713646E+03 0.  0.
         24    2    1    2    0    0 -0.94359971101E+01  0.17005748511E+02  0.44185797639E+03  0.44930856593E+03  0.79129530485E+02 0.  0.
        -13    1    5    5    0    0  0.10955737218E+01  0.43696962416E+02  0.15581369322E+03  0.16182871130E+03  0.00000000000E+00 0.  1.
         14    1    5    5    0    0 -0.10531570832E+02 -0.26691213904E+02  0.28604428317E+03  0.28747985463E+03  0.00000000000E+00 0. -1.
         11    1    3    3    0    0 -0.81955677312E+01  0.54530070376E+02  0.75784622098E+01  0.55660838972E+02  0.00000000000E+00 0. -1.
        -12    1    3    3    0    0  0.18536480860E+02 -0.26988472847E+02  0.24904503566E+00  0.32742034340E+02  0.00000000000E+00 0.  1.
          5    1    4    4  501    0 -0.47756700296E+02 -0.59127912244E+02  0.18362386399E+03  0.19877627689E+03  0.41800000000E+01 0. -1.
         -5    1    4    4    0  501  0.46851784277E+02  0.14580566203E+02  0.51494659741E+02  0.71252052480E+02  0.41800000000E+01 0. -1.
</event>
<event>
11    1  0.8974665E-009  0.2000324E+03  0.7561462E-02  0.1054501E+00
         22   -1    0    0    0    0  0.00000000000E+00  0.00000000000E+00  0.11688685963E+04  0.11688685963E+04  0.00000000000E+00 0.  1.
         22   -1    0    0    0    0 -0.00000000000E+00 -0.00000000000E+00 -0.20344405232E+03  0.20344405232E+03  0.00000000000E+00 0. -1.
        -24    2    1    2    0    0  0.11120932398E+02  0.58894926393E+02 -0.13901816793E+03  0.17021457913E+03  0.77811724319E+02 0.  0.
         25    2    1    2    0    0 -0.74359364995E+02  0.93542573332E+02  0.14699119011E+03  0.22701110243E+03  0.12509237574E+03 0.  0.
         24    2    1    2    0    0  0.63238432597E+02 -0.15243749972E+03  0.95745152179E+03  0.97508696706E+03  0.82733826638E+02 0.  0.
        -11    1    5    5    0    0  0.33754035433E+02 -0.12757101926E+03  0.86352097410E+03  0.87354574727E+03  0.00000000000E+00 0.  1.
         12    1    5    5    0    0  0.29484397164E+02 -0.24866480465E+02  0.93930547693E+02  0.10154121979E+03  0.00000000000E+00 0. -1.
         11    1    3    3    0    0  0.87213424335E+01  0.77900394911E+02 -0.11908657098E+03  0.14256978898E+03  0.00000000000E+00 0. -1.
        -12    1    3    3    0    0  0.23995899646E+01 -0.19005468518E+02 -0.19931596944E+02  0.27644790148E+02  0.00000000000E+00 0.  1.
          5    1    4    4  501    0 -0.83131144119E+02  0.83660256566E+02  0.16588404668E+03  0.20357999654E+03  0.41800000000E+01 0.  1.
         -5    1    4    4    0  501  0.87717791237E+01  0.98823167661E+01 -0.18892856569E+02  0.23431105885E+02  0.41800000000E+01 0.  1.
</event>
<event>
11    1  0.8974665E-009  0.1465105E+03  0.7561462E-02  0.1100499E+00
         22   -1    0    0    0    0  0.00000000000E+00  0.00000000000E+00  0.18915813136E+03  0.18915813136E+03  0.00000000000E+00 0.  1.
         22   -1    0    0    0    0 -0.00000000000E+00 -0.00000000000E+00 -0.72617477417E+03  0.72617477417E+03  0.00000000000E+00 0. -1.
        -24    2    1    2    0    0 -0.13412955748E+02  0.27786231503E+02 -0.50151346692E+03  0.50907136584E+03  0.81767450553E+02 0.  0.
         25    2    1    2    0    0  0.87433700641E+02 -0.12515330196E+02 -0.17234457149E+03  0.23054189913E+03  0.12508249451E+03 0.  0.
         24    2    1    2    0    0 -0.74020744893E+02 -0.15270901308E+02  0.13684139560E+03  0.17571964057E+03  0.80246828162E+02 0.  0.
        -11    1    5    5    0    0 -0.76541631249E+02 -0.12756854514E+02  0.14630444328E+03  0.16560902384E+03  0.00000000000E+00 0.  1.
         12    1    5    5    0    0  0.25208863560E+01 -0.25140467940E+01 -0.94630476814E+01  0.10110616733E+02  0.00000000000E+00 0. -1.
         13    1    3    3    0    0 -0.22452069838E+02 -0.10904303935E+02 -0.38805753018E+03  0.38885941677E+03  0.00000000000E+00 0. -1.
        -14    1    3    3    0    0  0.90391140900E+01  0.38690535438E+02 -0.11345593674E+03  0.12021194906E+03  0.00000000000E+00 0.  1.
          5    1    4    4  501    0  0.97374741028E+02  0.35545209087E+02 -0.12115421218E+03  0.15950271975E+03  0.41800000000E+01 0.  1.
         -5    1    4    4    0  501 -0.99410403874E+01 -0.48060539282E+02 -0.51190359311E+02  0.71039179377E+02  0.41800000000E+01 0.  1.
</event>
<event>
11    1  0.8974665E-009  0.1899902E+03  0.7561462E-02  0.1061837E+00
         22   -1    0    0    0    0  0.00000000000E+00  0.00000000000E+00  0.20781578838E+04  0.20781578838E+04  0.00000000000E+00 0. -1.
         22   -1    0    0    0    0 -0.00000000000E+00 -0.00000000000E+00 -0.18826272010E+03  0.18826272010E+03  0.00000000000E+00 0.  1.
        -24    2    1    2    0    0  0.10624334798E+02  0.15092395390E+02 -0.16263830049E+03  0.18336377623E+03  0.82646238626E+02 0.  0.
         25    2    1    2    0    0 -0.13178138518E+03 -0.76420736328E+02  0.11271459123E+04  0.11442504045E+04  0.12507844865E+03 0.  0.
         24    2    1    2    0    0  0.12115705038E+03  0.61328340938E+02  0.92538755189E+03  0.93880642310E+03  0.81087499744E+02 0.  0.
        -11    1    5    5    0    0  0.50074299000E+02  0.25133856469E+02  0.16514092896E+03  0.17438656077E+03  0.00000000000E+00 0.  1.
         12    1    5    5    0    0  0.71082751377E+02  0.36194484469E+02  0.76024662293E+03  0.76441986233E+03  0.00000000000E+00 0. -1.
         13    1    3    3    0    0 -0.19162627238E+02  0.25105438591E+02 -0.20177682509E+02  0.37478369774E+02  0.00000000000E+00 0. -1.
        -14    1    3    3    0    0  0.29786962037E+02 -0.10013043201E+02 -0.14246061798E+03  0.14588540646E+03  0.00000000000E+00 0.  1.
          5    1    4    4  501    0 -0.10021834334E+03 -0.17902779183E+02  0.94180199432E+03  0.94729757455E+03  0.41800000000E+01 0. -1.
         -5    1    4    4    0  501 -0.31563041833E+02 -0.58517957145E+02  0.18534391793E+03  0.19695282997E+03  0.41800000000E+01 0. -1.
</event>
<event>
11    1  0.8974665E-009  0.1676920E+03  0.7561462E-02  0.1080058E+00
         22   -1    0    0    0    0  0.00000000000E+00  0.00000000000E+00  0.66922557168E+03  0.66922557168E+03  0.00000000000E+00 0. -1.
         22   -1    0    0    0    0 -0.00000000000E+00 -0.00000000000E+00 -0.11603760562E+04  0.11603760562E+04  0.00000000000E+00 0.  1.
         24    2    1    2    0    0  0.15763840153E+02 -0.11279947872E+03 -0.11106628635E+04  0.11193265435E+04  0.79672414221E+02 0.  0.
         25    2    1    2    0    0 -0.81147331471E+01  0.53072156785E+02  0.72890645985E+02  0.15441053947E+03  0.12508823169E+03 0.  0.
        -24    2    1    2    0    0 -0.76491070057E+01  0.59727321931E+02  0.54662173301E+03  0.55586454488E+03  0.81019821225E+02 0.  0.
        -13    1    3    3    0    0  0.24857780138E+02 -0.10248093889E+03 -0.10858346617E+04  0.10909432454E+04  0.00000000000E+00 0.  1.
         14    1    3    3    0    0 -0.90939399855E+01 -0.10318539828E+02 -0.24828201813E+02  0.28383298150E+02  0.00000000000E+00 0. -1.
         11    1    5    5    0    0  0.77595765459E+01  0.77224361529E+02  0.41587425913E+03  0.42305462112E+03  0.00000000000E+00 0. -1.
        -12    1    5    5    0    0 -0.15408683552E+02 -0.17497039598E+02  0.13074747389E+03  0.13280992377E+03  0.00000000000E+00 0.  1.
          5    1    4    4  501    0  0.32664348325E+02 -0.27767942308E+02  0.37483295450E+02  0.57100683965E+02  0.41800000000E+01 0.  1.
         -5    1    4    4    0  501 -0.40779081472E+02  0.80840099092E+02  0.35407350535E+02  0.97309855507E+02  0.41800000000E+01 0.  1.
</event>
<event>
11    1  0.8974665E-009  0.1930319E+03  0.7561462E-02  0.1059563E+00
         22   -1    0    0    0    0  0.00000000000E+00  0.00000000000E+00  0.73787106093E+03  0.73787106093E+03  0.00000000000E+00 0.  1.
         22   -1    0    0    0    0 -0.00000000000E+00 -0.00000000000E+00 -0.86286782809E+03  0.86286782809E+03  0.00000000000E+00 0. -1.
        -24    2    1    2    0    0 -0.88420192490E+02  0.11631191806E+03 -0.81079879125E+03  0.82776455229E+03  0.80329828854E+02 0.  0.
         25    2    1    2    0    0  0.78500777463E+02 -0.17105808649E+03  0.30403092073E+03  0.37882018601E+03  0.12508673612E+03 0.  0.
         24    2    1    2    0    0  0.99194150274E+01  0.54746168435E+02  0.38177110337E+03  0.39415415072E+03  0.80701805506E+02 0.  0.
        -11    1    5    5    0    0  0.16279762776E+01  0.44702258612E+02  0.37794038557E+03  0.38057834578E+03  0.00000000000E+00 0.  1.
         12    1    5    5    0    0  0.82914387498E+01  0.10043909823E+02  0.38307178029E+01  0.13575804947E+02  0.00000000000E+00 0. -1.
         11    1    3    3    0    0 -0.10280989821E+03  0.10492804156E+03 -0.75026284694E+03  0.76450906376E+03  0.00000000000E+00 0. -1.
        -12    1    3    3    0    0  0.14389705718E+02  0.11383876494E+02 -0.60535944311E+02  0.63255488523E+02  0.00000000000E+00 0.  1.
          5    1    4    4  501    0  0.36213960717E+02 -0.11022872363E+03  0.75365601529E+02  0.13841701036E+03  0.41800000000E+01 0. -1.
         -5    1    4    4    0  501  0.42286816746E+02 -0.60829362858E+02  0.22866531920E+03  0.24040317564E+03  0.41800000000E+01 0. -1.
</event>
<event>
11    1  0.8974665E-009  0.1304478E+03  0.7561462E-02  0.1118720E+00
         22   -1    0    0    0    0  0.00000000000E+00  0.00000000000E+00  0.14925024983E+03  0.14925024983E+03  0.00000000000E+00 0. -1.
         22   -1    0    0    0    0 -0.00000000000E+00 -0.00000000000E+00 -0.87786792406E+03  0.87786792406E+03  0.00000000000E+00 0. -1.
         24    2    1    2    0    0  0.57293831170E+01 -0.29054634210E+02 -0.16204213653E+03  0.18249725942E+03  0.78553154522E+02 0.  0.
         25    2    1    2    0    0 -0.30846800406E+02  0.55630503772E+02 -0.68357882297E+03  0.69782998530E+03  0.12506159734E+03 0.  0.
        -24    2    1    2    0    0  0.25117417289E+02 -0.26575869561E+02  0.11700328526E+03  0.14679092917E+03  0.80750520931E+02 0.  0.
        -11    1    3    3    0    0  0.26663838925E+02 -0.38859124940E+02 -0.52530019315E+02  0.70571912448E+02  0.00000000000E+00 0.  1.
         12    1    3    3    0    0 -0.20934455808E+02  0.98044907295E+01 -0.10951211721E+03  0.11192534697E+03  0.00000000000E+00 0. -1.
         11    1    5    5    0    0 -0.24867825462E+02 -0.85035285708E+01  0.73655848539E+02  0.78204237516E+02  0.00000000000E+00 0. -1.
        -12    1    5    5    0    0  0.49985242751E+02 -0.18072340990E+02  0.43347436719E+02  0.68586691653E+02  0.00000000000E+00 0.  1.
          5    1    4    4  501    0  0.46820631968E+02  0.26917692884E+02 -0.20052360600E+03  0.20771115216E+03  0.41800000000E+01 0.  1.
         -5    1    4    4    0  501 -0.77667432374E+02  0.28712810888E+02 -0.48305521697E+03  0.49011883314E+03  0.41800000000E+01 0.  1.
</event>
<event>
11    1  0.8974665E-009  0.1552390E+03  0.7561462E-02  0.1091643E+00
         22   -1    0    0    0    0  0.00000000000E+00  0.00000000000E+00  0.14066244995E+04  0.14066244995E+04  0.00000000000E+00 0. -1.
         22   -1    0    0    0    0 -0.00000000000E+00 -0.00000000000E+00 -0.19097808256E+03  0.19097808256E+03  0.00000000000E+00 0.  1.
         24    2    1    2    0    0  0.59437949065E+01  0.93843404499E+02 -0.15489377059E+03  0.19753435590E+03  0.78650037062E+02 0.  0.
         25    2    1    2    0    0 -0.24520300147E+02 -0.53639943876E+02  0.36876923370E+03  0.39383861678E+03  0.12505846492E+03 0.  0.
        -24    2    1    2    0    0  0.18576505241E+02 -0.40203460623E+02  0.10017709539E+04  0.10062296094E+04  0.83615656732E+02 0.  0.
        -13    1    3    3    0    0  0.22971177853E+02  0.98159501103E+02 -0.14707061042E+03  0.17830515168E+03  0.00000000000E+00 0.  1.
         14    1    3    3    0    0 -0.17027382946E+02 -0.43160966042E+01 -0.78231601711E+01  0.19229204221E+02  0.00000000000E+00 0. -1.
         13    1    5    5    0    0 -0.17789183804E+02 -0.60590087690E+01  0.70830993414E+03  0.70855919263E+03  0.00000000000E+00 0. -1.
        -14    1    5    5    0    0  0.36365689044E+02 -0.34144451853E+02  0.29346101972E+03  0.29767041678E+03  0.00000000000E+00 0.  1.
          5    1    4    4  501    0 -0.24278202646E+02  0.38676971078E+02  0.12236287414E+03  0.13067319765E+03  0.41800000000E+01 0. -1.
         -5    1    4    4    0  501 -0.24209750122E+00 -0.92316914954E+02  0.24640635956E+03  0.26316541913E+03  0.41800000000E+01 0. -1.
</event>
<event>
11    1  0.8974665E-009  0.1343145E+03  0.7561462E-02  0.1114079E+00
         22   -1    0    0    0    0  0.00000000000E+00  0.00000000000E+00  0.24419664049E+03  0.24419664049E+03  0.00000000000E+00 0.  1.
         22   -1    0    0    0    0 -0.00000000000E+00 -0.00000000000E+00 -0.44524602607E+03  0.44524602607E+03  0.00000000000E+00 0. -1.
         24    2    1    2    0    0 -0.24547892816E+02 -0.98024445863E+01 -0.33483023358E+03  0.34713507928E+03  0.87708557082E+02 0.  0.
         25    2    1    2    0    0  0.42106840909E+02  0.53158140634E+02 -0.37511832413E+02  0.14715020429E+03  0.12508905262E+03 0.  0.
        -24    2    1    2    0    0 -0.17558948093E+02 -0.43355696047E+02  0.17129268041E+03  0.19515738299E+03  0.80976470266E+02 0.  0.
        -13    1    3    3    0    0 -0.14236688886E+00 -0.16818306649E+02 -0.68292006052E+01  0.18152511886E+02  0.00000000000E+00 0.  1.
         14    1    3    3    0    0 -0.24405525927E+02  0.70158620623E+01 -0.32800103297E+03  0.32898256739E+03  0.00000000000E+00 0. -1.
         13    1    5    5    0    0 -0.33112793385E+01 -0.96083368998E+01 -0.75126816020E+01  0.12638239343E+02  0.00000000000E+00 0. -1.
        -14    1    5    5    0    0 -0.14247668755E+02 -0.33747359147E+02  0.17880536201E+03  0.18251914365E+03  0.00000000000E+00 0.  1.
          5    1    4    4  501    0 -0.34188244150E+02 -0.66675259939E+00  0.17561209212E+02  0.38667157460E+02  0.41800000000E+01 0.  1.
         -5    1    4    4    0  501  0.76295085058E+02  0.53824893233E+02 -0.55073041625E+02  0.10848304683E+03  0.41800000000E+01 0.  1.
</event>
<event>
11    1  0.8974665E-009  0.1380603E+03  0.7561462E-02  0.1109744E+00
         22   -1    0    0    0    0  0.00000000000E+00  0.00000000000E+00  0.65638875431E+03  0.65638875431E+03  0.00000000000E+00 0. -1.
         22   -1    0    0    0    0 -0.00000000000E+00 -0.00000000000E+00 -0.15463561155E+04  0.15463561155E+04  0.00000000000E+00 0.  1.
        -24    2    1    2    0    0  0.41912128986E+02  0.31235882765E+02 -0.10630486675E+04  0.10674361521E+04  0.81333649137E+02 0.  0.
         25    2    1    2    0    0 -0.25511592745E+02  0.25206481669E+02 -0.46810198240E+03  0.48585341558E+03  0.12509143626E+03 0.  0.
         24    2    1    2    0    0 -0.16400536241E+02 -0.56442364434E+02  0.64118328868E+03  0.64945530211E+03  0.84979183704E+02 0.  0.
        -13    1    5    5    0    0 -0.57202319794E+01  0.13800451997E+02  0.24520154922E+02  0.28712567398E+02  0.00000000000E+00 0.  1.
         14    1    5    5    0    0 -0.10680304261E+02 -0.70242816431E+02  0.61666313376E+03  0.62074273471E+03  0.00000000000E+00 0. -1.
         11    1    3    3    0    0  0.62108066004E+01  0.40904360427E+02 -0.23876569768E+03  0.24232374875E+03  0.00000000000E+00 0. -1.
        -12    1    3    3    0    0  0.35701322385E+02 -0.96684776622E+01 -0.82428296982E+03  0.82511240339E+03  0.00000000000E+00 0.  1.
          5    1    4    4  501    0 -0.71441706976E+02 -0.64111520404E+01 -0.21644678723E+03  0.22806074732E+03  0.41800000000E+01 0. -1.
         -5    1    4    4    0  501  0.45930114231E+02  0.31617633709E+02 -0.25165519517E+03  0.25779266826E+03  0.41800000000E+01 0. -1.
</event>
<event>
11    1  0.8974665E-009  0.1432686E+03  0.7561462E-02  0.1103962E+00
         22   -1    0    0    0    0  0.00000000000E+00  0.00000000000E+00  0.40207567174E+03  0.40207567174E+03  0.00000000000E+00 0. -1.
         22   -1    0    0    0    0 -0.00000000000E+00 -0.00000000000E+00 -0.46028370178E+03  0.46028370178E+03  0.00000000000E+00 0.  1.
        -24    2    1    2    0    0 -0.63045652758E+02 -0.47998042187E+02 -0.40045893248E+03  0.41634537321E+03  0.81838541089E+02 0.  0.
         25    2    1    2    0    0  0.45242636146E+02 -0.32773350890E+02  0.77354969627E+02  0.15732793660E+03  0.12508916682E+03 0.  0.
         24    2    1    2    0    0  0.17803016612E+02  0.80771393077E+02  0.26489593281E+03  0.28868606370E+03  0.79553898803E+02 0.  0.
        -13    1    5    5    0    0 -0.33359416336E+00 -0.12363216165E+02  0.77557289456E+01  0.14598346841E+02  0.00000000000E+00 0.  1.
         14    1    5    5    0    0  0.18136610775E+02  0.93134609242E+02  0.25714020386E+03  0.27408771686E+03  0.00000000000E+00 0. -1.
         11    1    3    3    0    0  0.11654966907E+01  0.72892144511E+00  0.38455795551E+01  0.40838941127E+01  0.00000000000E+00 0. -1.
        -12    1    3    3    0    0 -0.64211149449E+02 -0.48726963632E+02 -0.40430451203E+03  0.41226147910E+03  0.00000000000E+00 0.  1.
          5    1    4    4  501    0  0.81597907873E+02 -0.35798614839E+02  0.80917140787E+02  0.12043593927E+03  0.41800000000E+01 0.  1.
         -5    1    4    4    0  501 -0.36355271726E+02  0.30252639497E+01 -0.35621711605E+01  0.36891997339E+02  0.41800000000E+01 0.  1.
</event>
<event>
11    1  0.8974665E-009  0.1698731E+03  0.7561462E-02  0.1078142E+00
         22   -1    0    0    0    0  0.00000000000E+00  0.00000000000E+00  0.19984608609E+04  0.19984608609E+04  0.00000000000E+00 0.  1.
         22   -1    0    0    0    0 -0.00000000000E+00 -0.00000000000E+00 -0.19649069803E+03  0.19649069803E+03  0.00000000000E+00 0. -1.
         24    2    1    2    0    0 -0.74994642156E+02  0.73329936388E+01 -0.13844444462E+03  0.17679891095E+03  0.80081343142E+02 0.  0.
         25    2    1    2    0    0  0.15681977048E+03  0.67950684986E+02  0.27523665731E+03  0.34729257793E+03  0.12508869317E+03 0.  0.
        -24    2    1    2    0    0 -0.81825128322E+02 -0.75283678625E+02  0.16651779501E+04  0.16708600700E+04  0.81195960282E+02 0.  0.
        -11    1    3    3    0    0 -0.31948221179E+01 -0.28244607331E+02 -0.24662845192E+02  0.37632707378E+02  0.00000000000E+00 0.  1.
         12    1    3    3    0    0 -0.71799820038E+02  0.35577600970E+02 -0.11378159943E+03  0.13916620357E+03  0.00000000000E+00 0. -1.
         13    1    5    5    0    0 -0.44830022750E+02  0.97848855146E+00  0.87517024551E+03  0.87631823386E+03  0.00000000000E+00 0. -1.
        -14    1    5    5    0    0 -0.36995105572E+02 -0.76262167176E+02  0.79000770464E+03  0.79454183613E+03  0.00000000000E+00 0.  1.
          5    1    4    4  501    0  0.17519810325E+03  0.67734103519E+02  0.22208524904E+03  0.29089794500E+03  0.41800000000E+01 0.  1.
         -5    1    4    4    0  501 -0.18378332774E+02  0.21658146682E+00  0.53151408264E+02  0.56394632932E+02  0.41800000000E+01 0.  1.
</event>
<event>
11    1  0.8974665E-009  0.2468676E+03  0.7561462E-02  0.1025581E+00
         22   -1    0    0    0    0  0.00000000000E+00  0.00000000000E+00  0.30251161151E+03  0.30251161151E+03  0.00000000000E+00 0. -1.
         22   -1    0    0    0    0 -0.00000000000E+00 -0.00000000000E+00 -0.21477990077E+04  0.21477990077E+04  0.00000000000E+00 0. -1.
         24    2    1    2    0    0  0.94771704238E+01  0.24990056296E+02 -0.75883168944E+03  0.76353564893E+03  0.80292182718E+02 0.  0.
         25    2    1    2    0    0  0.11374832633E+03 -0.19792462510E+03 -0.13289672151E+04  0.13542207629E+04  0.12508867562E+03 0.  0.
        -24    2    1    2    0    0 -0.12322549675E+03  0.17293456880E+03  0.24251150840E+03  0.33255420738E+03  0.81789858808E+02 0.  0.
        -11    1    3    3    0    0 -0.21640033793E+02  0.13948973038E+01 -0.63353582901E+02  0.66962028549E+02  0.00000000000E+00 0.  1.
         12    1    3    3    0    0  0.31117204216E+02  0.23595158992E+02 -0.69547810654E+03  0.69657362038E+03  0.00000000000E+00 0. -1.
         11    1    5    5    0    0 -0.96057423424E+02  0.10030128685E+03  0.20179611423E+03  0.24496744367E+03  0.00000000000E+00 0. -1.
        -12    1    5    5    0    0 -0.27168073326E+02  0.72633281948E+02  0.40715394167E+02  0.87586763709E+02  0.00000000000E+00 0.  1.
          5    1    4    4  501    0 -0.23761053462E+01 -0.33137201766E+02 -0.49858501720E+03  0.49970812661E+03  0.41800000000E+01 0. -1.
         -5    1    4    4    0  501  0.11612443167E+03 -0.16478742333E+03 -0.83038219790E+03  0.85451263624E+03  0.41800000000E+01 0. -1.
</event>
<event>
11    1  0.8974665E-009  0.1487673E+03  0.7561462E-02  0.1098145E+00
         22   -1    0    0    0    0  0.00000000000E+00  0.00000000000E+00  0.38639209372E+03  0.38639209372E+03  0.00000000000E+00 0. -1.
         22   -1    0    0    0    0 -0.00000000000E+00 -0.00000000000E+00 -0.22986582319E+03  0.22986582319E+03  0.00000000000E+00 0.  1.
         24    2    1    2    0    0  0.53098277062E+02 -0.45684294486E+02 -0.12707356909E+03  0.16626343111E+03  0.81174840776E+02 0.  0.
         25    2    1    2    0    0 -0.44267227389E+02  0.11964205393E+03  0.40728271110E+02  0.18325019677E+03  0.12509210231E+03 0.  0.
        -24    2    1    2    0    0 -0.88310496729E+01 -0.73957759442E+02  0.24287156851E+03  0.26674428903E+03  0.81352193076E+02 0.  0.
        -13    1    3    3    0    0  0.12477920399E+02  0.26773949135E+01 -0.94204156515E+02  0.95064662444E+02  0.00000000000E+00 0.  1.
         14    1    3    3    0    0  0.40620356663E+02 -0.48361689399E+02 -0.32869412573E+02  0.71198768668E+02  0.00000000000E+00 0. -1.
         11    1    5    5    0    0  0.18007330176E+02 -0.70888316327E+02  0.11679306105E+03  0.13780434115E+03  0.00000000000E+00 0. -1.
        -12    1    5    5    0    0 -0.26838379849E+02 -0.30694431154E+01  0.12607850746E+03  0.12893994787E+03  0.00000000000E+00 0.  1.
          5    1    4    4  501    0 -0.80554979903E+02  0.88567402661E+02 -0.82097729486E+00  0.11979747913E+03  0.41800000000E+01 0.  1.
         -5    1    4    4    0  501  0.36287752514E+02  0.31074651267E+02  0.41549248405E+02  0.63452717648E+02  0.41800000000E+01 0.  1.
</event>
<event>
11    1  0.8974665E-009  0.1417979E+03  0.7561462E-02  0.1105567E+00
         22   -1    0    0    0    0  0.00000000000E+00  0.00000000000E+00  0.17988391518E+03  0.17988391518E+03  0.00000000000E+00 0. -1.
         22   -1    0    0    0    0 -0.00000000000E+00 -0.00000000000E+00 -0.19814740140E+04  0.19814740140E+04  0.00000000000E+00 0. -1.
         24    2    1    2    0    0 -0.67989302160E+02 -0.21304120912E+02 -0.14318999444E+04  0.14359591686E+04  0.81023901431E+02 0.  0.
         25    2    1    2    0    0  0.43601167422E+02  0.22085344735E+02 -0.52877583039E+03  0.54556358223E+03  0.12508764604E+03 0.  0.
        -24    2    1    2    0    0  0.24388134739E+02 -0.78122382371E+00  0.15908567592E+03  0.17983517832E+03  0.80231213704E+02 0.  0.
        -13    1    3    3    0    0 -0.47813731965E+02  0.21186716220E-01 -0.30916242334E+03  0.31283790918E+03  0.00000000000E+00 0.  1.
         14    1    3    3    0    0 -0.20175570195E+02 -0.21325307628E+02 -0.11227375210E+04  0.11231212595E+04  0.00000000000E+00 0. -1.
         13    1    5    5    0    0 -0.24153515519E+01 -0.38695786911E+01  0.15182632173E+03  0.15189483050E+03  0.00000000000E+00 0. -1.
        -14    1    5    5    0    0  0.26803486291E+02  0.30883548674E+01  0.72593541877E+01  0.27940347821E+02  0.00000000000E+00 0.  1.
          5    1    4    4  501    0 -0.34293675202E+02  0.19883910823E+02 -0.73173833517E+02  0.83326516668E+02  0.41800000000E+01 0.  1.
         -5    1    4    4    0  501  0.77894842624E+02  0.22014339124E+01 -0.45560199688E+03  0.46223706556E+03  0.41800000000E+01 0.  1.
</event>
<event>
11    1  0.8974665E-009  0.3854094E+03  0.7561462E-02  0.9693817E-01
         22   -1    0    0    0    0  0.00000000000E+00  0.00000000000E+00  0.51981427580E+03  0.51981427580E+03  0.00000000000E+00 0. -1.
         22   -1    0    0    0    0 -0.00000000000E+00 -0.00000000000E+00 -0.11774272728E+04  0.11774272728E+04  0.00000000000E+00 0.  1.
        -24    2    1    2    0    0 -0.12724875789E+03 -0.34246444263E+03 -0.84179364633E+03  0.92197148737E+03  0.89110828048E+02 0.  0.
         25    2    1    2    0    0  0.10119646094E+03  0.34835601610E+03 -0.16328133423E+03  0.41701516904E+03  0.12509284330E+03 0.  0.
         24    2    1    2    0    0  0.26052296950E+02 -0.58915734698E+01  0.34746198352E+03  0.35825489223E+03  0.83086130028E+02 0.  0.
        -13    1    5    5    0    0 -0.43152967820E+01 -0.12167962027E+02  0.41729323294E+01  0.13568141009E+02  0.00000000000E+00 0.  1.
         14    1    5    5    0    0  0.30367593732E+02  0.62763885572E+01  0.34328905119E+03  0.34468675122E+03  0.00000000000E+00 0. -1.
         13    1    3    3    0    0 -0.19290178401E+02 -0.12359925366E+02 -0.22537808541E+02  0.32137696738E+02  0.00000000000E+00 0. -1.
        -14    1    3    3    0    0 -0.10795857949E+03 -0.33010451726E+03 -0.81925583779E+03  0.88983379063E+03  0.00000000000E+00 0.  1.
          5    1    4    4  501    0  0.79882445133E+01  0.15538430010E+02 -0.50234309004E+02  0.53349911516E+02  0.41800000000E+01 0. -1.
         -5    1    4    4    0  501  0.93208216431E+02  0.33281758609E+03 -0.11304702523E+03  0.36366525753E+03  0.41800000000E+01 0. -1.
</event>
<event>
11    1  0.8974665E-009  0.1620945E+03  0.7561462E-02  0.1085124E+00
         22   -1    0    0    0    0  0.00000000000E+00  0.00000000000E+00  0.50284684238E+03  0.50284684238E+03  0.00000000000E+00 0.  1.
         22   -1    0    0    0    0 -0.00000000000E+00 -0.00000000000E+00 -0.16921715684E+04  0.16921715684E+04  0.00000000000E+00 0.  1.
        -24    2    1    2    0    0  0.93977192910E+02  0.33677759011E+02 -0.14718495100E+04  0.14773861864E+04  0.79768786878E+02 0.  0.
         25    2    1    2    0    0 -0.13957727094E+03 -0.11695507149E+03 -0.15032416374E+03  0.26722030748E+03  0.12509610391E+03 0.  0.
         24    2    1    2    0    0  0.45600078027E+02  0.83277312478E+02  0.43284894776E+03  0.45041191689E+03  0.80611447134E+02 0.  0.
        -13    1    5    5    0    0  0.60493198087E+02  0.75590141277E+02  0.41408615050E+03  0.42525361434E+03  0.00000000000E+00 0.  1.
         14    1    5    5    0    0 -0.14893120060E+02  0.76871712008E+01  0.18762797265E+02  0.25158302554E+02  0.00000000000E+00 0. -1.
         11    1    3    3    0    0  0.23989612620E+02  0.43893720937E+02 -0.38472502298E+03  0.38796327604E+03  0.00000000000E+00 0. -1.
        -12    1    3    3    0    0  0.69987580290E+02 -0.10215961926E+02 -0.10871244871E+04  0.10894229104E+04  0.00000000000E+00 0.  1.
          5    1    4    4  501    0 -0.26873998446E+01 -0.59712189754E+02 -0.87472246834E+02  0.10602657256E+03  0.41800000000E+01 0.  1.
         -5    1    4    4    0  501 -0.13688987109E+03 -0.57242881734E+02 -0.62851916911E+02  0.16119373492E+03  0.41800000000E+01 0.  1.
</event>
<event>
11    1  0.8974665E-009  0.1315171E+03  0.7561462E-02  0.1117419E+00
         22   -1    0    0    0    0  0.00000000000E+00  0.00000000000E+00  0.18160305752E+04  0.18160305752E+04  0.00000000000E+00 0.  1.
         22   -1    0    0    0    0 -0.00000000000E+00 -0.00000000000E+00 -0.16548572159E+04  0.16548572159E+04  0.00000000000E+00 0.  1.
        -24    2    1    2    0    0  0.26546079047E+02 -0.27806853340E+02 -0.15931563616E+04  0.15956691279E+04  0.80838467760E+02 0.  0.
         25    2    1    2    0    0 -0.10297160029E+02  0.64740080312E+02  0.24857445766E+02  0.14338772712E+03  0.12507932752E+03 0.  0.
         24    2    1    2    0    0 -0.16248919018E+02 -0.36933226973E+02  0.17294722751E+04  0.17318309360E+04  0.80845221359E+02 0.  0.
        -13    1    5    5    0    0 -0.19721514730E+02 -0.57831735013E+01  0.15091972619E+04  0.15093371918E+04  0.00000000000E+00 0.  1.
         14    1    5    5    0    0  0.34725957121E+01 -0.31150053472E+02  0.22027501326E+03  0.22249374422E+03  0.00000000000E+00 0. -1.
         13    1    3    3    0    0 -0.19200504009E+02  0.85892775108E+01 -0.16761678857E+03  0.16893141464E+03  0.00000000000E+00 0. -1.
        -14    1    3    3    0    0  0.45746583056E+02 -0.36396130850E+02 -0.14255395731E+04  0.14267377133E+04  0.00000000000E+00 0.  1.
          5    1    4    4  501    0  0.26994031507E+02  0.40165308860E+00  0.56271409210E+02  0.62552241820E+02  0.41800000000E+01 0.  1.
         -5    1    4    4    0  501 -0.37291191536E+02  0.64338427224E+02 -0.31413963444E+02  0.80835485296E+02  0.41800000000E+01 0.  1.
</event>
<event>
11    1  0.8974665E-009  0.4060735E+03  0.7561462E-02  0.9632006E-01
         22   -1    0    0    0    0  0.00000000000E+00  0.00000000000E+00  0.12059059892E+04  0.12059059892E+04  0.00000000000E+00 0. -1.
         22   -1    0    0    0    0 -0.00000000000E+00 -0.00000000000E+00 -0.56763982201E+03  0.56763982201E+03  0.00000000000E+00 0.  1.
         24    2    1    2    0    0 -0.10352151780E+03 -0.53155625516E+02 -0.28620070803E+03  0.31889700302E+03  0.79007772318E+02 0.  0.
         25    2    1    2    0    0  0.47265940695E+03  0.97473355578E+01  0.40200164291E+02  0.49067774564E+03  0.12508665525E+03 0.  0.
        -24    2    1    2    0    0 -0.36913788915E+03  0.43408289958E+02  0.88426671091E+03  0.96397106253E+03  0.95736787769E+02 0.  0.
        -11    1    3    3    0    0 -0.40376281798E+02 -0.63989061554E+02 -0.17302973194E+03  0.18884949633E+03  0.00000000000E+00 0.  1.
         12    1    3    3    0    0 -0.63145236001E+02  0.10833436038E+02 -0.11317097609E+03  0.13004750669E+03  0.00000000000E+00 0. -1.
         11    1    5    5    0    0 -0.22414251737E+03 -0.17235796371E+02  0.47324424092E+03  0.52392466284E+03  0.00000000000E+00 0. -1.
        -12    1    5    5    0    0 -0.14499537179E+03  0.60644086329E+02  0.41102247000E+03  0.44004639970E+03  0.00000000000E+00 0.  1.
          5    1    4    4  501    0  0.98078935945E+01 -0.12599086683E+02 -0.17068302600E+02  0.23743022462E+02  0.41800000000E+01 0.  1.
         -5    1    4    4    0  501  0.46285151336E+03  0.22346422241E+02  0.57268466890E+02  0.46693472317E+03  0.41800000000E+01 0.  1.
</event>
<event>
11    1  0.8974665E-009  0.1596681E+03  0.7561462E-02  0.1087390E+00
         22   -1    0    0    0    0  0.00000000000E+00  0.00000000000E+00  0.23371402640E+03  0.23371402640E+03  0.00000000000E+00 0. -1.
         22   -1    0    0    0    0 -0.00000000000E+00 -0.00000000000E+00 -0.10703894263E+04  0.10703894263E+04  0.00000000000E+00 0. -1.
         24    2    1    2    0    0 -0.87110702904E+01 -0.26336539276E+02 -0.47351684278E+03  0.48146679283E+03  0.82598887133E+02 0.  0.
         25    2    1    2    0    0  0.40029778086E+01 -0.73615001396E+02 -0.56514514465E+03  0.58350012549E+03  0.12509264434E+03 0.  0.
        -24    2    1    2    0    0  0.47080924818E+01  0.99951540671E+02  0.20198658752E+03  0.23913653439E+03  0.79844999364E+02 0.  0.
        -13    1    3    3    0    0  0.41698731529E+01 -0.25144417708E+02 -0.37990072491E+02  0.45747952871E+02  0.00000000000E+00 0.  1.
         14    1    3    3    0    0 -0.12880943443E+02 -0.11921215677E+01 -0.43552677029E+03  0.43571883996E+03  0.00000000000E+00 0. -1.
         13    1    5    5    0    0 -0.21850632085E+02  0.87835516879E+02  0.18342958642E+03  0.20454569495E+03  0.00000000000E+00 0. -1.
        -14    1    5    5    0    0  0.26558724566E+02  0.12116023793E+02  0.18557001096E+02  0.34590839435E+02  0.00000000000E+00 0.  1.
          5    1    4    4  501    0  0.47966692709E+02  0.71372389528E+01 -0.13210384360E+03  0.14078580071E+03  0.41800000000E+01 0. -1.
         -5    1    4    4    0  501 -0.43963714901E+02 -0.80752240349E+02 -0.43304130105E+03  0.44271432478E+03  0.41800000000E+01 0. -1.
</event>
<event>
11    1  0.8974665E-009  0.1811790E+03  0.7561462E-02  0.1068693E+00
         22   -1    0    0    0    0  0.00000000000E+00  0.00000000000E+00  0.19330435927E+03  0.19330435927E+03  0.00000000000E+00 0. -1.
         22   -1    0    0    0    0 -0.00000000000E+00 -0.00000000000E+00 -0.17206054422E+04  0.17206054422E+04  0.00000000000E+00 0.  1.
         24    2    1    2    0    0  0.12940499157E+03 -0.34216457106E+02 -0.14771738298E+04  0.14855692646E+04  0.83409224992E+02 0.  0.
         25    2    1    2    0    0 -0.10781847670E+03  0.25187766698E+02 -0.19679680636E+03  0.25814075519E+03  0.12509364088E+03 0.  0.
        -24    2    1    2    0    0 -0.21586514866E+02  0.90286904079E+01  0.14666955321E+03  0.17019978166E+03  0.83117464843E+02 0.  0.
        -13    1    3    3    0    0  0.13480533897E+03 -0.42326728472E+02 -0.14465146970E+04  0.14533990505E+04  0.00000000000E+00 0.  1.
         14    1    3    3    0    0 -0.54003474050E+01  0.81102713666E+01 -0.30659132829E+02  0.32170214168E+02  0.00000000000E+00 0. -1.
         11    1    5    5    0    0 -0.33441313063E+01 -0.11910054082E+02  0.14139182161E+03  0.14193195490E+03  0.00000000000E+00 0. -1.
        -12    1    5    5    0    0 -0.18242383559E+02  0.20938744490E+02  0.52777315993E+01  0.28267826757E+02  0.00000000000E+00 0.  1.
          5    1    4    4  501    0 -0.37955115106E+02 -0.54756672878E+01 -0.17425593630E+03  0.17847458483E+03  0.41800000000E+01 0. -1.
         -5    1    4    4    0  501 -0.69863361596E+02  0.30663433986E+02 -0.22540870058E+02  0.79666170363E+02  0.41800000000E+01 0. -1.
</event>
<event>
11    1  0.8974665E-009  0.1885972E+03  0.7561462E-02  0.1062893E+00
         22   -1    0    0    0    0  0.00000000000E+00  0.00000000000E+00  0.84836929924E+02  0.84836929924E+02  0.00000000000E+00 0.  1.
         22   -1    0    0    0    0 -0.00000000000E+00 -0.00000000000E+00 -0.26031918937E+04  0.26031918937E+04  0.00000000000E+00 0. -1.
        -24    2    1    2    0    0  0.88517469918E+02 -0.55348501124E+02 -0.19569884290E+04  0.19613038102E+04  0.77525001456E+02 0.  0.
         25    2    1    2    0    0  0.22619514396E+02 -0.56700557981E+02 -0.52895404319E+03  0.54696408672E+03  0.12510290420E+03 0.  0.
         24    2    1    2    0    0 -0.11113698431E+03  0.11204905910E+03 -0.32412491624E+02  0.17976092669E+03  0.79730798447E+02 0.  0.
        -11    1    5    5    0    0 -0.89989463969E+02  0.42177754838E+02 -0.38332709616E+02  0.10651977870E+03  0.00000000000E+00 0.  1.
         12    1    5    5    0    0 -0.21147520345E+02  0.69871304267E+02  0.59202179918E+01  0.73241147982E+02  0.00000000000E+00 0. -1.
         13    1    3    3    0    0  0.64314464886E+01 -0.34519577817E+02 -0.28228994692E+03  0.28446542653E+03  0.00000000000E+00 0. -1.
        -14    1    3    3    0    0  0.82086023429E+02 -0.20828923307E+02 -0.16746984820E+04  0.16768383837E+04  0.00000000000E+00 0.  1.
          5    1    4    4  501    0  0.26028803094E+02 -0.79580107675E+02 -0.19593117534E+03  0.21311262280E+03  0.41800000000E+01 0.  1.
         -5    1    4    4    0  501 -0.34092886980E+01  0.22879549694E+02 -0.33302286786E+03  0.33385146391E+03  0.41800000000E+01 0.  1.
</event>
<event>
11    1  0.8974665E-009  0.1280389E+03  0.7561462E-02  0.1121702E+00
         22   -1    0    0    0    0  0.00000000000E+00  0.00000000000E+00  0.12484489183E+04  0.12484489183E+04  0.00000000000E+00 0. -1.
         22   -1    0    0    0    0 -0.00000000000E+00 -0.00000000000E+00 -0.99560078878E+02  0.99560078878E+02  0.00000000000E+00 0. -1.
        -24    2    1    2    0    0 -0.21669946443E+02  0.15304336853E+02 -0.65039124493E+02  0.10691082292E+03  0.80597934448E+02 0.  0.
         25    2    1    2    0    0  0.39695672245E+02 -0.15103242957E+02  0.36053134866E+03  0.38397221389E+03  0.12509177964E+03 0.  0.
         24    2    1    2    0    0 -0.18025725802E+02 -0.20109389518E+00  0.85339661527E+03  0.85712596038E+03  0.77808494197E+02 0.  0.
        -13    1    5    5    0    0 -0.36143555491E+02  0.15107235372E+02  0.23254804634E+03  0.23582446655E+03  0.00000000000E+00 0.  1.
         14    1    5    5    0    0  0.18117829689E+02 -0.15308329267E+02  0.62084856893E+03  0.62130149383E+03  0.00000000000E+00 0. -1.
         13    1    3    3    0    0 -0.11541577904E+02  0.41620098943E+02 -0.65793220486E+02  0.78703167144E+02  0.00000000000E+00 0. -1.
        -14    1    3    3    0    0 -0.10128368538E+02 -0.26315762091E+02  0.75409599238E+00  0.28207655777E+02  0.00000000000E+00 0.  1.
          5    1    4    4  501    0  0.59429124387E+02  0.21166966708E+02  0.88332383102E+02  0.10862754535E+03  0.41800000000E+01 0.  1.
         -5    1    4    4    0  501 -0.19733452142E+02 -0.36270209666E+02  0.27219896555E+03  0.27534466854E+03  0.41800000000E+01 0.  1.
</event>
<event>
11    1  0.8974665E-009  0.1534851E+03  0.7561462E-02  0.1093370E+00
         22   -1    0    0    0    0  0.00000000000E+00  0.00000000000E+00  0.57213929807E+02  0.57213929807E+02  0.00000000000E+00 0.  1.
         22   -1    0    0    0    0 -0.00000000000E+00 -0.00000000000E+00 -0.25337220132E+04  0.25337220132E+04  0.00000000000E+00 0.  1.
         24    2    1    2    0    0 -0.58533517449E+02  0.26212843897E+02 -0.21731742452E+04  0.21753887074E+04  0.74272758361E+02 0.  0.
         25    2    1    2    0    0  0.78247060070E+02  0.62199936964E+02 -0.19821148885E+03  0.25481282264E+03  0.12510134173E+03 0.  0.
        -24    2    1    2    0    0 -0.19713542621E+02 -0.88412780861E+02 -0.10512234933E+03  0.16073441290E+03  0.81113498143E+02 0.  0.
        -13    1    3    3    0    0 -0.24668891882E+02  0.30690568040E+02 -0.18490871889E+04  0.18495063929E+04  0.00000000000E+00 0.  1.
         14    1    3    3    0    0 -0.33864625567E+02 -0.44777241430E+01 -0.32408705629E+03  0.32588231455E+03  0.00000000000E+00 0. -1.
         13    1    5    5    0    0  0.60487400936E+01 -0.68067451152E+02 -0.10797603737E+03  0.12778337063E+03  0.00000000000E+00 0. -1.
        -14    1    5    5    0    0 -0.25762282714E+02 -0.20345329709E+02  0.28536880412E+01  0.32951042276E+02  0.00000000000E+00 0.  1.
          5    1    4    4  501    0  0.59135580919E+02 -0.29229612489E+02 -0.71959777425E+02  0.97709104714E+02  0.41800000000E+01 0.  1.
         -5    1    4    4    0  501  0.19111479151E+02  0.91429549454E+02 -0.12625171142E+03  0.15710371792E+03  0.41800000000E+01 0.  1.
</event>
<event>
11    1  0.8974665E-009  0.1324173E+03  0.7561462E-02  0.1116334E+00
         22   -1    0    0    0    0  0.00000000000E+00  0.00000000000E+00  0.66184300311E+03  0.66184300311E+03  0.00000000000E+00 0.  1.
         22   -1    0    0    0    0 -0.00000000000E+00 -0.00000000000E+00 -0.23154154954E+03  0.23154154954E+03  0.00000000000E+00 0.  1.
        -24    2    1    2    0    0  0.12508442601E+02  0.40101144548E+02 -0.19345868530E+03  0.21428883398E+03  0.82029741680E+02 0.  0.
         25    2    1    2    0    0 -0.18396530627E+02 -0.72478936779E+02  0.20437835762E+03  0.25101754942E+03  0.12509064089E+03 0.  0.
         24    2    1    2    0    0  0.58880880265E+01  0.32377792231E+02  0.41938178125E+03  0.42807816925E+03  0.79289655865E+02 0.  0.
        -13    1    5    5    0    0 -0.26022084141E+02  0.62070089886E+01  0.31029138945E+03  0.31144248617E+03  0.00000000000E+00 0.  1.
         14    1    5    5    0    0  0.31910172168E+02  0.26170783242E+02  0.10909039181E+03  0.11663568308E+03  0.00000000000E+00 0. -1.
         11    1    3    3    0    0 -0.16684699235E+02 -0.18966158737E+02 -0.40345256326E+02  0.47600778080E+02  0.00000000000E+00 0. -1.
        -12    1    3    3    0    0  0.29193141836E+02  0.59067303285E+02 -0.15311342898E+03  0.16668805590E+03  0.00000000000E+00 0.  1.
          5    1    4    4  501    0  0.35757184944E+02 -0.39053791144E+02  0.21436740382E+02  0.57278103286E+02  0.41800000000E+01 0. -1.
         -5    1    4    4    0  501 -0.54153715571E+02 -0.33425145635E+02  0.18294161724E+03  0.19373944613E+03  0.41800000000E+01 0. -1.
</event>
<event>
11    1  0.8974665E-009  0.1577920E+03  0.7561462E-02  0.1089173E+00
         22   -1    0    0    0    0  0.00000000000E+00  0.00000000000E+00  0.19426595725E+04  0.19426595725E+04  0.00000000000E+00 0.  1.
         22   -1    0    0    0    0 -0.00000000000E+00 -0.00000000000E+00 -0.12846669901E+03  0.12846669901E+03  0.00000000000E+00 0.  1.
         24    2    1    2    0    0 -0.11292639673E+02 -0.33537701138E+02 -0.55773300191E+02  0.10327055504E+03  0.79384163506E+02 0.  0.
         25    2    1    2    0    0  0.35546322139E+00  0.12755907573E+03  0.12454446262E+03  0.21778643405E+03  0.12509261981E+03 0.  0.
        -24    2    1    2    0    0  0.10937176452E+02 -0.94021374588E+02  0.17454217110E+04  0.17500692824E+04  0.85357501824E+02 0.  0.
        -11    1    3    3    0    0 -0.44422355336E+02 -0.81440436726E+01 -0.28216367350E+02  0.53252553811E+02  0.00000000000E+00 0.  1.
         12    1    3    3    0    0  0.33129715663E+02 -0.25393657465E+02 -0.27556932840E+02  0.50018001229E+02  0.00000000000E+00 0. -1.
         11    1    5    5    0    0 -0.28277108100E+02 -0.44185917696E+02  0.44137011638E+03  0.44447673707E+03  0.00000000000E+00 0. -1.
        -12    1    5    5    0    0  0.39214284552E+02 -0.49835456892E+02  0.13040515947E+04  0.13055925453E+04  0.00000000000E+00 0.  1.
          5    1    4    4  501    0 -0.26503612820E+02  0.14178591344E+03  0.11802336049E+03  0.18642068760E+03  0.41800000000E+01 0.  1.
         -5    1    4    4    0  501  0.26859076041E+02 -0.14226837719E+02  0.65211021301E+01  0.31365746448E+02  0.41800000000E+01 0.  1.
</event>
<event>
11    1  0.8974665E-009  0.1867071E+03  0.7561462E-02  0.1064343E+00
         22   -1    0    0    0    0  0.00000000000E+00  0.00000000000E+00  0.15247445560E+04  0.15247445560E+04  0.00000000000E+00 0. -1.
         22   -1    0    0    0    0 -0.00000000000E+00 -0.00000000000E+00 -0.10631495684E+04  0.10631495684E+04  0.00000000000E+00 0.  1.
         24    2    1    2    0    0 -0.78631411187E+00  0.13539878704E+03 -0.73982555263E+03  0.75645997369E+03  0.80971560723E+02 0.  0.
         25    2    1    2    0    0 -0.69755241929E+02 -0.14858709224E+03 -0.27907034346E+03  0.34708994989E+03  0.12508900415E+03 0.  0.
        -24    2    1    2    0    0  0.70541556041E+02  0.13188305200E+02  0.14804908837E+04  0.14843442008E+04  0.79211155763E+02 0.  0.
        -13    1    3    3    0    0 -0.12540758660E+02  0.11402619283E+03 -0.70294201247E+03  0.71224063081E+03  0.00000000000E+00 0.  1.
         14    1    3    3    0    0  0.11754444548E+02  0.21372594212E+02 -0.36883540158E+02  0.44219342878E+02  0.00000000000E+00 0. -1.
         13    1    5    5    0    0  0.75323771230E+02 -0.12941327332E+02  0.89741885563E+03  0.90066739194E+03  0.00000000000E+00 0. -1.
        -14    1    5    5    0    0 -0.47822151893E+01  0.26129632532E+02  0.58307202810E+03  0.58367680888E+03  0.00000000000E+00 0.  1.
          5    1    4    4  501    0 -0.10079074818E+02  0.19150729383E+01 -0.11853719379E+03  0.11905374402E+03  0.41800000000E+01 0. -1.
         -5    1    4    4    0  501 -0.59676167110E+02 -0.15050216518E+03 -0.16053314967E+03  0.22803620587E+03  0.41800000000E+01 0. -1.
</event>
<event>
11    1  0.8974665E-009  0.1554772E+03  0.7561462E-02  0.1091410E+00
         22   -1    0    0    0    0  0.00000000000E+00  0.00000000000E+00  0.64670419577E+03  0.64670419577E+03  0.00000000000E+00 0. -1.
         22   -1    0    0    0    0 -0.00000000000E+00 -0.00000000000E+00 -0.52539053439E+03  0.52539053439E+03  0.00000000000E+00 0.  1.
        -24    2    1    2    0    0 -0.18150216881E+02 -0.86738495341E+00 -0.39221515419E+03  0.40068998975E+03  0.79934710741E+02 0.  0.
         25    2    1    2    0    0 -0.44980904871E+02  0.69122938002E+02 -0.76323079332E+02  0.16812947748E+03  0.12506416912E+03 0.  0.
         24    2    1    2    0    0  0.63131121752E+02 -0.68255553049E+02  0.58985189490E+03  0.60327526294E+03  0.85857008452E+02 0.  0.
        -11    1    5    5    0    0  0.11267359955E+02 -0.49647698672E+02  0.12209156375E+03  0.13228075190E+03  0.00000000000E+00 0.  1.
         12    1    5    5    0    0  0.51863761796E+02 -0.18607854377E+02  0.46776033115E+03  0.47099451104E+03  0.00000000000E+00 0. -1.
         13    1    3    3    0    0 -0.28592946726E+02 -0.20511383156E+01 -0.45252513445E+02  0.53568215799E+02  0.00000000000E+00 0. -1.
        -14    1    3    3    0    0  0.10442729845E+02  0.11837533622E+01 -0.34696264074E+03  0.34712177395E+03  0.00000000000E+00 0.  1.
          5    1    4    4  501    0 -0.53376870892E+02  0.76579229665E+02 -0.26381401451E+01  0.93476740132E+02  0.41800000000E+01 0. -1.
         -5    1    4    4    0  501  0.83959660211E+01 -0.74562916626E+01 -0.73684939187E+02  0.74652737349E+02  0.41800000000E+01 0. -1.
</event>
<event>
11    1  0.8974665E-009  0.1721415E+03  0.7561462E-02  0.1076183E+00
         22   -1    0    0    0    0  0.00000000000E+00  0.00000000000E+00  0.43670196196E+03  0.43670196196E+03  0.00000000000E+00 0. -1.
         22   -1    0    0    0    0 -0.00000000000E+00 -0.00000000000E+00 -0.70076837788E+03  0.70076837788E+03  0.00000000000E+00 0. -1.
        -24    2    1    2    0    0  0.83248209077E+02  0.93161794652E+02 -0.46130194069E+03  0.48492898980E+03  0.82141709046E+02 0.  0.
         25    2    1    2    0    0 -0.10338593919E+03 -0.38279624331E+02 -0.19019740374E+03  0.25293639360E+03  0.12509110582E+03 0.  0.
         24    2    1    2    0    0  0.20137730117E+02 -0.54882170321E+02  0.38743292852E+03  0.39960495645E+03  0.78500103969E+02 0.  0.
        -11    1    5    5    0    0  0.56156023156E+01 -0.51303452983E+02  0.10723453914E+03  0.11900767060E+03  0.00000000000E+00 0.  1.
         12    1    5    5    0    0  0.14522127801E+02 -0.35787173379E+01  0.28019838938E+03  0.28059728584E+03  0.00000000000E+00 0. -1.
         11    1    3    3    0    0  0.75803650999E+02  0.23381586799E+02 -0.24846220279E+03  0.26081863109E+03  0.00000000000E+00 0. -1.
        -12    1    3    3    0    0  0.74445580776E+01  0.69780207852E+02 -0.21283973790E+03  0.22411035871E+03  0.00000000000E+00 0.  1.
          5    1    4    4  501    0  0.42764686453E+01 -0.38003509613E+02 -0.11574523212E+03  0.12197125106E+03  0.41800000000E+01 0. -1.
         -5    1    4    4    0  501 -0.10766240784E+03 -0.27611471843E+00 -0.74452171623E+02  0.13096514254E+03  0.41800000000E+01 0. -1.
</event>
<event>
11    1  0.8974665E-009  0.2252575E+03  0.7561462E-02  0.1037973E+00
         22   -1    0    0    0    0  0.00000000000E+00  0.00000000000E+00  0.41840040782E+03  0.41840040782E+03  0.00000000000E+00 0.  1.
         22   -1    0    0    0    0 -0.00000000000E+00 -0.00000000000E+00 -0.67516884374E+03  0.67516884374E+03  0.00000000000E+00 0. -1.
         24    2    1    2    0    0  0.15989430517E+02 -0.51854413327E+02 -0.42139182675E+03  0.43244180844E+03  0.80562422793E+02 0.  0.
         25    2    1    2    0    0 -0.10723196568E+03 -0.11684276565E+03 -0.17212739248E+03  0.26537969048E+03  0.12509042541E+03 0.  0.
        -24    2    1    2    0    0  0.91242535163E+02  0.16869717897E+03  0.33675078330E+03  0.39574775264E+03  0.80195107423E+02 0.  0.
        -13    1    3    3    0    0  0.26991468086E+02  0.13911992772E+02 -0.12350920937E+03  0.12718729375E+03  0.00000000000E+00 0.  1.
         14    1    3    3    0    0 -0.11002037570E+02 -0.65766406099E+02 -0.29788261738E+03  0.30525451469E+03  0.00000000000E+00 0. -1.
         11    1    5    5    0    0  0.95469147822E+01  0.25999833984E+02  0.91014717279E+01  0.29154274758E+02  0.00000000000E+00 0. -1.
        -12    1    5    5    0    0  0.81695620381E+02  0.14269734499E+03  0.32764931157E+03  0.36659347788E+03  0.00000000000E+00 0.  1.
          5    1    4    4  501    0  0.14304935777E+02 -0.67971447164E+02 -0.45513991532E+02  0.83148930494E+02  0.41800000000E+01 0. -1.
         -5    1    4    4    0  501 -0.12153690146E+03 -0.48871318482E+02 -0.12661340095E+03  0.18223075999E+03  0.41800000000E+01 0. -1.
</event>
<event>
11    1  0.8974665E-009  0.1920239E+03  0.7561462E-02  0.1060312E+00
         22   -1    0    0    0    0  0.00000000000E+00  0.00000000000E+00  0.22780883134E+04  0.22780883134E+04  0.00000000000E+00 0. -1.
         22   -1    0    0    0    0 -0.00000000000E+00 -0.00000000000E+00 -0.31194946688E+03  0.31194946688E+03  0.00000000000E+00 0. -1.
         24    2    1    2    0    0 -0.43688450362E+02  0.19499426191E+02 -0.19746700696E+03  0.21911178574E+03  0.82023457001E+02 0.  0.
         25    2    1    2    0    0 -0.10225489827E+03 -0.36548497425E+02 -0.32266348473E+02  0.16876234173E+03  0.12509098232E+03 0.  0.
        -24    2    1    2    0    0  0.14594334863E+03  0.17049071234E+02  0.21958722019E+04  0.22021636528E+04  0.77973678957E+02 0.  0.
        -11    1    3    3    0    0 -0.25293945382E+02  0.32383884421E+02 -0.31878061204E+02  0.52006830602E+02  0.00000000000E+00 0.  1.
         12    1    3    3    0    0 -0.18394504980E+02 -0.12884458230E+02 -0.16558894575E+03  0.16710495514E+03  0.00000000000E+00 0. -1.
         11    1    5    5    0    0  0.50056822886E+02  0.10982298770E+02  0.13281876798E+04  0.13291759888E+04  0.00000000000E+00 0. -1.
        -12    1    5    5    0    0  0.95886525744E+02  0.60667724642E+01  0.86768452211E+03  0.87298766398E+03  0.00000000000E+00 0.  1.
          5    1    4    4  501    0 -0.94538036993E+02 -0.27340040843E+02 -0.75237499001E+02  0.12394785971E+03  0.41800000000E+01 0. -1.
         -5    1    4    4    0  501 -0.77168612746E+01 -0.92084565823E+01  0.42971150528E+02  0.44814482015E+02  0.41800000000E+01 0. -1.
</event>
<event>
11    1  0.8974665E-009  0.1251370E+03  0.7561462E-02  0.1125393E+00
         22   -1    0    0    0    0  0.00000000000E+00  0.00000000000E+00  0.51243472172E+03  0.51243472172E+03  0.00000000000E+00 0. -1.
         22   -1    0    0    0    0 -0.00000000000E+00 -0.00000000000E+00 -0.49375754759E+03  0.49375754759E+03  0.00000000000E+00 0. -1.
        -24    2    1    2    0    0 -0.10595265297E+01  0.35591512171E+01 -0.45700213604E+03  0.46435639601E+03  0.82232110601E+02 0.  0.
         25    2    1    2    0    0 -0.89555118979E+01  0.65589161152E+01  0.10913647423E+03  0.16637832010E+03  0.12509098616E+03 0.  0.
         24    2    1    2    0    0  0.10015038428E+02 -0.10118067332E+02  0.36654283594E+03  0.37545755320E+03  0.80075260823E+02 0.  0.
        -13    1    5    5    0    0  0.20102973733E+02 -0.40830844028E+02  0.15800353035E+03  0.16442750068E+03  0.00000000000E+00 0.  1.
         14    1    5    5    0    0 -0.10087935305E+02  0.30712776696E+02  0.20853930559E+03  0.21103005252E+03  0.00000000000E+00 0. -1.
         11    1    3    3    0    0 -0.27927625943E+02 -0.79633203546E+01 -0.39209895597E+03  0.39317293655E+03  0.00000000000E+00 0. -1.
        -12    1    3    3    0    0  0.26868099414E+02  0.11522471572E+02 -0.64903180068E+02  0.71183459456E+02  0.00000000000E+00 0.  1.
          5    1    4    4  501    0  0.14720352011E+02 -0.49048151536E+02  0.88582232682E+02  0.10240456181E+03  0.41800000000E+01 0. -1.
         -5    1    4    4    0  501 -0.23675863909E+02  0.55607067651E+02  0.20554241543E+02  0.63973758292E+02  0.41800000000E+01 0. -1.
</event>
<event>
11    1  0.8974665E-009  0.1566288E+03  0.7561462E-02  0.1090292E+00
         22   -1    0    0    0    0  0.00000000000E+00  0.00000000000E+00  0.15616786930E+03  0.15616786930E+03  0.00000000000E+00 0. -1.
         22   -1    0    0    0    0 -0.00000000000E+00 -0.00000000000E+00 -0.23724044537E+04  0.23724044537E+04  0.00000000000E+00 0. -1.
         24    2    1    2    0    0 -0.58930783428E+02 -0.68659104184E+02 -0.19227651232E+04  0.19267029541E+04  0.83496374500E+02 0.  0.
         25    2    1    2    0    0  0.75937481834E+02  0.10704746222E+03 -0.41294146732E+03  0.45099239781E+03  0.12509127523E+03 0.  0.
        -24    2    1    2    0    0 -0.17006698406E+02 -0.38388358037E+02  0.11947000613E+03  0.15087697106E+03  0.82023680787E+02 0.  0.
        -13    1    3    3    0    0 -0.32106593347E+02 -0.98226260922E+01 -0.20582033453E+03  0.20854094904E+03  0.00000000000E+00 0.  1.
         14    1    3    3    0    0 -0.26824190082E+02 -0.58836478092E+02 -0.17169447886E+04  0.17181620050E+04  0.00000000000E+00 0. -1.
         13    1    5    5    0    0  0.87645659285E+01 -0.58015260064E+02  0.87598683838E+02  0.10543299970E+03  0.00000000000E+00 0. -1.
        -14    1    5    5    0    0 -0.25771264335E+02  0.19626902027E+02  0.31871322288E+02  0.45443971360E+02  0.00000000000E+00 0.  1.
          5    1    4    4  501    0 -0.17519471737E+02  0.14439374523E+01 -0.41479219839E+01  0.18538999490E+02  0.41800000000E+01 0.  1.
         -5    1    4    4    0  501  0.93456953571E+02  0.10560352477E+03 -0.40879354533E+03  0.43245339832E+03  0.41800000000E+01 0.  1.
</event>
<event>
11    1  0.8974665E-009  0.1465871E+03  0.7561462E-02  0.1100418E+00
         22   -1    0    0    0    0  0.00000000000E+00  0.00000000000E+00  0.16834876826E+03  0.16834876826E+03  0.00000000000E+00 0. -1.
         22   -1    0    0    0    0 -0.00000000000E+00 -0.00000000000E+00 -0.74193538135E+03  0.74193538135E+03  0.00000000000E+00 0. -1.
        -24    2    1    2    0    0  0.39007640725E+02  0.31502940455E+01 -0.32836264675E+03  0.34058732398E+03  0.81524089016E+02 0.  0.
         25    2    1    2    0    0 -0.10811930549E+03  0.25260023982E+02 -0.36960301811E+03  0.40568622504E+03  0.12508824547E+03 0.  0.
         24    2    1    2    0    0  0.69111664767E+02 -0.28410318027E+02  0.12437905177E+03  0.16401060059E+03  0.76457571307E+02 0.  0.
        -13    1    5    5    0    0 -0.12564182462E+02  0.98071727063E+01  0.12145581759E+02  0.20038824160E+02  0.00000000000E+00 0.  1.
         14    1    5    5    0    0  0.81675847229E+02 -0.38217490733E+02  0.11223347001E+03  0.14397177643E+03  0.00000000000E+00 0. -1.
         13    1    3    3    0    0  0.31783718595E+02  0.16415126033E+02 -0.32235227684E+03  0.32433108318E+03  0.00000000000E+00 0. -1.
        -14    1    3    3    0    0  0.72239221298E+01 -0.13264831988E+02 -0.60103699042E+01  0.16256240801E+02  0.00000000000E+00 0.  1.
          5    1    4    4  501    0 -0.10271794355E+03 -0.93607044047E+01 -0.35085785507E+03  0.36572845880E+03  0.41800000000E+01 0.  1.
         -5    1    4    4    0  501 -0.54013619405E+01  0.34620728386E+02 -0.18745163045E+02  0.39957766234E+02  0.41800000000E+01 0.  1.
</event>
<event>
11    1  0.8974665E-009  0.1762959E+03  0.7561462E-02  0.1072679E+00
         22   -1    0    0    0    0  0.00000000000E+00  0.00000000000E+00  0.25774996748E+04  0.25774996748E+04  0.00000000000E+00 0. -1.
         22   -1    0    0    0    0 -0.00000000000E+00 -0.00000000000E+00 -0.94301421052E+03  0.94301421052E+03  0.00000000000E+00 0.  1.
         24    2    1    2    0    0  0.12005193817E+03 -0.30598897322E+02 -0.92014887355E+03  0.93163956027E+03  0.77003638841E+02 0.  0.
         25    2    1    2    0    0 -0.15230161100E+03  0.66627478331E+02  0.65767427727E+03  0.68979536407E+03  0.12508871943E+03 0.  0.
        -24    2    1    2    0    0  0.32249672834E+02 -0.36028581009E+02  0.18969600605E+04  0.18990789610E+04  0.75533625690E+02 0.  0.
        -13    1    3    3    0    0  0.11795800861E+03 -0.33811482162E+02 -0.91961758696E+03  0.92776819000E+03  0.00000000000E+00 0.  1.
         14    1    3    3    0    0  0.20939295581E+01  0.32125848393E+01 -0.53128658390E+00  0.38713702714E+01  0.00000000000E+00 0. -1.
         11    1    5    5    0    0  0.15568566408E+02 -0.83806111126E+01  0.16403462498E+04  0.16404415364E+04  0.00000000000E+00 0. -1.
        -12    1    5    5    0    0  0.16681106427E+02 -0.27647969896E+02  0.25661381071E+03  0.25863742459E+03  0.00000000000E+00 0.  1.
          5    1    4    4  501    0 -0.10721386395E+03  0.62392055745E+01  0.53555352704E+03  0.54623144640E+03  0.41800000000E+01 0.  1.
         -5    1    4    4    0  501 -0.45087747054E+02  0.60388272756E+02  0.12212075023E+03  0.14356391768E+03  0.41800000000E+01 0.  1.
</event>
<event>
11    1  0.8974665E-009  0.1402375E+03  0.7561462E-02  0.1107294E+00
         22   -1    0    0    0    0  0.00000000000E+00  0.00000000000E+00  0.57906978002E+03  0.57906978002E+03  0.00000000000E+00 0. -1.
         22   -1    0    0    0    0 -0.00000000000E+00 -0.00000000000E+00 -0.10129629499E+04  0.10129629499E+04  0.00000000000E+00 0. -1.
         24    2    1    2    0    0 -0.62678027659E+02 -0.10588508119E+02 -0.81254086755E+03  0.81924815155E+03  0.83091640557E+02 0.  0.
         25    2    1    2    0    0  0.66984018809E+01  0.42925148212E+02 -0.16919252045E+03  0.21484939442E+03  0.12508683532E+03 0.  0.
        -24    2    1    2    0    0  0.55979625778E+02 -0.32336640092E+02  0.54784021809E+03  0.55793518398E+03  0.83566669024E+02 0.  0.
        -11    1    3    3    0    0  0.15194310650E+02  0.57502982192E+01 -0.31198549462E+03  0.31240819749E+03  0.00000000000E+00 0.  1.
         12    1    3    3    0    0 -0.77872338310E+02 -0.16338806338E+02 -0.50055537292E+03  0.50683995406E+03  0.00000000000E+00 0. -1.
         13    1    5    5    0    0  0.32916670367E+02 -0.51114362229E+02  0.20547299955E+03  0.21427864746E+03  0.00000000000E+00 0. -1.
        -14    1    5    5    0    0  0.23062955412E+02  0.18777722137E+02  0.34236721854E+03  0.34365653652E+03  0.00000000000E+00 0.  1.
          5    1    4    4  501    0 -0.36171581458E+02  0.54222797710E+02 -0.15485875795E+03  0.16806904060E+03  0.41800000000E+01 0.  1.
         -5    1    4    4    0  501  0.42869983339E+02 -0.11297649499E+02 -0.14333762502E+02  0.46780353816E+02  0.41800000000E+01 0.  1.
</event>
<event>
11    1  0.8974665E-009  0.1563201E+03  0.7561462E-02  0.1090590E+00
         22   -1    0    0    0    0  0.00000000000E+00  0.00000000000E+00  0.14727595598E+04  0.14727595598E+04  0.00000000000E+00 0.  1.
         22   -1    0    0    0    0 -0.00000000000E+00 -0.00000000000E+00 -0.72485886153E+03  0.72485886153E+03  0.00000000000E+00 0. -1.
         24    2    1    2    0    0  0.45556162332E+02 -0.84326638891E+00 -0.68485738420E+03  0.69098718028E+03  0.79734381476E+02 0.  0.
         25    2    1    2    0    0  0.39687420899E+02 -0.45638117544E+02  0.10865832158E+03  0.17638552779E+03  0.12508914586E+03 0.  0.
        -24    2    1    2    0    0 -0.85243583232E+02  0.46481383933E+02  0.13240997609E+04  0.13302457132E+04  0.82984898141E+02 0.  0.
        -13    1    3    3    0    0 -0.73330934898E+01 -0.25271446159E+02 -0.10648440402E+03  0.10968750408E+03  0.00000000000E+00 0.  1.
         14    1    3    3    0    0  0.52889255822E+02  0.24428179770E+02 -0.57837298018E+03  0.58129967620E+03  0.00000000000E+00 0. -1.
         11    1    5    5    0    0  0.12198001106E+02  0.88337147320E+01  0.39588657049E+03  0.39617294511E+03  0.00000000000E+00 0. -1.
        -12    1    5    5    0    0 -0.97441584337E+02  0.37647669201E+02  0.92821319038E+03  0.93407276812E+03  0.00000000000E+00 0.  1.
          5    1    4    4  501    0  0.61928568133E+02 -0.72181643237E+02  0.10433155752E+03  0.14123697627E+03  0.41800000000E+01 0.  1.
         -5    1    4    4    0  501 -0.22241147233E+02  0.26543525693E+02  0.43267640624E+01  0.35148551517E+02  0.41800000000E+01 0.  1.
</event>
<event>
11    1  0.8974665E-009  0.1318936E+03  0.7561462E-02  0.1116964E+00
         22   -1    0    0    0    0  0.00000000000E+00  0.00000000000E+00  0.17893785482E+04  0.17893785482E+04  0.00000000000E+00 0. -1.
         22   -1    0    0    0    0 -0.00000000000E+00 -0.00000000000E+00 -0.22093895974E+03  0.22093895974E+03  0.00000000000E+00 0. -1.
         24    2    1    2    0    0 -0.24204614585E+01  0.18203136054E+02 -0.20099785362E+03  0.21729914525E+03  0.80508189448E+02 0.  0.
         25    2    1    2    0    0 -0.15831361522E+02  0.21924367340E+02  0.38850051264E+03  0.40903661354E+03  0.12508794106E+03 0.  0.
        -24    2    1    2    0    0  0.18251822980E+02 -0.40127503394E+02  0.13809369294E+04  0.13839817491E+04  0.80469456060E+02 0.  0.
        -11    1    3    3    0    0 -0.24791128676E+02  0.28209488523E+02 -0.41663600445E+02  0.56091272991E+02  0.00000000000E+00 0.  1.
         12    1    3    3    0    0  0.22370667217E+02 -0.10006352469E+02 -0.15933425318E+03  0.16120787225E+03  0.00000000000E+00 0. -1.
         13    1    5    5    0    0  0.22146247924E+02 -0.18214403181E+02  0.12914611724E+04  0.12917794628E+04  0.00000000000E+00 0. -1.
        -14    1    5    5    0    0 -0.38944249438E+01 -0.21913100214E+02  0.89475756986E+02  0.92202286278E+02  0.00000000000E+00 0.  1.
          5    1    4    4  501    0 -0.55428150842E+02  0.35890404893E+02  0.11816881803E+03  0.13543169136E+03  0.41800000000E+01 0.  1.
         -5    1    4    4    0  501  0.39596789320E+02 -0.13966037553E+02  0.27033169461E+03  0.27360492218E+03  0.41800000000E+01 0.  1.
</event>
<event>
11    1  0.8974665E-009  0.1671412E+03  0.7561462E-02  0.1080547E+00
         22   -1    0    0    0    0  0.00000000000E+00  0.00000000000E+00  0.13926115243E+03  0.13926115243E+03  0.00000000000E+00 0. -1.
         22   -1    0    0    0    0 -0.00000000000E+00 -0.00000000000E+00 -0.99552982981E+03  0.99552982981E+03  0.00000000000E+00 0. -1.
        -24    2    1    2    0    0  0.28924075465E+02 -0.19166345717E+02 -0.81291822347E+03  0.81772835757E+03  0.81484217976E+02 0.  0.
         25    2    1    2    0    0 -0.97776045974E+02 -0.65696969350E+02 -0.64802070426E+02  0.18364757947E+03  0.12510346983E+03 0.  0.
         24    2    1    2    0    0  0.68851970509E+02  0.84863315067E+02  0.21451616521E+02  0.13341504520E+03  0.73464456347E+02 0.  0.
        -11    1    5    5    0    0 -0.99597190486E+01  0.61805371801E+01  0.18633823204E+02  0.22013959448E+02  0.00000000000E+00 0.  1.
         12    1    5    5    0    0  0.78811689558E+02  0.78682777887E+02  0.28177933174E+01  0.11140108575E+03  0.00000000000E+00 0. -1.
         13    1    3    3    0    0  0.18546053941E+02  0.31415882885E+02 -0.37766838790E+03  0.37942631041E+03  0.00000000000E+00 0. -1.
        -14    1    3    3    0    0  0.10378021524E+02 -0.50582228602E+02 -0.43524983557E+03  0.43830204716E+03  0.00000000000E+00 0.  1.
          5    1    4    4  501    0 -0.12482584602E+03 -0.70852608045E+02 -0.49611387923E+02  0.15192217123E+03  0.41800000000E+01 0.  1.
         -5    1    4    4    0  501  0.27049800042E+02  0.51556386956E+01 -0.15190682503E+02  0.31725408234E+02  0.41800000000E+01 0.  1.
</event>
<event>
11    1  0.8974665E-009  0.1381599E+03  0.7561462E-02  0.1109631E+00
         22   -1    0    0    0    0  0.00000000000E+00  0.00000000000E+00  0.13070938218E+03  0.13070938218E+03  0.00000000000E+00 0.  1.
         22   -1    0    0    0    0 -0.00000000000E+00 -0.00000000000E+00 -0.17669919859E+04  0.17669919859E+04  0.00000000000E+00 0.  1.
        -24    2    1    2    0    0  0.52706522133E+02  0.30252956809E+02 -0.13755254494E+04  0.13795495402E+04  0.85985190714E+02 0.  0.
         25    2    1    2    0    0 -0.32783039585E+02 -0.34981437584E+02 -0.36256767768E+03  0.38652413062E+03  0.12508858456E+03 0.  0.
         24    2    1    2    0    0 -0.19923482548E+02  0.47284807749E+01  0.10181052337E+03  0.13162769726E+03  0.80877464906E+02 0.  0.
        -13    1    5    5    0    0  0.15569513030E+02  0.10791743363E+02  0.92522417652E+02  0.94441882811E+02  0.00000000000E+00 0.  1.
         14    1    5    5    0    0 -0.35492995578E+02 -0.60632625884E+01  0.92881057188E+01  0.37185814448E+02  0.00000000000E+00 0. -1.
         11    1    3    3    0    0 -0.20626286806E+02 -0.83275787299E+00 -0.49461444677E+03  0.49504503649E+03  0.00000000000E+00 0. -1.
        -12    1    3    3    0    0  0.73332808939E+02  0.31085714682E+02 -0.88091100266E+03  0.88450450373E+03  0.00000000000E+00 0.  1.
          5    1    4    4  501    0 -0.72051512298E+02 -0.45871745575E+02 -0.17815706668E+03  0.19761844619E+03  0.41800000000E+01 0.  1.
         -5    1    4    4    0  501  0.39268472712E+02  0.10890307991E+02 -0.18441061100E+03  0.18890568443E+03  0.41800000000E+01 0.  1.
</event>
<event>
11    1  0.8974665E-009  0.2606479E+03  0.7561462E-02  0.1018375E+00
         22   -1    0    0    0    0  0.00000000000E+00  0.00000000000E+00  0.20307191451E+04  0.20307191451E+04  0.00000000000E+00 0. -1.
         22   -1    0    0    0    0 -0.00000000000E+00 -0.00000000000E+00 -0.27832495086E+03  0.27832495086E+03  0.00000000000E+00 0.  1.
         24    2    1    2    0    0 -0.16160825753E+03  0.14786248346E+03 -0.15890433705E+03  0.28428004565E+03  0.87086239455E+02 0.  0.
         25    2    1    2    0    0  0.24600373408E+03 -0.18620733858E+03  0.45806994897E+03  0.56627066435E+03  0.12507348652E+03 0.  0.
        -24    2    1    2    0    0 -0.84395476552E+02  0.38344855123E+02  0.14532285823E+04  0.14584933860E+04  0.82077524389E+02 0.  0.
        -13    1    3    3    0    0 -0.10128904290E+03  0.53838428142E+02 -0.11995955951E+03  0.16597693356E+03  0.00000000000E+00 0.  1.
         14    1    3    3    0    0 -0.60319214635E+02  0.94024055316E+02 -0.38944777546E+02  0.11830311209E+03  0.00000000000E+00 0. -1.
         11    1    5    5    0    0 -0.70006041805E+02  0.41493999669E+01  0.12458635021E+04  0.12478356980E+04  0.00000000000E+00 0. -1.
        -12    1    5    5    0    0 -0.14389434748E+02  0.34195455156E+02  0.20736508023E+03  0.21065768794E+03  0.00000000000E+00 0.  1.
          5    1    4    4  501    0  0.17693041011E+03 -0.17610617996E+03  0.28101563869E+03  0.37590559749E+03  0.41800000000E+01 0. -1.
         -5    1    4    4    0  501  0.69073323977E+02 -0.10101158625E+02  0.17705431028E+03  0.19036506686E+03  0.41800000000E+01 0. -1.
</event>
<event>
11    1  0.8974665E-009  0.1474961E+03  0.7561462E-02  0.1099465E+00
         22   -1    0    0    0    0  0.00000000000E+00  0.00000000000E+00  0.85961361465E+03  0.85961361465E+03  0.00000000000E+00 0.  1.
         22   -1    0    0    0    0 -0.00000000000E+00 -0.00000000000E+00 -0.79713041426E+03  0.79713041426E+03  0.00000000000E+00 0. -1.
        -24    2    1    2    0    0 -0.18992427743E+02  0.14973573017E+02 -0.75026267324E+03  0.75446916976E+03  0.75793990885E+02 0.  0.
         25    2    1    2    0    0  0.78552426255E+02 -0.61890200126E+02  0.11807126800E+03  0.19897061845E+03  0.12509037587E+03 0.  0.
         24    2    1    2    0    0 -0.59559998512E+02  0.46916627109E+02  0.69467460563E+03  0.70330424069E+03  0.79470019144E+02 0.  0.
        -13    1    5    5    0    0 -0.32484612257E+02  0.66717288514E+02  0.53687056803E+03  0.54197458744E+03  0.00000000000E+00 0.  1.
         14    1    5    5    0    0 -0.27075386255E+02 -0.19800661405E+02  0.15780403761E+03  0.16132965325E+03  0.00000000000E+00 0. -1.
         13    1    3    3    0    0  0.14958861910E+02  0.23006272861E+02 -0.58102833597E+03  0.58167601235E+03  0.00000000000E+00 0. -1.
        -14    1    3    3    0    0 -0.33951289653E+02 -0.80326998446E+01 -0.16923433727E+03  0.17279315741E+03  0.00000000000E+00 0.  1.
          5    1    4    4  501    0  0.32878821776E+02 -0.66992457249E+02  0.27887415611E+01  0.74794757364E+02  0.41800000000E+01 0. -1.
         -5    1    4    4    0  501  0.45673604479E+02  0.51022571234E+01  0.11528252644E+03  0.12417586108E+03  0.41800000000E+01 0. -1.
</event>
<event>
11    1  0.8974665E-009  0.2549722E+03  0.7561462E-02  0.1021283E+00
         22   -1    0    0    0    0  0.00000000000E+00  0.00000000000E+00  0.52953475345E+03  0.52953475345E+03  0.00000000000E+00 0.  1.
         22   -1    0    0    0    0 -0.00000000000E+00 -0.00000000000E+00 -0.46735845023E+03  0.46735845023E+03  0.00000000000E+00 0.  1.
        -24    2    1    2    0    0 -0.21012434647E+03  0.66926874766E+02 -0.26205526078E+03  0.35152089557E+03  0.79136166014E+02 0.  0.
         25    2    1    2    0    0  0.20028296504E+03 -0.11232190400E+03 -0.41534369354E+02  0.26476813136E+03  0.12509030075E+03 0.  0.
         24    2    1    2    0    0  0.98413814339E+01  0.45395029233E+02  0.36576593336E+03  0.38060417675E+03  0.94431244248E+02 0.  0.
        -11    1    5    5    0    0  0.15332476053E+02  0.65145162508E+02  0.34497531539E+03  0.35140709334E+03  0.00000000000E+00 0.  1.
         12    1    5    5    0    0 -0.54910946191E+01 -0.19750133275E+02  0.20790617967E+02  0.29197083415E+02  0.00000000000E+00 0. -1.
         11    1    3    3    0    0  0.34821456683E+01 -0.73546251921E+01 -0.87447083891E+01  0.11945115110E+02  0.00000000000E+00 0. -1.
        -12    1    3    3    0    0 -0.21360649214E+03  0.74281499958E+02 -0.25331055240E+03  0.33957578046E+03  0.00000000000E+00 0.  1.
          5    1    4    4  501    0  0.21847171544E+02  0.25443785803E+02 -0.17397822196E+02  0.38011074145E+02  0.41800000000E+01 0.  1.
         -5    1    4    4    0  501  0.17843579349E+03 -0.13776568980E+03 -0.24136547157E+02  0.22675705721E+03  0.41800000000E+01 0.  1.
</event>
<event>
11    1  0.8974665E-009  0.1597227E+03  0.7561462E-02  0.1087338E+00
         22   -1    0    0    0    0  0.00000000000E+00  0.00000000000E+00  0.20569897489E+04  0.20569897489E+04  0.00000000000E+00 0.  1.
         22   -1    0    0    0    0 -0.00000000000E+00 -0.00000000000E+00 -0.94753041934E+03  0.94753041934E+03  0.00000000000E+00 0.  1.
        -24    2    1    2    0    0 -0.16250938187E+02 -0.97407623517E+02 -0.85522095813E+03  0.86468183078E+03  0.80743068632E+02 0.  0.
         25    2    1    2    0    0 -0.23610586585E+02  0.11437139550E+03 -0.19025064115E+01  0.17114106586E+03  0.12508944394E+03 0.  0.
         24    2    1    2    0    0  0.39861524772E+02 -0.16963771986E+02  0.19665827941E+04  0.19686972716E+04  0.80276711601E+02 0.  0.
        -13    1    5    5    0    0  0.71972581090E+01 -0.54548853011E+01  0.16807175596E+04  0.16807418218E+04  0.00000000000E+00 0.  1.
         14    1    5    5    0    0  0.32664266663E+02 -0.11508886685E+02  0.28586523450E+03  0.28795544983E+03  0.00000000000E+00 0. -1.
         11    1    3    3    0    0 -0.18372982294E+02 -0.11196528180E+02 -0.44943055545E+02  0.49827773013E+02  0.00000000000E+00 0. -1.
        -12    1    3    3    0    0  0.21220441070E+01 -0.86211095338E+02 -0.81027790259E+03  0.81485405776E+03  0.00000000000E+00 0.  1.
          5    1    4    4  501    0 -0.77514369897E+01  0.97868455582E+02  0.52904112328E+02  0.11160034442E+03  0.41800000000E+01 0. -1.
         -5    1    4    4    0  501 -0.15859149595E+02  0.16502939921E+02 -0.54806618739E+02  0.59540721440E+02  0.41800000000E+01 0. -1.
</event>
<event>
11    1  0.8974665E-009  0.1449606E+03  0.7561462E-02  0.1102142E+00
         22   -1    0    0    0    0  0.00000000000E+00  0.00000000000E+00  0.87056981512E+03  0.87056981512E+03  0.00000000000E+00 0.  1.
         22   -1    0    0    0    0 -0.00000000000E+00 -0.00000000000E+00 -0.64973356443E+03  0.64973356443E+03  0.00000000000E+00 0.  1.
        -24    2    1    2    0    0  0.55681037731E+02  0.53435661258E+02 -0.39533913429E+03  0.41065742503E+03  0.79942115184E+02 0.  0.
         25    2    1    2    0    0 -0.16584570935E+02 -0.69022021853E+02 -0.22329589532E+03  0.26560749122E+03  0.12508874863E+03 0.  0.
         24    2    1    2    0    0 -0.39096466796E+02  0.15586360595E+02  0.83947128029E+03  0.84403846330E+03  0.76924825232E+02 0.  0.
        -11    1    5    5    0    0 -0.28835904769E+02  0.88650442794E+01  0.82273840742E+03  0.82329131263E+03  0.00000000000E+00 0.  1.
         12    1    5    5    0    0 -0.10260562027E+02  0.67213163157E+01  0.16732872876E+02  0.20747150667E+02  0.00000000000E+00 0. -1.
         11    1    3    3    0    0 -0.10847837558E+02  0.26840916948E+02 -0.20940337979E+03  0.21139509424E+03  0.00000000000E+00 0. -1.
        -12    1    3    3    0    0  0.66528875289E+02  0.26594744310E+02 -0.18593575450E+03  0.19926233079E+03  0.00000000000E+00 0.  1.
          5    1    4    4  501    0 -0.49138712588E+02 -0.23364441592E+02 -0.19532395389E+03  0.20280391902E+03  0.41800000000E+01 0.  1.
         -5    1    4    4    0  501  0.32554141653E+02 -0.45657580262E+02 -0.27971941424E+02  0.62803572201E+02  0.41800000000E+01 0.  1.
</event>
<event>
11    1  0.8974665E-009  0.1312726E+03  0.7561462E-02  0.1117715E+00
         22   -1    0    0    0    0  0.00000000000E+00  0.00000000000E+00  0.42374619329E+03  0.42374619329E+03  0.00000000000E+00 0. -1.
         22   -1    0    0    0    0 -0.00000000000E+00 -0.00000000000E+00 -0.15610895032E+04  0.15610895032E+04  0.00000000000E+00 0.  1.
         24    2    1    2    0    0  0.53812597348E+01 -0.34640118630E+02 -0.15192159305E+04  0.15218472215E+04  0.82298397974E+02 0.  0.
         25    2    1    2    0    0  0.14924079173E+02 -0.61134184708E+01  0.84770599204E+02  0.15195904444E+03  0.12508155209E+03 0.  0.
        -24    2    1    2    0    0 -0.20305338908E+02  0.40753537101E+02  0.29710202137E+03  0.31102943056E+03  0.79978359580E+02 0.  0.
        -11    1    3    3    0    0  0.77822279665E+01  0.15540394112E+02 -0.10120399464E+04  0.10121891721E+04  0.00000000000E+00 0.  1.
         12    1    3    3    0    0 -0.24009682317E+01 -0.50180512742E+02 -0.50717598407E+03  0.50965804941E+03  0.00000000000E+00 0. -1.
         13    1    5    5    0    0 -0.17584811245E+02  0.51416247358E+02  0.29482631597E+03  0.29979228253E+03  0.00000000000E+00 0. -1.
        -14    1    5    5    0    0 -0.27205276624E+01 -0.10662710257E+02  0.22757054000E+01  0.11237148030E+02  0.00000000000E+00 0.  1.
          5    1    4    4  501    0 -0.25258098337E+02 -0.42803941282E+02 -0.14744772902E+01  0.49897849695E+02  0.41800000000E+01 0. -1.
         -5    1    4    4    0  501  0.40182177510E+02  0.36690522811E+02  0.86245076494E+02  0.10206119475E+03  0.41800000000E+01 0. -1.
</event>
<event>
11    1  0.8974665E-009  0.1306075E+03  0.7561462E-02  0.1118525E+00
         22   -1    0    0    0    0  0.00000000000E+00  0.00000000000E+00  0.33154377742E+03  0.33154377742E+03  0.00000000000E+00 0. -1.
         22   -1    0    0    0    0 -0.00000000000E+00 -0.00000000000E+00 -0.56050493630E+03  0.56050493630E+03  0.00000000000E+00 0. -1.
         24    2    1    2    0    0  0.42312897105E+00  0.40564700564E+02 -0.24949557798E+03  0.26484243859E+03  0.79043025484E+02 0.  0.
         25    2    1    2    0    0  0.95795359860E+01 -0.34620491053E+01 -0.28319463247E+03  0.30976121467E+03  0.12509619082E+03 0.  0.
        -24    2    1    2    0    0 -0.10002664957E+02 -0.37102651458E+02  0.30372905157E+03  0.31744506047E+03  0.83924785349E+02 0.  0.
        -13    1    3    3    0    0  0.91954858618E+01  0.19267175233E+02 -0.88722670538E+01  0.23119215479E+02  0.00000000000E+00 0.  1.
         14    1    3    3    0    0 -0.87723568908E+01  0.21297525330E+02 -0.24062331093E+03  0.24172322311E+03  0.00000000000E+00 0. -1.
         11    1    5    5    0    0 -0.29743617424E+02 -0.46437967040E+02  0.27924267720E+03  0.28463597863E+03  0.00000000000E+00 0. -1.
        -12    1    5    5    0    0  0.19740952467E+02  0.93353155817E+01  0.24486374373E+02  0.32809081841E+02  0.00000000000E+00 0.  1.
          5    1    4    4  501    0 -0.42856623640E+02 -0.35310706888E+02 -0.80055000414E+02  0.97518263428E+02  0.41800000000E+01 0.  1.
         -5    1    4    4    0  501  0.52436159626E+02  0.31848657783E+02 -0.20313963206E+03  0.21224295124E+03  0.41800000000E+01 0.  1.
</event>
<event>
11    1  0.1357622E-008  0.1567365E+03  0.7561462E-02  0.1090188E+00
         22   -1    0    0    0    0  0.00000000000E+00  0.00000000000E+00  0.23119658154E+04  0.23119658154E+04  0.00000000000E+00 0.  1.
         22   -1    0    0    0    0 -0.00000000000E+00 -0.00000000000E+00 -0.54971019884E+03  0.54971019884E+03  0.00000000000E+00 0. -1.
         24    2    1    2    0    0 -0.15292539673E+02  0.20114506059E+02 -0.30332782764E+03  0.31462037396E+03  0.79622569440E+02 0.  0.
         25    2    1    2    0    0  0.72049966851E+02  0.55426347575E+02 -0.21408059866E+03  0.26408557358E+03  0.12508960676E+03 0.  0.
        -24    2    1    2    0    0 -0.56757427177E+02 -0.75540853634E+02  0.22796640429E+04  0.22829700667E+04  0.78462418070E+02 0.  0.
        -13    1    3    3    0    0 -0.21974003505E+02  0.14106655325E+02 -0.25009411111E+02  0.36156952286E+02  0.00000000000E+00 0.  1.
         14    1    3    3    0    0  0.66814638314E+01  0.60078507338E+01 -0.27831841653E+03  0.27846342167E+03  0.00000000000E+00 0. -1.
         11    1    5    5    0    0 -0.22323504697E+02  0.53796759791E+01  0.17911232147E+03  0.18057824752E+03  0.00000000000E+00 0. -1.
        -12    1    5    5    0    0 -0.34433922481E+02 -0.80920529613E+02  0.21005517214E+04  0.21023918192E+04  0.00000000000E+00 0.  1.
          5    1    4    4  501    0  0.56579930205E+02  0.19045249155E+02 -0.15851088517E+02  0.61909122305E+02  0.41800000000E+01 0. -1.
         -5    1    4    4    0  501  0.15470036646E+02  0.36381098421E+02 -0.19822951015E+03  0.20217645127E+03  0.41800000000E+01 0. -1.
</event>
<event>
11    1  0.8974665E-009  0.1446850E+03  0.7561462E-02  0.1102437E+00
         22   -1    0    0    0    0  0.00000000000E+00  0.00000000000E+00  0.53645837384E+03  0.53645837384E+03  0.00000000000E+00 0.  1.
         22   -1    0    0    0    0 -0.00000000000E+00 -0.00000000000E+00 -0.98463679432E+03  0.98463679432E+03  0.00000000000E+00 0. -1.
        -24    2    1    2    0    0  0.55973516275E+02 -0.35072623611E+02 -0.63069464799E+03  0.63936398109E+03  0.81531821160E+02 0.  0.
         25    2    1    2    0    0 -0.65492665929E+02  0.86286685190E+02 -0.32534442313E+03  0.36500892418E+03  0.12509132558E+03 0.  0.
         24    2    1    2    0    0  0.95191496537E+01 -0.51214061579E+02  0.50786065065E+03  0.51672226289E+03  0.79786980000E+02 0.  0.
        -11    1    5    5    0    0 -0.16063626637E+02  0.15084034518E+02  0.17347706897E+03  0.17487098575E+03  0.00000000000E+00 0.  1.
         12    1    5    5    0    0  0.25582776290E+02 -0.66298096097E+02  0.33438358168E+03  0.34185127714E+03  0.00000000000E+00 0. -1.
         13    1    3    3    0    0  0.76598752764E+02 -0.34901080037E+02 -0.49342813614E+03  0.50055647018E+03  0.00000000000E+00 0. -1.
        -14    1    3    3    0    0 -0.20625236489E+02 -0.17154357363E+00 -0.13726651186E+03  0.13880751091E+03  0.00000000000E+00 0.  1.
          5    1    4    4  501    0 -0.97090306935E+02  0.32777242641E+02 -0.18662264205E+03  0.21294684374E+03  0.41800000000E+01 0.  1.
         -5    1    4    4    0  501  0.31597641006E+02  0.53509442549E+02 -0.13872178109E+03  0.15206208044E+03  0.41800000000E+01 0.  1.
</event>
<event>
11    1  0.8974665E-009  0.1477673E+03  0.7561462E-02  0.1099182E+00
         22   -1    0    0    0    0  0.00000000000E+00  0.00000000000E+00  0.40563573943E+03  0.40563573943E+03  0.00000000000E+00 0. -1.
         22   -1    0    0    0    0 -0.00000000000E+00 -0.00000000000E+00 -0.60920167331E+03  0.60920167331E+03  0.00000000000E+00 0. -1.
        -24    2    1    2    0    0  0.33815438448E+02  0.21196441079E+02 -0.52004755386E+03  0.52754337066E+03  0.79118750374E+02 0.  0.
         25    2    1    2    0    0 -0.10846376505E+03 -0.12879278527E+02  0.15080361082E+02  0.16674823389E+03  0.12508913650E+03 0.  0.
         24    2    1    2    0    0  0.74648326600E+02 -0.83171625523E+01  0.30140125890E+03  0.32054580819E+03  0.79153953940E+02 0.  0.
        -11    1    5    5    0    0 -0.85522541215E+01  0.76633957274E+01  0.54580353180E+01  0.12714512738E+02  0.00000000000E+00 0.  1.
         12    1    5    5    0    0  0.83200580721E+02 -0.15980558280E+02  0.29594322359E+03  0.30783129546E+03  0.00000000000E+00 0. -1.
         13    1    3    3    0    0  0.29207255833E+02  0.45409359051E+02 -0.45116082276E+03  0.45437997500E+03  0.00000000000E+00 0. -1.
        -14    1    3    3    0    0  0.46081826157E+01 -0.24212917972E+02 -0.68886731097E+02  0.73163395664E+02  0.00000000000E+00 0.  1.
          5    1    4    4  501    0 -0.20038550224E+02 -0.48390190870E+02  0.42417805840E+02  0.67527007337E+02  0.41800000000E+01 0.  1.
         -5    1    4    4    0  501 -0.88425214824E+02  0.35510912344E+02 -0.27337444758E+02  0.99221226550E+02  0.41800000000E+01 0.  1.
</event>
<event>
11    1  0.8974665E-009  0.1464523E+03  0.7561462E-02  0.1100560E+00
         22   -1    0    0    0    0  0.00000000000E+00  0.00000000000E+00  0.12001272448E+04  0.12001272448E+04  0.00000000000E+00 0.  1.
         22   -1    0    0    0    0 -0.00000000000E+00 -0.00000000000E+00 -0.12229492109E+04  0.12229492109E+04  0.00000000000E+00 0. -1.
        -24    2    1    2    0    0  0.74162609855E+02  0.18567337246E+02 -0.12060577296E+04  0.12111798928E+04  0.80849531195E+02 0.  0.
         25    2    1    2    0    0 -0.38020828696E+02  0.18120798996E+02  0.36479510461E+03  0.38794092229E+03  0.12509494019E+03 0.  0.
         24    2    1    2    0    0 -0.36141781159E+02 -0.36688136242E+02  0.81844065893E+03  0.82395564062E+03  0.80034603936E+02 0.  0.
        -13    1    5    5    0    0 -0.49065426389E+02 -0.36999135576E+02  0.79338749032E+03  0.79576382294E+03  0.00000000000E+00 0.  1.
         14    1    5    5    0    0  0.12923645230E+02  0.31099933382E+00  0.25053168610E+02  0.28191817679E+02  0.00000000000E+00 0. -1.
         13    1    3    3    0    0  0.87773796953E+02  0.19793699250E+02 -0.82787021775E+03  0.83274553580E+03  0.00000000000E+00 0. -1.
        -14    1    3    3    0    0 -0.13611187098E+02 -0.12263620035E+01 -0.37818751190E+03  0.37843435697E+03  0.00000000000E+00 0.  1.
          5    1    4    4  501    0 -0.75879707649E+02 -0.87834223189E+01  0.28896151734E+03  0.29891655933E+03  0.41800000000E+01 0. -1.
         -5    1    4    4    0  501  0.37858878953E+02  0.26904221315E+02  0.75833587278E+02  0.89024362956E+02  0.41800000000E+01 0. -1.
</event>
<event>
11    1  0.8974665E-009  0.1282939E+03  0.7561462E-02  0.1121383E+00
         22   -1    0    0    0    0  0.00000000000E+00  0.00000000000E+00  0.57288063087E+03  0.57288063087E+03  0.00000000000E+00 0.  1.
         22   -1    0    0    0    0 -0.00000000000E+00 -0.00000000000E+00 -0.73601404172E+02  0.73601404172E+02  0.00000000000E+00 0. -1.
        -24    2    1    2    0    0 -0.84568730706E+00 -0.25943110898E+02 -0.14887075119E+02  0.85127100946E+02  0.79694655528E+02 0.  0.
         25    2    1    2    0    0  0.20811607699E+02  0.46165360688E+02  0.24793654613E+03  0.28228481182E+03  0.12509124883E+03 0.  0.
         24    2    1    2    0    0 -0.19965920392E+02 -0.20222249789E+02  0.26622975569E+03  0.27907012228E+03  0.78703703672E+02 0.  0.
        -13    1    5    5    0    0  0.38847363439E+01 -0.11984837465E+02  0.24706042551E+03  0.24738144910E+03  0.00000000000E+00 0.  1.
         14    1    5    5    0    0 -0.23850656735E+02 -0.82374123243E+01  0.19169330183E+02  0.31688673184E+02  0.00000000000E+00 0. -1.
         13    1    3    3    0    0  0.20988913184E+02 -0.28998799387E+01 -0.39589787592E+02  0.44903174296E+02  0.00000000000E+00 0. -1.
        -14    1    3    3    0    0 -0.21834600491E+02 -0.23043230960E+02  0.24702712472E+02  0.40223926650E+02  0.00000000000E+00 0.  1.
          5    1    4    4  501    0 -0.51794670580E+01  0.86399847628E+02  0.15170979321E+03  0.17471432198E+03  0.41800000000E+01 0. -1.
         -5    1    4    4    0  501  0.25991074757E+02 -0.40234486940E+02  0.96226752917E+02  0.10757048983E+03  0.41800000000E+01 0. -1.
</event>
<event>
11    1  0.8974665E-009  0.1483245E+03  0.7561462E-02  0.1098603E+00
         22   -1    0    0    0    0  0.00000000000E+00  0.00000000000E+00  0.15883957396E+04  0.15883957396E+04  0.00000000000E+00 0. -1.
         22   -1    0    0    0    0 -0.00000000000E+00 -0.00000000000E+00 -0.26368035850E+03  0.26368035850E+03  0.00000000000E+00 0.  1.
        -24    2    1    2    0    0 -0.45449765199E+02 -0.78140102885E+01 -0.22996249785E+03  0.24768120677E+03  0.79602071944E+02 0.  0.
         25    2    1    2    0    0  0.12082924059E+03  0.68666528995E+01  0.31409844297E+03  0.35910254869E+03  0.12509976935E+03 0.  0.
         24    2    1    2    0    0 -0.75379475391E+02  0.94735738903E+00  0.12405794360E+04  0.12452923426E+04  0.77670579111E+02 0.  0.
        -13    1    5    5    0    0 -0.86263568162E+02  0.87305659932E+01  0.83443017508E+03  0.83892272770E+03  0.00000000000E+00 0.  1.
         14    1    5    5    0    0  0.10884092772E+02 -0.77832086042E+01  0.40614926088E+03  0.40636961492E+03  0.00000000000E+00 0. -1.
         13    1    3    3    0    0  0.27447819049E+01  0.27215642590E+02 -0.38973081985E+02  0.47614348139E+02  0.00000000000E+00 0. -1.
        -14    1    3    3    0    0 -0.48194547104E+02 -0.35029652878E+02 -0.19098941587E+03  0.20006685864E+03  0.00000000000E+00 0.  1.
          5    1    4    4  501    0  0.10054785809E+03  0.97357644426E+01  0.94119837136E+02  0.13813280935E+03  0.41800000000E+01 0. -1.
         -5    1    4    4    0  501  0.20281382496E+02 -0.28691115431E+01  0.21997860584E+03  0.22096973934E+03  0.41800000000E+01 0. -1.
</event>
<event>
11    1  0.8974665E-009  0.1326761E+03  0.7561462E-02  0.1116024E+00
         22   -1    0    0    0    0  0.00000000000E+00  0.00000000000E+00  0.84075900814E+02  0.84075900814E+02  0.00000000000E+00 0.  1.
         22   -1    0    0    0    0 -0.00000000000E+00 -0.00000000000E+00 -0.24515220791E+04  0.24515220791E+04  0.00000000000E+00 0. -1.
        -24    2    1    2    0    0  0.32303994524E+02 -0.33153819304E+02 -0.20645381564E+04  0.20667212746E+04  0.82923481849E+02 0.  0.
         25    2    1    2    0    0 -0.52520248584E+01  0.26233225153E+02 -0.34841942918E+03  0.37115951684E+03  0.12509005735E+03 0.  0.
         24    2    1    2    0    0 -0.27051969665E+02  0.69205941508E+01  0.45511407249E+02  0.97717188518E+02  0.81839214659E+02 0.  0.
        -13    1    5    5    0    0 -0.33143025480E+02 -0.27894389965E+02  0.44868169005E+02  0.62367537384E+02  0.00000000000E+00 0.  1.
         14    1    5    5    0    0  0.60910558144E+01  0.34814984115E+02  0.64323824356E+00  0.35349651134E+02  0.00000000000E+00 0. -1.
         13    1    3    3    0    0  0.34460621213E+02 -0.58970369658E+02 -0.13725629794E+04  0.13742613185E+04  0.00000000000E+00 0. -1.
        -14    1    3    3    0    0 -0.21566266898E+01  0.25816550354E+02 -0.69197517696E+03  0.69245995612E+03  0.00000000000E+00 0.  1.
          5    1    4    4  501    0  0.56011292257E+02  0.63336962674E+01 -0.22364433232E+03  0.23067648416E+03  0.41800000000E+01 0.  1.
         -5    1    4    4    0  501 -0.61263317115E+02  0.19899528885E+02 -0.12477509686E+03  0.14048303268E+03  0.41800000000E+01 0.  1.
</event>
<event>
11    1  0.8974665E-009  0.1304606E+03  0.7561462E-02  0.1118704E+00
         22   -1    0    0    0    0  0.00000000000E+00  0.00000000000E+00  0.15482822054E+04  0.15482822054E+04  0.00000000000E+00 0. -1.
         22   -1    0    0    0    0 -0.00000000000E+00 -0.00000000000E+00 -0.42337135044E+03  0.42337135044E+03  0.00000000000E+00 0.  1.
         24    2    1    2    0    0 -0.35565759679E+02 -0.11345873496E+02 -0.39663204269E+03  0.40652206097E+03  0.80929331292E+02 0.  0.
         25    2    1    2    0    0  0.28424607750E+02 -0.50740769925E+01  0.18054259859E+03  0.22153242998E+03  0.12508910042E+03 0.  0.
        -24    2    1    2    0    0  0.71411519293E+01  0.16419950489E+02  0.13410002991E+04  0.13435990649E+04  0.81584522120E+02 0.  0.
        -11    1    3    3    0    0  0.15435618322E+01  0.31034294664E+02 -0.18131979866E+03  0.18396298382E+03  0.00000000000E+00 0.  1.
         12    1    3    3    0    0 -0.37109321511E+02 -0.42380168160E+02 -0.21531224403E+03  0.22255907715E+03  0.00000000000E+00 0. -1.
         13    1    5    5    0    0 -0.23989694905E+02  0.31982030620E+01  0.10968737596E+04  0.10971407287E+04  0.00000000000E+00 0. -1.
        -14    1    5    5    0    0  0.31130846834E+02  0.13221747427E+02  0.24412653945E+03  0.24645833622E+03  0.00000000000E+00 0.  1.
          5    1    4    4  501    0  0.65809233391E+02  0.19298663569E+02  0.15593002483E+03  0.17039641621E+03  0.41800000000E+01 0. -1.
         -5    1    4    4    0  501 -0.37384625641E+02 -0.24372740562E+02  0.24612573761E+02  0.51136013767E+02  0.41800000000E+01 0. -1.
</event>
<event>
11    1  0.8974665E-009  0.1291094E+03  0.7561462E-02  0.1120368E+00
         22   -1    0    0    0    0  0.00000000000E+00  0.00000000000E+00  0.52773318940E+03  0.52773318940E+03  0.00000000000E+00 0. -1.
         22   -1    0    0    0    0 -0.00000000000E+00 -0.00000000000E+00 -0.92045057935E+03  0.92045057935E+03  0.00000000000E+00 0. -1.
        -24    2    1    2    0    0  0.12055296838E+01 -0.85062627465E+01 -0.87618129888E+03  0.87990494689E+03  0.80406699117E+02 0.  0.
         25    2    1    2    0    0  0.20145588311E+02 -0.16294905016E+02  0.69962691317E+02  0.14565197951E+03  0.12509337433E+03 0.  0.
         24    2    1    2    0    0 -0.21351117994E+02  0.24801167763E+02  0.41350121762E+03  0.42262684234E+03  0.80989028482E+02 0.  0.
        -11    1    5    5    0    0  0.66815097102E+01  0.12304566945E+02  0.83244772576E+01  0.16289317399E+02  0.00000000000E+00 0.  1.
         12    1    5    5    0    0 -0.28032627705E+02  0.12496600818E+02  0.40517674036E+03  0.40633752494E+03  0.00000000000E+00 0. -1.
         11    1    3    3    0    0  0.25358806845E+02 -0.83624807839E+01 -0.78865962045E+03  0.78911152387E+03  0.00000000000E+00 0. -1.
        -12    1    3    3    0    0 -0.24153277161E+02 -0.14378196253E+00 -0.87521678426E+02  0.90793423030E+02  0.00000000000E+00 0.  1.
          5    1    4    4  501    0 -0.16268956840E+02 -0.48276911698E+02  0.80991075824E+02  0.95772469546E+02  0.41800000000E+01 0. -1.
         -5    1    4    4    0  501  0.36414545150E+02  0.31982006682E+02 -0.11028384508E+02  0.49879509969E+02  0.41800000000E+01 0. -1.
</event>
<event>
11    1  0.8974665E-009  0.1635687E+03  0.7561462E-02  0.1083768E+00
         22   -1    0    0    0    0  0.00000000000E+00  0.00000000000E+00  0.60921728885E+03  0.60921728885E+03  0.00000000000E+00 0.  1.
         22   -1    0    0    0    0 -0.00000000000E+00 -0.00000000000E+00 -0.84857946442E+02  0.84857946442E+02  0.00000000000E+00 0. -1.
        -24    2    1    2    0    0  0.19247203246E+02 -0.61221308633E+02  0.21935109941E+02  0.10549087159E+03  0.80800194780E+02 0.  0.
         25    2    1    2    0    0  0.77617550358E+02  0.94000120626E+02  0.25109256577E+03  0.30586808798E+03  0.12508918362E+03 0.  0.
         24    2    1    2    0    0 -0.96864753605E+02 -0.32778811993E+02  0.25133166670E+03  0.28271627572E+03  0.79395559499E+02 0.  0.
        -11    1    5    5    0    0 -0.11232396361E+02 -0.18280937457E+00  0.13095156288E+03  0.13143253770E+03  0.00000000000E+00 0.  1.
         12    1    5    5    0    0 -0.85632357243E+02 -0.32596002619E+02  0.12038010382E+03  0.15128373802E+03  0.00000000000E+00 0. -1.
         11    1    3    3    0    0 -0.58212421646E+01  0.33036694541E+01 -0.22338681678E+02  0.23319901185E+02  0.00000000000E+00 0. -1.
        -12    1    3    3    0    0  0.25068445411E+02 -0.64524978087E+02  0.44273791619E+02  0.82170970402E+02  0.00000000000E+00 0.  1.
          5    1    4    4  501    0  0.10027095320E+03  0.74184254137E+02  0.12679442312E+03  0.17790971236E+03  0.41800000000E+01 0.  1.
         -5    1    4    4    0  501 -0.22653402845E+02  0.19815866489E+02  0.12429814265E+03  0.12795837562E+03  0.41800000000E+01 0.  1.
</event>
<event>
11    1  0.8974665E-009  0.1475801E+03  0.7561462E-02  0.1099377E+00
         22   -1    0    0    0    0  0.00000000000E+00  0.00000000000E+00  0.48015398956E+03  0.48015398956E+03  0.00000000000E+00 0. -1.
         22   -1    0    0    0    0 -0.00000000000E+00 -0.00000000000E+00 -0.50845280902E+03  0.50845280902E+03  0.00000000000E+00 0.  1.
        -24    2    1    2    0    0  0.73139125405E+02 -0.20173604789E+02 -0.43383145347E+03  0.45354261610E+03  0.10832759854E+03 0.  0.
         25    2    1    2    0    0 -0.11641680555E+03 -0.11385486977E+02  0.70711475833E+02  0.18528344746E+03  0.12508933272E+03 0.  0.
         24    2    1    2    0    0  0.43277680143E+02  0.31559091767E+02  0.33482115818E+03  0.34978073501E+03  0.85862801895E+02 0.  0.
        -11    1    5    5    0    0 -0.24561343512E+00  0.52726098880E+02  0.16782336122E+03  0.17591129128E+03  0.00000000000E+00 0.  1.
         12    1    5    5    0    0  0.43523293578E+02 -0.21167007113E+02  0.16699779696E+03  0.17386944373E+03  0.00000000000E+00 0. -1.
         11    1    3    3    0    0  0.39534226758E+02  0.43659635589E+02 -0.16486928900E+03  0.17507427373E+03  0.00000000000E+00 0. -1.
        -12    1    3    3    0    0  0.33604898647E+02 -0.63833240378E+02 -0.26896216447E+03  0.27846834237E+03  0.00000000000E+00 0.  1.
          5    1    4    4  501    0 -0.84521449835E+02  0.37222840544E+02 -0.15261194284E+01  0.92461974784E+02  0.41800000000E+01 0. -1.
         -5    1    4    4    0  501 -0.31895355712E+02 -0.48608327522E+02  0.72237595261E+02  0.92821472675E+02  0.41800000000E+01 0. -1.
</event>
<event>
11    1  0.8974665E-009  0.1310144E+03  0.7561462E-02  0.1118029E+00
         22   -1    0    0    0    0  0.00000000000E+00  0.00000000000E+00  0.12368408980E+03  0.12368408980E+03  0.00000000000E+00 0.  1.
         22   -1    0    0    0    0 -0.00000000000E+00 -0.00000000000E+00 -0.43801737181E+03  0.43801737181E+03  0.00000000000E+00 0. -1.
         24    2    1    2    0    0  0.35323048911E+02  0.56427464071E+01 -0.32402408352E+03  0.33498333758E+03  0.77088724107E+02 0.  0.
         25    2    1    2    0    0 -0.26356322252E+02 -0.42818455750E+02 -0.14864286029E+02  0.13563439481E+03  0.12509063187E+03 0.  0.
        -24    2    1    2    0    0 -0.89667266586E+01  0.37175709343E+02  0.24555087536E+02  0.91083729224E+02  0.78935783098E+02 0.  0.
        -13    1    3    3    0    0 -0.22195752828E+02 -0.11421541686E+02 -0.91542118218E+02  0.94884469045E+02  0.00000000000E+00 0.  1.
         14    1    3    3    0    0  0.57518801739E+02  0.17064288093E+02 -0.23248196530E+03  0.24009886853E+03  0.00000000000E+00 0. -1.
         11    1    5    5    0    0 -0.39976590134E+01 -0.13031696306E+02  0.36734296154E+02  0.39181818490E+02  0.00000000000E+00 0. -1.
        -12    1    5    5    0    0 -0.49690676452E+01  0.50207405649E+02 -0.12179208619E+02  0.51901910734E+02  0.00000000000E+00 0.  1.
          5    1    4    4  501    0  0.49561096724E+02 -0.66227953187E+01 -0.30697730408E+00  0.50176990358E+02  0.41800000000E+01 0. -1.
         -5    1    4    4    0  501 -0.75917418977E+02 -0.36195660431E+02 -0.14557308725E+02  0.85457404451E+02  0.41800000000E+01 0. -1.
</event>
<event>
11    1  0.8974665E-009  0.1518400E+03  0.7561462E-02  0.1095013E+00
         22   -1    0    0    0    0  0.00000000000E+00  0.00000000000E+00  0.11460336091E+03  0.11460336091E+03  0.00000000000E+00 0.  1.
         22   -1    0    0    0    0 -0.00000000000E+00 -0.00000000000E+00 -0.10396636049E+04  0.10396636049E+04  0.00000000000E+00 0. -1.
         24    2    1    2    0    0 -0.77588836578E+02  0.36878650628E+02 -0.83343333150E+03  0.84179513253E+03  0.81411698481E+02 0.  0.
         25    2    1    2    0    0  0.67828051616E+02 -0.60020048166E+02 -0.14605626357E+03  0.21255935228E+03  0.12508395320E+03 0.  0.
        -24    2    1    2    0    0  0.97607849621E+01  0.23141397538E+02  0.54429351092E+02  0.99912480987E+02  0.79932173707E+02 0.  0.
        -13    1    3    3    0    0  0.12790811026E+02  0.21863663469E+02 -0.13250211675E+03  0.13490157735E+03  0.00000000000E+00 0.  1.
         14    1    3    3    0    0 -0.90379647604E+02  0.15014987160E+02 -0.70093121475E+03  0.70689355518E+03  0.00000000000E+00 0. -1.
         11    1    5    5    0    0 -0.53835829651E+01 -0.27450568944E+02  0.67802570852E+01  0.28783477675E+02  0.00000000000E+00 0. -1.
        -12    1    5    5    0    0  0.15144367927E+02  0.50591966482E+02  0.47649094007E+02  0.71129003312E+02  0.00000000000E+00 0.  1.
          5    1    4    4  501    0  0.87465889406E+02 -0.50934052470E+02 -0.15785329271E+03  0.18756250673E+03  0.41800000000E+01 0. -1.
         -5    1    4    4    0  501 -0.19637837790E+02 -0.90859956959E+01  0.11797029145E+02  0.24996845551E+02  0.41800000000E+01 0. -1.
</event>
<event>
11    1  0.8974665E-009  0.1556750E+03  0.7561462E-02  0.1091217E+00
         22   -1    0    0    0    0  0.00000000000E+00  0.00000000000E+00  0.88774116202E+02  0.88774116202E+02  0.00000000000E+00 0.  1.
         22   -1    0    0    0    0 -0.00000000000E+00 -0.00000000000E+00 -0.17942911118E+04  0.17942911118E+04  0.00000000000E+00 0.  1.
        -24    2    1    2    0    0 -0.48100759349E+02  0.76393201687E+02 -0.12638414407E+04  0.12695464154E+04  0.79393383480E+02 0.  0.
         25    2    1    2    0    0  0.69553522850E+02 -0.78589387945E+02 -0.49021152941E+03  0.51668797942E+03  0.12508053434E+03 0.  0.
         24    2    1    2    0    0 -0.21452763501E+02  0.21961862574E+01  0.48535974528E+02  0.96830833156E+02  0.80965579911E+02 0.  0.
        -11    1    5    5    0    0 -0.44182312729E+02  0.21741174227E+02  0.14196249303E+02  0.51247330751E+02  0.00000000000E+00 0.  1.
         12    1    5    5    0    0  0.22729549228E+02 -0.19544987970E+02  0.34339725226E+02  0.45583502404E+02  0.00000000000E+00 0. -1.
         11    1    3    3    0    0  0.99619463023E+01  0.11245862046E+02 -0.42244858345E+02  0.44836791187E+02  0.00000000000E+00 0. -1.
        -12    1    3    3    0    0 -0.58062705652E+02  0.65147339642E+02 -0.12215965823E+04  0.12247096242E+04  0.00000000000E+00 0.  1.
          5    1    4    4  501    0  0.71051954689E+02 -0.65537572854E+02 -0.49318389398E+03  0.50258469873E+03  0.41800000000E+01 0. -1.
         -5    1    4    4    0  501 -0.14984318390E+01 -0.13051815091E+02  0.29723645631E+01  0.14103280691E+02  0.41800000000E+01 0. -1.
</event>
<event>
11    1  0.8974665E-009  0.1319350E+03  0.7561462E-02  0.1116914E+00
         22   -1    0    0    0    0  0.00000000000E+00  0.00000000000E+00  0.13163384266E+03  0.13163384266E+03  0.00000000000E+00 0. -1.
         22   -1    0    0    0    0 -0.00000000000E+00 -0.00000000000E+00 -0.76728999814E+03  0.76728999814E+03  0.00000000000E+00 0.  1.
         24    2    1    2    0    0  0.13891738950E+02  0.45273948880E+02 -0.57200651269E+03  0.57948097496E+03  0.79774926647E+02 0.  0.
         25    2    1    2    0    0 -0.11059039951E+02  0.16479093988E+01 -0.14729660277E+03  0.19356713928E+03  0.12508769025E+03 0.  0.
        -24    2    1    2    0    0 -0.28326989992E+01 -0.46921858279E+02  0.83646959986E+02  0.12587572656E+03  0.81475147460E+02 0.  0.
        -13    1    3    3    0    0  0.57687294025E+01  0.20326414224E+02 -0.52671767155E+03  0.52714129688E+03  0.00000000000E+00 0.  1.
         14    1    3    3    0    0  0.81230095477E+01  0.24947534657E+02 -0.45288841142E+02  0.52339678080E+02  0.00000000000E+00 0. -1.
         13    1    5    5    0    0 -0.40203708351E+02 -0.21345289516E+02  0.58347548683E+02  0.74002675540E+02  0.00000000000E+00 0. -1.
        -14    1    5    5    0    0  0.37371009352E+02 -0.25576568763E+02  0.25299411303E+02  0.51873051018E+02  0.00000000000E+00 0.  1.
          5    1    4    4  501    0 -0.31490498444E+02 -0.10450288961E+01 -0.16378826304E+03  0.16684367260E+03  0.41800000000E+01 0.  1.
         -5    1    4    4    0  501  0.20431458493E+02  0.26929382949E+01  0.16491660271E+02  0.26723466678E+02  0.41800000000E+01 0.  1.
</event>
<event>
11    1  0.8974665E-009  0.1349956E+03  0.7561462E-02  0.1113279E+00
         22   -1    0    0    0    0  0.00000000000E+00  0.00000000000E+00  0.25518928506E+03  0.25518928506E+03  0.00000000000E+00 0. -1.
         22   -1    0    0    0    0 -0.00000000000E+00 -0.00000000000E+00 -0.54993103298E+03  0.54993103298E+03  0.00000000000E+00 0. -1.
         24    2    1    2    0    0  0.23359952645E+02  0.14051819017E+02 -0.48036726351E+03  0.48762100808E+03  0.79236346851E+02 0.  0.
         25    2    1    2    0    0 -0.66613343268E+02  0.44446555126E+01  0.45930273439E+02  0.14904649312E+03  0.12509266417E+03 0.  0.
        -24    2    1    2    0    0  0.43253390623E+02 -0.18496474530E+02  0.13969524216E+03  0.16845281684E+03  0.81539042486E+02 0.  0.
        -11    1    3    3    0    0 -0.32974617451E+01 -0.11545642803E+01  0.21673689545E+01  0.41114183468E+01  0.00000000000E+00 0.  1.
         12    1    3    3    0    0  0.26657414390E+02  0.15206383298E+02 -0.48253463247E+03  0.48350958973E+03  0.00000000000E+00 0. -1.
         11    1    5    5    0    0  0.58021879456E+02  0.87611589318E+01  0.11388492571E+03  0.12811351492E+03  0.00000000000E+00 0. -1.
        -12    1    5    5    0    0 -0.14768488832E+02 -0.27257633462E+02  0.25810316451E+02  0.40339301923E+02  0.00000000000E+00 0.  1.
          5    1    4    4  501    0 -0.19870629140E+02  0.38249381350E+02 -0.30668408863E+02  0.53064873299E+02  0.41800000000E+01 0. -1.
         -5    1    4    4    0  501 -0.46742714128E+02 -0.33804725837E+02  0.76598682301E+02  0.95981619820E+02  0.41800000000E+01 0. -1.
</event>
<event>
11    1  0.8974665E-009  0.1459598E+03  0.7561462E-02  0.1101080E+00
         22   -1    0    0    0    0  0.00000000000E+00  0.00000000000E+00  0.21231140041E+04  0.21231140041E+04  0.00000000000E+00 0.  1.
         22   -1    0    0    0    0 -0.00000000000E+00 -0.00000000000E+00 -0.82689721445E+03  0.82689721445E+03  0.00000000000E+00 0.  1.
        -24    2    1    2    0    0  0.48341343137E+02  0.19315859031E+02 -0.76902344484E+03  0.77497660316E+03  0.80508936508E+02 0.  0.
         25    2    1    2    0    0 -0.51108728876E+02  0.56331045264E+02  0.47139458189E+02  0.15380208812E+03  0.12509062701E+03 0.  0.
         24    2    1    2    0    0  0.27673857390E+01 -0.75646904295E+02  0.20181007763E+04  0.20212325272E+04  0.83186978971E+02 0.  0.
        -13    1    5    5    0    0 -0.22552679886E+02 -0.69916391585E+02  0.18140556904E+04  0.18155426112E+04  0.00000000000E+00 0.  1.
         14    1    5    5    0    0  0.25320065625E+02 -0.57305127099E+01  0.20404508584E+03  0.20568991602E+03  0.00000000000E+00 0. -1.
         11    1    3    3    0    0  0.17346267558E+02  0.36336537793E+02 -0.16217082982E+03  0.16709462894E+03  0.00000000000E+00 0. -1.
        -12    1    3    3    0    0  0.30995075579E+02 -0.17020678762E+02 -0.60685261502E+03  0.60788197421E+03  0.00000000000E+00 0.  1.
          5    1    4    4  501    0 -0.68711784946E+02  0.81387774077E+02  0.57613412274E+02  0.12116953756E+03  0.41800000000E+01 0. -1.
         -5    1    4    4    0  501  0.17603056070E+02 -0.25056728813E+02 -0.10473954085E+02  0.32632550558E+02  0.41800000000E+01 0. -1.
</event>
<event>
11    1  0.8974665E-009  0.1287140E+03  0.7561462E-02  0.1120859E+00
         22   -1    0    0    0    0  0.00000000000E+00  0.00000000000E+00  0.14024404555E+04  0.14024404555E+04  0.00000000000E+00 0. -1.
         22   -1    0    0    0    0 -0.00000000000E+00 -0.00000000000E+00 -0.23951323686E+03  0.23951323686E+03  0.00000000000E+00 0. -1.
         24    2    1    2    0    0 -0.17059006498E+02 -0.26234239503E+02 -0.19428639255E+03  0.21284381511E+03  0.81092800405E+02 0.  0.
         25    2    1    2    0    0 -0.56308231194E-01  0.21445148183E+02  0.81628129100E+02  0.15090093670E+03  0.12509214078E+03 0.  0.
        -24    2    1    2    0    0  0.17115314730E+02  0.47890913202E+01  0.12755854821E+04  0.12782089405E+04  0.79899337948E+02 0.  0.
        -11    1    3    3    0    0  0.24574026566E+02 -0.16752592169E+01 -0.19264895974E+02  0.31270201343E+02  0.00000000000E+00 0.  1.
         12    1    3    3    0    0 -0.41633033064E+02 -0.24558980286E+02 -0.17502149657E+03  0.18157361377E+03  0.00000000000E+00 0. -1.
         11    1    5    5    0    0 -0.17279890631E+02  0.29705123924E+02  0.79768484621E+03  0.79842476344E+03  0.00000000000E+00 0. -1.
        -12    1    5    5    0    0  0.34395205360E+02 -0.24916032604E+02  0.47790063587E+03  0.47978417711E+03  0.00000000000E+00 0.  1.
          5    1    4    4  501    0 -0.59838966050E+02  0.16109257796E+02  0.61631386927E+02  0.87499201706E+02  0.41800000000E+01 0. -1.
         -5    1    4    4    0  501  0.59782657819E+02  0.53358903874E+01  0.19996742173E+02  0.63401734989E+02  0.41800000000E+01 0. -1.
</event>
<event>
11    1  0.8974665E-009  0.1691885E+03  0.7561462E-02  0.1078740E+00
         22   -1    0    0    0    0  0.00000000000E+00  0.00000000000E+00  0.20750750769E+03  0.20750750769E+03  0.00000000000E+00 0. -1.
         22   -1    0    0    0    0 -0.00000000000E+00 -0.00000000000E+00 -0.10603338689E+04  0.10603338689E+04  0.00000000000E+00 0.  1.
         24    2    1    2    0    0 -0.10018537335E+00  0.21660013364E+02 -0.77932668133E+03  0.78378572167E+03  0.80627632020E+02 0.  0.
         25    2    1    2    0    0  0.14679238851E+02  0.93422021736E+02 -0.22727760158E+03  0.27612691529E+03  0.12509121060E+03 0.  0.
        -24    2    1    2    0    0 -0.14579053478E+02 -0.11508203510E+03  0.15377792170E+03  0.20792873962E+03  0.78296155421E+02 0.  0.
        -11    1    3    3    0    0 -0.82040890678E+01  0.21903911657E+02 -0.77337378324E+03  0.77372740485E+03  0.00000000000E+00 0.  1.
         12    1    3    3    0    0  0.81039036945E+01 -0.24389829289E+00 -0.59528980921E+01  0.10058316816E+02  0.00000000000E+00 0. -1.
         13    1    5    5    0    0 -0.86660570728E+01 -0.11515789177E+03  0.16128859201E+03  0.19836947975E+03  0.00000000000E+00 0. -1.
        -14    1    5    5    0    0 -0.59129964050E+01  0.75856674351E-01 -0.75106703106E+01  0.95592598686E+01  0.00000000000E+00 0.  1.
          5    1    4    4  501    0 -0.44575465118E+02  0.55031438722E+02 -0.17297344845E+03  0.18695645912E+03  0.41800000000E+01 0.  1.
         -5    1    4    4    0  501  0.59254703969E+02  0.38390583014E+02 -0.54304153131E+02  0.89170456171E+02  0.41800000000E+01 0.  1.
</event>
<event>
11    1  0.8974665E-009  0.2600309E+03  0.7561462E-02  0.1018687E+00
         22   -1    0    0    0    0  0.00000000000E+00  0.00000000000E+00  0.34504835381E+03  0.34504835381E+03  0.00000000000E+00 0. -1.
         22   -1    0    0    0    0 -0.00000000000E+00 -0.00000000000E+00 -0.10649474366E+04  0.10649474366E+04  0.00000000000E+00 0. -1.
        -24    2    1    2    0    0 -0.20080840231E+03 -0.11255932457E+03 -0.85690522409E+03  0.89091342905E+03  0.80290466445E+02 0.  0.
         25    2    1    2    0    0  0.17970440349E+03  0.12234921046E+03 -0.98237283242E+02  0.26937123551E+03  0.12508915527E+03 0.  0.
         24    2    1    2    0    0  0.21103998819E+02 -0.97898858949E+01  0.23524342457E+03  0.24971112582E+03  0.80467117036E+02 0.  0.
        -11    1    5    5    0    0  0.13402010478E+02 -0.26517449548E+02  0.25480389783E+02  0.39141273343E+02  0.00000000000E+00 0.  1.
         12    1    5    5    0    0  0.77019883411E+01  0.16727563653E+02  0.20976303479E+03  0.21056985248E+03  0.00000000000E+00 0. -1.
         11    1    3    3    0    0 -0.19223102016E+03 -0.78351600524E+02 -0.70228681702E+03  0.73232404834E+03  0.00000000000E+00 0. -1.
        -12    1    3    3    0    0 -0.85773821485E+01 -0.34207724045E+02 -0.15461840707E+03  0.15858938071E+03  0.00000000000E+00 0.  1.
          5    1    4    4  501    0  0.18535687613E+03  0.11577710161E+03 -0.55439841730E+02  0.22550511576E+03  0.41800000000E+01 0. -1.
         -5    1    4    4    0  501 -0.56524726349E+01  0.65721088543E+01 -0.42797441512E+02  0.43866119747E+02  0.41800000000E+01 0. -1.
</event>
<event>
11    1  0.8974665E-009  0.1384444E+03  0.7561462E-02  0.1109308E+00
         22   -1    0    0    0    0  0.00000000000E+00  0.00000000000E+00  0.82255431605E+03  0.82255431605E+03  0.00000000000E+00 0. -1.
         22   -1    0    0    0    0 -0.00000000000E+00 -0.00000000000E+00 -0.40875891101E+03  0.40875891101E+03  0.00000000000E+00 0.  1.
        -24    2    1    2    0    0 -0.67398353916E+02 -0.11198110475E+02 -0.33790354429E+03  0.35328613670E+03  0.77229226008E+02 0.  0.
         25    2    1    2    0    0  0.10783839533E+02  0.38402384149E+02  0.13666742201E+02  0.13200347889E+03  0.12508838593E+03 0.  0.
         24    2    1    2    0    0  0.56614514384E+02 -0.27204273674E+02  0.73803220714E+03  0.74602361147E+03  0.88962994282E+02 0.  0.
        -11    1    5    5    0    0 -0.20356980313E+02  0.13628818650E+01  0.68428855354E+02  0.71405688425E+02  0.00000000000E+00 0.  1.
         12    1    5    5    0    0  0.76971494697E+02 -0.28567155539E+02  0.66960335178E+03  0.67461792304E+03  0.00000000000E+00 0. -1.
         13    1    3    3    0    0  0.54034781690E+01  0.19127386525E+02 -0.34655833466E+02  0.39950986030E+02  0.00000000000E+00 0. -1.
        -14    1    3    3    0    0 -0.72801832085E+02 -0.30325497000E+02 -0.30324771082E+03  0.31333515067E+03  0.00000000000E+00 0.  1.
          5    1    4    4  501    0 -0.42765179433E+02  0.59495790304E+02  0.40432009347E+01  0.73501221144E+02  0.41800000000E+01 0. -1.
         -5    1    4    4    0  501  0.53549018965E+02 -0.21093406155E+02  0.96235412661E+01  0.58502257750E+02  0.41800000000E+01 0. -1.
</event>
<event>
11    1  0.8974665E-009  0.1749427E+03  0.7561462E-02  0.1073809E+00
         22   -1    0    0    0    0  0.00000000000E+00  0.00000000000E+00  0.38252534903E+03  0.38252534903E+03  0.00000000000E+00 0. -1.
         22   -1    0    0    0    0 -0.00000000000E+00 -0.00000000000E+00 -0.16896395091E+04  0.16896395091E+04  0.00000000000E+00 0.  1.
        -24    2    1    2    0    0 -0.33882819070E+02 -0.93150108614E+01 -0.14359451296E+04  0.14392465759E+04  0.90870657033E+02 0.  0.
         25    2    1    2    0    0  0.13593656857E+03 -0.55412276254E+02 -0.19738657563E+03  0.27596807256E+03  0.12509055041E+03 0.  0.
         24    2    1    2    0    0 -0.10205374950E+03  0.64727287116E+02  0.32621754515E+03  0.35695020963E+03  0.79943579490E+02 0.  0.
        -11    1    5    5    0    0  0.50504217717E+01 -0.15655947303E+01 -0.17950094206E+01  0.55838970041E+01  0.00000000000E+00 0.  1.
         12    1    5    5    0    0 -0.10710417128E+03  0.66292881846E+02  0.32801255457E+03  0.35136631262E+03  0.00000000000E+00 0. -1.
         11    1    3    3    0    0 -0.13021503108E+02 -0.38934860886E+02 -0.30852861133E+03  0.31124811155E+03  0.00000000000E+00 0. -1.
        -12    1    3    3    0    0 -0.20861315962E+02  0.29619850024E+02 -0.11274165183E+04  0.11279984644E+04  0.00000000000E+00 0.  1.
          5    1    4    4  501    0 -0.18252863736E+02  0.11125297969E+02 -0.41145526395E+02  0.46554978593E+02  0.41800000000E+01 0.  1.
         -5    1    4    4    0  501  0.15418943231E+03 -0.66537574224E+02 -0.15624104923E+03  0.22941309397E+03  0.41800000000E+01 0.  1.
</event>
<event>
11    1  0.8974665E-009  0.1297692E+03  0.7561462E-02  0.1119553E+00
         22   -1    0    0    0    0  0.00000000000E+00  0.00000000000E+00  0.14010728045E+04  0.14010728045E+04  0.00000000000E+00 0.  1.
         22   -1    0    0    0    0 -0.00000000000E+00 -0.00000000000E+00 -0.95233906905E+02  0.95233906905E+02  0.00000000000E+00 0. -1.
        -24    2    1    2    0    0  0.33398119876E+02 -0.15522685002E+02 -0.48333925575E+02  0.10061415845E+03  0.80191348401E+02 0.  0.
         25    2    1    2    0    0  0.28982047140E+00 -0.13268312799E+01  0.18574732282E+03  0.22391954285E+03  0.12504418921E+03 0.  0.
         24    2    1    2    0    0 -0.33687940347E+02  0.16849516282E+02  0.11684255003E+04  0.11717730101E+04  0.80094031188E+02 0.  0.
        -11    1    5    5    0    0 -0.36755662471E+02  0.85545342289E+00  0.11214887213E+04  0.11220912006E+04  0.00000000000E+00 0.  1.
         12    1    5    5    0    0  0.30677221241E+01  0.15994062859E+02  0.46936779032E+02  0.49681809465E+02  0.00000000000E+00 0. -1.
         11    1    3    3    0    0 -0.89667830108E+01 -0.29210789114E+02 -0.47016438488E+02  0.56073334895E+02  0.00000000000E+00 0. -1.
        -12    1    3    3    0    0  0.42364902887E+02  0.13688104112E+02 -0.13174870868E+01  0.44540823555E+02  0.00000000000E+00 0.  1.
          5    1    4    4  501    0 -0.38774394324E+02  0.44658007286E+02  0.12421284722E+03  0.13763754969E+03  0.41800000000E+01 0.  1.
         -5    1    4    4    0  501  0.39064214795E+02 -0.45984838566E+02  0.61534475605E+02  0.86281993159E+02  0.41800000000E+01 0.  1.
</event>
<event>
11    1  0.8974665E-009  0.1352826E+03  0.7561462E-02  0.1112943E+00
         22   -1    0    0    0    0  0.00000000000E+00  0.00000000000E+00  0.79931700344E+03  0.79931700344E+03  0.00000000000E+00 0. -1.
         22   -1    0    0    0    0 -0.00000000000E+00 -0.00000000000E+00 -0.28414585110E+04  0.28414585110E+04  0.00000000000E+00 0. -1.
         24    2    1    2    0    0 -0.44344901352E+01 -0.12422555471E+02 -0.27985494695E+04  0.27997296598E+04  0.80206295004E+02 0.  0.
         25    2    1    2    0    0 -0.43609213052E+02 -0.79921887439E+01  0.73744230773E+02  0.15182726507E+03  0.12509064035E+03 0.  0.
        -24    2    1    2    0    0  0.48043703188E+02  0.20414744215E+02  0.68266373123E+03  0.68921858957E+03  0.79167765377E+02 0.  0.
        -13    1    3    3    0    0  0.45936403552E+01 -0.15017175174E+02 -0.10537071756E+03  0.10653452587E+03  0.00000000000E+00 0.  1.
         14    1    3    3    0    0 -0.90281304904E+01  0.25946197029E+01 -0.26931787520E+04  0.26931951339E+04  0.00000000000E+00 0. -1.
         11    1    5    5    0    0  0.27992162899E+02 -0.17380805383E+02  0.51932556193E+03  0.52036976551E+03  0.00000000000E+00 0. -1.
        -12    1    5    5    0    0  0.20051540289E+02  0.37795549598E+02  0.16333816930E+03  0.16884882406E+03  0.00000000000E+00 0.  1.
          5    1    4    4  501    0 -0.73433024331E+02 -0.25084109256E+02  0.87740940097E+01  0.78205362509E+02  0.41800000000E+01 0. -1.
         -5    1    4    4    0  501  0.29823811278E+02  0.17091920512E+02  0.64970136763E+02  0.73621902563E+02  0.41800000000E+01 0. -1.
</event>
<event>
11    1  0.8974665E-009  0.1385034E+03  0.7561462E-02  0.1109241E+00
         22   -1    0    0    0    0  0.00000000000E+00  0.00000000000E+00  0.10610250483E+04  0.10610250483E+04  0.00000000000E+00 0. -1.
         22   -1    0    0    0    0 -0.00000000000E+00 -0.00000000000E+00 -0.91665332280E+02  0.91665332280E+02  0.00000000000E+00 0.  1.
        -24    2    1    2    0    0  0.35658704680E+02 -0.48701416410E+02 -0.36237436634E+02  0.10613028586E+03  0.79417344351E+02 0.  0.
         25    2    1    2    0    0 -0.20455080576E+02  0.50248755059E+02  0.23972167201E+03  0.27578572688E+03  0.12509172398E+03 0.  0.
         24    2    1    2    0    0 -0.15203624103E+02 -0.15473386495E+01  0.76587548059E+03  0.77077436779E+03  0.85406848848E+02 0.  0.
        -13    1    5    5    0    0  0.19809909729E+02  0.27508038568E+02  0.49008186739E+03  0.49125284880E+03  0.00000000000E+00 0.  1.
         14    1    5    5    0    0 -0.35013533832E+02 -0.29055377217E+02  0.27579361320E+03  0.27952151899E+03  0.00000000000E+00 0. -1.
         11    1    3    3    0    0  0.42950484490E+02 -0.42465206840E+01  0.69593520321E+01  0.43717383688E+02  0.00000000000E+00 0. -1.
        -12    1    3    3    0    0 -0.72917798099E+01 -0.44454895726E+02 -0.43196788666E+02  0.62412902175E+02  0.00000000000E+00 0.  1.
          5    1    4    4  501    0  0.21073764329E+02  0.61123270181E+02  0.21813518887E+03  0.22755348980E+03  0.41800000000E+01 0.  1.
         -5    1    4    4    0  501 -0.41528844905E+02 -0.10874515122E+02  0.21586483148E+02  0.48232237072E+02  0.41800000000E+01 0.  1.
</event>
<event>
11    1  0.8974665E-009  0.1498070E+03  0.7561462E-02  0.1097076E+00
         22   -1    0    0    0    0  0.00000000000E+00  0.00000000000E+00  0.18778922386E+04  0.18778922386E+04  0.00000000000E+00 0. -1.
         22   -1    0    0    0    0 -0.00000000000E+00 -0.00000000000E+00 -0.21240705004E+03  0.21240705004E+03  0.00000000000E+00 0.  1.
        -24    2    1    2    0    0 -0.72198470909E+02 -0.36913392060E+02 -0.17072351795E+03  0.20510681011E+03  0.79668477190E+02 0.  0.
         25    2    1    2    0    0  0.85863728442E+02  0.62267858449E+02  0.26462840300E+03  0.31132898019E+03  0.12509067181E+03 0.  0.
         24    2    1    2    0    0 -0.13665257533E+02 -0.25354466390E+02  0.15715803035E+04  0.15738634983E+04  0.79699891988E+02 0.  0.
        -11    1    5    5    0    0 -0.23831079341E+02  0.24203826958E+02  0.68331493831E+03  0.68415864425E+03  0.00000000000E+00 0.  1.
         12    1    5    5    0    0  0.10165821808E+02 -0.49558293347E+02  0.88826536522E+03  0.88970485410E+03  0.00000000000E+00 0. -1.
         13    1    3    3    0    0 -0.12159708019E+02 -0.49868728987E+02 -0.90856235986E+02  0.10435326659E+03  0.00000000000E+00 0. -1.
        -14    1    3    3    0    0 -0.60038762890E+02  0.12955336927E+02 -0.79867281966E+02  0.10075354353E+03  0.00000000000E+00 0.  1.
          5    1    4    4  501    0  0.71877262795E+02  0.25138639078E+02  0.45936258140E+02  0.89027547947E+02  0.41800000000E+01 0. -1.
         -5    1    4    4    0  501  0.13986465647E+02  0.37129219371E+02  0.21869214487E+03  0.22230143224E+03  0.41800000000E+01 0. -1.
</event>
<event>
11    1  0.8974665E-009  0.1687110E+03  0.7561462E-02  0.1079159E+00
         22   -1    0    0    0    0  0.00000000000E+00  0.00000000000E+00  0.67989159589E+03  0.67989159589E+03  0.00000000000E+00 0.  1.
         22   -1    0    0    0    0 -0.00000000000E+00 -0.00000000000E+00 -0.26954603148E+03  0.26954603148E+03  0.00000000000E+00 0.  1.
         24    2    1    2    0    0 -0.43137678200E+02 -0.97371482387E+02 -0.16880962245E+03  0.21517665136E+03  0.80388045127E+02 0.  0.
         25    2    1    2    0    0  0.51800157301E+02  0.14264218096E+03  0.59143462033E+02  0.20536720894E+03  0.12509074034E+03 0.  0.
        -24    2    1    2    0    0 -0.86624791005E+01 -0.45270698573E+02  0.52001172482E+03  0.52889376708E+03  0.84805354813E+02 0.  0.
        -13    1    3    3    0    0 -0.20542657136E+02 -0.52980595681E+02 -0.15253392234E+03  0.16277451197E+03  0.00000000000E+00 0.  1.
         14    1    3    3    0    0 -0.22595021064E+02 -0.44390886706E+02 -0.16275700102E+02  0.52402139396E+02  0.00000000000E+00 0. -1.
         11    1    5    5    0    0  0.15123056504E+02  0.25471689449E+01  0.16382131388E+02  0.22440346176E+02  0.00000000000E+00 0. -1.
        -12    1    5    5    0    0 -0.23785535605E+02 -0.47817867517E+02  0.50362959344E+03  0.50645342090E+03  0.00000000000E+00 0.  1.
          5    1    4    4  501    0  0.53444216888E+02  0.38110207676E+02  0.74765173624E+02  0.99578992940E+02  0.41800000000E+01 0.  1.
         -5    1    4    4    0  501 -0.16440595872E+01  0.10453197328E+03 -0.15621711591E+02  0.10578821600E+03  0.41800000000E+01 0.  1.
</event>
<event>
11    1  0.8974665E-009  0.1376374E+03  0.7561462E-02  0.1110226E+00
         22   -1    0    0    0    0  0.00000000000E+00  0.00000000000E+00  0.24027480271E+03  0.24027480271E+03  0.00000000000E+00 0. -1.
         22   -1    0    0    0    0 -0.00000000000E+00 -0.00000000000E+00 -0.71942382515E+03  0.71942382515E+03  0.00000000000E+00 0.  1.
        -24    2    1    2    0    0 -0.47722519065E+02  0.15396452012E+01 -0.42351327072E+03  0.43640470635E+03  0.93839053249E+02 0.  0.
         25    2    1    2    0    0  0.89434557591E+02  0.28704890814E+02 -0.25547523574E+03  0.29956441177E+03  0.12509488350E+03 0.  0.
         24    2    1    2    0    0 -0.41712038527E+02 -0.30244536015E+02  0.19983948402E+03  0.22372950973E+03  0.86397037193E+02 0.  0.
        -13    1    5    5    0    0 -0.69219711115E+01 -0.35467691758E+02  0.21704627822E+02  0.42154023670E+02  0.00000000000E+00 0.  1.
         14    1    5    5    0    0 -0.34790067415E+02  0.52231557427E+01  0.17813485620E+03  0.18157548606E+03  0.00000000000E+00 0. -1.
         13    1    3    3    0    0 -0.62008976344E+02  0.30528131511E+01 -0.14770259520E+03  0.16022012808E+03  0.00000000000E+00 0. -1.
        -14    1    3    3    0    0  0.14286457280E+02 -0.15131679499E+01 -0.27581067553E+03  0.27618457827E+03  0.00000000000E+00 0.  1.
          5    1    4    4  501    0  0.73305549754E+01 -0.34855886572E+02 -0.17530665676E+02  0.39918247757E+02  0.41800000000E+01 0.  1.
         -5    1    4    4    0  501  0.82104002616E+02  0.63560777386E+02 -0.23794457006E+03  0.25964616402E+03  0.41800000000E+01 0.  1.
</event>
<event>
11    1  0.8974665E-009  0.1263907E+03  0.7561462E-02  0.1123785E+00
         22   -1    0    0    0    0  0.00000000000E+00  0.00000000000E+00  0.34686587260E+04  0.34686587260E+04  0.00000000000E+00 0. -1.
         22   -1    0    0    0    0 -0.00000000000E+00 -0.00000000000E+00 -0.18680316870E+03  0.18680316870E+03  0.00000000000E+00 0.  1.
         24    2    1    2    0    0 -0.25670245399E+02 -0.39384745283E+01 -0.16096197427E+03  0.18071049079E+03  0.77929784029E+02 0.  0.
         25    2    1    2    0    0  0.42687291180E+02  0.66860105095E+01  0.26855130382E+03  0.29938705722E+03  0.12508357080E+03 0.  0.
        -24    2    1    2    0    0 -0.17017045781E+02 -0.27475359812E+01  0.31742662277E+04  0.31753643467E+04  0.81703860398E+02 0.  0.
        -13    1    3    3    0    0 -0.16868299649E+02  0.16470433869E+02 -0.15621393663E+03  0.15798293807E+03  0.00000000000E+00 0.  1.
         14    1    3    3    0    0 -0.88019457498E+01 -0.20408908398E+02 -0.47480376433E+01  0.22727552715E+02  0.00000000000E+00 0. -1.
         11    1    5    5    0    0 -0.17221160767E+01  0.15180411254E+01  0.30599238868E+04  0.30599247479E+04  0.00000000000E+00 0. -1.
        -12    1    5    5    0    0 -0.15294929704E+02 -0.42655771066E+01  0.11434234094E+03  0.11543959873E+03  0.00000000000E+00 0.  1.
          5    1    4    4  501    0  0.40625533983E+01  0.57101995451E+02  0.68045124834E+02  0.89021085358E+02  0.41800000000E+01 0.  1.
         -5    1    4    4    0  501  0.38624737782E+02 -0.50415984941E+02  0.20050617899E+03  0.21036597187E+03  0.41800000000E+01 0.  1.
</event>
<event>
11    1  0.8974665E-009  0.1314618E+03  0.7561462E-02  0.1117486E+00
         22   -1    0    0    0    0  0.00000000000E+00  0.00000000000E+00  0.39332257974E+03  0.39332257974E+03  0.00000000000E+00 0. -1.
         22   -1    0    0    0    0 -0.00000000000E+00 -0.00000000000E+00 -0.35509012846E+03  0.35509012846E+03  0.00000000000E+00 0.  1.
         24    2    1    2    0    0  0.31354950566E+02 -0.34154637819E+02 -0.22045413826E+03  0.23847140807E+03  0.78223482309E+02 0.  0.
         25    2    1    2    0    0 -0.17240342020E+02  0.91891751858E+01 -0.87368027910E+02  0.15382608663E+03  0.12509045644E+03 0.  0.
        -24    2    1    2    0    0 -0.14114608546E+02  0.24965462633E+02  0.34605461745E+03  0.35611521349E+03  0.79004749989E+02 0.  0.
        -13    1    3    3    0    0  0.16001268298E+02 -0.36159003841E+02 -0.21941845560E+03  0.22295284883E+03  0.00000000000E+00 0.  1.
         14    1    3    3    0    0  0.15353682268E+02  0.20043660218E+01 -0.10356826593E+01  0.15518559241E+02  0.00000000000E+00 0. -1.
         13    1    5    5    0    0 -0.29889477594E+02  0.19762012012E+02  0.33317436229E+03  0.33509561870E+03  0.00000000000E+00 0. -1.
        -14    1    5    5    0    0  0.15774869048E+02  0.52034506218E+01  0.12880255165E+02  0.21019594786E+02  0.00000000000E+00 0.  1.
          5    1    4    4  501    0 -0.46539557462E+02 -0.10191012294E+02  0.11185132985E+02  0.49115850193E+02  0.41800000000E+01 0.  1.
         -5    1    4    4    0  501  0.29299215442E+02  0.19380187480E+02 -0.98553160895E+02  0.10471023644E+03  0.41800000000E+01 0.  1.
</event>
<event>
11    1  0.8974665E-009  0.1702196E+03  0.7561462E-02  0.1077841E+00
         22   -1    0    0    0    0  0.00000000000E+00  0.00000000000E+00  0.41012357763E+03  0.41012357763E+03  0.00000000000E+00 0.  1.
         22   -1    0    0    0    0 -0.00000000000E+00 -0.00000000000E+00 -0.51081817474E+03  0.51081817474E+03  0.00000000000E+00 0.  1.
         24    2    1    2    0    0 -0.34475963316E+02  0.81992405095E+01 -0.31839383852E+03  0.33051516458E+03  0.81300787320E+02 0.  0.
         25    2    1    2    0    0  0.14604806204E+03 -0.25067019803E+02 -0.11816371654E+03  0.22708714761E+03  0.12509003476E+03 0.  0.
        -24    2    1    2    0    0 -0.11157209873E+03  0.16867779294E+02  0.33586295794E+03  0.36333944019E+03  0.80490788837E+02 0.  0.
        -13    1    3    3    0    0 -0.20619722736E+02 -0.32628072218E+02 -0.21588907213E+03  0.21931223296E+03  0.00000000000E+00 0.  1.
         14    1    3    3    0    0 -0.13856240579E+02  0.40827312727E+02 -0.10250476639E+03  0.11120293161E+03  0.00000000000E+00 0. -1.
         13    1    5    5    0    0 -0.19177038679E+02  0.29719149009E+02  0.16421416504E+03  0.16797999474E+03  0.00000000000E+00 0. -1.
        -14    1    5    5    0    0 -0.92395060049E+02 -0.12851369715E+02  0.17164879289E+03  0.19535944545E+03  0.00000000000E+00 0.  1.
          5    1    4    4  501    0  0.25020070393E+02 -0.45669129302E+02  0.58078802217E+01  0.52563077976E+02  0.41800000000E+01 0.  1.
         -5    1    4    4    0  501  0.12102799165E+03  0.20602109499E+02 -0.12397159676E+03  0.17452406963E+03  0.41800000000E+01 0.  1.
</event>
<event>
11    1  0.8974665E-009  0.1539838E+03  0.7561462E-02  0.1092876E+00
         22   -1    0    0    0    0  0.00000000000E+00  0.00000000000E+00  0.23133352871E+04  0.23133352871E+04  0.00000000000E+00 0. -1.
         22   -1    0    0    0    0 -0.00000000000E+00 -0.00000000000E+00 -0.20934341694E+03  0.20934341694E+03  0.00000000000E+00 0.  1.
        -24    2    1    2    0    0  0.15928456881E+02 -0.99569556835E+02 -0.13430754087E+03  0.18609139546E+03  0.80147860491E+02 0.  0.
         25    2    1    2    0    0  0.34254105317E+02  0.50655210709E+02  0.53487617162E+02  0.14915728013E+03  0.12509066682E+03 0.  0.
         24    2    1    2    0    0 -0.50182562198E+02  0.48914346126E+02  0.21848117938E+04  0.21874300284E+04  0.80849563589E+02 0.  0.
        -13    1    5    5    0    0 -0.41246751940E+02 -0.45686433593E+01  0.49103418337E+03  0.49278467538E+03  0.00000000000E+00 0.  1.
         14    1    5    5    0    0 -0.89358102584E+01  0.53482989485E+02  0.16937776105E+04  0.16946453530E+04  0.00000000000E+00 0. -1.
         13    1    3    3    0    0 -0.25385889395E+02 -0.57923477283E+01 -0.22328981260E+02  0.34301283893E+02  0.00000000000E+00 0. -1.
        -14    1    3    3    0    0  0.41314346275E+02 -0.93777209107E+02 -0.11197855961E+03  0.15179011157E+03  0.00000000000E+00 0.  1.
          5    1    4    4  501    0 -0.14590938996E+00  0.78270063831E+02  0.66698592443E+02  0.10291938017E+03  0.41800000000E+01 0. -1.
         -5    1    4    4    0  501  0.34400014707E+02 -0.27614853122E+02 -0.13210975281E+02  0.46237899960E+02  0.41800000000E+01 0. -1.
</event>
<event>
11    1  0.8974665E-009  0.1327405E+03  0.7561462E-02  0.1115947E+00
         22   -1    0    0    0    0  0.00000000000E+00  0.00000000000E+00  0.88833092785E+02  0.88833092785E+02  0.00000000000E+00 0. -1.
         22   -1    0    0    0    0 -0.00000000000E+00 -0.00000000000E+00 -0.24065897076E+04  0.24065897076E+04  0.00000000000E+00 0.  1.
         24    2    1    2    0    0  0.21815848275E+02  0.11989944941E+02 -0.17293182648E+04  0.17312784490E+04  0.78509343475E+02 0.  0.
         25    2    1    2    0    0  0.40769144929E+01 -0.48152892295E+02 -0.64293507791E+03  0.65677393476E+03  0.12510461506E+03 0.  0.
        -24    2    1    2    0    0 -0.25892762768E+02  0.36162947355E+02  0.54496727855E+02  0.10737041665E+03  0.81119166050E+02 0.  0.
        -11    1    3    3    0    0 -0.16727020676E+02  0.32335725126E+01 -0.13078422354E+04  0.13079531956E+04  0.00000000000E+00 0.  1.
         12    1    3    3    0    0  0.38542868951E+02  0.87563724282E+01 -0.42147602939E+03  0.42332525338E+03  0.00000000000E+00 0. -1.
         13    1    5    5    0    0 -0.46929398391E+02 -0.34110861224E+01  0.21594613748E+02  0.51771915985E+02  0.00000000000E+00 0. -1.
        -14    1    5    5    0    0  0.21036635623E+02  0.39574033477E+02  0.32902114107E+02  0.55598500670E+02  0.00000000000E+00 0.  1.
          5    1    4    4  501    0  0.34039961789E+02  0.19745555235E+01 -0.48339103020E+02  0.59302269340E+02  0.41800000000E+01 0. -1.
         -5    1    4    4    0  501 -0.29963047296E+02 -0.50127447819E+02 -0.59459597489E+03  0.59747166542E+03  0.41800000000E+01 0. -1.
</event>
<event>
11    1  0.8974665E-009  0.1362636E+03  0.7561462E-02  0.1111804E+00
         22   -1    0    0    0    0  0.00000000000E+00  0.00000000000E+00  0.59150018750E+03  0.59150018750E+03  0.00000000000E+00 0. -1.
         22   -1    0    0    0    0 -0.00000000000E+00 -0.00000000000E+00 -0.27524859606E+03  0.27524859606E+03  0.00000000000E+00 0.  1.
         24    2    1    2    0    0  0.34248060635E+02  0.31106072675E+02 -0.80976906130E+02  0.12399384758E+03  0.81711061048E+02 0.  0.
         25    2    1    2    0    0  0.96811786340E+01 -0.62971398578E+02 -0.13897420628E+03  0.19753701475E+03  0.12509164612E+03 0.  0.
        -24    2    1    2    0    0 -0.43929239269E+02  0.31865325903E+02  0.53620270385E+03  0.54521792123E+03  0.82486756219E+02 0.  0.
        -11    1    3    3    0    0  0.45822998225E+02  0.25948755929E+01 -0.81141218205E+02  0.93222196056E+02  0.00000000000E+00 0.  1.
         12    1    3    3    0    0 -0.11574937590E+02  0.28511197082E+02  0.16431207511E+00  0.30771651527E+02  0.00000000000E+00 0. -1.
         11    1    5    5    0    0 -0.59411060683E+02  0.34150699458E+02  0.51083877555E+03  0.51541458944E+03  0.00000000000E+00 0. -1.
        -12    1    5    5    0    0  0.15481821414E+02 -0.22853735549E+01  0.25363928304E+02  0.29803331787E+02  0.00000000000E+00 0.  1.
          5    1    4    4  501    0  0.51243409140E+02 -0.29368306026E+02 -0.13044281853E+03  0.14325217515E+03  0.41800000000E+01 0. -1.
         -5    1    4    4    0  501 -0.41562230506E+02 -0.33603092552E+02 -0.85313877424E+01  0.54284839601E+02  0.41800000000E+01 0. -1.
</event>
<event>
11    1  0.8974665E-009  0.1659168E+03  0.7561462E-02  0.1081641E+00
         22   -1    0    0    0    0  0.00000000000E+00  0.00000000000E+00  0.11213527355E+04  0.11213527355E+04  0.00000000000E+00 0. -1.
         22   -1    0    0    0    0 -0.00000000000E+00 -0.00000000000E+00 -0.11960391453E+03  0.11960391453E+03  0.00000000000E+00 0. -1.
         24    2    1    2    0    0  0.49153176454E+01  0.10918044339E+03 -0.48021172926E+02  0.14323412394E+03  0.79154605973E+02 0.  0.
         25    2    1    2    0    0 -0.10154678220E+03 -0.97923972749E+02  0.51468455175E+03  0.54812855897E+03  0.12507548099E+03 0.  0.
        -24    2    1    2    0    0  0.96631464553E+02 -0.11256470638E+02  0.53508544216E+03  0.54959396712E+03  0.79200695739E+02 0.  0.
        -11    1    3    3    0    0 -0.21147626969E+02 -0.14139854439E+01 -0.98304140222E+01  0.23363615326E+02  0.00000000000E+00 0.  1.
         12    1    3    3    0    0  0.26062944614E+02  0.11059442883E+03 -0.38190758904E+02  0.11987050862E+03  0.00000000000E+00 0. -1.
         13    1    5    5    0    0  0.20423958771E+02  0.29417828541E+02  0.21937814782E+03  0.22228206961E+03  0.00000000000E+00 0. -1.
        -14    1    5    5    0    0  0.76207505781E+02 -0.40674299178E+02  0.31570729434E+03  0.32731189751E+03  0.00000000000E+00 0.  1.
          5    1    4    4  501    0  0.24661473952E+02 -0.17630624932E+02  0.16431756061E+03  0.16714293391E+03  0.41800000000E+01 0. -1.
         -5    1    4    4    0  501 -0.12620825615E+03 -0.80293347818E+02  0.35036699114E+03  0.38098562506E+03  0.41800000000E+01 0. -1.
</event>
<event>
11    1  0.8974665E-009  0.1302325E+03  0.7561462E-02  0.1118984E+00
         22   -1    0    0    0    0  0.00000000000E+00  0.00000000000E+00  0.46333139612E+03  0.46333139612E+03  0.00000000000E+00 0.  1.
         22   -1    0    0    0    0 -0.00000000000E+00 -0.00000000000E+00 -0.65750427740E+03  0.65750427740E+03  0.00000000000E+00 0. -1.
        -24    2    1    2    0    0 -0.15440176334E+02 -0.14169051611E+02 -0.60661066898E+03  0.61059663768E+03  0.66427322433E+02 0.  0.
         25    2    1    2    0    0  0.47708268308E+02  0.25555953744E+02  0.63115784643E+02  0.15017390088E+03  0.12505763710E+03 0.  0.
         24    2    1    2    0    0 -0.32268091973E+02 -0.11386902133E+02  0.34932200306E+03  0.36006513496E+03  0.80312815216E+02 0.  0.
        -11    1    5    5    0    0 -0.33495115405E+02  0.24322879337E+02  0.26883799041E+03  0.27200623210E+03  0.00000000000E+00 0.  1.
         12    1    5    5    0    0  0.12270234320E+01 -0.35709781470E+02  0.80484012653E+02  0.88058902854E+02  0.00000000000E+00 0. -1.
         13    1    3    3    0    0  0.52090708005E+01  0.22249080451E+02 -0.11775662876E+03  0.11995323929E+03  0.00000000000E+00 0. -1.
        -14    1    3    3    0    0 -0.20649247135E+02 -0.36418132061E+02 -0.48885404022E+03  0.49064339839E+03  0.00000000000E+00 0.  1.
          5    1    4    4  501    0  0.51751884466E+02 -0.36769581946E+02  0.60076581989E+02  0.87503873089E+02  0.41800000000E+01 0. -1.
         -5    1    4    4    0  501 -0.40436161581E+01  0.62325535689E+02  0.30392026540E+01  0.62670027791E+02  0.41800000000E+01 0. -1.
</event>
<event>
11    1  0.8974665E-009  0.1702120E+03  0.7561462E-02  0.1077847E+00
         22   -1    0    0    0    0  0.00000000000E+00  0.00000000000E+00  0.57039146652E+03  0.57039146652E+03  0.00000000000E+00 0. -1.
         22   -1    0    0    0    0 -0.00000000000E+00 -0.00000000000E+00 -0.89757984993E+03  0.89757984993E+03  0.00000000000E+00 0. -1.
         24    2    1    2    0    0  0.83437655851E+02  0.80521005875E+02 -0.79684631848E+03  0.80921543964E+03  0.80125512079E+02 0.  0.
         25    2    1    2    0    0 -0.78147701709E+02 -0.75970950024E+02 -0.13554440748E+02  0.16646212197E+03  0.12508903492E+03 0.  0.
        -24    2    1    2    0    0 -0.52899541420E+01 -0.45500558509E+01  0.48321237581E+03  0.49229375484E+03  0.93862954854E+02 0.  0.
        -11    1    3    3    0    0 -0.84155953132E+01  0.16626039897E+00 -0.10510516757E+02  0.13465543045E+02  0.00000000000E+00 0.  1.
         12    1    3    3    0    0  0.91853251165E+02  0.80354745476E+02 -0.78633580172E+03  0.79574989660E+03  0.00000000000E+00 0. -1.
         13    1    5    5    0    0 -0.13457626755E+02  0.31562780867E+02  0.39683435887E+03  0.39831498243E+03  0.00000000000E+00 0. -1.
        -14    1    5    5    0    0  0.81676726135E+01 -0.36112836717E+02  0.86378016946E+02  0.93978772408E+02  0.00000000000E+00 0.  1.
          5    1    4    4  501    0 -0.28222867818E+02  0.20707098134E+01 -0.57209206540E+02  0.63962362526E+02  0.41800000000E+01 0.  1.
         -5    1    4    4    0  501 -0.49924833891E+02 -0.78041659837E+02  0.43654765792E+02  0.10249975944E+03  0.41800000000E+01 0.  1.
</event>
<event>
11    1  0.8974665E-009  0.1686633E+03  0.7561462E-02  0.1079201E+00
         22   -1    0    0    0    0  0.00000000000E+00  0.00000000000E+00  0.14066610244E+03  0.14066610244E+03  0.00000000000E+00 0. -1.
         22   -1    0    0    0    0 -0.00000000000E+00 -0.00000000000E+00 -0.12320319544E+04  0.12320319544E+04  0.00000000000E+00 0. -1.
        -24    2    1    2    0    0  0.44002263236E+02 -0.11098442006E+03 -0.99531309023E+03  0.10056825943E+04  0.80595237147E+02 0.  0.
         25    2    1    2    0    0 -0.54208839362E+02  0.64779578294E+02 -0.18383867203E+03  0.23785346905E+03  0.12507047364E+03 0.  0.
         24    2    1    2    0    0  0.10206576125E+02  0.46204841764E+02  0.87785910349E+02  0.12916199343E+03  0.82081623350E+02 0.  0.
        -13    1    5    5    0    0  0.36963809312E+02  0.18803136409E+02  0.10305463499E+02  0.42732700776E+02  0.00000000000E+00 0.  1.
         14    1    5    5    0    0 -0.26757233187E+02  0.27401705356E+02  0.77480446850E+02  0.86429292652E+02  0.00000000000E+00 0. -1.
         11    1    3    3    0    0  0.26976460526E+02 -0.11996668762E+03 -0.79589545187E+03  0.80533800722E+03  0.00000000000E+00 0. -1.
        -12    1    3    3    0    0  0.17025802710E+02  0.89822675639E+01 -0.19941763836E+03  0.20034458709E+03  0.00000000000E+00 0.  1.
          5    1    4    4  501    0  0.10501360454E+02  0.54443054815E+02 -0.15763501407E+03  0.16715440422E+03  0.41800000000E+01 0. -1.
         -5    1    4    4    0  501 -0.64710199816E+02  0.10336523478E+02 -0.26203657962E+02  0.70699064834E+02  0.41800000000E+01 0. -1.
</event>
<event>
11    1  0.8974665E-009  0.1697741E+03  0.7561462E-02  0.1078228E+00
         22   -1    0    0    0    0  0.00000000000E+00  0.00000000000E+00  0.11404665416E+04  0.11404665416E+04  0.00000000000E+00 0.  1.
         22   -1    0    0    0    0 -0.00000000000E+00 -0.00000000000E+00 -0.16138564788E+03  0.16138564788E+03  0.00000000000E+00 0. -1.
         24    2    1    2    0    0  0.99477253152E+02  0.59517720623E+02 -0.80801773809E+02  0.16254863440E+03  0.80343319144E+02 0.  0.
         25    2    1    2    0    0 -0.70229237433E+02 -0.92813724333E+02  0.15742943567E+03  0.23233254312E+03  0.12509136727E+03 0.  0.
        -24    2    1    2    0    0 -0.29248015719E+02  0.33296003709E+02  0.90245323189E+03  0.90697101198E+03  0.78806792497E+02 0.  0.
        -13    1    3    3    0    0  0.95156111333E+02  0.15366512882E+02 -0.50414482577E+02  0.10877699801E+03  0.00000000000E+00 0.  1.
         14    1    3    3    0    0  0.43211418190E+01  0.44151207741E+02 -0.30387291231E+02  0.53771636389E+02  0.00000000000E+00 0. -1.
         13    1    5    5    0    0  0.15291354045E+01 -0.23678913251E+02  0.16780920643E+03  0.16947849111E+03  0.00000000000E+00 0. -1.
        -14    1    5    5    0    0 -0.30777151124E+02  0.56974916960E+02  0.73464402546E+03  0.73749252087E+03  0.00000000000E+00 0.  1.
          5    1    4    4  501    0 -0.39546456435E+02  0.26369102294E+02  0.42920854212E+02  0.64178843077E+02  0.41800000000E+01 0. -1.
         -5    1    4    4    0  501 -0.30682780997E+02 -0.11918282663E+03  0.11450858145E+03  0.16815370005E+03  0.41800000000E+01 0. -1.
</event>
<event>
11    1  0.8974665E-009  0.2019279E+03  0.7561462E-02  0.1053169E+00
         22   -1    0    0    0    0  0.00000000000E+00  0.00000000000E+00  0.20903462746E+04  0.20903462746E+04  0.00000000000E+00 0. -1.
         22   -1    0    0    0    0 -0.00000000000E+00 -0.00000000000E+00 -0.52702264180E+03  0.52702264180E+03  0.00000000000E+00 0.  1.
         24    2    1    2    0    0 -0.10575357152E+03  0.27634956841E+02 -0.47494095187E+03  0.49432745308E+03  0.82723723167E+02 0.  0.
         25    2    1    2    0    0  0.25079096490E+03 -0.51285395217E+02  0.49775408906E+03  0.57352729453E+03  0.12509246404E+03 0.  0.
        -24    2    1    2    0    0 -0.14503739338E+03  0.23650438375E+02  0.15405104956E+04  0.15495141687E+04  0.78907436067E+02 0.  0.
        -11    1    3    3    0    0 -0.48082958216E+02  0.46916433087E+02 -0.15936064534E+03  0.17294200718E+03  0.00000000000E+00 0.  1.
         12    1    3    3    0    0 -0.57670613303E+02 -0.19281476246E+02 -0.31558030654E+03  0.32138544590E+03  0.00000000000E+00 0. -1.
         11    1    5    5    0    0 -0.15312657880E+03  0.28699057730E+02  0.13903654299E+04  0.13990666223E+04  0.00000000000E+00 0. -1.
        -12    1    5    5    0    0  0.80891854178E+01 -0.50486193546E+01  0.15014506569E+03  0.15044754644E+03  0.00000000000E+00 0.  1.
          5    1    4    4  501    0  0.56175968563E+02 -0.26182109919E+02  0.36013167944E+02  0.71802945547E+02  0.41800000000E+01 0.  1.
         -5    1    4    4    0  501  0.19461499633E+03 -0.25103285298E+02  0.46174092112E+03  0.50172434899E+03  0.41800000000E+01 0.  1.
</event>
<event>
11    1  0.8974665E-009  0.1844461E+03  0.7561462E-02  0.1066102E+00
         22   -1    0    0    0    0  0.00000000000E+00  0.00000000000E+00  0.47826321726E+03  0.47826321726E+03  0.00000000000E+00 0.  1.
         22   -1    0    0    0    0 -0.00000000000E+00 -0.00000000000E+00 -0.11246915111E+04  0.11246915111E+04  0.00000000000E+00 0.  1.
         24    2    1    2    0    0 -0.48369282918E+02 -0.25042798436E+02 -0.98921067121E+03  0.99401042202E+03  0.80945894037E+02 0.  0.
         25    2    1    2    0    0 -0.23537631300E+02 -0.96060014802E+02 -0.63722351161E+02  0.17172404721E+03  0.12508822415E+03 0.  0.
        -24    2    1    2    0    0  0.71906914218E+02  0.12110281324E+03  0.40650472854E+03  0.43722025913E+03  0.77967717541E+02 0.  0.
        -13    1    3    3    0    0 -0.51387543234E+02 -0.17504636513E+02 -0.98086579417E+03  0.98236693657E+03  0.00000000000E+00 0.  1.
         14    1    3    3    0    0  0.30182603162E+01 -0.75381619232E+01 -0.83448770428E+01  0.11643485448E+02  0.00000000000E+00 0. -1.
         13    1    5    5    0    0  0.23165367305E+02  0.24804385866E+02  0.21267873507E+03  0.21536976610E+03  0.00000000000E+00 0. -1.
        -14    1    5    5    0    0  0.48741546913E+02  0.96298427372E+02  0.19382599347E+03  0.22185049302E+03  0.00000000000E+00 0.  1.
          5    1    4    4  501    0  0.42348248148E+02 -0.81057989555E+02 -0.41005655977E+02  0.10031305007E+03  0.41800000000E+01 0. -1.
         -5    1    4    4    0  501 -0.65885879448E+02 -0.15002025246E+02 -0.22716695184E+02  0.71410997138E+02  0.41800000000E+01 0. -1.
</event>
<event>
11    1  0.8974665E-009  0.1496355E+03  0.7561462E-02  0.1097252E+00
         22   -1    0    0    0    0  0.00000000000E+00  0.00000000000E+00  0.62756624134E+03  0.62756624134E+03  0.00000000000E+00 0.  1.
         22   -1    0    0    0    0 -0.00000000000E+00 -0.00000000000E+00 -0.10463812835E+04  0.10463812835E+04  0.00000000000E+00 0. -1.
         24    2    1    2    0    0  0.39149900468E+02 -0.45985278425E+02 -0.10098001457E+04  0.10147622167E+04  0.79991635289E+02 0.  0.
         25    2    1    2    0    0  0.46950018204E+02  0.65238285433E+02  0.19320116701E+03  0.24379147112E+03  0.12508897777E+03 0.  0.
        -24    2    1    2    0    0 -0.86099918672E+02 -0.19253007008E+02  0.39778393646E+03  0.41539383706E+03  0.80846184143E+02 0.  0.
        -13    1    3    3    0    0  0.40607911536E+02  0.11846847445E+02 -0.40677992571E+03  0.40897341996E+03  0.00000000000E+00 0.  1.
         14    1    3    3    0    0 -0.14580110684E+01 -0.57832125870E+02 -0.60302021997E+03  0.60578879675E+03  0.00000000000E+00 0. -1.
         11    1    5    5    0    0 -0.53967684501E+02  0.26785544071E+02  0.25375227690E+03  0.26080681427E+03  0.00000000000E+00 0. -1.
        -12    1    5    5    0    0 -0.32132234171E+02 -0.46038551079E+02  0.14403165956E+03  0.15458702279E+03  0.00000000000E+00 0.  1.
          5    1    4    4  501    0  0.30665968299E+02  0.78583959298E+02  0.48270289944E+02  0.97279666745E+02  0.41800000000E+01 0.  1.
         -5    1    4    4    0  501  0.16284049905E+02 -0.13345673865E+02  0.14493087707E+03  0.14651180437E+03  0.41800000000E+01 0.  1.
</event>
<event>
11    1  0.8974665E-009  0.2227705E+03  0.7561462E-02  0.1039496E+00
         22   -1    0    0    0    0  0.00000000000E+00  0.00000000000E+00  0.32658043413E+03  0.32658043413E+03  0.00000000000E+00 0.  1.
         22   -1    0    0    0    0 -0.00000000000E+00 -0.00000000000E+00 -0.16385520944E+04  0.16385520944E+04  0.00000000000E+00 0. -1.
        -24    2    1    2    0    0  0.32708593762E+01 -0.15635830884E+02 -0.72595614676E+03  0.73026033837E+03  0.77541324810E+02 0.  0.
         25    2    1    2    0    0 -0.11400527470E+03 -0.13221177096E+03 -0.86446322054E+03  0.89074115628E+03  0.12508394300E+03 0.  0.
         24    2    1    2    0    0  0.11073441533E+03  0.14784760184E+03  0.27844770702E+03  0.34413103389E+03  0.82292276866E+02 0.  0.
        -13    1    5    5    0    0  0.53598133800E+02  0.13162390660E+03  0.18285999317E+03  0.23159315585E+03  0.00000000000E+00 0.  1.
         14    1    5    5    0    0  0.57136281526E+02  0.16223695245E+02  0.95587713847E+02  0.11253787803E+03  0.00000000000E+00 0. -1.
         13    1    3    3    0    0  0.36695940922E+02 -0.22897910273E+02 -0.47857121614E+03  0.48052191968E+03  0.00000000000E+00 0. -1.
        -14    1    3    3    0    0 -0.33425081546E+02  0.72620793894E+01 -0.24738493062E+03  0.24973841869E+03  0.00000000000E+00 0.  1.
          5    1    4    4  501    0 -0.30594298558E+02 -0.25673566177E+02 -0.45590332231E+02  0.60754373484E+02  0.41800000000E+01 0.  1.
         -5    1    4    4    0  501 -0.83410976144E+02 -0.10653820478E+03 -0.81887288831E+03  0.82998678280E+03  0.41800000000E+01 0.  1.
</event>
<event>
11    1  0.8974665E-009  0.1677976E+03  0.7561462E-02  0.1079964E+00
         22   -1    0    0    0    0  0.00000000000E+00  0.00000000000E+00  0.12727749005E+03  0.12727749005E+03  0.00000000000E+00 0. -1.
         22   -1    0    0    0    0 -0.00000000000E+00 -0.00000000000E+00 -0.27869932091E+04  0.27869932091E+04  0.00000000000E+00 0.  1.
        -24    2    1    2    0    0  0.10435914912E+03  0.39625427946E+02 -0.21123142771E+04  0.21169455273E+04  0.84414179290E+02 0.  0.
         25    2    1    2    0    0 -0.12400299221E+03  0.15313188531E+02 -0.63872045909E+03  0.66273839210E+03  0.12508843147E+03 0.  0.
         24    2    1    2    0    0  0.19643843088E+02 -0.54938616477E+02  0.91319017153E+02  0.13458677977E+03  0.79814198252E+02 0.  0.
        -13    1    5    5    0    0 -0.15723941703E+02 -0.56628386059E+02  0.36044095602E+02  0.68943406342E+02  0.00000000000E+00 0.  1.
         14    1    5    5    0    0  0.35367784790E+02  0.16897695812E+01  0.55274921551E+02  0.65643373425E+02  0.00000000000E+00 0. -1.
         11    1    3    3    0    0  0.57155251586E+01  0.39973765724E+02 -0.73003602541E+03  0.73115194561E+03  0.00000000000E+00 0. -1.
        -12    1    3    3    0    0  0.98643623959E+02 -0.34833777775E+00 -0.13822782517E+04  0.13857935816E+04  0.00000000000E+00 0.  1.
          5    1    4    4  501    0 -0.35574160401E+01 -0.38395935750E+02 -0.83700029826E+02  0.92250043274E+02  0.41800000000E+01 0.  1.
         -5    1    4    4    0  501 -0.12044557617E+03  0.53709124282E+02 -0.55502042927E+03  0.57048834883E+03  0.41800000000E+01 0.  1.
</event>
<event>
11    1  0.8974665E-009  0.1463553E+03  0.7561462E-02  0.1100662E+00
         22   -1    0    0    0    0  0.00000000000E+00  0.00000000000E+00  0.26252422076E+03  0.26252422076E+03  0.00000000000E+00 0.  1.
         22   -1    0    0    0    0 -0.00000000000E+00 -0.00000000000E+00 -0.20510132749E+04  0.20510132749E+04  0.00000000000E+00 0. -1.
        -24    2    1    2    0    0  0.13923940556E+01  0.73631653845E+02 -0.18210152919E+04  0.18242717929E+04  0.80295216290E+02 0.  0.
         25    2    1    2    0    0  0.13432403707E+02 -0.13023028454E+03 -0.17939499843E+03  0.25489300808E+03  0.12509006205E+03 0.  0.
         24    2    1    2    0    0 -0.14824797762E+02  0.56598630697E+02  0.21192123613E+03  0.23437269476E+03  0.81220502951E+02 0.  0.
        -11    1    5    5    0    0 -0.13406755340E+02  0.52177208305E+02  0.21920887079E+03  0.22573154673E+03  0.00000000000E+00 0.  1.
         12    1    5    5    0    0 -0.14180424225E+01  0.44214223914E+01 -0.72876346617E+01  0.86411480277E+01  0.00000000000E+00 0. -1.
         11    1    3    3    0    0 -0.79825386275E+01  0.73366583686E+02 -0.17966308641E+04  0.17981459447E+04  0.00000000000E+00 0. -1.
        -12    1    3    3    0    0  0.93749326830E+01  0.26507015985E+00 -0.24384427739E+02  0.26125848142E+02  0.00000000000E+00 0.  1.
          5    1    4    4  501    0  0.12211209194E-02 -0.81335292791E+02 -0.15009710570E+02  0.82814211741E+02  0.41800000000E+01 0.  1.
         -5    1    4    4    0  501  0.13431182586E+02 -0.48894991751E+02 -0.16438528786E+03  0.17207879634E+03  0.41800000000E+01 0.  1.
</event>
<event>
11    1  0.8974665E-009  0.1458716E+03  0.7561462E-02  0.1101173E+00
         22   -1    0    0    0    0  0.00000000000E+00  0.00000000000E+00  0.65022873689E+03  0.65022873689E+03  0.00000000000E+00 0. -1.
         22   -1    0    0    0    0 -0.00000000000E+00 -0.00000000000E+00 -0.22255357186E+03  0.22255357186E+03  0.00000000000E+00 0. -1.
        -24    2    1    2    0    0 -0.65812293119E+02  0.26391945152E+02 -0.14318452331E+03  0.17825896562E+03  0.79035804620E+02 0.  0.
         25    2    1    2    0    0  0.10611844406E+03 -0.84949233819E+01  0.58709491749E+02  0.17443429051E+03  0.12508888597E+03 0.  0.
         24    2    1    2    0    0 -0.40306150938E+02 -0.17897021770E+02  0.51215019659E+03  0.52008905263E+03  0.79056369773E+02 0.  0.
        -13    1    5    5    0    0 -0.37298896869E+02 -0.40128284990E+02  0.20739081738E+03  0.21450510040E+03  0.00000000000E+00 0.  1.
         14    1    5    5    0    0 -0.30072540691E+01  0.22231263220E+02  0.30475937921E+03  0.30558395222E+03  0.00000000000E+00 0. -1.
         11    1    3    3    0    0 -0.25300141594E+02 -0.11681263789E+02 -0.11008374676E+03  0.11355606716E+03  0.00000000000E+00 0. -1.
        -12    1    3    3    0    0 -0.40512151525E+02  0.38073208940E+02 -0.33100776554E+02  0.64702898456E+02  0.00000000000E+00 0.  1.
          5    1    4    4  501    0  0.60418543686E+02 -0.28060042953E+02 -0.29593313074E+02  0.73013717960E+02  0.41800000000E+01 0. -1.
         -5    1    4    4    0  501  0.45699900371E+02  0.19565119571E+02  0.88302804823E+02  0.10142057256E+03  0.41800000000E+01 0. -1.
</event>
<event>
11    1  0.8974665E-009  0.1367805E+03  0.7561462E-02  0.1111208E+00
         22   -1    0    0    0    0  0.00000000000E+00  0.00000000000E+00  0.42618396203E+03  0.42618396203E+03  0.00000000000E+00 0.  1.
         22   -1    0    0    0    0 -0.00000000000E+00 -0.00000000000E+00 -0.60710127932E+03  0.60710127932E+03  0.00000000000E+00 0.  1.
        -24    2    1    2    0    0 -0.12340233730E+02  0.53875109193E+02 -0.50545215742E+03  0.51427341805E+03  0.77074355723E+02 0.  0.
         25    2    1    2    0    0  0.50366106898E+02 -0.44943953125E+02 -0.36866217367E+02  0.14684435911E+03  0.12508974448E+03 0.  0.
         24    2    1    2    0    0 -0.38025873168E+02 -0.89311560680E+01  0.36140105750E+03  0.37216746418E+03  0.79825838280E+02 0.  0.
        -11    1    5    5    0    0 -0.58393841843E+02 -0.19615341847E+02  0.20408684457E+03  0.21318077430E+03  0.00000000000E+00 0.  1.
         12    1    5    5    0    0  0.20367968675E+02  0.10684185779E+02  0.15731421292E+03  0.15898668989E+03  0.00000000000E+00 0. -1.
         13    1    3    3    0    0 -0.44810648084E+02  0.25925798497E+02 -0.25861434504E+03  0.26374518132E+03  0.00000000000E+00 0. -1.
        -14    1    3    3    0    0  0.32470414353E+02  0.27949310696E+02 -0.24683781238E+03  0.25052823673E+03  0.00000000000E+00 0.  1.
          5    1    4    4  501    0  0.69932836857E+02 -0.38403029545E+02 -0.70907021553E+02  0.10682074918E+03  0.41800000000E+01 0.  1.
         -5    1    4    4    0  501 -0.19566729959E+02 -0.65409235801E+01  0.34040804186E+02  0.40023609935E+02  0.41800000000E+01 0.  1.
</event>
<event>
11    1  0.8974665E-009  0.1689340E+03  0.7561462E-02  0.1078963E+00
         22   -1    0    0    0    0  0.00000000000E+00  0.00000000000E+00  0.26782738112E+03  0.26782738112E+03  0.00000000000E+00 0. -1.
         22   -1    0    0    0    0 -0.00000000000E+00 -0.00000000000E+00 -0.34845313622E+03  0.34845313622E+03  0.00000000000E+00 0. -1.
        -24    2    1    2    0    0 -0.63898363337E+02 -0.26464657159E+01 -0.23295969170E+03  0.25409192529E+03  0.78755850079E+02 0.  0.
         25    2    1    2    0    0  0.86357968394E+02  0.98409745803E+02  0.13417887087E+03  0.22537194836E+03  0.12508544657E+03 0.  0.
         24    2    1    2    0    0 -0.22459605057E+02 -0.95763280087E+02  0.18155065735E+02  0.13681664369E+03  0.93349600462E+02 0.  0.
        -11    1    5    5    0    0  0.32251580999E+02 -0.40003036681E+02 -0.12525059744E+02  0.52889361334E+02  0.00000000000E+00 0.  1.
         12    1    5    5    0    0 -0.54711186056E+02 -0.55760243406E+02  0.30680125479E+02  0.83927282357E+02  0.00000000000E+00 0. -1.
         11    1    3    3    0    0 -0.72648654598E+02  0.15556462582E+02 -0.21345184017E+03  0.22601220900E+03  0.00000000000E+00 0. -1.
        -12    1    3    3    0    0  0.87502912605E+01 -0.18202928298E+02 -0.19507851529E+02  0.28079716292E+02  0.00000000000E+00 0.  1.
          5    1    4    4  501    0  0.76230811095E+02  0.57461078917E+02  0.15187816446E+03  0.17943623210E+03  0.41800000000E+01 0. -1.
         -5    1    4    4    0  501  0.10127157300E+02  0.40948666886E+02 -0.17699293588E+02  0.45935716259E+02  0.41800000000E+01 0. -1.
</event>
<event>
11    1  0.8974665E-009  0.1514158E+03  0.7561462E-02  0.1095441E+00
         22   -1    0    0    0    0  0.00000000000E+00  0.00000000000E+00  0.36122075862E+03  0.36122075862E+03  0.00000000000E+00 0.  1.
         22   -1    0    0    0    0 -0.00000000000E+00 -0.00000000000E+00 -0.40532151454E+03  0.40532151454E+03  0.00000000000E+00 0.  1.
        -24    2    1    2    0    0 -0.36321774698E+02  0.23599236654E+00 -0.29785182815E+03  0.31044867380E+03  0.79645091012E+02 0.  0.
         25    2    1    2    0    0 -0.58545108697E+01  0.76547560144E+02 -0.25908142661E+02  0.14903947951E+03  0.12509088829E+03 0.  0.
         24    2    1    2    0    0  0.42176285568E+02 -0.76783552510E+02  0.27965921489E+03  0.30705411986E+03  0.91642801387E+02 0.  0.
        -13    1    5    5    0    0  0.12921106202E+02 -0.56904935265E+02  0.26024397326E+03  0.26670592844E+03  0.00000000000E+00 0.  1.
         14    1    5    5    0    0  0.29255179366E+02 -0.19878617245E+02  0.19415241627E+02  0.40348191418E+02  0.00000000000E+00 0. -1.
         11    1    3    3    0    0 -0.48108597507E+01 -0.11192789044E+02 -0.15779217293E+01  0.12284654457E+02  0.00000000000E+00 0. -1.
        -12    1    3    3    0    0 -0.31510914947E+02  0.11428781411E+02 -0.29627390642E+03  0.29816401934E+03  0.00000000000E+00 0.  1.
          5    1    4    4  501    0  0.51995129850E+01  0.10007640761E+03  0.13955971014E+02  0.10126482026E+03  0.41800000000E+01 0.  1.
         -5    1    4    4    0  501 -0.11054023855E+02 -0.23528847470E+02 -0.39864113675E+02  0.47774659242E+02  0.41800000000E+01 0.  1.
</event>
<event>
11    1  0.8974665E-009  0.1330267E+03  0.7561462E-02  0.1115605E+00
         22   -1    0    0    0    0  0.00000000000E+00  0.00000000000E+00  0.31451090476E+04  0.31451090476E+04  0.00000000000E+00 0. -1.
         22   -1    0    0    0    0 -0.00000000000E+00 -0.00000000000E+00 -0.36370211688E+02  0.36370211688E+02  0.00000000000E+00 0. -1.
         24    2    1    2    0    0 -0.29251620668E+02  0.41000320297E+02  0.67709594034E+02  0.12882774660E+03  0.97341232755E+02 0.  0.
         25    2    1    2    0    0 -0.27556434258E+02 -0.16069982898E+02  0.90040692790E+03  0.90961447602E+03  0.12509299645E+03 0.  0.
        -24    2    1    2    0    0  0.56808054926E+02 -0.24930337398E+02  0.21406223140E+04  0.21430370367E+04  0.80592633561E+02 0.  0.
        -13    1    3    3    0    0  0.72799139846E+01 -0.23469145505E+02  0.45091806771E+02  0.51352399907E+02  0.00000000000E+00 0.  1.
         14    1    3    3    0    0 -0.36531534652E+02  0.64469465802E+02  0.22617787262E+02  0.77475346695E+02  0.00000000000E+00 0. -1.
         13    1    5    5    0    0  0.16861308125E+02  0.82224198371E+01  0.15563619291E+04  0.15564749809E+04  0.00000000000E+00 0. -1.
        -14    1    5    5    0    0  0.39946746801E+02 -0.33152757236E+02  0.58426038490E+03  0.58656205576E+03  0.00000000000E+00 0.  1.
          5    1    4    4  501    0  0.29737578619E+02 -0.50404848391E+02  0.31724892816E+03  0.32262877606E+03  0.41800000000E+01 0.  1.
         -5    1    4    4    0  501 -0.57294012877E+02  0.34334865493E+02  0.58315799975E+03  0.58698569997E+03  0.41800000000E+01 0.  1.
</event>
<event>
11    1  0.8974665E-009  0.1747519E+03  0.7561462E-02  0.1073969E+00
         22   -1    0    0    0    0  0.00000000000E+00  0.00000000000E+00  0.26309036721E+03  0.26309036721E+03  0.00000000000E+00 0.  1.
         22   -1    0    0    0    0 -0.00000000000E+00 -0.00000000000E+00 -0.68527610509E+03  0.68527610509E+03  0.00000000000E+00 0.  1.
        -24    2    1    2    0    0  0.11264998559E+03  0.49759191110E+02 -0.51239969609E+03  0.53287752965E+03  0.78987446518E+02 0.  0.
         25    2    1    2    0    0 -0.13904707993E+03  0.43145217562E+02 -0.77457013302E+02  0.20698758424E+03  0.12509464770E+03 0.  0.
         24    2    1    2    0    0  0.26397094341E+02 -0.92904408672E+02  0.16767097151E+03  0.20850135842E+03  0.77660968549E+02 0.  0.
        -11    1    5    5    0    0  0.10754230147E+02 -0.62782568328E+02  0.16202177038E+03  0.17409295916E+03  0.00000000000E+00 0.  1.
         12    1    5    5    0    0  0.15642864194E+02 -0.30121840344E+02  0.56492011217E+01  0.34408399254E+02  0.00000000000E+00 0. -1.
         11    1    3    3    0    0  0.45629026882E+02  0.24040031081E+02 -0.84483797281E+02  0.98982034691E+02  0.00000000000E+00 0. -1.
        -12    1    3    3    0    0  0.67020958706E+02  0.25719160029E+02 -0.42791589881E+03  0.43389549496E+03  0.00000000000E+00 0.  1.
          5    1    4    4  501    0 -0.93174696892E+02 -0.36103983530E+02 -0.45920371099E+02  0.11005078214E+03  0.41800000000E+01 0. -1.
         -5    1    4    4    0  501 -0.45872383036E+02  0.79249201093E+02 -0.31536642203E+02  0.96936802096E+02  0.41800000000E+01 0. -1.
</event>
<event>
11    1  0.8974665E-009  0.1599662E+03  0.7561462E-02  0.1087109E+00
         22   -1    0    0    0    0  0.00000000000E+00  0.00000000000E+00  0.68153006654E+03  0.68153006654E+03  0.00000000000E+00 0. -1.
         22   -1    0    0    0    0 -0.00000000000E+00 -0.00000000000E+00 -0.18897495310E+03  0.18897495310E+03  0.00000000000E+00 0. -1.
        -24    2    1    2    0    0  0.42083120715E+02 -0.90777560681E+02 -0.13280328657E+03  0.18480774773E+03  0.80657523664E+02 0.  0.
         25    2    1    2    0    0 -0.10287496984E+03  0.55084276575E+02  0.33943098349E+03  0.38010247408E+03  0.12508781436E+03 0.  0.
         24    2    1    2    0    0  0.60791849129E+02  0.35693284106E+02  0.28592741651E+03  0.30559479784E+03  0.81633531713E+02 0.  0.
        -13    1    5    5    0    0  0.64469787413E+02  0.30585881775E+02  0.12046766756E+03  0.14001538694E+03  0.00000000000E+00 0.  1.
         14    1    5    5    0    0 -0.36779382841E+01  0.51074023312E+01  0.16545974895E+03  0.16557941089E+03  0.00000000000E+00 0. -1.
         11    1    3    3    0    0  0.53386160844E+02 -0.91592781673E+02 -0.13654874023E+03  0.17287243355E+03  0.00000000000E+00 0. -1.
        -12    1    3    3    0    0 -0.11303040129E+02  0.81522099186E+00  0.37454536550E+01  0.11935314177E+02  0.00000000000E+00 0.  1.
          5    1    4    4  501    0  0.18978729434E+02  0.18995825649E+02  0.14676517634E+03  0.14925991743E+03  0.41800000000E+01 0. -1.
         -5    1    4    4    0  501 -0.12185369928E+03  0.36088450925E+02  0.19266580715E+03  0.23084255665E+03  0.41800000000E+01 0. -1.
</event>
<event>
11    1  0.8974665E-009  0.1735154E+03  0.7561462E-02  0.1075012E+00
         22   -1    0    0    0    0  0.00000000000E+00  0.00000000000E+00  0.28599454700E+03  0.28599454700E+03  0.00000000000E+00 0.  1.
         22   -1    0    0    0    0 -0.00000000000E+00 -0.00000000000E+00 -0.49696062035E+03  0.49696062035E+03  0.00000000000E+00 0.  1.
        -24    2    1    2    0    0 -0.66478780477E+02  0.45713959421E+02 -0.28990058587E+03  0.31131618365E+03  0.79788609303E+02 0.  0.
         25    2    1    2    0    0  0.17668195838E+03 -0.62959734858E+02 -0.99606099208E+02  0.24647233609E+03  0.12508714893E+03 0.  0.
         24    2    1    2    0    0 -0.11020317790E+03  0.17245775437E+02  0.17854061173E+03  0.22516664762E+03  0.79881862592E+02 0.  0.
        -11    1    5    5    0    0 -0.46407156598E+02 -0.32002121681E+02  0.67081936655E+02  0.87622749335E+02  0.00000000000E+00 0.  1.
         12    1    5    5    0    0 -0.63796021302E+02  0.49247897117E+02  0.11145867508E+03  0.13754389828E+03  0.00000000000E+00 0. -1.
         13    1    3    3    0    0 -0.39786163773E+01 -0.53438491088E+01  0.31403124856E+01  0.73653020361E+01  0.00000000000E+00 0. -1.
        -14    1    3    3    0    0 -0.62500164100E+02  0.51057808530E+02 -0.29304089836E+03  0.30395088162E+03  0.00000000000E+00 0.  1.
          5    1    4    4  501    0  0.16795803103E+03 -0.92279854296E+02 -0.98656419691E+02  0.21558300778E+03  0.41800000000E+01 0.  1.
         -5    1    4    4    0  501  0.87239273442E+01  0.29320119438E+02 -0.94967951711E+00  0.30889328309E+02  0.41800000000E+01 0.  1.
</event>
<event>
11    1  0.8974665E-009  0.1478806E+03  0.7561462E-02  0.1099064E+00
         22   -1    0    0    0    0  0.00000000000E+00  0.00000000000E+00  0.10015913554E+04  0.10015913554E+04  0.00000000000E+00 0.  1.
         22   -1    0    0    0    0 -0.00000000000E+00 -0.00000000000E+00 -0.15795144223E+04  0.15795144223E+04  0.00000000000E+00 0. -1.
         24    2    1    2    0    0 -0.57985117696E+02  0.43466654131E+01 -0.14481158563E+04  0.14515422597E+04  0.80958205769E+02 0.  0.
         25    2    1    2    0    0 -0.16877583605E+02  0.24712015617E+02 -0.93615191834E+02  0.15908123814E+03  0.12508996620E+03 0.  0.
        -24    2    1    2    0    0  0.74862701301E+02 -0.29058681031E+02  0.96380798125E+03  0.97048227990E+03  0.80381589328E+02 0.  0.
        -13    1    3    3    0    0 -0.40653794269E+02  0.18552949876E+01 -0.24939778906E+03  0.25269632030E+03  0.00000000000E+00 0.  1.
         14    1    3    3    0    0 -0.17331323427E+02  0.24913704255E+01 -0.11987180672E+04  0.11988459394E+04  0.00000000000E+00 0. -1.
         11    1    5    5    0    0  0.94960327188E+01  0.16912102619E+01  0.98253733214E+01  0.13768543512E+02  0.00000000000E+00 0. -1.
        -12    1    5    5    0    0  0.65366668582E+02 -0.30749891292E+02  0.95398260792E+03  0.95671373639E+03  0.00000000000E+00 0.  1.
          5    1    4    4  501    0  0.15779278654E+02  0.49759041593E+02 -0.10399051630E+03  0.11643215937E+03  0.41800000000E+01 0. -1.
         -5    1    4    4    0  501 -0.32656862259E+02 -0.25047025975E+02  0.10375324463E+02  0.42649078777E+02  0.41800000000E+01 0. -1.
</event>
<event>
11    1  0.8974665E-009  0.1411992E+03  0.7561462E-02  0.1106227E+00
         22   -1    0    0    0    0  0.00000000000E+00  0.00000000000E+00  0.12124111290E+03  0.12124111290E+03  0.00000000000E+00 0. -1.
         22   -1    0    0    0    0 -0.00000000000E+00 -0.00000000000E+00 -0.10639090288E+04  0.10639090288E+04  0.00000000000E+00 0. -1.
         24    2    1    2    0    0  0.39301358538E+02  0.45804679698E+02 -0.92522866475E+03  0.93069122787E+03  0.80594131874E+02 0.  0.
         25    2    1    2    0    0 -0.77027168015E+02  0.10478303533E+02 -0.17745000067E+02  0.14834055373E+03  0.12508819047E+03 0.  0.
        -24    2    1    2    0    0  0.37725809478E+02 -0.56282983232E+02  0.30574892667E+00  0.10611836009E+03  0.81670079975E+02 0.  0.
        -11    1    3    3    0    0  0.25446879341E+02  0.40843974732E+02 -0.21540119771E+03  0.22071123649E+03  0.00000000000E+00 0.  1.
         12    1    3    3    0    0  0.13854479197E+02  0.49607049661E+01 -0.70982746704E+03  0.70997999138E+03  0.00000000000E+00 0. -1.
         13    1    5    5    0    0  0.62577748797E+02 -0.50882306275E+02  0.13527973823E+01  0.80664823791E+02  0.00000000000E+00 0. -1.
        -14    1    5    5    0    0 -0.24851939320E+02 -0.54006769565E+01 -0.10470484556E+01  0.25453536297E+02  0.00000000000E+00 0.  1.
          5    1    4    4  501    0 -0.86758769880E+02  0.19852747867E+02  0.33492745656E+02  0.95186407436E+02  0.41800000000E+01 0. -1.
         -5    1    4    4    0  501  0.97316018647E+01 -0.93744443339E+01 -0.51237745723E+02  0.53154146294E+02  0.41800000000E+01 0. -1.
</event>
<event>
11    1  0.8974665E-009  0.2562999E+03  0.7561462E-02  0.1020596E+00
         22   -1    0    0    0    0  0.00000000000E+00  0.00000000000E+00  0.23912894791E+03  0.23912894791E+03  0.00000000000E+00 0. -1.
         22   -1    0    0    0    0 -0.00000000000E+00 -0.00000000000E+00 -0.86360615207E+03  0.86360615207E+03  0.00000000000E+00 0.  1.
         24    2    1    2    0    0  0.19751449150E+03  0.72706060397E+02 -0.34884614519E+03  0.41503777219E+03  0.79149060348E+02 0.  0.
         25    2    1    2    0    0 -0.21884583072E+03 -0.97435957436E+02 -0.42915246967E+03  0.50715577837E+03  0.12509147808E+03 0.  0.
        -24    2    1    2    0    0  0.21331339215E+02  0.24729897039E+02  0.15352141070E+03  0.18054154942E+03  0.89217900022E+02 0.  0.
        -11    1    3    3    0    0  0.14990281615E+03  0.31216469087E+02 -0.29360838536E+03  0.33113623508E+03  0.00000000000E+00 0.  1.
         12    1    3    3    0    0  0.47611675354E+02  0.41489591310E+02 -0.55237759837E+02  0.83901537107E+02  0.00000000000E+00 0. -1.
         13    1    5    5    0    0  0.45004333020E+02  0.35981099417E+02  0.59060549378E+02  0.82511684013E+02  0.00000000000E+00 0. -1.
        -14    1    5    5    0    0 -0.23672993805E+02 -0.11251202378E+02  0.94460861318E+02  0.98029865406E+02  0.00000000000E+00 0.  1.
          5    1    4    4  501    0 -0.81481370753E+02 -0.29870172707E+02 -0.28082900085E+03  0.29396231241E+03  0.41800000000E+01 0. -1.
         -5    1    4    4    0  501 -0.13736445996E+03 -0.67565784730E+02 -0.14832346882E+03  0.21319346596E+03  0.41800000000E+01 0. -1.
</event>
<event>
11    1  0.8974665E-009  0.1441700E+03  0.7561462E-02  0.1102989E+00
         22   -1    0    0    0    0  0.00000000000E+00  0.00000000000E+00  0.17884313733E+04  0.17884313733E+04  0.00000000000E+00 0. -1.
         22   -1    0    0    0    0 -0.00000000000E+00 -0.00000000000E+00 -0.40933132719E+03  0.40933132719E+03  0.00000000000E+00 0. -1.
         24    2    1    2    0    0  0.54648407911E+01 -0.34907709960E+02 -0.37425259455E+03  0.38320543450E+03  0.74384056132E+02 0.  0.
         25    2    1    2    0    0  0.17694938578E+02 -0.35134671128E+02  0.12071414828E+03  0.17823379258E+03  0.12509125971E+03 0.  0.
        -24    2    1    2    0    0 -0.23159779369E+02  0.70042381088E+02  0.16326384924E+04  0.16363234734E+04  0.81263474584E+02 0.  0.
        -11    1    3    3    0    0 -0.16031768671E+02  0.17359400366E+02 -0.74027612339E+02  0.77707488547E+02  0.00000000000E+00 0.  1.
         12    1    3    3    0    0  0.21496609462E+02 -0.52267110326E+02 -0.30022498221E+03  0.30549794596E+03  0.00000000000E+00 0. -1.
         13    1    5    5    0    0 -0.10774444145E+02  0.75095748608E+02  0.15857640690E+04  0.15875777596E+04  0.00000000000E+00 0. -1.
        -14    1    5    5    0    0 -0.12385335224E+02 -0.50533675197E+01  0.46874423388E+02  0.48745713861E+02  0.00000000000E+00 0.  1.
          5    1    4    4  501    0 -0.50972863091E+02 -0.30439594961E+02  0.73910820314E+02  0.94895118276E+02  0.41800000000E+01 0.  1.
         -5    1    4    4    0  501  0.68667801670E+02 -0.46950761668E+01  0.46803327970E+02  0.83338674308E+02  0.41800000000E+01 0.  1.
</event>
<event>
11    1  0.8974665E-009  0.3465096E+03  0.7561462E-02  0.9822269E-01
         22   -1    0    0    0    0  0.00000000000E+00  0.00000000000E+00  0.92641302335E+03  0.92641302335E+03  0.00000000000E+00 0.  1.
         22   -1    0    0    0    0 -0.00000000000E+00 -0.00000000000E+00 -0.97274739058E+03  0.97274739058E+03  0.00000000000E+00 0. -1.
        -24    2    1    2    0    0 -0.23892092013E+02  0.92901943916E+01 -0.76121962347E+03  0.76565993230E+03  0.78247536748E+02 0.  0.
         25    2    1    2    0    0 -0.29099759669E+03 -0.96581409774E+02 -0.13260331463E+02  0.33140328380E+03  0.12507889562E+03 0.  0.
         24    2    1    2    0    0  0.31488968870E+03  0.87291215382E+02  0.72814558770E+03  0.80209719783E+03  0.79929003099E+02 0.  0.
        -13    1    5    5    0    0  0.29021951959E+03  0.10142457001E+03  0.65291546336E+03  0.72167369028E+03  0.00000000000E+00 0.  1.
         14    1    5    5    0    0  0.24670169113E+02 -0.14133354625E+02  0.75230124346E+02  0.80423507547E+02  0.00000000000E+00 0. -1.
         11    1    3    3    0    0 -0.62672269388E+01 -0.11731309928E+02 -0.67606245011E+03  0.67619326986E+03  0.00000000000E+00 0. -1.
        -12    1    3    3    0    0 -0.17624865074E+02  0.21021504320E+02 -0.85157173363E+02  0.89466662439E+02  0.00000000000E+00 0.  1.
          5    1    4    4  501    0 -0.20011595120E+03 -0.10548667759E+03  0.33506120687E+02  0.22872246413E+03  0.41800000000E+01 0. -1.
         -5    1    4    4    0  501 -0.90881645485E+02  0.89052678153E+01 -0.46766452150E+02  0.10268081967E+03  0.41800000000E+01 0. -1.
</event>
<event>
11    1  0.8974665E-009  0.1320375E+03  0.7561462E-02  0.1116791E+00
         22   -1    0    0    0    0  0.00000000000E+00  0.00000000000E+00  0.30842872208E+03  0.30842872208E+03  0.00000000000E+00 0.  1.
         22   -1    0    0    0    0 -0.00000000000E+00 -0.00000000000E+00 -0.41169070395E+03  0.41169070395E+03  0.00000000000E+00 0.  1.
        -24    2    1    2    0    0 -0.10817399027E+02 -0.56639099037E+01 -0.28201676718E+03  0.29319831110E+03  0.79263463620E+02 0.  0.
         25    2    1    2    0    0  0.46816919165E+02 -0.15733028542E+02 -0.77848274081E+02  0.15539306205E+03  0.12508915960E+03 0.  0.
         24    2    1    2    0    0 -0.35999520138E+02  0.21396938446E+02  0.25660305939E+03  0.27152805287E+03  0.78285113425E+02 0.  0.
        -11    1    5    5    0    0 -0.23485041265E+02  0.31873155187E+01  0.24578776435E+03  0.24692778549E+03  0.00000000000E+00 0.  1.
         12    1    5    5    0    0 -0.12514478873E+02  0.18209622927E+02  0.10815295045E+02  0.24600267387E+02  0.00000000000E+00 0. -1.
         11    1    3    3    0    0  0.24360010202E+01  0.30477501752E+02 -0.54876226470E+02  0.62818886058E+02  0.00000000000E+00 0. -1.
        -12    1    3    3    0    0 -0.13253400047E+02 -0.36141411656E+02 -0.22714054071E+03  0.23037942504E+03  0.00000000000E+00 0.  1.
          5    1    4    4  501    0  0.39788742807E+02 -0.42436240715E+02 -0.10263781594E+03  0.11805071894E+03  0.41800000000E+01 0.  1.
         -5    1    4    4    0  501  0.70281763576E+01  0.26703212174E+02  0.24789541864E+02  0.37342343112E+02  0.41800000000E+01 0.  1.
</event>
<event>
11    1  0.8974665E-009  0.1421387E+03  0.7561462E-02  0.1105193E+00
         22   -1    0    0    0    0  0.00000000000E+00  0.00000000000E+00  0.12620291882E+04  0.12620291882E+04  0.00000000000E+00 0. -1.
         22   -1    0    0    0    0 -0.00000000000E+00 -0.00000000000E+00 -0.10533536584E+04  0.10533536584E+04  0.00000000000E+00 0. -1.
        -24    2    1    2    0    0  0.65533068219E+02 -0.13834074638E+02 -0.10206817846E+04  0.10264927839E+04  0.86082316249E+02 0.  0.
         25    2    1    2    0    0 -0.11054873945E+03  0.32573623641E+02  0.23489517227E+03  0.29000808071E+03  0.12508749006E+03 0.  0.
         24    2    1    2    0    0  0.45015671233E+02 -0.18739549004E+02  0.99446214221E+03  0.99888198203E+03  0.80203992295E+02 0.  0.
        -11    1    5    5    0    0 -0.59610105733E+01 -0.34330066434E+02  0.23716046457E+03  0.23970643100E+03  0.00000000000E+00 0.  1.
         12    1    5    5    0    0  0.50976681807E+02  0.15590517430E+02  0.75730167764E+03  0.75917555103E+03  0.00000000000E+00 0. -1.
         13    1    3    3    0    0  0.76618611948E+02 -0.35504020477E+02 -0.82170571844E+03  0.82603343449E+03  0.00000000000E+00 0. -1.
        -14    1    3    3    0    0 -0.11085543729E+02  0.21669945839E+02 -0.19897606620E+03  0.20045934937E+03  0.00000000000E+00 0.  1.
          5    1    4    4  501    0 -0.10543324919E+03 -0.11256519713E+02  0.92157961578E+02  0.14054693719E+03  0.41800000000E+01 0.  1.
         -5    1    4    4    0  501 -0.51154902651E+01  0.43830143354E+02  0.14273721069E+03  0.14946114352E+03  0.41800000000E+01 0.  1.
</event>
<event>
11    1  0.8974665E-009  0.1522310E+03  0.7561462E-02  0.1094621E+00
         22   -1    0    0    0    0  0.00000000000E+00  0.00000000000E+00  0.77971828051E+03  0.77971828051E+03  0.00000000000E+00 0. -1.
         22   -1    0    0    0    0 -0.00000000000E+00 -0.00000000000E+00 -0.58689540550E+03  0.58689540550E+03  0.00000000000E+00 0.  1.
        -24    2    1    2    0    0  0.85648425363E+02  0.14688035890E+02 -0.53677535965E+03  0.54911209306E+03  0.76452029741E+02 0.  0.
         25    2    1    2    0    0 -0.88099138583E+02  0.21637568207E+02  0.10496181461E+03  0.18679825672E+03  0.12508782359E+03 0.  0.
         24    2    1    2    0    0  0.24507132193E+01 -0.36325604097E+02  0.62463642005E+03  0.63070333623E+03  0.79312581368E+02 0.  0.
        -11    1    5    5    0    0 -0.16198478786E+02  0.16338216294E+02  0.81011059628E+02  0.84214724417E+02  0.00000000000E+00 0.  1.
         12    1    5    5    0    0  0.18649192005E+02 -0.52663820391E+02  0.54362536043E+03  0.54648861181E+03  0.00000000000E+00 0. -1.
         13    1    3    3    0    0  0.79949531079E+00 -0.22774338814E+02 -0.93494332071E+02  0.96231490847E+02  0.00000000000E+00 0. -1.
        -14    1    3    3    0    0  0.84848930052E+02  0.37462374704E+02 -0.44328102758E+03  0.45288060222E+03  0.00000000000E+00 0.  1.
          5    1    4    4  501    0  0.26899959678E+01 -0.42413663950E+02  0.36862368445E+02  0.56413310268E+02  0.41800000000E+01 0.  1.
         -5    1    4    4    0  501 -0.90789134550E+02  0.64051232157E+02  0.68099446160E+02  0.13038494645E+03  0.41800000000E+01 0.  1.
</event>
<event>
11    1  0.8974665E-009  0.3649758E+03  0.7561462E-02  0.9759154E-01
         22   -1    0    0    0    0  0.00000000000E+00  0.00000000000E+00  0.28677434476E+03  0.28677434476E+03  0.00000000000E+00 0. -1.
         22   -1    0    0    0    0 -0.00000000000E+00 -0.00000000000E+00 -0.16513133682E+04  0.16513133682E+04  0.00000000000E+00 0.  1.
        -24    2    1    2    0    0 -0.40848537450E+02 -0.34562062307E+03 -0.13786524900E+04  0.14240983516E+04  0.79064584813E+02 0.  0.
         25    2    1    2    0    0  0.16672011342E+03  0.28186409406E+03  0.62653938860E+01  0.35061365773E+03  0.12509083935E+03 0.  0.
         24    2    1    2    0    0 -0.12587157597E+03  0.63756529011E+02  0.78480726927E+01  0.16337570366E+03  0.81984630715E+02 0.  0.
        -13    1    5    5    0    0 -0.84876946489E+02  0.62936938668E+02  0.38203161085E+02  0.11235940464E+03  0.00000000000E+00 0.  1.
         14    1    5    5    0    0 -0.40994629482E+02  0.81959034292E+00 -0.30355088392E+02  0.51016299023E+02  0.00000000000E+00 0. -1.
         11    1    3    3    0    0  0.23092361776E+02 -0.72559697905E+02 -0.27108116917E+03  0.28157266773E+03  0.00000000000E+00 0. -1.
        -12    1    3    3    0    0 -0.63940899226E+02 -0.27306092516E+03 -0.11075713209E+04  0.11425256838E+04  0.00000000000E+00 0.  1.
          5    1    4    4  501    0  0.33121302110E+02  0.14520837604E+02  0.34795687301E+02  0.50359583327E+02  0.41800000000E+01 0.  1.
         -5    1    4    4    0  501  0.13359881131E+03  0.26734325645E+03 -0.28530293415E+02  0.30025407440E+03  0.41800000000E+01 0.  1.
</event>
<event>
11    1  0.8974665E-009  0.1652500E+03  0.7561462E-02  0.1082241E+00
         22   -1    0    0    0    0  0.00000000000E+00  0.00000000000E+00  0.33155370310E+03  0.33155370310E+03  0.00000000000E+00 0.  1.
         22   -1    0    0    0    0 -0.00000000000E+00 -0.00000000000E+00 -0.66410380722E+03  0.66410380722E+03  0.00000000000E+00 0.  1.
        -24    2    1    2    0    0  0.31709117494E+02  0.60777578411E+02 -0.57527806398E+03  0.58471148053E+03  0.79014444224E+02 0.  0.
         25    2    1    2    0    0  0.32109672564E+02  0.48388354202E+02  0.15995559290E+02  0.13883542089E+03  0.12508777831E+03 0.  0.
         24    2    1    2    0    0 -0.63818790057E+02 -0.10916593261E+03  0.22673240057E+03  0.27211060889E+03  0.81526457035E+02 0.  0.
        -11    1    5    5    0    0 -0.34079854870E+02 -0.10399785240E+03  0.21186920490E+03  0.23846498652E+03  0.00000000000E+00 0.  1.
         12    1    5    5    0    0 -0.29738935187E+02 -0.51680802129E+01  0.14863195665E+02  0.33645622368E+02  0.00000000000E+00 0. -1.
         11    1    3    3    0    0  0.14779395108E+02  0.15083442888E+02 -0.27025028891E+02  0.34297127513E+02  0.00000000000E+00 0. -1.
        -12    1    3    3    0    0  0.16929722386E+02  0.45694135523E+02 -0.54825303509E+03  0.55041435301E+03  0.00000000000E+00 0.  1.
          5    1    4    4  501    0 -0.20197760567E+02  0.73973546524E+02  0.22681033031E+02  0.80074570099E+02  0.41800000000E+01 0. -1.
         -5    1    4    4    0  501  0.52307433130E+02 -0.25585192321E+02 -0.66854737403E+01  0.58760850793E+02  0.41800000000E+01 0. -1.
</event>
<event>
11    1  0.8974665E-009  0.2191963E+03  0.7561462E-02  0.1041722E+00
         22   -1    0    0    0    0  0.00000000000E+00  0.00000000000E+00  0.12296006822E+03  0.12296006822E+03  0.00000000000E+00 0. -1.
         22   -1    0    0    0    0 -0.00000000000E+00 -0.00000000000E+00 -0.17351123949E+04  0.17351123949E+04  0.00000000000E+00 0.  1.
         24    2    1    2    0    0 -0.32415910078E+01  0.90475831826E+01 -0.13501240905E+04  0.13526585063E+04  0.82204672945E+02 0.  0.
         25    2    1    2    0    0  0.13490290229E+02  0.17380038722E+03 -0.20113218888E+03  0.29409138427E+03  0.12508805847E+03 0.  0.
        -24    2    1    2    0    0 -0.10248699221E+02 -0.18284797040E+03 -0.60896047364E+02  0.21132257261E+03  0.86084173902E+02 0.  0.
        -13    1    3    3    0    0  0.15046928884E+02  0.39268735588E+02 -0.96560804377E+03  0.96652332504E+03  0.00000000000E+00 0.  1.
         14    1    3    3    0    0 -0.18288519892E+02 -0.30221152405E+02 -0.38451604669E+03  0.38613518122E+03  0.00000000000E+00 0. -1.
         11    1    5    5    0    0 -0.15621943166E+02 -0.17800370537E+03 -0.76306186786E+02  0.19429873488E+03  0.00000000000E+00 0. -1.
        -12    1    5    5    0    0  0.53732439448E+01 -0.48442650286E+01  0.15410139422E+02  0.17023837733E+02  0.00000000000E+00 0.  1.
          5    1    4    4  501    0  0.62350127623E+01  0.47998092934E+02 -0.15063319865E+03  0.15827357722E+03  0.41800000000E+01 0.  1.
         -5    1    4    4    0  501  0.72552774668E+01  0.12580229428E+03 -0.50498990226E+02  0.13581780705E+03  0.41800000000E+01 0.  1.
</event>
<event>
11    1  0.8974665E-009  0.1783896E+03  0.7561462E-02  0.1070953E+00
         22   -1    0    0    0    0  0.00000000000E+00  0.00000000000E+00  0.56379676857E+03  0.56379676857E+03  0.00000000000E+00 0. -1.
         22   -1    0    0    0    0 -0.00000000000E+00 -0.00000000000E+00 -0.99600425477E+03  0.99600425477E+03  0.00000000000E+00 0. -1.
        -24    2    1    2    0    0  0.45806605123E+01  0.12661544157E+03 -0.94134933321E+03  0.95321504883E+03  0.80174245823E+02 0.  0.
         25    2    1    2    0    0  0.97317517817E+00 -0.14400256858E+03  0.16372225086E+03  0.25137993223E+03  0.12509679481E+03 0.  0.
         24    2    1    2    0    0 -0.55538356905E+01  0.17387127013E+02  0.34541959615E+03  0.35520604228E+03  0.80768049336E+02 0.  0.
        -11    1    5    5    0    0  0.31811535840E+02  0.96772458065E+01  0.74116945843E+02  0.81233888003E+02  0.00000000000E+00 0.  1.
         12    1    5    5    0    0 -0.37365371530E+02  0.77098812066E+01  0.27130265031E+03  0.27397215428E+03  0.00000000000E+00 0. -1.
         11    1    3    3    0    0  0.27873685285E+02  0.23461584065E+02 -0.39843526034E+03  0.40009754428E+03  0.00000000000E+00 0. -1.
        -12    1    3    3    0    0 -0.23293024773E+02  0.10315385750E+03 -0.54291407287E+03  0.55311750455E+03  0.00000000000E+00 0.  1.
          5    1    4    4  501    0 -0.54637856376E+02 -0.92530519127E+02  0.60906672945E+02  0.12358918856E+03  0.41800000000E+01 0. -1.
         -5    1    4    4    0  501  0.55611031554E+02 -0.51472049454E+02  0.10281557792E+03  0.12779074367E+03  0.41800000000E+01 0. -1.
</event>
<event>
11    1  0.8974665E-009  0.1414308E+03  0.7561462E-02  0.1105971E+00
         22   -1    0    0    0    0  0.00000000000E+00  0.00000000000E+00  0.83351508901E+03  0.83351508901E+03  0.00000000000E+00 0.  1.
         22   -1    0    0    0    0 -0.00000000000E+00 -0.00000000000E+00 -0.12794235792E+04  0.12794235792E+04  0.00000000000E+00 0. -1.
         24    2    1    2    0    0  0.67703558195E+01 -0.11141365631E+02 -0.12415912813E+04  0.12442390016E+04  0.80073812284E+02 0.  0.
         25    2    1    2    0    0  0.56510152325E+02  0.30986947163E+02  0.11987640179E+03  0.18485650587E+03  0.12509191758E+03 0.  0.
        -24    2    1    2    0    0 -0.63280508145E+02 -0.19845581532E+02  0.67580638936E+03  0.68384316076E+03  0.80801749962E+02 0.  0.
        -13    1    3    3    0    0  0.29197530787E+02  0.21935581245E+02 -0.38864138157E+03  0.39035341551E+03  0.00000000000E+00 0.  1.
         14    1    3    3    0    0 -0.22427174967E+02 -0.33076946876E+02 -0.85294989978E+03  0.85388558608E+03  0.00000000000E+00 0. -1.
         11    1    5    5    0    0 -0.26316985265E+02  0.12145262088E+02  0.66042060423E+02  0.72122429587E+02  0.00000000000E+00 0. -1.
        -12    1    5    5    0    0 -0.36963522880E+02 -0.31990843619E+02  0.60976432894E+03  0.61172073117E+03  0.00000000000E+00 0.  1.
          5    1    4    4  501    0  0.43792393206E+02 -0.32024995463E+02  0.10571934150E+03  0.11890090666E+03  0.41800000000E+01 0. -1.
         -5    1    4    4    0  501  0.12717759119E+02  0.63011942626E+02  0.14157060292E+02  0.65955599206E+02  0.41800000000E+01 0. -1.
</event>
<event>
11    1  0.8974665E-009  0.1752352E+03  0.7561462E-02  0.1073564E+00
         22   -1    0    0    0    0  0.00000000000E+00  0.00000000000E+00  0.15292350195E+03  0.15292350195E+03  0.00000000000E+00 0. -1.
         22   -1    0    0    0    0 -0.00000000000E+00 -0.00000000000E+00 -0.10808744452E+04  0.10808744452E+04  0.00000000000E+00 0.  1.
         24    2    1    2    0    0 -0.61643678226E+02  0.93148502587E+02 -0.56323409843E+03  0.57969161160E+03  0.79580954551E+02 0.  0.
         25    2    1    2    0    0  0.69444821824E+02 -0.13162458157E+03 -0.47442566548E+03  0.51271323618E+03  0.12509011446E+03 0.  0.
        -24    2    1    2    0    0 -0.78011435983E+01  0.38476078982E+02  0.10970882068E+03  0.14139309935E+03  0.80091926633E+02 0.  0.
        -13    1    3    3    0    0 -0.50186729626E+02  0.77653961780E+02 -0.54620444165E+03  0.55397485294E+03  0.00000000000E+00 0.  1.
         14    1    3    3    0    0 -0.11456948600E+02  0.15494540807E+02 -0.17029656779E+02  0.25716758661E+02  0.00000000000E+00 0. -1.
         13    1    5    5    0    0  0.83048242262E+01  0.57684854186E+02  0.97309002235E+02  0.11342642736E+03  0.00000000000E+00 0. -1.
        -14    1    5    5    0    0 -0.16105967825E+02 -0.19208775204E+02  0.12399818449E+02  0.27966671986E+02  0.00000000000E+00 0.  1.
          5    1    4    4  501    0 -0.24199598583E+02 -0.24470940331E+02 -0.29356279086E+02  0.45428086181E+02  0.41800000000E+01 0. -1.
         -5    1    4    4    0  501  0.93644420407E+02 -0.10715364124E+03 -0.44506938640E+03  0.46728515000E+03  0.41800000000E+01 0. -1.
</event>
<event>
11    1  0.8974665E-009  0.1372570E+03  0.7561462E-02  0.1110661E+00
         22   -1    0    0    0    0  0.00000000000E+00  0.00000000000E+00  0.26029626143E+03  0.26029626143E+03  0.00000000000E+00 0.  1.
         22   -1    0    0    0    0 -0.00000000000E+00 -0.00000000000E+00 -0.17694831659E+04  0.17694831659E+04  0.00000000000E+00 0.  1.
        -24    2    1    2    0    0  0.12280187898E+02 -0.41709819403E+02 -0.16424401211E+04  0.16446778242E+04  0.73926192003E+02 0.  0.
         25    2    1    2    0    0  0.26016176932E+01  0.92875111168E+02 -0.62009677673E+02  0.16769029856E+03  0.12506910657E+03 0.  0.
         24    2    1    2    0    0 -0.14881805591E+02 -0.51165291765E+02  0.19526289428E+03  0.21741130462E+03  0.79377089097E+02 0.  0.
        -11    1    5    5    0    0 -0.79715171941E+01 -0.64669550973E+02  0.19076914918E+03  0.20159008951E+03  0.00000000000E+00 0.  1.
         12    1    5    5    0    0 -0.69102883967E+01  0.13504259209E+02  0.44937451022E+01  0.15821215109E+02  0.00000000000E+00 0. -1.
         11    1    3    3    0    0 -0.20330773057E+02  0.11468877893E+02 -0.42503088718E+03  0.42567138799E+03  0.00000000000E+00 0. -1.
        -12    1    3    3    0    0  0.32610960955E+02 -0.53178697296E+02 -0.12174092339E+04  0.12190064362E+04  0.00000000000E+00 0.  1.
          5    1    4    4  501    0 -0.18900063396E+02  0.11139501961E+03 -0.75537797543E+02  0.13597607895E+03  0.41800000000E+01 0. -1.
         -5    1    4    4    0  501  0.21501681089E+02 -0.18519908441E+02  0.13528119871E+02  0.31714219611E+02  0.41800000000E+01 0. -1.
</event>
<event>
11    1  0.8974665E-009  0.1510923E+03  0.7561462E-02  0.1095768E+00
         22   -1    0    0    0    0  0.00000000000E+00  0.00000000000E+00  0.19021289445E+04  0.19021289445E+04  0.00000000000E+00 0.  1.
         22   -1    0    0    0    0 -0.00000000000E+00 -0.00000000000E+00 -0.50539489970E+03  0.50539489970E+03  0.00000000000E+00 0.  1.
        -24    2    1    2    0    0 -0.64868346964E+02  0.61223423658E+02 -0.42806641348E+03  0.44452371242E+03  0.80026661268E+02 0.  0.
         25    2    1    2    0    0  0.57656510980E+02 -0.61310769335E+01  0.23199307672E+01  0.13788681786E+03  0.12508208943E+03 0.  0.
         24    2    1    2    0    0  0.72118359839E+01 -0.55092346724E+02  0.18224805275E+04  0.18251133139E+04  0.80722724336E+02 0.  0.
        -11    1    5    5    0    0  0.19753892451E+01 -0.72045167931E+02  0.16780451066E+04  0.16795921494E+04  0.00000000000E+00 0.  1.
         12    1    5    5    0    0  0.52364467388E+01  0.16952821207E+02  0.14443542085E+03  0.14552116450E+03  0.00000000000E+00 0. -1.
         13    1    3    3    0    0 -0.64074121913E+02  0.37104071840E+02 -0.17118726785E+03  0.18651350063E+03  0.00000000000E+00 0. -1.
        -14    1    3    3    0    0 -0.79422505113E+00  0.24119351817E+02 -0.25687914563E+03  0.25801021179E+03  0.00000000000E+00 0.  1.
          5    1    4    4  501    0  0.15532327494E+02  0.34903126583E+02 -0.47218768064E+02  0.60881572747E+02  0.41800000000E+01 0. -1.
         -5    1    4    4    0  501  0.42124183486E+02 -0.41034203516E+02  0.49538698831E+02  0.77005245110E+02  0.41800000000E+01 0. -1.
</event>
<event>
11    1  0.8974665E-009  0.1337187E+03  0.7561462E-02  0.1114782E+00
         22   -1    0    0    0    0  0.00000000000E+00  0.00000000000E+00  0.21394122062E+03  0.21394122062E+03  0.00000000000E+00 0.  1.
         22   -1    0    0    0    0 -0.00000000000E+00 -0.00000000000E+00 -0.44857887956E+03  0.44857887956E+03  0.00000000000E+00 0. -1.
         24    2    1    2    0    0  0.28475093738E+02  0.30148463917E+02 -0.34501719273E+03  0.35580784308E+03  0.76436882973E+02 0.  0.
         25    2    1    2    0    0  0.13862333486E+01 -0.65411389792E+02 -0.24634249553E+02  0.14330178630E+03  0.12509190281E+03 0.  0.
        -24    2    1    2    0    0 -0.29861327087E+02  0.35262925875E+02  0.13501378334E+03  0.16341047079E+03  0.79618386549E+02 0.  0.
        -13    1    3    3    0    0  0.21201290632E+02  0.54204102800E+02 -0.18835004610E+03  0.19713781816E+03  0.00000000000E+00 0.  1.
         14    1    3    3    0    0  0.72738031063E+01 -0.24055638883E+02 -0.15666714663E+03  0.15867002492E+03  0.00000000000E+00 0. -1.
         13    1    5    5    0    0  0.10585176573E+00 -0.73293730701E+01 -0.82136852220E+01  0.11008884554E+02  0.00000000000E+00 0. -1.
        -14    1    5    5    0    0 -0.29967178853E+02  0.42592298945E+02  0.14322746856E+03  0.15240158624E+03  0.00000000000E+00 0.  1.
          5    1    4    4  501    0  0.57346085679E+02 -0.26472593162E+02 -0.37821429067E+02  0.73738081261E+02  0.41800000000E+01 0. -1.
         -5    1    4    4    0  501 -0.55959852331E+02 -0.38938796630E+02  0.13187179513E+02  0.69563705043E+02  0.41800000000E+01 0. -1.
</event>
<event>
11    1  0.8974665E-009  0.1449466E+03  0.7561462E-02  0.1102157E+00
         22   -1    0    0    0    0  0.00000000000E+00  0.00000000000E+00  0.10946724666E+04  0.10946724666E+04  0.00000000000E+00 0. -1.
         22   -1    0    0    0    0 -0.00000000000E+00 -0.00000000000E+00 -0.31605599281E+03  0.31605599281E+03  0.00000000000E+00 0.  1.
        -24    2    1    2    0    0 -0.71808111955E+02  0.11878376391E+02 -0.29147812354E+03  0.31118883905E+03  0.81126421578E+02 0.  0.
         25    2    1    2    0    0  0.96991310392E+02 -0.29474663691E+02  0.58348048632E+03  0.60528629217E+03  0.12508376188E+03 0.  0.
         24    2    1    2    0    0 -0.25183198437E+02  0.17596287300E+02  0.48661411099E+03  0.49425332817E+03  0.80927353750E+02 0.  0.
        -13    1    5    5    0    0  0.28442781646E+02  0.54904618118E+01  0.11487390219E+03  0.11847004011E+03  0.00000000000E+00 0.  1.
         14    1    5    5    0    0 -0.53625980083E+02  0.12105825488E+02  0.37174020879E+03  0.37578328806E+03  0.00000000000E+00 0. -1.
         13    1    3    3    0    0 -0.56984009178E+02  0.16765943213E+02 -0.82663276145E+02  0.10179141112E+03  0.00000000000E+00 0. -1.
        -14    1    3    3    0    0 -0.14824102777E+02 -0.48875668224E+01 -0.20881484740E+03  0.20939742794E+03  0.00000000000E+00 0.  1.
          5    1    4    4  501    0  0.12190442375E+03 -0.25939164698E+02  0.54524218939E+03  0.55932105833E+03  0.41800000000E+01 0.  1.
         -5    1    4    4    0  501 -0.24913113361E+02 -0.35354989932E+01  0.38238296924E+02  0.45965233841E+02  0.41800000000E+01 0.  1.
</event>
<event>
11    1  0.8974665E-009  0.1661070E+03  0.7561462E-02  0.1081470E+00
         22   -1    0    0    0    0  0.00000000000E+00  0.00000000000E+00  0.47077638519E+03  0.47077638519E+03  0.00000000000E+00 0.  1.
         22   -1    0    0    0    0 -0.00000000000E+00 -0.00000000000E+00 -0.28666547577E+04  0.28666547577E+04  0.00000000000E+00 0.  1.
         24    2    1    2    0    0 -0.16957261426E+02  0.11527528801E+02 -0.27112891817E+04  0.27127543187E+04  0.86755601525E+02 0.  0.
         25    2    1    2    0    0  0.66541206630E+02 -0.10745104951E+03 -0.88314034763E+02  0.19854517828E+03  0.12508940347E+03 0.  0.
        -24    2    1    2    0    0 -0.49583945204E+02  0.95923520706E+02  0.40372484401E+03  0.42613164581E+03  0.83273888146E+02 0.  0.
        -11    1    3    3    0    0 -0.25858633227E+02  0.23219827563E+02 -0.26244826354E+04  0.26247127333E+04  0.00000000000E+00 0.  1.
         12    1    3    3    0    0  0.89013718009E+01 -0.11692298761E+02 -0.86806546359E+02  0.88041585407E+02  0.00000000000E+00 0. -1.
         13    1    5    5    0    0  0.12919564156E+02  0.26156666519E+02  0.34358851145E+02  0.45073462185E+02  0.00000000000E+00 0. -1.
        -14    1    5    5    0    0 -0.62503509360E+02  0.69766854187E+02  0.36936599287E+03  0.38105818363E+03  0.00000000000E+00 0.  1.
          5    1    4    4  501    0  0.57228196061E+02 -0.78756770725E+02  0.77674397136E+01  0.97752242322E+02  0.41800000000E+01 0.  1.
         -5    1    4    4    0  501  0.93130105692E+01 -0.28694278783E+02 -0.96081474477E+02  0.10079293595E+03  0.41800000000E+01 0.  1.
</event>
<event>
11    1  0.8974665E-009  0.1882494E+03  0.7561462E-02  0.1063159E+00
         22   -1    0    0    0    0  0.00000000000E+00  0.00000000000E+00  0.33522429895E+03  0.33522429895E+03  0.00000000000E+00 0. -1.
         22   -1    0    0    0    0 -0.00000000000E+00 -0.00000000000E+00 -0.97807689340E+03  0.97807689340E+03  0.00000000000E+00 0.  1.
        -24    2    1    2    0    0 -0.10696987400E+03 -0.91671565698E+02 -0.74610877414E+03  0.76357736225E+03  0.80782766668E+02 0.  0.
         25    2    1    2    0    0  0.85794041951E+02  0.11382187850E+03 -0.17522536579E+03  0.25819521290E+03  0.12507918088E+03 0.  0.
         24    2    1    2    0    0  0.21175832051E+02 -0.22150312800E+02  0.27848154547E+03  0.29152861721E+03  0.80609622634E+02 0.  0.
        -13    1    5    5    0    0  0.46764522471E+02 -0.32707522835E+02  0.16051052325E+03  0.17035354615E+03  0.00000000000E+00 0.  1.
         14    1    5    5    0    0 -0.25588690421E+02  0.10557210035E+02  0.11797102223E+03  0.12117507106E+03  0.00000000000E+00 0. -1.
         13    1    3    3    0    0 -0.38939781232E+02 -0.29259435842E+02 -0.10370782326E+03  0.11457632283E+03  0.00000000000E+00 0. -1.
        -14    1    3    3    0    0 -0.68030092769E+02 -0.62412129855E+02 -0.64240095088E+03  0.64900103941E+03  0.00000000000E+00 0.  1.
          5    1    4    4  501    0  0.50392772949E+02  0.78237548211E+02 -0.20373594060E+02  0.95357754014E+02  0.41800000000E+01 0. -1.
         -5    1    4    4    0  501  0.35401269002E+02  0.35584330286E+02 -0.15485177173E+03  0.16283745888E+03  0.41800000000E+01 0. -1.
</event>
<event>
11    1  0.8974665E-009  0.1734776E+03  0.7561462E-02  0.1075044E+00
         22   -1    0    0    0    0  0.00000000000E+00  0.00000000000E+00  0.33520466585E+03  0.33520466585E+03  0.00000000000E+00 0.  1.
         22   -1    0    0    0    0 -0.00000000000E+00 -0.00000000000E+00 -0.80917251008E+03  0.80917251008E+03  0.00000000000E+00 0. -1.
        -24    2    1    2    0    0  0.38331984335E+02 -0.10333447613E+03 -0.33353853865E+03  0.35991216830E+03  0.78367449538E+02 0.  0.
         25    2    1    2    0    0 -0.42741422843E+02  0.12717259841E+03 -0.43841233801E+03  0.47523987591E+03  0.12509141664E+03 0.  0.
         24    2    1    2    0    0  0.44094385081E+01 -0.23838122281E+02  0.29798303243E+03  0.30922513173E+03  0.78984778644E+02 0.  0.
        -11    1    5    5    0    0 -0.30774509762E+02 -0.30665992683E+02  0.11884528507E+03  0.12653724883E+03  0.00000000000E+00 0.  1.
         12    1    5    5    0    0  0.35183948270E+02  0.68278704026E+01  0.17913774736E+03  0.18268788290E+03  0.00000000000E+00 0. -1.
         13    1    3    3    0    0  0.44241090903E+02 -0.11415375763E+03 -0.31086648904E+03  0.33410526562E+03  0.00000000000E+00 0. -1.
        -14    1    3    3    0    0 -0.59091065682E+01  0.10819281501E+02 -0.22672049604E+02  0.25806902679E+02  0.00000000000E+00 0.  1.
          5    1    4    4  501    0 -0.59721079183E+02  0.42558433009E+02 -0.89467898146E+02  0.11575752553E+03  0.41800000000E+01 0. -1.
         -5    1    4    4    0  501  0.16979656340E+02  0.84614165398E+02 -0.34894443987E+03  0.35948235037E+03  0.41800000000E+01 0. -1.
</event>
<event>
11    1  0.8974665E-009  0.1485803E+03  0.7561462E-02  0.1098338E+00
         22   -1    0    0    0    0  0.00000000000E+00  0.00000000000E+00  0.13649774498E+03  0.13649774498E+03  0.00000000000E+00 0. -1.
         22   -1    0    0    0    0 -0.00000000000E+00 -0.00000000000E+00 -0.58793047843E+03  0.58793047843E+03  0.00000000000E+00 0. -1.
         24    2    1    2    0    0 -0.32939035921E+01  0.55001739004E+02 -0.36931556778E+03  0.38198160128E+03  0.80497913122E+02 0.  0.
         25    2    1    2    0    0  0.82432115281E+02 -0.55399086856E+02 -0.14267958550E+03  0.21416650532E+03  0.12508283428E+03 0.  0.
        -24    2    1    2    0    0 -0.79138211689E+02  0.39734785175E+00  0.60562419829E+02  0.12828011680E+03  0.80777269298E+02 0.  0.
        -13    1    3    3    0    0 -0.43351243881E+01 -0.15814696856E+02 -0.21561140533E+02  0.27088387202E+02  0.00000000000E+00 0.  1.
         14    1    3    3    0    0  0.10412207961E+01  0.70816435860E+02 -0.34775442725E+03  0.35489321408E+03  0.00000000000E+00 0. -1.
         13    1    5    5    0    0 -0.57345875652E+02 -0.37670038139E+02  0.30389426734E+02  0.75040645553E+02  0.00000000000E+00 0. -1.
        -14    1    5    5    0    0 -0.21792336036E+02  0.38067385991E+02  0.30172993095E+02  0.53239471244E+02  0.00000000000E+00 0.  1.
          5    1    4    4  501    0 -0.40147958645E+01  0.32294981071E+02 -0.50779892911E+02  0.60457872210E+02  0.41800000000E+01 0. -1.
         -5    1    4    4    0  501  0.86446911145E+02 -0.87694067926E+02 -0.91899692587E+02  0.15370863311E+03  0.41800000000E+01 0. -1.
</event>
<event>
11    1  0.8974665E-009  0.1703548E+03  0.7561462E-02  0.1077723E+00
         22   -1    0    0    0    0  0.00000000000E+00  0.00000000000E+00  0.29473998377E+03  0.29473998377E+03  0.00000000000E+00 0.  1.
         22   -1    0    0    0    0 -0.00000000000E+00 -0.00000000000E+00 -0.78396507149E+03  0.78396507149E+03  0.00000000000E+00 0.  1.
         24    2    1    2    0    0  0.18623646974E+02 -0.13291949718E+03 -0.52541043098E+03  0.54834638840E+03  0.81321631359E+02 0.  0.
         25    2    1    2    0    0 -0.77860847030E+02  0.55774617533E+02 -0.20477280348E+03  0.25835483366E+03  0.12506877936E+03 0.  0.
        -24    2    1    2    0    0  0.59237200056E+02  0.77144879643E+02  0.24095814674E+03  0.27200383320E+03  0.80404467967E+02 0.  0.
        -11    1    3    3    0    0  0.37672308744E+02 -0.99296686523E+02 -0.46232103881E+03  0.47436249613E+03  0.00000000000E+00 0.  1.
         12    1    3    3    0    0 -0.19048661771E+02 -0.33622810653E+02 -0.63089392169E+02  0.73983892272E+02  0.00000000000E+00 0. -1.
         11    1    5    5    0    0  0.92830450761E+01 -0.16497907145E+02  0.51105066784E+02  0.54498474447E+02  0.00000000000E+00 0. -1.
        -12    1    5    5    0    0  0.49954154980E+02  0.93642786788E+02  0.18985307996E+03  0.21750535875E+03  0.00000000000E+00 0.  1.
          5    1    4    4  501    0 -0.66370521400E+02  0.91715795121E+02 -0.11768835786E+03  0.16335499736E+03  0.41800000000E+01 0.  1.
         -5    1    4    4    0  501 -0.11490325630E+02 -0.35941177588E+02 -0.87084445618E+02  0.94999836305E+02  0.41800000000E+01 0.  1.
</event>
<event>
11    1  0.8974665E-009  0.1576340E+03  0.7561462E-02  0.1089324E+00
         22   -1    0    0    0    0  0.00000000000E+00  0.00000000000E+00  0.76918725610E+03  0.76918725610E+03  0.00000000000E+00 0.  1.
         22   -1    0    0    0    0 -0.00000000000E+00 -0.00000000000E+00 -0.79609184028E+03  0.79609184028E+03  0.00000000000E+00 0.  1.
         24    2    1    2    0    0 -0.27097778208E+02  0.56187897788E+02 -0.73639828101E+03  0.74326851764E+03  0.79210426052E+02 0.  0.
         25    2    1    2    0    0  0.11605042112E+03 -0.73110690152E+02  0.12914848836E+03  0.22614193885E+03  0.12509185107E+03 0.  0.
        -24    2    1    2    0    0 -0.88952642915E+02  0.16922792363E+02  0.58034520847E+03  0.59586863989E+03  0.10029915963E+03 0.  0.
        -13    1    3    3    0    0 -0.32023603611E+02  0.58953807669E+02 -0.32602578129E+03  0.33285713556E+03  0.00000000000E+00 0.  1.
         14    1    3    3    0    0  0.49258254030E+01 -0.27659098804E+01 -0.41037249972E+03  0.41041138208E+03  0.00000000000E+00 0. -1.
         13    1    5    5    0    0 -0.52650646604E+02 -0.11202417135E+02  0.10207516984E+03  0.11539898195E+03  0.00000000000E+00 0. -1.
        -14    1    5    5    0    0 -0.36301996311E+02  0.28125209498E+02  0.47827003863E+03  0.48046965794E+03  0.00000000000E+00 0.  1.
          5    1    4    4  501    0  0.92101657961E+02 -0.82277229076E+02  0.14890617090E+03  0.19350136422E+03  0.41800000000E+01 0. -1.
         -5    1    4    4    0  501  0.23948763161E+02  0.91665389247E+01 -0.19757682540E+02  0.32640574630E+02  0.41800000000E+01 0. -1.
</event>
<event>
11    1  0.8974665E-009  0.1502419E+03  0.7561462E-02  0.1096632E+00
         22   -1    0    0    0    0  0.00000000000E+00  0.00000000000E+00  0.17573760916E+04  0.17573760916E+04  0.00000000000E+00 0. -1.
         22   -1    0    0    0    0 -0.00000000000E+00 -0.00000000000E+00 -0.80679404077E+02  0.80679404077E+02  0.00000000000E+00 0. -1.
        -24    2    1    2    0    0 -0.90894337408E+01  0.33935541683E+02 -0.40412999878E+02  0.98835182889E+02  0.83071920782E+02 0.  0.
         25    2    1    2    0    0 -0.51660760829E+02  0.45688910143E+02  0.97787438619E+03  0.98825237626E+03  0.12509249893E+03 0.  0.
         24    2    1    2    0    0  0.60750194569E+02 -0.79624451826E+02  0.73923530122E+03  0.75096793655E+03  0.86332911895E+02 0.  0.
        -11    1    5    5    0    0  0.37727436004E+02 -0.89204326672E+02  0.43209204703E+03  0.44281407885E+03  0.00000000000E+00 0.  1.
         12    1    5    5    0    0  0.23022758566E+02  0.95798748458E+01  0.30714325420E+03  0.30815385770E+03  0.00000000000E+00 0. -1.
         13    1    3    3    0    0 -0.48211464950E+01  0.18977429927E+02 -0.66026324365E+02  0.68868438412E+02  0.00000000000E+00 0. -1.
        -14    1    3    3    0    0 -0.42682872457E+01  0.14958111755E+02  0.25613324486E+02  0.29966744477E+02  0.00000000000E+00 0.  1.
          5    1    4    4  501    0  0.27268011373E+02 -0.14859003734E+02  0.44869937513E+03  0.44979210317E+03  0.41800000000E+01 0. -1.
         -5    1    4    4    0  501 -0.78928772202E+02  0.60547913877E+02  0.52917501106E+03  0.53846027308E+03  0.41800000000E+01 0. -1.
</event>
<event>
11    1  0.8974665E-009  0.1356290E+03  0.7561462E-02  0.1112540E+00
         22   -1    0    0    0    0  0.00000000000E+00  0.00000000000E+00  0.27888423832E+02  0.27888423832E+02  0.00000000000E+00 0.  1.
         22   -1    0    0    0    0 -0.00000000000E+00 -0.00000000000E+00 -0.16850432982E+04  0.16850432982E+04  0.00000000000E+00 0. -1.
         24    2    1    2    0    0  0.21270926460E+02 -0.13880421769E+01 -0.10774782631E+04  0.10806637254E+04  0.80126781242E+02 0.  0.
         25    2    1    2    0    0  0.21102608522E+02 -0.35484924703E+02 -0.45915422110E+03  0.47767794875E+03  0.12509645879E+03 0.  0.
        -24    2    1    2    0    0 -0.42373534982E+02  0.36872966880E+02 -0.12052239016E+03  0.15459004782E+03  0.78849883974E+02 0.  0.
        -13    1    3    3    0    0 -0.11357417661E+02 -0.90615312210E+00 -0.22871697754E+02  0.25552428604E+02  0.00000000000E+00 0.  1.
         14    1    3    3    0    0  0.32628344121E+02 -0.48188905478E+00 -0.10546065653E+04  0.10551112968E+04  0.00000000000E+00 0. -1.
         11    1    5    5    0    0 -0.21271318509E+01 -0.56673866406E+01 -0.86804405772E+02  0.87015221788E+02  0.00000000000E+00 0. -1.
        -12    1    5    5    0    0 -0.40246403131E+02  0.42540353521E+02 -0.33717984389E+02  0.67574826037E+02  0.00000000000E+00 0.  1.
          5    1    4    4  501    0 -0.79933121015E-01 -0.45350899895E+02 -0.49224288422E+02  0.67061266624E+02  0.41800000000E+01 0.  1.
         -5    1    4    4    0  501  0.21182541643E+02  0.98659751914E+01 -0.40992993268E+03  0.41061668213E+03  0.41800000000E+01 0.  1.
</event>
<event>
11    1  0.8974665E-009  0.1907463E+03  0.7561462E-02  0.1061267E+00
         22   -1    0    0    0    0  0.00000000000E+00  0.00000000000E+00  0.14497500428E+04  0.14497500428E+04  0.00000000000E+00 0.  1.
         22   -1    0    0    0    0 -0.00000000000E+00 -0.00000000000E+00 -0.88700622312E+03  0.88700622312E+03  0.00000000000E+00 0. -1.
         24    2    1    2    0    0 -0.53024942216E+02 -0.85667461317E+02 -0.85226561781E+03  0.86199798398E+03  0.80828724299E+02 0.  0.
         25    2    1    2    0    0  0.57185789281E+02 -0.77651395632E+02  0.25077812325E+03  0.29637405517E+03  0.12509180524E+03 0.  0.
        -24    2    1    2    0    0 -0.41608470651E+01  0.16331885695E+03  0.11642313142E+04  0.11783842267E+04  0.80401935103E+02 0.  0.
        -11    1    3    3    0    0 -0.52802398075E+01  0.55709402586E+01 -0.67103174389E+01  0.10195325788E+02  0.00000000000E+00 0.  1.
         12    1    3    3    0    0 -0.47744702408E+02 -0.91238401575E+02 -0.84555530037E+03  0.85180265820E+03  0.00000000000E+00 0. -1.
         11    1    5    5    0    0 -0.31482777682E+02  0.75826790828E+02  0.37710607459E+03  0.38594022722E+03  0.00000000000E+00 0. -1.
        -12    1    5    5    0    0  0.27321930617E+02  0.87492066121E+02  0.78712523961E+03  0.79244399951E+03  0.00000000000E+00 0.  1.
          5    1    4    4  501    0  0.12495728325E+02 -0.67297445308E+02  0.23925809690E+03  0.24889154004E+03  0.41800000000E+01 0.  1.
         -5    1    4    4    0  501  0.44690060956E+02 -0.10353950323E+02  0.11520026344E+02  0.47482515124E+02  0.41800000000E+01 0.  1.
</event>
<event>
11    1  0.8974665E-009  0.1418198E+03  0.7561462E-02  0.1105543E+00
         22   -1    0    0    0    0  0.00000000000E+00  0.00000000000E+00  0.72593146040E+03  0.72593146040E+03  0.00000000000E+00 0.  1.
         22   -1    0    0    0    0 -0.00000000000E+00 -0.00000000000E+00 -0.24191529211E+03  0.24191529211E+03  0.00000000000E+00 0. -1.
        -24    2    1    2    0    0  0.24491808345E+02 -0.11145727271E+02 -0.20496902939E+03  0.22307752440E+03  0.83828413846E+02 0.  0.
         25    2    1    2    0    0  0.85957172952E+01 -0.51804286269E+02  0.18569986294E+03  0.22997883530E+03  0.12509298606E+03 0.  0.
         24    2    1    2    0    0 -0.33087525640E+02  0.62950013540E+02  0.50328533475E+03  0.51479039281E+03  0.81581442763E+02 0.  0.
        -11    1    5    5    0    0  0.17826689501E+02  0.49916494595E+02  0.30944312736E+03  0.31394983097E+03  0.00000000000E+00 0.  1.
         12    1    5    5    0    0 -0.50914215141E+02  0.13033518945E+02  0.19384220738E+03  0.20084056184E+03  0.00000000000E+00 0. -1.
         13    1    3    3    0    0  0.75409999803E+01  0.36556024732E+02 -0.92050387096E+02  0.99330173610E+02  0.00000000000E+00 0. -1.
        -14    1    3    3    0    0  0.16950808364E+02 -0.47701752003E+02 -0.11291864230E+03  0.12374735079E+03  0.00000000000E+00 0.  1.
          5    1    4    4  501    0  0.23423077339E+02 -0.83347407421E+02  0.77658299201E+02  0.11637746651E+03  0.41800000000E+01 0.  1.
         -5    1    4    4    0  501 -0.14827360044E+02  0.31543121152E+02  0.10804156373E+03  0.11360136879E+03  0.41800000000E+01 0.  1.
</event>
<event>
11    1  0.8974665E-009  0.1352811E+03  0.7561462E-02  0.1112945E+00
         22   -1    0    0    0    0  0.00000000000E+00  0.00000000000E+00  0.63334335054E+03  0.63334335054E+03  0.00000000000E+00 0. -1.
         22   -1    0    0    0    0 -0.00000000000E+00 -0.00000000000E+00 -0.65944236836E+03  0.65944236836E+03  0.00000000000E+00 0. -1.
        -24    2    1    2    0    0  0.24958126900E+02 -0.25898788167E+01 -0.57560484852E+03  0.58184133345E+03  0.81171300935E+02 0.  0.
         25    2    1    2    0    0  0.19346062504E+02 -0.25757731989E+02 -0.22428671032E+02  0.13110773363E+03  0.12509381137E+03 0.  0.
         24    2    1    2    0    0 -0.44304189405E+02  0.28347610806E+02  0.57193450174E+03  0.57983665182E+03  0.79592840625E+02 0.  0.
        -11    1    5    5    0    0 -0.24118668660E+02  0.47708864050E+02  0.20561413591E+03  0.21245003830E+03  0.00000000000E+00 0.  1.
         12    1    5    5    0    0 -0.20185520744E+02 -0.19361253245E+02  0.36632036582E+03  0.36738661352E+03  0.00000000000E+00 0. -1.
         13    1    3    3    0    0  0.37360302224E+02 -0.31408662266E+02 -0.24939937357E+03  0.25413056445E+03  0.00000000000E+00 0. -1.
        -14    1    3    3    0    0 -0.12402175324E+02  0.28818783450E+02 -0.32620547495E+03  0.32771076900E+03  0.00000000000E+00 0.  1.
          5    1    4    4  501    0  0.20502109509E+02  0.15314197291E+02 -0.66097903756E+02  0.71001876130E+02  0.41800000000E+01 0.  1.
         -5    1    4    4    0  501 -0.11560470046E+01 -0.41071929280E+02  0.43669232724E+02  0.60105857503E+02  0.41800000000E+01 0.  1.
</event>
<event>
11    1  0.8974665E-009  0.1310090E+03  0.7561462E-02  0.1118035E+00
         22   -1    0    0    0    0  0.00000000000E+00  0.00000000000E+00  0.53592421793E+02  0.53592421793E+02  0.00000000000E+00 0.  1.
         22   -1    0    0    0    0 -0.00000000000E+00 -0.00000000000E+00 -0.10208181193E+04  0.10208181193E+04  0.00000000000E+00 0.  1.
        -24    2    1    2    0    0 -0.41274076464E+02  0.73519641627E+01 -0.65891729108E+03  0.66457638727E+03  0.75711143591E+02 0.  0.
         25    2    1    2    0    0  0.23781411971E+02 -0.91015250024E+01 -0.30050397850E+03  0.32649730843E+03  0.12509779377E+03 0.  0.
         24    2    1    2    0    0  0.17492664493E+02  0.17495608398E+01 -0.78044279261E+01  0.83336845395E+02  0.81086783331E+02 0.  0.
        -13    1    5    5    0    0 -0.28400746298E+01 -0.37715820466E+02  0.19867007412E+01  0.37874742470E+02  0.00000000000E+00 0.  1.
         14    1    5    5    0    0  0.20332739123E+02  0.39465381306E+02 -0.97911286673E+01  0.45462102926E+02  0.00000000000E+00 0. -1.
         13    1    3    3    0    0  0.98552881129E+01 -0.24410437425E+02 -0.20818190616E+03  0.20983970599E+03  0.00000000000E+00 0. -1.
        -14    1    3    3    0    0 -0.51129364577E+02  0.31762401588E+02 -0.45073538492E+03  0.45473668128E+03  0.00000000000E+00 0.  1.
          5    1    4    4  501    0  0.68575536676E+01  0.37351253273E+02 -0.23002527724E+02  0.44595188586E+02  0.41800000000E+01 0. -1.
         -5    1    4    4    0  501  0.16923858303E+02 -0.46452778275E+02 -0.27750145078E+03  0.28190211985E+03  0.41800000000E+01 0. -1.
</event>
<event>
11    1  0.8974665E-009  0.1353543E+03  0.7561462E-02  0.1112860E+00
         22   -1    0    0    0    0  0.00000000000E+00  0.00000000000E+00  0.72664912809E+03  0.72664912809E+03  0.00000000000E+00 0.  1.
         22   -1    0    0    0    0 -0.00000000000E+00 -0.00000000000E+00 -0.44445716522E+03  0.44445716522E+03  0.00000000000E+00 0. -1.
        -24    2    1    2    0    0 -0.51364441865E+02 -0.17933833931E+02 -0.34281342444E+03  0.35511068584E+03  0.74984177907E+02 0.  0.
         25    2    1    2    0    0  0.32455179360E+02  0.34624646099E+01 -0.47895611703E+02  0.13786941639E+03  0.12509460031E+03 0.  0.
         24    2    1    2    0    0  0.18909262505E+02  0.14471369321E+02  0.67290099901E+03  0.67812619108E+03  0.80575404605E+02 0.  0.
        -11    1    5    5    0    0 -0.36257749348E+01  0.41912477562E+02  0.49052165623E+03  0.49232235095E+03  0.00000000000E+00 0.  1.
         12    1    5    5    0    0  0.22535037440E+02 -0.27441108241E+02  0.18237934278E+03  0.18580384013E+03  0.00000000000E+00 0. -1.
         13    1    3    3    0    0 -0.36235303766E+02  0.93529450513E+01 -0.29894671038E+03  0.30127995364E+03  0.00000000000E+00 0. -1.
        -14    1    3    3    0    0 -0.15129138099E+02 -0.27286778982E+02 -0.43866714061E+02  0.53830732201E+02  0.00000000000E+00 0.  1.
          5    1    4    4  501    0  0.56960218128E+02 -0.45791108619E+02 -0.19190361576E+02  0.75677172616E+02  0.41800000000E+01 0. -1.
         -5    1    4    4    0  501 -0.24505038768E+02  0.49253573229E+02 -0.28705250127E+02  0.62192243774E+02  0.41800000000E+01 0. -1.
</event>
<event>
11    1  0.8974665E-009  0.1729384E+03  0.7561462E-02  0.1075502E+00
         22   -1    0    0    0    0  0.00000000000E+00  0.00000000000E+00  0.41917238516E+03  0.41917238516E+03  0.00000000000E+00 0. -1.
         22   -1    0    0    0    0 -0.00000000000E+00 -0.00000000000E+00 -0.63858614281E+03  0.63858614281E+03  0.00000000000E+00 0. -1.
        -24    2    1    2    0    0 -0.10674741889E+03 -0.93760237692E+02 -0.47673088875E+03  0.50398816872E+03  0.80905749502E+02 0.  0.
         25    2    1    2    0    0  0.12467130285E+02  0.69271084936E+02 -0.10031444610E+03  0.17511205602E+03  0.12508929419E+03 0.  0.
         24    2    1    2    0    0  0.94280288607E+02  0.24489152756E+02  0.35763157720E+03  0.37865830324E+03  0.77416239764E+02 0.  0.
        -11    1    5    5    0    0  0.31672389865E+01  0.27547823500E+02  0.13973095755E+03  0.14245579834E+03  0.00000000000E+00 0.  1.
         12    1    5    5    0    0  0.91113049620E+02 -0.30586707441E+01  0.21790061966E+03  0.23620250491E+03  0.00000000000E+00 0. -1.
         11    1    3    3    0    0 -0.10788983615E+03 -0.99339034078E+02 -0.38353564055E+03  0.41061910332E+03  0.00000000000E+00 0. -1.
        -12    1    3    3    0    0  0.11424172535E+01  0.55787963864E+01 -0.93195248200E+02  0.93369065399E+02  0.00000000000E+00 0.  1.
          5    1    4    4  501    0  0.26554263255E+02  0.75223557864E+02 -0.12346469441E+03  0.14705344511E+03  0.41800000000E+01 0. -1.
         -5    1    4    4    0  501 -0.14087132970E+02 -0.59524729285E+01  0.23150248306E+02  0.28058610905E+02  0.41800000000E+01 0. -1.
</event>
<event>
11    1  0.8974665E-009  0.1746413E+03  0.7561462E-02  0.1074062E+00
         22   -1    0    0    0    0  0.00000000000E+00  0.00000000000E+00  0.94508311479E+03  0.94508311479E+03  0.00000000000E+00 0. -1.
         22   -1    0    0    0    0 -0.00000000000E+00 -0.00000000000E+00 -0.24150252105E+03  0.24150252105E+03  0.00000000000E+00 0.  1.
        -24    2    1    2    0    0  0.25047465983E+01 -0.70816096390E+01 -0.14179586438E+03  0.16308753912E+03  0.80218796493E+02 0.  0.
         25    2    1    2    0    0  0.10659547355E+03  0.61282858566E+02  0.99470798717E+01  0.17567135278E+03  0.12507316280E+03 0.  0.
         24    2    1    2    0    0 -0.10910022015E+03 -0.54201248927E+02  0.83542937825E+03  0.84782674394E+03  0.77635741018E+02 0.  0.
        -13    1    5    5    0    0 -0.25889015032E+01 -0.13647438585E+02  0.30383382170E+03  0.30415118971E+03  0.00000000000E+00 0.  1.
         14    1    5    5    0    0 -0.10651131865E+03 -0.40553810341E+02  0.53159555655E+03  0.54367555423E+03  0.00000000000E+00 0. -1.
         13    1    3    3    0    0  0.25854563699E+01  0.32742640993E+02 -0.30274782581E+02  0.44669089806E+02  0.00000000000E+00 0. -1.
        -14    1    3    3    0    0 -0.80709771654E-01 -0.39824250632E+02 -0.11152108180E+03  0.11841844932E+03  0.00000000000E+00 0.  1.
          5    1    4    4  501    0  0.13439218385E+03  0.47298719421E+02  0.16848270617E+02  0.14352618075E+03  0.41800000000E+01 0. -1.
         -5    1    4    4    0  501 -0.27796710296E+02  0.13984139145E+02 -0.69011907448E+01  0.32145172026E+02  0.41800000000E+01 0. -1.
</event>
<event>
11    1  0.8974665E-009  0.1269822E+03  0.7561462E-02  0.1123033E+00
         22   -1    0    0    0    0  0.00000000000E+00  0.00000000000E+00  0.66587352772E+03  0.66587352772E+03  0.00000000000E+00 0.  1.
         22   -1    0    0    0    0 -0.00000000000E+00 -0.00000000000E+00 -0.80342654660E+03  0.80342654660E+03  0.00000000000E+00 0. -1.
        -24    2    1    2    0    0 -0.86203913364E+01  0.22396491972E+02 -0.66016128826E+03  0.66567887249E+03  0.82094584320E+02 0.  0.
         25    2    1    2    0    0 -0.95947975837E+01 -0.26990529029E+01 -0.10911058731E+03  0.16629111267E+03  0.12509304083E+03 0.  0.
         24    2    1    2    0    0  0.18215188920E+02 -0.19697439070E+02  0.63171885669E+03  0.63733008915E+03  0.80007164890E+02 0.  0.
        -11    1    5    5    0    0  0.12936486788E+02 -0.20498853048E+02  0.63152226115E+03  0.63198727993E+03  0.00000000000E+00 0.  1.
         12    1    5    5    0    0  0.52787021325E+01  0.80141397843E+00  0.19659553530E+00  0.53428092211E+01  0.00000000000E+00 0. -1.
         13    1    3    3    0    0 -0.38120105519E+02 -0.80030427430E+01 -0.42074063317E+03  0.42253978693E+03  0.00000000000E+00 0. -1.
        -14    1    3    3    0    0  0.29499714183E+02  0.30399534715E+02 -0.23942065508E+03  0.24313908556E+03  0.00000000000E+00 0.  1.
          5    1    4    4  501    0  0.36124971837E+02 -0.45596391731E+02 -0.74311545221E+02  0.94465457614E+02  0.41800000000E+01 0.  1.
         -5    1    4    4    0  501 -0.45719769420E+02  0.42897338828E+02 -0.34799042084E+02  0.71825655057E+02  0.41800000000E+01 0.  1.
</event>
<event>
11    1  0.8974665E-009  0.2005715E+03  0.7561462E-02  0.1054120E+00
         22   -1    0    0    0    0  0.00000000000E+00  0.00000000000E+00  0.61569830801E+03  0.61569830801E+03  0.00000000000E+00 0. -1.
         22   -1    0    0    0    0 -0.00000000000E+00 -0.00000000000E+00 -0.13298360884E+04  0.13298360884E+04  0.00000000000E+00 0. -1.
         24    2    1    2    0    0  0.55278971014E+02  0.70211428305E+01 -0.12257885714E+04  0.12296626876E+04  0.80047750482E+02 0.  0.
         25    2    1    2    0    0 -0.17141242716E+03 -0.10084362691E+03  0.74085207817E+02  0.24634988729E+03  0.12509193290E+03 0.  0.
        -24    2    1    2    0    0  0.11613345615E+03  0.93822484080E+02  0.43756558316E+03  0.46952182159E+03  0.81838030437E+02 0.  0.
        -11    1    3    3    0    0  0.14139864162E+02 -0.35027593900E+02 -0.56470580858E+03  0.56596777146E+03  0.00000000000E+00 0.  1.
         12    1    3    3    0    0  0.41139106852E+02  0.42048736730E+02 -0.66108276282E+03  0.66369491611E+03  0.00000000000E+00 0. -1.
         11    1    5    5    0    0  0.41230716139E+02  0.61704119294E+02  0.30507839521E+03  0.31397483580E+03  0.00000000000E+00 0. -1.
        -12    1    5    5    0    0  0.74902740007E+02  0.32118364785E+02  0.13248718795E+03  0.15554698579E+03  0.00000000000E+00 0.  1.
          5    1    4    4  501    0  0.13841590670E+02 -0.22506355251E+02  0.30377567248E+02  0.40477087974E+02  0.41800000000E+01 0. -1.
         -5    1    4    4    0  501 -0.18525401783E+03 -0.78337271659E+02  0.43707640569E+02  0.20587279931E+03  0.41800000000E+01 0. -1.
</event>
<event>
11    1  0.8974665E-009  0.1618661E+03  0.7561462E-02  0.1085335E+00
         22   -1    0    0    0    0  0.00000000000E+00  0.00000000000E+00  0.91456994923E+03  0.91456994923E+03  0.00000000000E+00 0. -1.
         22   -1    0    0    0    0 -0.00000000000E+00 -0.00000000000E+00 -0.12078406243E+03  0.12078406243E+03  0.00000000000E+00 0. -1.
        -24    2    1    2    0    0 -0.77591825527E+02  0.19516042491E+00 -0.41165323344E+02  0.11912968642E+03  0.80478375138E+02 0.  0.
         25    2    1    2    0    0  0.14704605949E+02 -0.89778309925E+02  0.14186242992E+03  0.20987658406E+03  0.12508741401E+03 0.  0.
         24    2    1    2    0    0  0.62887219578E+02  0.89583149500E+02  0.69308878022E+03  0.70634774118E+03  0.81087182327E+02 0.  0.
        -11    1    5    5    0    0  0.27867275055E+02  0.48056113610E+02  0.14031914544E+03  0.15091533272E+03  0.00000000000E+00 0.  1.
         12    1    5    5    0    0  0.35019944523E+02  0.41527035890E+02  0.55276963478E+03  0.55543240845E+03  0.00000000000E+00 0. -1.
         13    1    3    3    0    0 -0.54579240585E+01 -0.10547240526E+01 -0.46459581382E+02  0.46790961521E+02  0.00000000000E+00 0. -1.
        -14    1    3    3    0    0 -0.72133901468E+02  0.12498844775E+01  0.52942580382E+01  0.72338724902E+02  0.00000000000E+00 0.  1.
          5    1    4    4  501    0 -0.54093248767E+01 -0.11154508588E+03  0.14102237457E+03  0.17993429220E+03  0.41800000000E+01 0. -1.
         -5    1    4    4    0  501  0.20113930825E+02  0.21766775958E+02  0.84005535056E+00  0.29942291860E+02  0.41800000000E+01 0. -1.
</event>
<event>
11    1  0.8974665E-009  0.1277474E+03  0.7561462E-02  0.1122068E+00
         22   -1    0    0    0    0  0.00000000000E+00  0.00000000000E+00  0.16563917597E+04  0.16563917597E+04  0.00000000000E+00 0.  1.
         22   -1    0    0    0    0 -0.00000000000E+00 -0.00000000000E+00 -0.15804050829E+03  0.15804050829E+03  0.00000000000E+00 0.  1.
         24    2    1    2    0    0 -0.10893440473E+02 -0.22406976970E+02 -0.90760891742E+02  0.12282671970E+03  0.78918463880E+02 0.  0.
         25    2    1    2    0    0  0.35249426056E+02  0.30393797500E+02  0.38700227818E+02  0.13894839577E+03  0.12507055645E+03 0.  0.
        -24    2    1    2    0    0 -0.24355985583E+02 -0.79868205299E+01  0.15504119153E+04  0.15526571525E+04  0.79436280630E+02 0.  0.
        -13    1    3    3    0    0 -0.21254267220E+02  0.23585751369E+02 -0.19111619369E+02  0.37057867418E+02  0.00000000000E+00 0.  1.
         14    1    3    3    0    0  0.10360826747E+02 -0.45992728338E+02 -0.71649272373E+02  0.85768852286E+02  0.00000000000E+00 0. -1.
         13    1    5    5    0    0  0.11485840278E+02 -0.30889647423E+02  0.36570546570E+03  0.36718739424E+03  0.00000000000E+00 0. -1.
        -14    1    5    5    0    0 -0.35841825861E+02  0.22902826893E+02  0.11847064496E+04  0.11854697582E+04  0.00000000000E+00 0.  1.
          5    1    4    4  501    0 -0.42199070787E+01  0.72491965209E+02  0.72509467524E+01  0.73095425742E+02  0.41800000000E+01 0.  1.
         -5    1    4    4    0  501  0.39469333134E+02 -0.42098167710E+02  0.31449281066E+02  0.65852970033E+02  0.41800000000E+01 0.  1.
</event>
<event>
11    1  0.8974665E-009  0.1532321E+03  0.7561462E-02  0.1093621E+00
         22   -1    0    0    0    0  0.00000000000E+00  0.00000000000E+00  0.15074264239E+03  0.15074264239E+03  0.00000000000E+00 0.  1.
         22   -1    0    0    0    0 -0.00000000000E+00 -0.00000000000E+00 -0.58154669459E+03  0.58154669459E+03  0.00000000000E+00 0. -1.
        -24    2    1    2    0    0 -0.78970568962E+02  0.16679346862E+02 -0.24804839515E+03  0.27323259908E+03  0.81323400627E+02 0.  0.
         25    2    1    2    0    0  0.10325830075E+03  0.52942735029E+00 -0.28456866770E+03  0.32753784203E+03  0.12505660461E+03 0.  0.
         24    2    1    2    0    0 -0.24287731789E+02 -0.17208774212E+02  0.10181301066E+03  0.13151889587E+03  0.77751495207E+02 0.  0.
        -11    1    5    5    0    0 -0.46860105337E+02 -0.28390360012E+02  0.51223591845E+02  0.75004922341E+02  0.00000000000E+00 0.  1.
         12    1    5    5    0    0  0.22572373547E+02  0.11181585801E+02  0.50589418812E+02  0.56513973532E+02  0.00000000000E+00 0. -1.
         11    1    3    3    0    0 -0.57364338630E+02 -0.27103031055E+02 -0.11246380054E+03  0.12912531924E+03  0.00000000000E+00 0. -1.
        -12    1    3    3    0    0 -0.21606230332E+02  0.43782377916E+02 -0.13558459461E+03  0.14410727983E+03  0.00000000000E+00 0.  1.
          5    1    4    4  501    0  0.30538702757E+02  0.60426206837E+02 -0.12267139042E+03  0.14017732080E+03  0.41800000000E+01 0.  1.
         -5    1    4    4    0  501  0.72719597994E+02 -0.59896779486E+02 -0.16189727728E+03  0.18736052123E+03  0.41800000000E+01 0.  1.
</event>
<event>
11    1  0.8974665E-009  0.1874890E+03  0.7561462E-02  0.1063741E+00
         22   -1    0    0    0    0  0.00000000000E+00  0.00000000000E+00  0.24364881228E+03  0.24364881228E+03  0.00000000000E+00 0.  1.
         22   -1    0    0    0    0 -0.00000000000E+00 -0.00000000000E+00 -0.15057609128E+04  0.15057609128E+04  0.00000000000E+00 0.  1.
        -24    2    1    2    0    0  0.66834053415E+02  0.11791883979E+03 -0.12983748653E+04  0.13079724615E+04  0.81504759366E+02 0.  0.
         25    2    1    2    0    0 -0.12230115370E+03 -0.17271216808E+03 -0.99771252245E+02  0.26530952385E+03  0.12509106870E+03 0.  0.
         24    2    1    2    0    0  0.55467100290E+02  0.54793328295E+02  0.13603401701E+03  0.17612773971E+03  0.80229787922E+02 0.  0.
        -11    1    5    5    0    0  0.32345891517E+02  0.68847565977E+02  0.12617329984E+03  0.14732937803E+03  0.00000000000E+00 0.  1.
         12    1    5    5    0    0  0.23121208774E+02 -0.14054237683E+02  0.98607171712E+01  0.28798361674E+02  0.00000000000E+00 0. -1.
         13    1    3    3    0    0 -0.14572862601E+02  0.16381425963E+01 -0.18610834978E+03  0.18668521552E+03  0.00000000000E+00 0. -1.
        -14    1    3    3    0    0  0.81406916016E+02  0.11628069719E+03 -0.11122665155E+04  0.11212872460E+04  0.00000000000E+00 0.  1.
          5    1    4    4  501    0  0.12351492242E+02 -0.82885000203E+02 -0.32830487081E+02  0.90098811875E+02  0.41800000000E+01 0. -1.
         -5    1    4    4    0  501 -0.13465264595E+03 -0.89827167881E+02 -0.66940765164E+02  0.17521071197E+03  0.41800000000E+01 0. -1.
</event>
<event>
11    1  0.8974665E-009  0.1394909E+03  0.7561462E-02  0.1108128E+00
         22   -1    0    0    0    0  0.00000000000E+00  0.00000000000E+00  0.27197555054E+03  0.27197555054E+03  0.00000000000E+00 0. -1.
         22   -1    0    0    0    0 -0.00000000000E+00 -0.00000000000E+00 -0.51569045969E+03  0.51569045969E+03  0.00000000000E+00 0. -1.
         24    2    1    2    0    0 -0.24664652747E+01 -0.59252191127E+02 -0.25347574990E+03  0.27211238477E+03  0.79235652019E+02 0.  0.
         25    2    1    2    0    0 -0.39812168443E+00  0.67107257009E+02 -0.22559457702E+03  0.26654021849E+03  0.12508889818E+03 0.  0.
        -24    2    1    2    0    0  0.28645869591E+01 -0.78550658823E+01  0.23535541777E+03  0.24901340697E+03  0.80904859294E+02 0.  0.
        -11    1    3    3    0    0  0.44677680053E+01  0.19323695754E+02 -0.59166737280E+02  0.62402475663E+02  0.00000000000E+00 0.  1.
         12    1    3    3    0    0 -0.69342332800E+01 -0.78575886881E+02 -0.19430901262E+03  0.20970990910E+03  0.00000000000E+00 0. -1.
         13    1    5    5    0    0  0.29929428396E+02  0.73722653109E+01  0.19823014734E+03  0.20061234332E+03  0.00000000000E+00 0. -1.
        -14    1    5    5    0    0 -0.27064841437E+02 -0.15227331193E+02  0.37125270432E+02  0.48401063644E+02  0.00000000000E+00 0.  1.
          5    1    4    4  501    0 -0.42924528599E+02  0.14503845259E+02 -0.19347601895E+02  0.49443693044E+02  0.41800000000E+01 0. -1.
         -5    1    4    4    0  501  0.42526406914E+02  0.52603411750E+02 -0.20624697513E+03  0.21709652545E+03  0.41800000000E+01 0. -1.
</event>
<event>
11    1  0.8974665E-009  0.1264033E+03  0.7561462E-02  0.1123769E+00
         22   -1    0    0    0    0  0.00000000000E+00  0.00000000000E+00  0.47013398356E+03  0.47013398356E+03  0.00000000000E+00 0.  1.
         22   -1    0    0    0    0 -0.00000000000E+00 -0.00000000000E+00 -0.13305999741E+04  0.13305999741E+04  0.00000000000E+00 0. -1.
        -24    2    1    2    0    0  0.13050099090E+02 -0.12278184974E+02 -0.12699338247E+04  0.12726191670E+04  0.80663290245E+02 0.  0.
         25    2    1    2    0    0 -0.23322855627E+02  0.25035800507E+02  0.21087724904E+02  0.13138501606E+03  0.12508630381E+03 0.  0.
         24    2    1    2    0    0  0.10272756537E+02 -0.12757615533E+02  0.38838010918E+03  0.39672977460E+03  0.79291352433E+02 0.  0.
        -13    1    5    5    0    0  0.13239649395E+02 -0.45196999313E+02  0.26321765676E+03  0.26739781579E+03  0.00000000000E+00 0.  1.
         14    1    5    5    0    0 -0.29668928581E+01  0.32439383780E+02  0.12516245242E+03  0.12933195881E+03  0.00000000000E+00 0. -1.
         13    1    3    3    0    0 -0.95640304819E+01 -0.33895761942E+02 -0.10365165130E+04  0.10371146875E+04  0.00000000000E+00 0. -1.
        -14    1    3    3    0    0  0.22614129572E+02  0.21617576968E+02 -0.23341731169E+03  0.23550447955E+03  0.00000000000E+00 0.  1.
          5    1    4    4  501    0 -0.81539938075E+01  0.11472800937E+02 -0.52711313614E+02  0.54718075252E+02  0.41800000000E+01 0.  1.
         -5    1    4    4    0  501 -0.15168861820E+02  0.13562999570E+02  0.73799038518E+02  0.76666940805E+02  0.41800000000E+01 0.  1.
</event>
<event>
11    1  0.8974665E-009  0.1612389E+03  0.7561462E-02  0.1085918E+00
         22   -1    0    0    0    0  0.00000000000E+00  0.00000000000E+00  0.44426712703E+04  0.44426712703E+04  0.00000000000E+00 0.  1.
         22   -1    0    0    0    0 -0.00000000000E+00 -0.00000000000E+00 -0.13644519049E+03  0.13644519049E+03  0.00000000000E+00 0. -1.
        -24    2    1    2    0    0  0.27436022114E+02 -0.86656061299E+02 -0.70677037165E+02  0.13972596403E+03  0.79158658234E+02 0.  0.
         25    2    1    2    0    0 -0.99102385641E+02  0.15541501541E+03  0.37914240416E+03  0.43974008101E+03  0.12508903372E+03 0.  0.
         24    2    1    2    0    0  0.71666363527E+02 -0.68758954107E+02  0.39977607128E+04  0.39996504158E+04  0.72449084282E+02 0.  0.
        -13    1    5    5    0    0  0.57895000964E+02 -0.83894391740E+02  0.31776429023E+04  0.31792773573E+04  0.00000000000E+00 0.  1.
         14    1    5    5    0    0  0.13771362563E+02  0.15135437633E+02  0.82011781055E+03  0.82037305848E+03  0.00000000000E+00 0. -1.
         11    1    3    3    0    0 -0.21315192196E+02 -0.49027259712E+02 -0.53858807371E+02  0.75886630869E+02  0.00000000000E+00 0. -1.
        -12    1    3    3    0    0  0.48751214310E+02 -0.37628801587E+02 -0.16818229794E+02  0.63839333165E+02  0.00000000000E+00 0.  1.
          5    1    4    4  501    0 -0.12386563030E+03  0.91436086142E+02  0.25985475950E+03  0.30206823840E+03  0.41800000000E+01 0.  1.
         -5    1    4    4    0  501  0.24763244662E+02  0.63978929264E+02  0.11928764467E+03  0.13767184261E+03  0.41800000000E+01 0.  1.
</event>
<event>
11    1  0.8974665E-009  0.1314179E+03  0.7561462E-02  0.1117539E+00
         22   -1    0    0    0    0  0.00000000000E+00  0.00000000000E+00  0.13792715185E+03  0.13792715185E+03  0.00000000000E+00 0. -1.
         22   -1    0    0    0    0 -0.00000000000E+00 -0.00000000000E+00 -0.87181032909E+03  0.87181032909E+03  0.00000000000E+00 0.  1.
         24    2    1    2    0    0  0.14823397014E+02  0.37048672797E+02 -0.77143772816E+03  0.77657296402E+03  0.79731190599E+02 0.  0.
         25    2    1    2    0    0 -0.15189865591E+02 -0.46945321442E+02 -0.14494358212E+02  0.13524969049E+03  0.12509115530E+03 0.  0.
        -24    2    1    2    0    0  0.36646857700E+00  0.98966486447E+01  0.52048909131E+02  0.97914826429E+02  0.82341644015E+02 0.  0.
        -13    1    3    3    0    0 -0.15621767121E+02 -0.15783687737E+02 -0.35508593803E+03  0.35577968996E+03  0.00000000000E+00 0.  1.
         14    1    3    3    0    0  0.30445164136E+02  0.52832360534E+02 -0.41635179013E+03  0.42079327405E+03  0.00000000000E+00 0. -1.
         13    1    5    5    0    0  0.36037851870E+01  0.45560120274E+02  0.20111116515E+02  0.49931641617E+02  0.00000000000E+00 0. -1.
        -14    1    5    5    0    0 -0.32373166100E+01 -0.35663471629E+02  0.31937792617E+02  0.47983184812E+02  0.00000000000E+00 0.  1.
          5    1    4    4  501    0 -0.82072808391E+01  0.43688423905E+01 -0.63210518323E+02  0.64027246304E+02  0.41800000000E+01 0.  1.
         -5    1    4    4    0  501 -0.69825847520E+01 -0.51314163833E+02  0.48716160111E+02  0.71222444185E+02  0.41800000000E+01 0.  1.
</event>
<event>
11    1  0.8974665E-009  0.1287761E+03  0.7561462E-02  0.1120782E+00
         22   -1    0    0    0    0  0.00000000000E+00  0.00000000000E+00  0.92757891575E+03  0.92757891575E+03  0.00000000000E+00 0.  1.
         22   -1    0    0    0    0 -0.00000000000E+00 -0.00000000000E+00 -0.12392711326E+03  0.12392711326E+03  0.00000000000E+00 0.  1.
         24    2    1    2    0    0 -0.18649250293E+02 -0.23552282221E+02 -0.86653185354E+02  0.12262183056E+03  0.81393084857E+02 0.  0.
         25    2    1    2    0    0  0.20145531434E+02  0.33299216793E+02  0.24109671809E+03  0.27438858411E+03  0.12508711899E+03 0.  0.
        -24    2    1    2    0    0 -0.14962811409E+01 -0.97469345725E+01  0.64920826975E+03  0.65449561435E+03  0.82437188794E+02 0.  0.
        -11    1    3    3    0    0 -0.97278258206E+01  0.27303038725E+02 -0.54693627345E+02  0.61898944991E+02  0.00000000000E+00 0.  1.
         12    1    3    3    0    0 -0.89214244724E+01 -0.50855320946E+02 -0.31959558009E+02  0.60722885565E+02  0.00000000000E+00 0. -1.
         13    1    5    5    0    0  0.34821584522E+02  0.61107799177E+01  0.44982795031E+03  0.45121510309E+03  0.00000000000E+00 0. -1.
        -14    1    5    5    0    0 -0.36317865663E+02 -0.15857714490E+02  0.19938031944E+03  0.20328051126E+03  0.00000000000E+00 0.  1.
          5    1    4    4  501    0 -0.16200121433E+02  0.36432705746E+02  0.11266547441E+02  0.41643648659E+02  0.41800000000E+01 0. -1.
         -5    1    4    4    0  501  0.36345652867E+02 -0.31334889522E+01  0.22983017065E+03  0.23274493545E+03  0.41800000000E+01 0. -1.
</event>
<event>
11    1  0.8974665E-009  0.1478785E+03  0.7561462E-02  0.1099066E+00
         22   -1    0    0    0    0  0.00000000000E+00  0.00000000000E+00  0.75735840378E+03  0.75735840378E+03  0.00000000000E+00 0. -1.
         22   -1    0    0    0    0 -0.00000000000E+00 -0.00000000000E+00 -0.73493820760E+03  0.73493820760E+03  0.00000000000E+00 0. -1.
        -24    2    1    2    0    0  0.58777303584E+02  0.37905221089E+01 -0.52610800869E+03  0.53576358314E+03  0.82364074299E+02 0.  0.
         25    2    1    2    0    0 -0.56945850520E+02 -0.82626548733E+02 -0.16734437115E+03  0.23176216243E+03  0.12505832613E+03 0.  0.
         24    2    1    2    0    0 -0.18314530637E+01  0.78836026624E+02  0.71587257601E+03  0.72477086581E+03  0.81245243062E+02 0.  0.
        -11    1    5    5    0    0 -0.17201893225E+01 -0.10062932823E+01 -0.17910921843E+01  0.26794941104E+01  0.00000000000E+00 0.  1.
         12    1    5    5    0    0 -0.11126374121E+00  0.79842319906E+02  0.71766366820E+03  0.72209137170E+03  0.00000000000E+00 0. -1.
         11    1    3    3    0    0  0.56654783868E+02 -0.83413230495E+01 -0.51768495319E+03  0.52084263743E+03  0.00000000000E+00 0. -1.
        -12    1    3    3    0    0  0.21225197156E+01  0.12131845158E+02 -0.84230555004E+01  0.14920945709E+02  0.00000000000E+00 0.  1.
          5    1    4    4  501    0  0.24359172205E+02 -0.30690155102E+02 -0.99780183020E+00  0.39417291880E+02  0.41800000000E+01 0.  1.
         -5    1    4    4    0  501 -0.81305022725E+02 -0.51936393631E+02 -0.16634656932E+03  0.19234487055E+03  0.41800000000E+01 0.  1.
</event>
<event>
11    1  0.8974665E-009  0.1955953E+03  0.7561462E-02  0.1057683E+00
         22   -1    0    0    0    0  0.00000000000E+00  0.00000000000E+00  0.76465322677E+03  0.76465322677E+03  0.00000000000E+00 0.  1.
         22   -1    0    0    0    0 -0.00000000000E+00 -0.00000000000E+00 -0.31550340152E+03  0.31550340152E+03  0.00000000000E+00 0. -1.
        -24    2    1    2    0    0 -0.14696481759E+02 -0.58732404951E+02 -0.25946607297E+03  0.27612269657E+03  0.72495645175E+02 0.  0.
         25    2    1    2    0    0  0.15474902884E+03  0.48320763528E+02  0.49865663965E+03  0.53906248730E+03  0.12509101817E+03 0.  0.
         24    2    1    2    0    0 -0.14005254708E+03  0.10411641423E+02  0.20995925857E+03  0.26497144443E+03  0.80024108146E+02 0.  0.
        -11    1    5    5    0    0 -0.12720861752E+03  0.23994631136E+02  0.20950441432E+03  0.24627195195E+03  0.00000000000E+00 0.  1.
         12    1    5    5    0    0 -0.12843929558E+02 -0.13582989714E+02  0.45484425178E+00  0.18699492489E+02  0.00000000000E+00 0. -1.
         11    1    3    3    0    0 -0.34901142364E+02 -0.64495854863E+02 -0.20699999479E+03  0.21960601739E+03  0.00000000000E+00 0. -1.
        -12    1    3    3    0    0  0.20204660605E+02  0.57634499123E+01 -0.52466078184E+02  0.56516679176E+02  0.00000000000E+00 0.  1.
          5    1    4    4  501    0  0.81035263649E+02  0.78406497528E+02  0.37769925681E+03  0.39419347255E+03  0.41800000000E+01 0.  1.
         -5    1    4    4    0  501  0.73713765191E+02 -0.30085733999E+02  0.12095738284E+03  0.14486901475E+03  0.41800000000E+01 0.  1.
</event>
<event>
11    1  0.8974665E-009  0.1467509E+03  0.7561462E-02  0.1100246E+00
         22   -1    0    0    0    0  0.00000000000E+00  0.00000000000E+00  0.13690670588E+03  0.13690670588E+03  0.00000000000E+00 0.  1.
         22   -1    0    0    0    0 -0.00000000000E+00 -0.00000000000E+00 -0.71054799590E+03  0.71054799590E+03  0.00000000000E+00 0. -1.
         24    2    1    2    0    0  0.36412785120E+02  0.66059884505E+02 -0.57856192064E+03  0.58925645651E+03  0.82458936837E+02 0.  0.
         25    2    1    2    0    0 -0.69629766802E+02 -0.66886773075E+02 -0.31138631845E+02  0.16105621197E+03  0.12508934481E+03 0.  0.
        -24    2    1    2    0    0  0.33216981682E+02  0.82688856912E+00  0.36059262465E+02  0.97142033301E+02  0.83858527339E+02 0.  0.
        -13    1    3    3    0    0  0.12902979498E+02 -0.70904948138E+01 -0.17114358947E+02  0.22575723218E+02  0.00000000000E+00 0.  1.
         14    1    3    3    0    0  0.23509805622E+02  0.73150379319E+02 -0.56144756169E+03  0.56668073329E+03  0.00000000000E+00 0. -1.
         11    1    5    5    0    0 -0.25218816065E+02  0.45629474638E+01 -0.43530018657E+01  0.25995341862E+02  0.00000000000E+00 0. -1.
        -12    1    5    5    0    0  0.58435797747E+02 -0.37360588947E+01  0.40412264331E+02  0.71146691439E+02  0.00000000000E+00 0.  1.
          5    1    4    4  501    0 -0.93066197958E+02 -0.24230583533E+02 -0.50268011388E+02  0.10859458435E+03  0.41800000000E+01 0.  1.
         -5    1    4    4    0  501  0.23436431156E+02 -0.42656189541E+02  0.19129379543E+02  0.52461627627E+02  0.41800000000E+01 0.  1.
</event>
<event>
11    1  0.8974665E-009  0.1267549E+03  0.7561462E-02  0.1123322E+00
         22   -1    0    0    0    0  0.00000000000E+00  0.00000000000E+00  0.86641937076E+02  0.86641937076E+02  0.00000000000E+00 0.  1.
         22   -1    0    0    0    0 -0.00000000000E+00 -0.00000000000E+00 -0.62712900211E+03  0.62712900211E+03  0.00000000000E+00 0. -1.
        -24    2    1    2    0    0  0.29687202460E+01 -0.11548929175E+02 -0.32528012778E+03  0.33478179461E+03  0.78291106850E+02 0.  0.
         25    2    1    2    0    0  0.11233713180E+02 -0.44647454051E+01 -0.25712180838E+03  0.28618921603E+03  0.12508602145E+03 0.  0.
         24    2    1    2    0    0 -0.14202433426E+02  0.16013674580E+02  0.41914871120E+02  0.92799928552E+02  0.79980143970E+02 0.  0.
        -13    1    5    5    0    0  0.17693656480E+02  0.13383007463E+02  0.54164216300E+02  0.58531467569E+02  0.00000000000E+00 0.  1.
         14    1    5    5    0    0 -0.31896089907E+02  0.26306671173E+01 -0.12249345180E+02  0.34268460983E+02  0.00000000000E+00 0. -1.
         13    1    3    3    0    0 -0.40103227835E+01 -0.40947159768E+02 -0.11095904162E+03  0.11834129245E+03  0.00000000000E+00 0. -1.
        -14    1    3    3    0    0  0.69790430295E+01  0.29398230593E+02 -0.21432108616E+03  0.21644050216E+03  0.00000000000E+00 0.  1.
          5    1    4    4  501    0  0.75100411459E+01 -0.40495495774E+02 -0.19454282458E+02  0.45740872335E+02  0.41800000000E+01 0.  1.
         -5    1    4    4    0  501  0.37236720343E+01  0.36030750369E+02 -0.23766752592E+03  0.24044834369E+03  0.41800000000E+01 0.  1.
</event>
<event>
11    1  0.8974665E-009  0.1300140E+03  0.7561462E-02  0.1119252E+00
         22   -1    0    0    0    0  0.00000000000E+00  0.00000000000E+00  0.17164583144E+03  0.17164583144E+03  0.00000000000E+00 0. -1.
         22   -1    0    0    0    0 -0.00000000000E+00 -0.00000000000E+00 -0.59518347835E+03  0.59518347835E+03  0.00000000000E+00 0.  1.
         24    2    1    2    0    0  0.32033511000E+01  0.37696271253E+02 -0.41717901507E+03  0.42639893823E+03  0.79664631965E+02 0.  0.
         25    2    1    2    0    0 -0.71872936246E+01 -0.21980494741E+02 -0.13572730911E+03  0.18601716012E+03  0.12508270097E+03 0.  0.
        -24    2    1    2    0    0  0.39839425245E+01 -0.15715776512E+02  0.12936867726E+03  0.15441321144E+03  0.82730452560E+02 0.  0.
        -13    1    3    3    0    0  0.30328174191E+02  0.20704028090E+02 -0.35068417327E+03  0.35260153759E+03  0.00000000000E+00 0.  1.
         14    1    3    3    0    0 -0.27124823091E+02  0.16992243162E+02 -0.66494841793E+02  0.73797400635E+02  0.00000000000E+00 0. -1.
         13    1    5    5    0    0 -0.15830963998E+02 -0.11571728119E+01  0.12884528882E+03  0.12981936266E+03  0.00000000000E+00 0. -1.
        -14    1    5    5    0    0  0.19814906523E+02 -0.14558603700E+02  0.52338843975E+00  0.24593848777E+02  0.00000000000E+00 0.  1.
          5    1    4    4  501    0  0.28734953526E+02 -0.22660248233E+02 -0.14423116649E+03  0.14885995496E+03  0.41800000000E+01 0. -1.
         -5    1    4    4    0  501 -0.35922247150E+02  0.67975349261E+00  0.85038573765E+01  0.37157205161E+02  0.41800000000E+01 0. -1.
</event>
<event>
11    1  0.8974665E-009  0.2361807E+03  0.7561462E-02  0.1031530E+00
         22   -1    0    0    0    0  0.00000000000E+00  0.00000000000E+00  0.42882600260E+03  0.42882600260E+03  0.00000000000E+00 0.  1.
         22   -1    0    0    0    0 -0.00000000000E+00 -0.00000000000E+00 -0.10636100040E+04  0.10636100040E+04  0.00000000000E+00 0.  1.
        -24    2    1    2    0    0  0.16434908892E+03 -0.11118884399E+03 -0.71590635374E+03  0.74728135933E+03  0.80832794156E+02 0.  0.
         25    2    1    2    0    0 -0.16637977621E+03  0.12114505763E+03 -0.28341990919E+03  0.37192977483E+03  0.12508620052E+03 0.  0.
         24    2    1    2    0    0  0.20306872876E+01 -0.99562136371E+01  0.36454226150E+03  0.37322487248E+03  0.79388255692E+02 0.  0.
        -13    1    5    5    0    0  0.40405204918E+02 -0.34218071106E+01  0.16392531850E+03  0.16886621745E+03  0.00000000000E+00 0.  1.
         14    1    5    5    0    0 -0.38374517631E+02 -0.65344065265E+01  0.20061694299E+03  0.20435865503E+03  0.00000000000E+00 0. -1.
         13    1    3    3    0    0  0.21092847343E+02 -0.21403513484E+02 -0.37131129093E+02  0.47767555372E+02  0.00000000000E+00 0. -1.
        -14    1    3    3    0    0  0.14325624158E+03 -0.89785330506E+02 -0.67877522465E+03  0.69951380396E+03  0.00000000000E+00 0.  1.
          5    1    4    4  501    0 -0.11591597651E+03  0.10942726944E+02 -0.16846533857E+03  0.20482748737E+03  0.41800000000E+01 0. -1.
         -5    1    4    4    0  501 -0.50463799705E+02  0.11020233068E+03 -0.11495457063E+03  0.16710228747E+03  0.41800000000E+01 0. -1.
</event>
<event>
11    1  0.8974665E-009  0.1336531E+03  0.7561462E-02  0.1114860E+00
         22   -1    0    0    0    0  0.00000000000E+00  0.00000000000E+00  0.13552329757E+04  0.13552329757E+04  0.00000000000E+00 0.  1.
         22   -1    0    0    0    0 -0.00000000000E+00 -0.00000000000E+00 -0.13781103598E+03  0.13781103598E+03  0.00000000000E+00 0.  1.
         24    2    1    2    0    0  0.50520715234E+02 -0.28010212577E+01 -0.85324236476E+02  0.12785769296E+03  0.80667068436E+02 0.  0.
         25    2    1    2    0    0 -0.24282621977E+02 -0.18528622477E+02  0.11009177842E+03  0.16941693515E+03  0.12509573397E+03 0.  0.
        -24    2    1    2    0    0 -0.26238093257E+02  0.21329643735E+02  0.11926543978E+04  0.11957693836E+04  0.79350582504E+02 0.  0.
        -13    1    3    3    0    0  0.68763947900E+02 -0.13652542435E+02 -0.48145821656E+02  0.85046414320E+02  0.00000000000E+00 0.  1.
         14    1    3    3    0    0 -0.18243232666E+02  0.10851521178E+02 -0.37178414820E+02  0.42811278637E+02  0.00000000000E+00 0. -1.
         11    1    5    5    0    0 -0.54478600110E+02  0.81353164691E+01  0.76497233617E+03  0.76695291664E+03  0.00000000000E+00 0. -1.
        -12    1    5    5    0    0  0.28240506853E+02  0.13194327266E+02  0.42768206160E+03  0.42881646694E+03  0.00000000000E+00 0.  1.
          5    1    4    4  501    0 -0.54510023652E+02 -0.31371170788E+02  0.11940856715E+03  0.13502359551E+03  0.41800000000E+01 0. -1.
         -5    1    4    4    0  501  0.30227401675E+02  0.12842548311E+02 -0.93167887310E+01  0.34393339637E+02  0.41800000000E+01 0. -1.
</event>
<event>
11    1  0.8974665E-009  0.1370401E+03  0.7561462E-02  0.1110909E+00
         22   -1    0    0    0    0  0.00000000000E+00  0.00000000000E+00  0.11672863233E+04  0.11672863233E+04  0.00000000000E+00 0. -1.
         22   -1    0    0    0    0 -0.00000000000E+00 -0.00000000000E+00 -0.10455716279E+04  0.10455716279E+04  0.00000000000E+00 0. -1.
         24    2    1    2    0    0 -0.94934477096E+01 -0.15469742940E+02 -0.10180169917E+04  0.10213269481E+04  0.80129276970E+02 0.  0.
         25    2    1    2    0    0  0.63982879958E+02  0.21824895356E+02  0.19282396766E+03  0.23958029802E+03  0.12508997445E+03 0.  0.
        -24    2    1    2    0    0 -0.54489432249E+02 -0.63551524161E+01  0.94690771945E+03  0.95195070502E+03  0.81033508077E+02 0.  0.
        -11    1    3    3    0    0 -0.32764255315E+02 -0.29719475175E+02 -0.35451463789E+03  0.35726372907E+03  0.00000000000E+00 0.  1.
         12    1    3    3    0    0  0.23270807605E+02  0.14249732235E+02 -0.66350235386E+03  0.66406321908E+03  0.00000000000E+00 0. -1.
         11    1    5    5    0    0 -0.74140629243E+02 -0.14155916887E+02  0.79569641115E+03  0.79926841649E+03  0.00000000000E+00 0. -1.
        -12    1    5    5    0    0  0.19651196994E+02  0.78007644705E+01  0.15121130831E+03  0.15268228852E+03  0.00000000000E+00 0.  1.
          5    1    4    4  501    0  0.14400665403E+02 -0.50801853176E+02  0.57887205974E+02  0.78464058432E+02  0.41800000000E+01 0.  1.
         -5    1    4    4    0  501  0.49582214555E+02  0.72626748532E+02  0.13493676169E+03  0.16111623958E+03  0.41800000000E+01 0.  1.
</event>
<event>
11    1  0.8974665E-009  0.1308580E+03  0.7561462E-02  0.1118219E+00
         22   -1    0    0    0    0  0.00000000000E+00  0.00000000000E+00  0.20714863128E+03  0.20714863128E+03  0.00000000000E+00 0. -1.
         22   -1    0    0    0    0 -0.00000000000E+00 -0.00000000000E+00 -0.75371204767E+03  0.75371204767E+03  0.00000000000E+00 0. -1.
        -24    2    1    2    0    0 -0.12513671969E+02  0.34920464037E+02 -0.62924847773E+03  0.63542489571E+03  0.80219203271E+02 0.  0.
         25    2    1    2    0    0  0.36433034049E+02 -0.48393179342E+02 -0.65021479228E+02  0.15343111663E+03  0.12507617284E+03 0.  0.
         24    2    1    2    0    0 -0.23919362081E+02  0.13472715304E+02  0.14770654056E+03  0.17200466661E+03  0.83754004512E+02 0.  0.
        -11    1    5    5    0    0  0.21312810575E+02  0.23656059931E+02  0.10217670979E+03  0.10702301196E+03  0.00000000000E+00 0.  1.
         12    1    5    5    0    0 -0.45232172656E+02 -0.10183344626E+02  0.45529830771E+02  0.64981654650E+02  0.00000000000E+00 0. -1.
         11    1    3    3    0    0  0.95197769041E+01  0.28440366210E+02 -0.58316370403E+03  0.58393440237E+03  0.00000000000E+00 0. -1.
        -12    1    3    3    0    0 -0.22033448873E+02  0.64800978279E+01 -0.46084773702E+02  0.51490493339E+02  0.00000000000E+00 0.  1.
          5    1    4    4  501    0  0.34492703236E+02  0.36138440812E+02 -0.42772544841E+02  0.65899138637E+02  0.41800000000E+01 0.  1.
         -5    1    4    4    0  501  0.19403308134E+01 -0.84531620154E+02 -0.22248934387E+02  0.87531977990E+02  0.41800000000E+01 0.  1.
</event>
<event>
11    1  0.8974665E-009  0.1715003E+03  0.7561462E-02  0.1076733E+00
         22   -1    0    0    0    0  0.00000000000E+00  0.00000000000E+00  0.10331864989E+04  0.10331864989E+04  0.00000000000E+00 0.  1.
         22   -1    0    0    0    0 -0.00000000000E+00 -0.00000000000E+00 -0.84467592272E+03  0.84467592272E+03  0.00000000000E+00 0. -1.
         24    2    1    2    0    0 -0.11245873958E+03  0.15524029829E+02 -0.68075091881E+03  0.69482403414E+03  0.80440421098E+02 0.  0.
         25    2    1    2    0    0  0.14904317967E+03 -0.23626390510E+02 -0.92790137848E+02  0.21685942093E+03  0.12508366412E+03 0.  0.
        -24    2    1    2    0    0 -0.36584440087E+02  0.81023606807E+01  0.96205163282E+03  0.96617896654E+03  0.80959135794E+02 0.  0.
        -13    1    3    3    0    0 -0.85997675351E+01 -0.16924642498E+02 -0.24345729665E+03  0.24419634481E+03  0.00000000000E+00 0.  1.
         14    1    3    3    0    0 -0.10385897205E+03  0.32448672328E+02 -0.43729362216E+03  0.45062768933E+03  0.00000000000E+00 0. -1.
         13    1    5    5    0    0 -0.27778568811E+02 -0.22277327267E+01  0.94555504548E+02  0.98576645908E+02  0.00000000000E+00 0. -1.
        -14    1    5    5    0    0 -0.88058712764E+01  0.10330093407E+02  0.86749612827E+03  0.86760232063E+03  0.00000000000E+00 0.  1.
          5    1    4    4  501    0  0.10179660504E+03  0.45912625171E+02 -0.49839494882E+02  0.12235998364E+03  0.41800000000E+01 0.  1.
         -5    1    4    4    0  501  0.47246574634E+02 -0.69539015681E+02 -0.42950642966E+02  0.94499437288E+02  0.41800000000E+01 0.  1.
</event>
<event>
11    1  0.8974665E-009  0.1553903E+03  0.7561462E-02  0.1091495E+00
         22   -1    0    0    0    0  0.00000000000E+00  0.00000000000E+00  0.77357765605E+03  0.77357765605E+03  0.00000000000E+00 0. -1.
         22   -1    0    0    0    0 -0.00000000000E+00 -0.00000000000E+00 -0.69276050181E+03  0.69276050181E+03  0.00000000000E+00 0.  1.
        -24    2    1    2    0    0  0.10839182456E+03 -0.58519246790E+01 -0.56911157282E+03  0.58499490262E+03  0.80919843751E+02 0.  0.
         25    2    1    2    0    0 -0.17886831436E+02  0.24507898314E+01 -0.74629948760E+02  0.14676292378E+03  0.12507510318E+03 0.  0.
         24    2    1    2    0    0 -0.90504993123E+02  0.34011348476E+01  0.72455867582E+03  0.73458033146E+03  0.80126569655E+02 0.  0.
        -13    1    5    5    0    0 -0.16973134266E+02 -0.21622664559E+02  0.66557875045E+02  0.72010955000E+02  0.00000000000E+00 0.  1.
         14    1    5    5    0    0 -0.73531858857E+02  0.25023799407E+02  0.65800080078E+03  0.66256937646E+03  0.00000000000E+00 0. -1.
         13    1    3    3    0    0  0.10786797127E+03 -0.28247646575E+02 -0.43724267212E+03  0.45123672622E+03  0.00000000000E+00 0. -1.
        -14    1    3    3    0    0  0.52385328761E+00  0.22395721896E+02 -0.13186890070E+03  0.13375817640E+03  0.00000000000E+00 0.  1.
          5    1    4    4  501    0  0.53600057133E+02  0.18755896352E+01 -0.41053398028E+02  0.67670805010E+02  0.41800000000E+01 0. -1.
         -5    1    4    4    0  501 -0.71486888568E+02  0.57520019618E+00 -0.33576550732E+02  0.79092118770E+02  0.41800000000E+01 0. -1.
</event>
<event>
11    1  0.8974665E-009  0.1900538E+03  0.7561462E-02  0.1061789E+00
         22   -1    0    0    0    0  0.00000000000E+00  0.00000000000E+00  0.36280229057E+03  0.36280229057E+03  0.00000000000E+00 0.  1.
         22   -1    0    0    0    0 -0.00000000000E+00 -0.00000000000E+00 -0.92291341351E+03  0.92291341351E+03  0.00000000000E+00 0. -1.
        -24    2    1    2    0    0  0.29968382211E+02  0.13530704680E+03 -0.75807502392E+03  0.77470761965E+03  0.79297245859E+02 0.  0.
         25    2    1    2    0    0 -0.33737970638E+02 -0.18781007011E+03 -0.59725594341E+02  0.23585224709E+03  0.12509301635E+03 0.  0.
         24    2    1    2    0    0  0.37695884271E+01  0.52503023308E+02  0.25768949532E+03  0.27515583734E+03  0.80846036234E+02 0.  0.
        -11    1    5    5    0    0  0.81270915910E+00  0.14146778209E+02  0.22271065960E+03  0.22316099509E+03  0.00000000000E+00 0.  1.
         12    1    5    5    0    0  0.29568792680E+01  0.38356245099E+02  0.34978835719E+02  0.51994842257E+02  0.00000000000E+00 0. -1.
         13    1    3    3    0    0  0.43661586408E+02  0.80395968208E+02 -0.59724034384E+03  0.60420681405E+03  0.00000000000E+00 0. -1.
        -14    1    3    3    0    0 -0.13693204196E+02  0.54911078592E+02 -0.16083468008E+03  0.17050080560E+03  0.00000000000E+00 0.  1.
          5    1    4    4  501    0 -0.10442339835E+02 -0.33602290903E+02  0.37841892451E+02  0.51842430879E+02  0.41800000000E+01 0.  1.
         -5    1    4    4    0  501 -0.23295630803E+02 -0.15420777921E+03 -0.97567486792E+02  0.18400981621E+03  0.41800000000E+01 0.  1.
</event>
<event>
11    1  0.8974665E-009  0.1476562E+03  0.7561462E-02  0.1099298E+00
         22   -1    0    0    0    0  0.00000000000E+00  0.00000000000E+00  0.86655368366E+03  0.86655368366E+03  0.00000000000E+00 0. -1.
         22   -1    0    0    0    0 -0.00000000000E+00 -0.00000000000E+00 -0.23478353902E+03  0.23478353902E+03  0.00000000000E+00 0.  1.
         24    2    1    2    0    0  0.39132793648E+02  0.61147650638E+02 -0.13047245035E+03  0.17002127678E+03  0.81325048650E+02 0.  0.
         25    2    1    2    0    0  0.35570641196E+02 -0.28939876021E+02 -0.25226082037E+02  0.13560301356E+03  0.12509610359E+03 0.  0.
        -24    2    1    2    0    0 -0.74703434844E+02 -0.32207774617E+02  0.78746867703E+03  0.79571293235E+03  0.80213524309E+02 0.  0.
        -13    1    3    3    0    0 -0.18381369798E+00  0.47752354548E+02 -0.11697618301E+03  0.12634772869E+03  0.00000000000E+00 0.  1.
         14    1    3    3    0    0  0.39316607346E+02  0.13395296089E+02 -0.13496267343E+02  0.43673548089E+02  0.00000000000E+00 0. -1.
         11    1    5    5    0    0 -0.55209904675E+02 -0.66878036330E+01  0.70534073266E+03  0.70752979403E+03  0.00000000000E+00 0. -1.
        -12    1    5    5    0    0 -0.19493530169E+02 -0.25519970984E+02  0.82127944377E+02  0.88183138326E+02  0.00000000000E+00 0.  1.
          5    1    4    4  501    0 -0.12337734004E+02 -0.67059771620E+02  0.22866202963E+01  0.68351544843E+02  0.41800000000E+01 0.  1.
         -5    1    4    4    0  501  0.47908375201E+02  0.38119895599E+02 -0.27512702333E+02  0.67251468716E+02  0.41800000000E+01 0.  1.
</event>
<event>
11    1  0.8974665E-009  0.1836693E+03  0.7561462E-02  0.1066713E+00
         22   -1    0    0    0    0  0.00000000000E+00  0.00000000000E+00  0.28359632042E+04  0.28359632042E+04  0.00000000000E+00 0.  1.
         22   -1    0    0    0    0 -0.00000000000E+00 -0.00000000000E+00 -0.13758555150E+04  0.13758555150E+04  0.00000000000E+00 0.  1.
        -24    2    1    2    0    0 -0.10233653872E+03 -0.89625960683E+02 -0.13225171215E+04  0.13319116855E+04  0.80197390420E+02 0.  0.
         25    2    1    2    0    0  0.99508004467E+02  0.21078178114E+02  0.88906729077E+02  0.18412536205E+03  0.12510639444E+03 0.  0.
         24    2    1    2    0    0  0.28285342575E+01  0.68547782569E+02  0.26937180815E+04  0.26957816716E+04  0.80093190711E+02 0.  0.
        -11    1    5    5    0    0 -0.19590978541E+02  0.63053822578E+02  0.24686852238E+04  0.24695680442E+04  0.00000000000E+00 0.  1.
         12    1    5    5    0    0  0.22419512798E+02  0.54939599905E+01  0.22503285775E+03  0.22621362739E+03  0.00000000000E+00 0. -1.
         13    1    3    3    0    0 -0.20143967818E+02 -0.25419303543E+02 -0.10402264884E+03  0.10896160747E+03  0.00000000000E+00 0. -1.
        -14    1    3    3    0    0 -0.82192570906E+02 -0.64206657140E+02 -0.12184944726E+04  0.12229500780E+04  0.00000000000E+00 0.  1.
          5    1    4    4  501    0  0.71487322552E+02 -0.47667548629E+02  0.57122712383E+02  0.10326233170E+03  0.41800000000E+01 0.  1.
         -5    1    4    4    0  501  0.28020681915E+02  0.68745726743E+02  0.31784016694E+02  0.80863030351E+02  0.41800000000E+01 0.  1.
</event>
<event>
11    1  0.8974665E-009  0.1403690E+03  0.7561462E-02  0.1107147E+00
         22   -1    0    0    0    0  0.00000000000E+00  0.00000000000E+00  0.30367776190E+03  0.30367776190E+03  0.00000000000E+00 0.  1.
         22   -1    0    0    0    0 -0.00000000000E+00 -0.00000000000E+00 -0.92702709860E+03  0.92702709860E+03  0.00000000000E+00 0.  1.
        -24    2    1    2    0    0 -0.74040686820E+02 -0.16188271972E+02 -0.51720443982E+03  0.52876354310E+03  0.79664097854E+02 0.  0.
         25    2    1    2    0    0  0.42577717997E+02 -0.34379400417E+02 -0.38397754487E+03  0.40753070574E+03  0.12509083065E+03 0.  0.
         24    2    1    2    0    0  0.31462968823E+02  0.50567672390E+02  0.27783264798E+03  0.29441061166E+03  0.77068930685E+02 0.  0.
        -11    1    5    5    0    0  0.30779574685E+02  0.51496751528E+02  0.28291136044E+03  0.28920258557E+03  0.00000000000E+00 0.  1.
         12    1    5    5    0    0  0.68339413780E+00 -0.92907913831E+00 -0.50787124548E+01  0.52080260935E+01  0.00000000000E+00 0. -1.
         13    1    3    3    0    0 -0.42396170408E+01 -0.36894586706E+02 -0.17107919702E+03  0.17506363567E+03  0.00000000000E+00 0. -1.
        -14    1    3    3    0    0 -0.69801069779E+02  0.20706314734E+02 -0.34612524280E+03  0.35369990743E+03  0.00000000000E+00 0.  1.
          5    1    4    4  501    0  0.74701865118E+02  0.69336645981E+01 -0.29310517856E+03  0.30258314966E+03  0.41800000000E+01 0.  1.
         -5    1    4    4    0  501 -0.32124147121E+02 -0.41313065015E+02 -0.90872366304E+02  0.10494755608E+03  0.41800000000E+01 0.  1.
</event>
<event>
11    1  0.8974665E-009  0.1429363E+03  0.7561462E-02  0.1104323E+00
         22   -1    0    0    0    0  0.00000000000E+00  0.00000000000E+00  0.20437984436E+04  0.20437984436E+04  0.00000000000E+00 0. -1.
         22   -1    0    0    0    0 -0.00000000000E+00 -0.00000000000E+00 -0.31982197299E+04  0.31982197299E+04  0.00000000000E+00 0. -1.
         24    2    1    2    0    0 -0.39104095545E+02  0.54629329974E+02 -0.19279659352E+04  0.19307472568E+04  0.78859548379E+02 0.  0.
         25    2    1    2    0    0  0.11197212083E+02 -0.11787526890E+03 -0.12616869791E+04  0.12733895678E+04  0.12508797566E+03 0.  0.
        -24    2    1    2    0    0  0.27906883462E+02  0.63245938921E+02  0.20352316279E+04  0.20378813490E+04  0.77548502674E+02 0.  0.
        -13    1    3    3    0    0 -0.21442347131E+02 -0.18421539769E+02 -0.47877011281E+03  0.47960394942E+03  0.00000000000E+00 0.  1.
         14    1    3    3    0    0 -0.17661748415E+02  0.73050869743E+02 -0.14491958223E+04  0.14511433073E+04  0.00000000000E+00 0. -1.
         13    1    5    5    0    0 -0.14926547378E+02  0.58553437987E+02  0.12717399477E+04  0.12731746941E+04  0.00000000000E+00 0. -1.
        -14    1    5    5    0    0  0.42833430841E+02  0.46925009343E+01  0.76349168019E+03  0.76470665492E+03  0.00000000000E+00 0.  1.
          5    1    4    4  501    0 -0.12916616770E+02 -0.71700506978E+02 -0.11199551064E+04  0.11223300381E+04  0.41800000000E+01 0. -1.
         -5    1    4    4    0  501  0.24113828853E+02 -0.46174761917E+02 -0.14173187265E+03  0.15105952968E+03  0.41800000000E+01 0. -1.
</event>
<event>
11    1  0.8974665E-009  0.2599586E+03  0.7561462E-02  0.1018724E+00
         22   -1    0    0    0    0  0.00000000000E+00  0.00000000000E+00  0.24304574919E+03  0.24304574919E+03  0.00000000000E+00 0. -1.
         22   -1    0    0    0    0 -0.00000000000E+00 -0.00000000000E+00 -0.17487316764E+04  0.17487316764E+04  0.00000000000E+00 0.  1.
         24    2    1    2    0    0 -0.17614119399E+03 -0.14405360311E+03 -0.14513910222E+04  0.14708577118E+04  0.71479704757E+02 0.  0.
         25    2    1    2    0    0  0.19495126358E+03  0.12469157242E+03 -0.21477803136E+03  0.33960303291E+03  0.12508650529E+03 0.  0.
        -24    2    1    2    0    0 -0.18810069582E+02  0.19362030691E+02  0.16048312633E+03  0.18131668092E+03  0.79951222596E+02 0.  0.
        -11    1    3    3    0    0 -0.32541485592E+02 -0.61873065849E+02 -0.54794270574E+03  0.55238431670E+03  0.00000000000E+00 0.  1.
         12    1    3    3    0    0 -0.14359970840E+03 -0.82180537261E+02 -0.90344831644E+03  0.91847339506E+03  0.00000000000E+00 0. -1.
         11    1    5    5    0    0 -0.47315658724E+02 -0.86704675228E+00  0.11162857153E+03  0.12124545893E+03  0.00000000000E+00 0. -1.
        -12    1    5    5    0    0  0.28505589142E+02  0.20229077444E+02  0.48854554797E+02  0.60071221987E+02  0.00000000000E+00 0.  1.
          5    1    4    4  501    0  0.12947009694E+03  0.25691474335E+02 -0.61456464000E+02  0.14566031450E+03  0.41800000000E+01 0. -1.
         -5    1    4    4    0  501  0.65481166641E+02  0.99000098083E+02 -0.15332156736E+03  0.19394271841E+03  0.41800000000E+01 0. -1.
</event>
<event>
11    1  0.8974665E-009  0.1417819E+03  0.7561462E-02  0.1105585E+00
         22   -1    0    0    0    0  0.00000000000E+00  0.00000000000E+00  0.77399867921E+03  0.77399867921E+03  0.00000000000E+00 0. -1.
         22   -1    0    0    0    0 -0.00000000000E+00 -0.00000000000E+00 -0.32022061621E+03  0.32022061621E+03  0.00000000000E+00 0.  1.
         24    2    1    2    0    0 -0.89780144357E+01 -0.23689811113E+01 -0.26080031212E+03  0.27335219950E+03  0.81353582283E+02 0.  0.
         25    2    1    2    0    0  0.44006934333E+01 -0.64448468806E+02  0.52174823315E+02  0.15014147460E+03  0.12508908415E+03 0.  0.
        -24    2    1    2    0    0  0.45773210024E+01  0.66817449917E+02  0.66240355181E+03  0.67072562133E+03  0.81294957911E+02 0.  0.
        -11    1    3    3    0    0 -0.75375943157E+01 -0.31256827455E+02 -0.22519757146E+03  0.22748131963E+03  0.00000000000E+00 0.  1.
         12    1    3    3    0    0 -0.14404201200E+01  0.28887846344E+02 -0.35602740663E+02  0.45870879861E+02  0.00000000000E+00 0. -1.
         11    1    5    5    0    0  0.32995356691E+02  0.53433732939E+02  0.56263365725E+03  0.56612762665E+03  0.00000000000E+00 0. -1.
        -12    1    5    5    0    0 -0.28418035688E+02  0.13383716978E+02  0.99769894554E+02  0.10459799468E+03  0.00000000000E+00 0.  1.
          5    1    4    4  501    0 -0.29842324470E+02 -0.78364079729E+02 -0.25200756596E+01  0.83995931466E+02  0.41800000000E+01 0. -1.
         -5    1    4    4    0  501  0.34243017903E+02  0.13915610923E+02  0.54694898974E+02  0.66145543132E+02  0.41800000000E+01 0. -1.
</event>
<event>
11    1  0.8974665E-009  0.1774486E+03  0.7561462E-02  0.1071726E+00
         22   -1    0    0    0    0  0.00000000000E+00  0.00000000000E+00  0.71054162814E+03  0.71054162814E+03  0.00000000000E+00 0.  1.
         22   -1    0    0    0    0 -0.00000000000E+00 -0.00000000000E+00 -0.51241581487E+03  0.51241581487E+03  0.00000000000E+00 0.  1.
        -24    2    1    2    0    0 -0.12037787783E+03 -0.62103914474E+01 -0.41386376650E+03  0.43817842130E+03  0.78661993651E+02 0.  0.
         25    2    1    2    0    0  0.21936255583E+03  0.61463123715E+02  0.14517382606E+03  0.29769256163E+03  0.12509106683E+03 0.  0.
         24    2    1    2    0    0 -0.98984677997E+02 -0.55252732267E+02  0.46681575371E+03  0.48708646007E+03  0.80532234352E+02 0.  0.
        -13    1    5    5    0    0 -0.10528521958E+03 -0.42255599072E+02  0.45338455095E+03  0.46736288273E+03  0.00000000000E+00 0.  1.
         14    1    5    5    0    0  0.63005415801E+01 -0.12997133196E+02  0.13431202766E+02  0.19723577344E+02  0.00000000000E+00 0. -1.
         13    1    3    3    0    0 -0.51159934608E+02  0.34629136115E+02 -0.21468081734E+03  0.22339285868E+03  0.00000000000E+00 0. -1.
        -14    1    3    3    0    0 -0.69217943227E+02 -0.40839527562E+02 -0.19918294916E+03  0.21478556263E+03  0.00000000000E+00 0.  1.
          5    1    4    4  501    0  0.21878233428E+03  0.24697264102E+02  0.13833951012E+03  0.26005952608E+03  0.41800000000E+01 0.  1.
         -5    1    4    4    0  501  0.58022155153E+00  0.36765859612E+02  0.68343159407E+01  0.37633035547E+02  0.41800000000E+01 0.  1.
</event>
<event>
11    1  0.8974665E-009  0.1839318E+03  0.7561462E-02  0.1066506E+00
         22   -1    0    0    0    0  0.00000000000E+00  0.00000000000E+00  0.72521665045E+02  0.72521665045E+02  0.00000000000E+00 0. -1.
         22   -1    0    0    0    0 -0.00000000000E+00 -0.00000000000E+00 -0.36608290673E+04  0.36608290673E+04  0.00000000000E+00 0. -1.
         24    2    1    2    0    0  0.69426702113E+02 -0.32187797567E+02 -0.30211057045E+04  0.30231320349E+04  0.79946865627E+02 0.  0.
         25    2    1    2    0    0 -0.14801755626E+03 -0.72797953009E+02 -0.49836637408E+03  0.53965355976E+03  0.12509269691E+03 0.  0.
        -24    2    1    2    0    0  0.78590854145E+02  0.10498575058E+03 -0.68835323724E+02  0.17056513775E+03  0.84590982056E+02 0.  0.
        -13    1    3    3    0    0 -0.10867554272E+02 -0.20584657457E+02 -0.33825951499E+03  0.33905948053E+03  0.00000000000E+00 0.  1.
         14    1    3    3    0    0  0.80294256384E+02 -0.11603140111E+02 -0.26828461895E+04  0.26840725543E+04  0.00000000000E+00 0. -1.
         13    1    5    5    0    0  0.67271459994E+02  0.70793539525E+02 -0.86491687645E+02  0.13045300533E+03  0.00000000000E+00 0. -1.
        -14    1    5    5    0    0  0.11319394151E+02  0.34192211051E+02  0.17656363921E+02  0.40112132422E+02  0.00000000000E+00 0.  1.
          5    1    4    4  501    0 -0.45307833244E+02  0.32883968492E+02 -0.97100686395E+02  0.11216136071E+03  0.41800000000E+01 0. -1.
         -5    1    4    4    0  501 -0.10270972301E+03 -0.10568192150E+03 -0.40126568769E+03  0.42749219905E+03  0.41800000000E+01 0. -1.
</event>
<event>
11    1  0.8974665E-009  0.1791251E+03  0.7561462E-02  0.1070353E+00
         22   -1    0    0    0    0  0.00000000000E+00  0.00000000000E+00  0.76194620678E+03  0.76194620678E+03  0.00000000000E+00 0. -1.
         22   -1    0    0    0    0 -0.00000000000E+00 -0.00000000000E+00 -0.28914199351E+03  0.28914199351E+03  0.00000000000E+00 0. -1.
        -24    2    1    2    0    0  0.10436277319E+03  0.73652323902E+02 -0.21983826243E+03  0.26673898196E+03  0.80650912083E+02 0.  0.
         25    2    1    2    0    0 -0.11081979487E+03 -0.72051196123E+02  0.15129952426E+03  0.23667076118E+03  0.12509636829E+03 0.  0.
         24    2    1    2    0    0  0.64570216746E+01 -0.16011277796E+01  0.54134295145E+03  0.54767845715E+03  0.82796404560E+02 0.  0.
        -11    1    5    5    0    0 -0.12421532869E+02 -0.60943479384E+01  0.13018774997E+02  0.18998001423E+02  0.00000000000E+00 0.  1.
         12    1    5    5    0    0  0.18878554544E+02  0.44932201589E+01  0.52832417645E+03  0.52868045573E+03  0.00000000000E+00 0. -1.
         13    1    3    3    0    0  0.11558735171E+03  0.65875553476E+02 -0.21378603957E+03  0.25180249232E+03  0.00000000000E+00 0. -1.
        -14    1    3    3    0    0 -0.11224578516E+02  0.77767704266E+01 -0.60522228590E+01  0.14936489636E+02  0.00000000000E+00 0.  1.
          5    1    4    4  501    0 -0.10931901332E+03 -0.85903170032E+01  0.59055291725E+02  0.12461717418E+03  0.41800000000E+01 0.  1.
         -5    1    4    4    0  501 -0.15007815458E+01 -0.63460879119E+02  0.92244232538E+02  0.11205358700E+03  0.41800000000E+01 0.  1.
</event>
<event>
11    1  0.8974665E-009  0.1425963E+03  0.7561462E-02  0.1104693E+00
         22   -1    0    0    0    0  0.00000000000E+00  0.00000000000E+00  0.38255065268E+03  0.38255065268E+03  0.00000000000E+00 0.  1.
         22   -1    0    0    0    0 -0.00000000000E+00 -0.00000000000E+00 -0.18348914731E+04  0.18348914731E+04  0.00000000000E+00 0. -1.
        -24    2    1    2    0    0 -0.52190555918E+01  0.58805714857E+02 -0.10789947762E+04  0.10829591647E+04  0.71312515224E+02 0.  0.
         25    2    1    2    0    0  0.39428823143E+02 -0.11748010518E+03 -0.73613169182E+03  0.75689842652E+03  0.12509657537E+03 0.  0.
         24    2    1    2    0    0 -0.34209767551E+02  0.58674390323E+02  0.36278564756E+03  0.37758453454E+03  0.79647111553E+02 0.  0.
        -11    1    5    5    0    0  0.95825423452E+01  0.42195836602E+02  0.27230638477E+03  0.27572283353E+03  0.00000000000E+00 0.  1.
         12    1    5    5    0    0 -0.43792309896E+02  0.16478553721E+02  0.90479262784E+02  0.10186170101E+03  0.00000000000E+00 0. -1.
         13    1    3    3    0    0 -0.33708003035E+02  0.35842309305E+02 -0.80917432469E+03  0.81066885245E+03  0.00000000000E+00 0. -1.
        -14    1    3    3    0    0  0.28488947443E+02  0.22963405552E+02 -0.26982045150E+03  0.27229031229E+03  0.00000000000E+00 0.  1.
          5    1    4    4  501    0 -0.94949834058E+01 -0.68530572383E+01 -0.16869393251E+01  0.12547400833E+02  0.41800000000E+01 0. -1.
         -5    1    4    4    0  501  0.48923806549E+02 -0.11062704794E+03 -0.73444475249E+03  0.74435102569E+03  0.41800000000E+01 0. -1.
</event>
<event>
11    1  0.8974665E-009  0.1565447E+03  0.7561462E-02  0.1090373E+00
         22   -1    0    0    0    0  0.00000000000E+00  0.00000000000E+00  0.44538995964E+03  0.44538995964E+03  0.00000000000E+00 0. -1.
         22   -1    0    0    0    0 -0.00000000000E+00 -0.00000000000E+00 -0.45805290283E+03  0.45805290283E+03  0.00000000000E+00 0. -1.
        -24    2    1    2    0    0  0.77556627747E+02 -0.14576210387E+00 -0.24952839769E+03  0.27326212713E+03  0.79954469024E+02 0.  0.
         25    2    1    2    0    0 -0.58389841687E+01 -0.65119133759E+02 -0.16012476394E+03  0.21345238766E+03  0.12508951376E+03 0.  0.
         24    2    1    2    0    0 -0.71717643579E+02  0.65264895863E+02  0.39699021842E+03  0.41672834769E+03  0.81598745133E+02 0.  0.
        -11    1    5    5    0    0 -0.59795656970E+02  0.28374712475E+02  0.12003777715E+03  0.13707557347E+03  0.00000000000E+00 0.  1.
         12    1    5    5    0    0 -0.11921986609E+02  0.36890183388E+02  0.27695244128E+03  0.27965277421E+03  0.00000000000E+00 0. -1.
         13    1    3    3    0    0  0.64121932723E+02  0.27989360681E+02 -0.11054963332E+03  0.13082907932E+03  0.00000000000E+00 0. -1.
        -14    1    3    3    0    0  0.13434695024E+02 -0.28135122785E+02 -0.13897876436E+03  0.14243304781E+03  0.00000000000E+00 0.  1.
          5    1    4    4  501    0  0.13066979772E+02 -0.10006860848E+03 -0.10970893500E+03  0.14912409323E+03  0.41800000000E+01 0.  1.
         -5    1    4    4    0  501 -0.18905963941E+02  0.34949474723E+02 -0.50415828937E+02  0.64328294423E+02  0.41800000000E+01 0.  1.
</event>
<event>
11    1  0.8974665E-009  0.1337595E+03  0.7561462E-02  0.1114734E+00
         22   -1    0    0    0    0  0.00000000000E+00  0.00000000000E+00  0.39526462477E+03  0.39526462477E+03  0.00000000000E+00 0.  1.
         22   -1    0    0    0    0 -0.00000000000E+00 -0.00000000000E+00 -0.14311111556E+03  0.14311111556E+03  0.00000000000E+00 0. -1.
        -24    2    1    2    0    0 -0.35048614491E+02  0.27432579969E+02 -0.79415115133E+02  0.11816952636E+03  0.75341387210E+02 0.  0.
         25    2    1    2    0    0  0.77092387654E+02 -0.11807386051E+02  0.11526119027E+03  0.18712315423E+03  0.12508909731E+03 0.  0.
         24    2    1    2    0    0 -0.42043773162E+02 -0.15625193918E+02  0.21630743408E+03  0.23308305975E+03  0.74343669232E+02 0.  0.
        -13    1    5    5    0    0 -0.17830776836E+02 -0.28650372602E+02  0.19604741898E+03  0.19893056814E+03  0.00000000000E+00 0.  1.
         14    1    5    5    0    0 -0.24212996326E+02  0.13025178684E+02  0.20260015103E+02  0.34152491604E+02  0.00000000000E+00 0. -1.
         11    1    3    3    0    0 -0.16085740047E+02  0.32474785373E+02 -0.89172649192E+02  0.96255514553E+02  0.00000000000E+00 0. -1.
        -12    1    3    3    0    0 -0.18962874444E+02 -0.50422054038E+01  0.97575340590E+01  0.21914011806E+02  0.00000000000E+00 0.  1.
          5    1    4    4  501    0 -0.93421950525E+00 -0.94393491012E+01 -0.24712781562E+02  0.26798657617E+02  0.41800000000E+01 0. -1.
         -5    1    4    4    0  501  0.78026607159E+02 -0.23680369497E+01  0.13997397183E+03  0.16032449661E+03  0.41800000000E+01 0. -1.
</event>
<event>
11    1  0.8974665E-009  0.2040392E+03  0.7561462E-02  0.1051703E+00
         22   -1    0    0    0    0  0.00000000000E+00  0.00000000000E+00  0.14942714227E+03  0.14942714227E+03  0.00000000000E+00 0. -1.
         22   -1    0    0    0    0 -0.00000000000E+00 -0.00000000000E+00 -0.21238793510E+04  0.21238793510E+04  0.00000000000E+00 0.  1.
         24    2    1    2    0    0 -0.13481150578E+03 -0.85344614271E+02 -0.18961063384E+04  0.19044063004E+04  0.78014519038E+02 0.  0.
         25    2    1    2    0    0  0.12960025416E+03  0.15030424644E+03 -0.11254193822E+03  0.26019237925E+03  0.12508714557E+03 0.  0.
        -24    2    1    2    0    0  0.52112516214E+01 -0.64959632168E+02  0.34196067929E+02  0.10870781359E+03  0.80006916696E+02 0.  0.
        -13    1    3    3    0    0 -0.13342581226E+03 -0.54926732083E+02 -0.14150963824E+04  0.14224335362E+04  0.00000000000E+00 0.  1.
         14    1    3    3    0    0 -0.13856935133E+01 -0.30417882189E+02 -0.48100995597E+03  0.48197276422E+03  0.00000000000E+00 0. -1.
         11    1    5    5    0    0 -0.26404031177E+02 -0.38359928948E+02  0.46285983933E+02  0.65658581464E+02  0.00000000000E+00 0. -1.
        -12    1    5    5    0    0  0.31615282798E+02 -0.26599703219E+02 -0.12089916003E+02  0.43049232127E+02  0.00000000000E+00 0.  1.
          5    1    4    4  501    0 -0.18632867950E+02  0.54557677949E+02 -0.22398643820E+02  0.61991093200E+02  0.41800000000E+01 0. -1.
         -5    1    4    4    0  501  0.14823312211E+03  0.95746568490E+02 -0.90143294396E+02  0.19820128605E+03  0.41800000000E+01 0. -1.
</event>
<event>
11    1  0.8974665E-009  0.1660538E+03  0.7561462E-02  0.1081518E+00
         22   -1    0    0    0    0  0.00000000000E+00  0.00000000000E+00  0.94362324991E+03  0.94362324991E+03  0.00000000000E+00 0. -1.
         22   -1    0    0    0    0 -0.00000000000E+00 -0.00000000000E+00 -0.19745922034E+04  0.19745922034E+04  0.00000000000E+00 0.  1.
        -24    2    1    2    0    0 -0.55747818165E+02 -0.94405544346E+02 -0.19353948751E+04  0.19401892400E+04  0.80998386561E+02 0.  0.
         25    2    1    2    0    0  0.76617053207E+02  0.44975280385E+02  0.14101814930E+03  0.20839150314E+03  0.12509177215E+03 0.  0.
         24    2    1    2    0    0 -0.20869235042E+02  0.49430263961E+02  0.76340777229E+03  0.76963471014E+03  0.81653440234E+02 0.  0.
        -11    1    5    5    0    0 -0.35413849929E+00  0.55332804878E+02  0.70949362838E+03  0.71164812473E+03  0.00000000000E+00 0.  1.
         12    1    5    5    0    0 -0.20515096542E+02 -0.59025409167E+01  0.53914143903E+02  0.57986585416E+02  0.00000000000E+00 0. -1.
         11    1    3    3    0    0 -0.18570830094E+01  0.51853362102E+01 -0.59335834584E+03  0.59338390866E+03  0.00000000000E+00 0. -1.
        -12    1    3    3    0    0 -0.53890735156E+02 -0.99590880556E+02 -0.13420365292E+04  0.13468053314E+04  0.00000000000E+00 0.  1.
          5    1    4    4  501    0  0.34562082188E+02  0.46035378073E+02 -0.34938763546E+01  0.57822773468E+02  0.41800000000E+01 0. -1.
         -5    1    4    4    0  501  0.42054971020E+02 -0.10600976886E+01  0.14451202566E+03  0.15056872967E+03  0.41800000000E+01 0. -1.
</event>
<event>
11    1  0.8974665E-009  0.1597716E+03  0.7561462E-02  0.1087292E+00
         22   -1    0    0    0    0  0.00000000000E+00  0.00000000000E+00  0.38650844397E+03  0.38650844397E+03  0.00000000000E+00 0.  1.
         22   -1    0    0    0    0 -0.00000000000E+00 -0.00000000000E+00 -0.37486021033E+03  0.37486021033E+03  0.00000000000E+00 0. -1.
        -24    2    1    2    0    0  0.57198656156E+00 -0.95527622857E+02 -0.25403477378E+03  0.28309348886E+03  0.80513373090E+02 0.  0.
         25    2    1    2    0    0  0.71566282804E+01  0.11926331212E+03 -0.25448033864E+02  0.17484321144E+03  0.12509033221E+03 0.  0.
         24    2    1    2    0    0 -0.77286148419E+01 -0.23735689261E+02  0.29113104128E+03  0.30343195400E+03  0.81795801094E+02 0.  0.
        -13    1    5    5    0    0 -0.44539082070E+01 -0.51198420146E+02  0.23852581409E+03  0.24399934326E+03  0.00000000000E+00 0.  1.
         14    1    5    5    0    0 -0.32747066349E+01  0.27462730885E+02  0.52605227194E+02  0.59432610740E+02  0.00000000000E+00 0. -1.
         13    1    3    3    0    0  0.17107395066E+02 -0.10263799864E+03 -0.19058624956E+03  0.21714129099E+03  0.00000000000E+00 0. -1.
        -14    1    3    3    0    0 -0.16535408504E+02  0.71103757799E+01 -0.63448524226E+02  0.65952197875E+02  0.00000000000E+00 0.  1.
          5    1    4    4  501    0  0.26652382390E+02  0.13921148600E+03 -0.33111931806E+02  0.14561613835E+03  0.41800000000E+01 0. -1.
         -5    1    4    4    0  501 -0.19495754110E+02 -0.19948173881E+02  0.76638979418E+01  0.29227073085E+02  0.41800000000E+01 0. -1.
</event>
<event>
11    1  0.8974665E-009  0.2687727E+03  0.7561462E-02  0.1014348E+00
         22   -1    0    0    0    0  0.00000000000E+00  0.00000000000E+00  0.11456152964E+04  0.11456152964E+04  0.00000000000E+00 0. -1.
         22   -1    0    0    0    0 -0.00000000000E+00 -0.00000000000E+00 -0.13522019547E+04  0.13522019547E+04  0.00000000000E+00 0.  1.
         24    2    1    2    0    0 -0.15945270701E+03 -0.17828123807E+03 -0.12933082495E+04  0.13176412215E+04  0.79516002651E+02 0.  0.
         25    2    1    2    0    0  0.87438367880E+02  0.19085128141E+03  0.30493994942E+03  0.39077615523E+03  0.12509177011E+03 0.  0.
        -24    2    1    2    0    0  0.72014339134E+02 -0.12570043347E+02  0.78178164179E+03  0.78939987440E+03  0.81397513673E+02 0.  0.
        -11    1    3    3    0    0 -0.13452277305E+03 -0.11816179340E+03 -0.10760236872E+04  0.10908187573E+04  0.00000000000E+00 0.  1.
         12    1    3    3    0    0 -0.24929933968E+02 -0.60119444668E+02 -0.21728456236E+03  0.22682246422E+03  0.00000000000E+00 0. -1.
         11    1    5    5    0    0  0.39033974137E+02 -0.17689470243E+02  0.69654228312E+03  0.69785938460E+03  0.00000000000E+00 0. -1.
        -12    1    5    5    0    0  0.32980364998E+02  0.51194268965E+01  0.85239358671E+02  0.91540489805E+02  0.00000000000E+00 0.  1.
          5    1    4    4  501    0  0.34671770130E+02  0.49269861362E+02  0.19426853221E+03  0.20343889964E+03  0.41800000000E+01 0.  1.
         -5    1    4    4    0  501  0.52766597750E+02  0.14158142005E+03  0.11067141721E+03  0.18733725558E+03  0.41800000000E+01 0.  1.
</event>
<event>
11    1  0.8974665E-009  0.1281835E+03  0.7561462E-02  0.1121521E+00
         22   -1    0    0    0    0  0.00000000000E+00  0.00000000000E+00  0.13923872615E+04  0.13923872615E+04  0.00000000000E+00 0. -1.
         22   -1    0    0    0    0 -0.00000000000E+00 -0.00000000000E+00 -0.18615653746E+03  0.18615653746E+03  0.00000000000E+00 0.  1.
        -24    2    1    2    0    0  0.45197897269E+02  0.54696500754E+01 -0.15912733088E+03  0.18382189673E+03  0.79976342094E+02 0.  0.
         25    2    1    2    0    0 -0.53946848885E+02 -0.27626605501E+02  0.37876634808E+03  0.40346565758E+03  0.12508836306E+03 0.  0.
         24    2    1    2    0    0  0.87489516162E+01  0.22156955425E+02  0.98659170685E+03  0.99125624466E+03  0.93049834693E+02 0.  0.
        -13    1    5    5    0    0 -0.75530792718E+01 -0.12601292375E+01  0.47734005625E+01  0.90234297865E+01  0.00000000000E+00 0.  1.
         14    1    5    5    0    0  0.16302030888E+02  0.23417084663E+02  0.98181830629E+03  0.98223281488E+03  0.00000000000E+00 0. -1.
         11    1    3    3    0    0  0.29515687140E+02 -0.19283424637E+01 -0.65921147178E+01  0.30304294555E+02  0.00000000000E+00 0. -1.
        -12    1    3    3    0    0  0.15682210129E+02  0.73979925391E+01 -0.15253521616E+03  0.15351760217E+03  0.00000000000E+00 0.  1.
          5    1    4    4  501    0 -0.25820812343E+02  0.29471182842E+02  0.29778026183E+03  0.30037613371E+03  0.41800000000E+01 0. -1.
         -5    1    4    4    0  501 -0.28126036542E+02 -0.57097788342E+02  0.80986086249E+02  0.10308952387E+03  0.41800000000E+01 0. -1.
</event>
<event>
11    1  0.8974665E-009  0.1304996E+03  0.7561462E-02  0.1118657E+00
         22   -1    0    0    0    0  0.00000000000E+00  0.00000000000E+00  0.47097310788E+03  0.47097310788E+03  0.00000000000E+00 0. -1.
         22   -1    0    0    0    0 -0.00000000000E+00 -0.00000000000E+00 -0.64318866547E+03  0.64318866547E+03  0.00000000000E+00 0.  1.
         24    2    1    2    0    0 -0.24890888424E+02 -0.66387512878E+01 -0.61446131500E+03  0.61931243956E+03  0.72949028855E+02 0.  0.
         25    2    1    2    0    0  0.77799481601E+01  0.40291389212E+02  0.29960791735E+03  0.32725597652E+03  0.12509055276E+03 0.  0.
        -24    2    1    2    0    0  0.17110940264E+02 -0.33652637924E+02  0.14263784006E+03  0.16759335727E+03  0.79477642572E+02 0.  0.
        -13    1    3    3    0    0 -0.10008708940E+02 -0.35180454247E+02 -0.46437375756E+03  0.46581200642E+03  0.00000000000E+00 0.  1.
         14    1    3    3    0    0 -0.14882179484E+02  0.28541702959E+02 -0.15008755744E+03  0.15350043314E+03  0.00000000000E+00 0. -1.
         11    1    5    5    0    0  0.25856197700E+02 -0.35695476562E+02  0.14977261422E+03  0.15612349591E+03  0.00000000000E+00 0. -1.
        -12    1    5    5    0    0 -0.87452574366E+01  0.20428386375E+01 -0.71347741574E+01  0.11469861360E+02  0.00000000000E+00 0.  1.
          5    1    4    4  501    0  0.20423628216E+02  0.51074540365E+02  0.42655978248E+02  0.69733335954E+02  0.41800000000E+01 0. -1.
         -5    1    4    4    0  501 -0.12643680056E+02 -0.10783151153E+02  0.25695193910E+03  0.25752264056E+03  0.41800000000E+01 0. -1.
</event>
<event>
11    1  0.8974665E-009  0.3102079E+03  0.7561462E-02  0.9959612E-01
         22   -1    0    0    0    0  0.00000000000E+00  0.00000000000E+00  0.39556602128E+04  0.39556602128E+04  0.00000000000E+00 0.  1.
         22   -1    0    0    0    0 -0.00000000000E+00 -0.00000000000E+00 -0.54069967942E+03  0.54069967942E+03  0.00000000000E+00 0. -1.
        -24    2    1    2    0    0 -0.15887213126E+02  0.25716898676E+03 -0.29544391968E+03  0.40069692700E+03  0.82961595536E+02 0.  0.
         25    2    1    2    0    0 -0.42970463907E+02 -0.52712255920E+03  0.20862688059E+03  0.58213364166E+03  0.12509895388E+03 0.  0.
         24    2    1    2    0    0  0.58857677032E+02  0.26995357243E+03  0.35017775725E+04  0.35135293235E+04  0.78121591343E+02 0.  0.
        -11    1    5    5    0    0  0.27500066411E+02  0.12595520726E+03  0.21196137264E+04  0.21235308608E+04  0.00000000000E+00 0.  1.
         12    1    5    5    0    0  0.31357610622E+02  0.14399836517E+03  0.13821638461E+04  0.13899984627E+04  0.00000000000E+00 0. -1.
         11    1    3    3    0    0  0.29842033865E+02  0.16621006483E+03 -0.18607521062E+03  0.25127736994E+03  0.00000000000E+00 0. -1.
        -12    1    3    3    0    0 -0.45729246990E+02  0.90958921933E+02 -0.10936870907E+03  0.14941955706E+03  0.00000000000E+00 0.  1.
          5    1    4    4  501    0 -0.13439162757E+01 -0.27643192992E+03  0.45649092897E+02  0.28021015341E+03  0.41800000000E+01 0.  1.
         -5    1    4    4    0  501 -0.41626547631E+02 -0.25069062927E+03  0.16297778769E+03  0.30192348824E+03  0.41800000000E+01 0.  1.
</event>
<event>
11    1  0.8974665E-009  0.2044078E+03  0.7561462E-02  0.1051450E+00
         22   -1    0    0    0    0  0.00000000000E+00  0.00000000000E+00  0.87594473167E+03  0.87594473167E+03  0.00000000000E+00 0. -1.
         22   -1    0    0    0    0 -0.00000000000E+00 -0.00000000000E+00 -0.20444553404E+04  0.20444553404E+04  0.00000000000E+00 0.  1.
         24    2    1    2    0    0 -0.53858372145E+02 -0.15210687044E+03 -0.20068216587E+04  0.20148770970E+04  0.79745358399E+02 0.  0.
         25    2    1    2    0    0  0.40995300293E+02  0.19836163797E+03  0.48937745093E+03  0.54421073376E+03  0.12508828561E+03 0.  0.
        -24    2    1    2    0    0  0.12863071852E+02 -0.46254767535E+02  0.34893359903E+03  0.36131224126E+03  0.80541399393E+02 0.  0.
        -13    1    3    3    0    0 -0.38331801991E+02 -0.10964134086E+03 -0.17681211635E+04  0.17719319962E+04  0.00000000000E+00 0.  1.
         14    1    3    3    0    0 -0.15526570154E+02 -0.42465529578E+02 -0.23870049520E+03  0.24294510078E+03  0.00000000000E+00 0. -1.
         13    1    5    5    0    0  0.22869815428E+02 -0.61754505542E+02  0.32200497530E+03  0.32866982145E+03  0.00000000000E+00 0. -1.
        -14    1    5    5    0    0 -0.10006743576E+02  0.15499738007E+02  0.26928623727E+02  0.32642419811E+02  0.00000000000E+00 0.  1.
          5    1    4    4  501    0  0.64085141195E+02  0.13221167172E+03  0.21118305023E+03  0.25729862916E+03  0.41800000000E+01 0.  1.
         -5    1    4    4    0  501 -0.23089840902E+02  0.66149966254E+02  0.27819440070E+03  0.28691210460E+03  0.41800000000E+01 0.  1.
</event>
<event>
11    1  0.8974665E-009  0.1320135E+03  0.7561462E-02  0.1116820E+00
         22   -1    0    0    0    0  0.00000000000E+00  0.00000000000E+00  0.18231038412E+04  0.18231038412E+04  0.00000000000E+00 0.  1.
         22   -1    0    0    0    0 -0.00000000000E+00 -0.00000000000E+00 -0.14916444629E+02  0.14916444629E+02  0.00000000000E+00 0.  1.
        -24    2    1    2    0    0  0.30579831782E+01  0.66466542159E+01  0.24048840807E+03  0.25427803634E+03  0.82274638101E+02 0.  0.
         25    2    1    2    0    0  0.35366924736E+02  0.16550268815E+02  0.97236930445E+03  0.98115976812E+03  0.12509074932E+03 0.  0.
         24    2    1    2    0    0 -0.38424907914E+02 -0.23196923031E+02  0.59532968402E+03  0.60258248135E+03  0.81692370296E+02 0.  0.
        -11    1    5    5    0    0 -0.28794311694E+02 -0.33934868044E+02  0.57934534053E+03  0.58105224486E+03  0.00000000000E+00 0.  1.
         12    1    5    5    0    0 -0.96305962201E+01  0.10737945013E+02  0.15984343488E+02  0.21530236491E+02  0.00000000000E+00 0. -1.
         13    1    3    3    0    0  0.24560711038E+02  0.95578996566E+01  0.22743193881E+03  0.22895385728E+03  0.00000000000E+00 0. -1.
        -14    1    3    3    0    0 -0.21502727860E+02 -0.29112454408E+01  0.13056469260E+02  0.25324179058E+02  0.00000000000E+00 0.  1.
          5    1    4    4  501    0 -0.28817465480E+02  0.14103175772E+02  0.77553839250E+02  0.84032233494E+02  0.41800000000E+01 0. -1.
         -5    1    4    4    0  501  0.64184390216E+02  0.24470930434E+01  0.89481546520E+03  0.89712753462E+03  0.41800000000E+01 0. -1.
</event>
<event>
11    1  0.8974665E-009  0.1384946E+03  0.7561462E-02  0.1109251E+00
         22   -1    0    0    0    0  0.00000000000E+00  0.00000000000E+00  0.84441122042E+02  0.84441122042E+02  0.00000000000E+00 0.  1.
         22   -1    0    0    0    0 -0.00000000000E+00 -0.00000000000E+00 -0.70391932970E+03  0.70391932970E+03  0.00000000000E+00 0. -1.
        -24    2    1    2    0    0 -0.20228384537E+02 -0.33032641293E+02 -0.43679028482E+03  0.44550948355E+03  0.78693100617E+02 0.  0.
         25    2    1    2    0    0  0.70990121635E+02  0.52554360194E+02 -0.19397045208E+03  0.24712968081E+03  0.12508790793E+03 0.  0.
         24    2    1    2    0    0 -0.50761737098E+02 -0.19521718901E+02  0.11282529249E+02  0.95721287385E+02  0.77957795828E+02 0.  0.
        -11    1    5    5    0    0 -0.69682810909E+02 -0.23319391234E+02  0.22921230035E+00  0.73481566954E+02  0.00000000000E+00 0.  1.
         12    1    5    5    0    0  0.18921073811E+02  0.37976723322E+01  0.11053316948E+02  0.22239720431E+02  0.00000000000E+00 0. -1.
         11    1    3    3    0    0 -0.78081287602E+01  0.24934167817E+02 -0.18491075525E+03  0.18674760241E+03  0.00000000000E+00 0. -1.
        -12    1    3    3    0    0 -0.12420255777E+02 -0.57966809109E+02 -0.25187952958E+03  0.25876188114E+03  0.00000000000E+00 0.  1.
          5    1    4    4  501    0  0.13616546121E+02 -0.35636638568E+02 -0.18767264727E+02  0.42720755635E+02  0.41800000000E+01 0.  1.
         -5    1    4    4    0  501  0.57373575514E+02  0.88190998763E+02 -0.17520318736E+03  0.20440892517E+03  0.41800000000E+01 0.  1.
</event>
<event>
11    1  0.8974665E-009  0.1654470E+03  0.7561462E-02  0.1082063E+00
         22   -1    0    0    0    0  0.00000000000E+00  0.00000000000E+00  0.42225378807E+04  0.42225378807E+04  0.00000000000E+00 0. -1.
         22   -1    0    0    0    0 -0.00000000000E+00 -0.00000000000E+00 -0.59183062916E+02  0.59183062916E+02  0.00000000000E+00 0. -1.
        -24    2    1    2    0    0 -0.23686896135E+02 -0.25035082881E+02 -0.15140132167E+02  0.92203063685E+02  0.84168621989E+02 0.  0.
         25    2    1    2    0    0  0.98095342974E+02 -0.52988027480E+02  0.25080703996E+04  0.25136618087E+04  0.12509249436E+03 0.  0.
         24    2    1    2    0    0 -0.74408446839E+02  0.78023110361E+02  0.16704245504E+04  0.16758560713E+04  0.80939299008E+02 0.  0.
        -11    1    5    5    0    0 -0.34180938854E+02  0.78117477932E+02  0.13835107910E+04  0.13861359189E+04  0.00000000000E+00 0.  1.
         12    1    5    5    0    0 -0.40227507985E+02 -0.94367570819E-01  0.28691375948E+03  0.28972015236E+03  0.00000000000E+00 0. -1.
         11    1    3    3    0    0 -0.53692686993E+02 -0.25393817735E+02 -0.19573094959E+01  0.59427112299E+02  0.00000000000E+00 0. -1.
        -12    1    3    3    0    0  0.30005790858E+02  0.35873485367E+00 -0.13182822671E+02  0.32775951386E+02  0.00000000000E+00 0.  1.
          5    1    4    4  501    0  0.86290019114E+02  0.23075995249E+02  0.14864018566E+04  0.14890891245E+04  0.41800000000E+01 0. -1.
         -5    1    4    4    0  501  0.11805323859E+02 -0.76064022729E+02  0.10216685430E+04  0.10245726843E+04  0.41800000000E+01 0. -1.
</event>
<event>
11    1  0.8974665E-009  0.1631520E+03  0.7561462E-02  0.1084150E+00
         22   -1    0    0    0    0  0.00000000000E+00  0.00000000000E+00  0.84991642749E+03  0.84991642749E+03  0.00000000000E+00 0.  1.
         22   -1    0    0    0    0 -0.00000000000E+00 -0.00000000000E+00 -0.83995016450E+03  0.83995016450E+03  0.00000000000E+00 0. -1.
        -24    2    1    2    0    0  0.64114146659E+02 -0.36704620287E+01 -0.62294038580E+03  0.63169473934E+03  0.82821635823E+02 0.  0.
         25    2    1    2    0    0 -0.16695408435E+03 -0.36034985139E+01 -0.15456300248E+03  0.25965768495E+03  0.12508293304E+03 0.  0.
         24    2    1    2    0    0  0.10283993769E+03  0.72739605426E+01  0.78746965128E+03  0.79851416769E+03  0.82990728658E+02 0.  0.
        -11    1    5    5    0    0  0.10517032260E+02  0.34133830427E+02  0.24487469424E+03  0.24746584052E+03  0.00000000000E+00 0.  1.
         12    1    5    5    0    0  0.92322905429E+02 -0.26859869885E+02  0.54259495704E+03  0.55104832717E+03  0.00000000000E+00 0. -1.
         11    1    3    3    0    0  0.80089201773E+02  0.59315142908E+01 -0.56867546773E+03  0.57431807450E+03  0.00000000000E+00 0. -1.
        -12    1    3    3    0    0 -0.15975055114E+02 -0.96019763195E+01 -0.54264918070E+02  0.57376664841E+02  0.00000000000E+00 0.  1.
          5    1    4    4  501    0 -0.12855425985E+03  0.23172070537E+02 -0.41352675306E+02  0.13707902368E+03  0.41800000000E+01 0. -1.
         -5    1    4    4    0  501 -0.38399824496E+02 -0.26775569051E+02 -0.11321032718E+03  0.12257866127E+03  0.41800000000E+01 0. -1.
</event>
<event>
11    1  0.8974665E-009  0.1355030E+03  0.7561462E-02  0.1112687E+00
         22   -1    0    0    0    0  0.00000000000E+00  0.00000000000E+00  0.37567549351E+03  0.37567549351E+03  0.00000000000E+00 0.  1.
         22   -1    0    0    0    0 -0.00000000000E+00 -0.00000000000E+00 -0.15770086003E+04  0.15770086003E+04  0.00000000000E+00 0. -1.
        -24    2    1    2    0    0 -0.15272873570E-01  0.24540020159E+02 -0.14247783343E+04  0.14272979338E+04  0.81141092263E+02 0.  0.
         25    2    1    2    0    0 -0.41498790021E+02  0.79127517952E+01 -0.11473664682E+03  0.17492162114E+03  0.12509322206E+03 0.  0.
         24    2    1    2    0    0  0.41514062895E+02 -0.32452771954E+02  0.33818187436E+03  0.35046453894E+03  0.75377802345E+02 0.  0.
        -11    1    5    5    0    0  0.18240628026E+02 -0.48789010610E+02  0.28898372560E+03  0.29364039526E+03  0.00000000000E+00 0.  1.
         12    1    5    5    0    0  0.23273434869E+02  0.16336238656E+02  0.49198148762E+02  0.56824143686E+02  0.00000000000E+00 0. -1.
         11    1    3    3    0    0 -0.38098138604E+02 -0.20674870183E+01 -0.59919938457E+03  0.60041289554E+03  0.00000000000E+00 0. -1.
        -12    1    3    3    0    0  0.38082865730E+02  0.26607507177E+02 -0.82557894978E+03  0.82688503821E+03  0.00000000000E+00 0.  1.
          5    1    4    4  501    0 -0.71256509982E+02  0.43834222636E+02 -0.60884040406E+02  0.10355321369E+03  0.41800000000E+01 0. -1.
         -5    1    4    4    0  501  0.29757719961E+02 -0.35921470841E+02 -0.53852606416E+02  0.71368407454E+02  0.41800000000E+01 0. -1.
</event>
<event>
11    1  0.1016783E-008  0.1687758E+03  0.7561462E-02  0.1079102E+00
         22   -1    0    0    0    0  0.00000000000E+00  0.00000000000E+00  0.99643250170E+03  0.99643250170E+03  0.00000000000E+00 0.  1.
         22   -1    0    0    0    0 -0.00000000000E+00 -0.00000000000E+00 -0.55038061450E+03  0.55038061450E+03  0.00000000000E+00 0.  1.
        -24    2    1    2    0    0  0.56994542118E+02  0.38464332010E+02 -0.38357287762E+03  0.39779528657E+03  0.79906538576E+02 0.  0.
         25    2    1    2    0    0  0.24919838110E+02  0.42906804595E+02 -0.12530579435E+03  0.18387840307E+03  0.12509089818E+03 0.  0.
         24    2    1    2    0    0 -0.81914380228E+02 -0.81371136605E+02  0.95493055916E+03  0.96513942656E+03  0.79186566543E+02 0.  0.
        -11    1    5    5    0    0 -0.94296907322E+02 -0.66438322757E+02  0.88779270213E+03  0.89525518118E+03  0.00000000000E+00 0.  1.
         12    1    5    5    0    0  0.12382527094E+02 -0.14932813847E+02  0.67137857029E+02  0.69884245385E+02  0.00000000000E+00 0. -1.
         11    1    3    3    0    0  0.93614657045E+01 -0.16844250070E+02 -0.23464190530E+02  0.30363366707E+02  0.00000000000E+00 0. -1.
        -12    1    3    3    0    0  0.47633076414E+02  0.55308582080E+02 -0.36010868709E+03  0.36743191987E+03  0.00000000000E+00 0.  1.
          5    1    4    4  501    0  0.59052712789E+02  0.45054540761E+01 -0.11762717303E+03  0.13176170248E+03  0.41800000000E+01 0. -1.
         -5    1    4    4    0  501 -0.34132874679E+02  0.38401350518E+02 -0.76786213179E+01  0.52116700594E+02  0.41800000000E+01 0. -1.
</event>
<event>
11    1  0.8974665E-009  0.1511510E+03  0.7561462E-02  0.1095708E+00
         22   -1    0    0    0    0  0.00000000000E+00  0.00000000000E+00  0.28493868175E+03  0.28493868175E+03  0.00000000000E+00 0.  1.
         22   -1    0    0    0    0 -0.00000000000E+00 -0.00000000000E+00 -0.78141028504E+03  0.78141028504E+03  0.00000000000E+00 0. -1.
         24    2    1    2    0    0 -0.63572438292E+02  0.20835390739E+01 -0.44932748459E+03  0.46137595169E+03  0.83227305276E+02 0.  0.
         25    2    1    2    0    0  0.14579856553E+03 -0.51938568148E+01 -0.28342781237E+03  0.34243744050E+03  0.12509147841E+03 0.  0.
        -24    2    1    2    0    0 -0.82226127238E+02  0.31103177409E+01  0.23628369367E+03  0.26253557460E+03  0.79524423643E+02 0.  0.
        -13    1    3    3    0    0  0.19254776470E+02  0.76341646560E+01 -0.66482274947E+02  0.69634185348E+02  0.00000000000E+00 0.  1.
         14    1    3    3    0    0 -0.82827214762E+02 -0.55506255821E+01 -0.38284520965E+03  0.39174176634E+03  0.00000000000E+00 0. -1.
         11    1    5    5    0    0  0.49922059907E+01  0.24184007616E+02  0.49501034342E+02  0.55318538899E+02  0.00000000000E+00 0. -1.
        -12    1    5    5    0    0 -0.87218333229E+02 -0.21073689875E+02  0.18678265933E+03  0.20721703570E+03  0.00000000000E+00 0.  1.
          5    1    4    4  501    0  0.10967497589E+02 -0.39171237210E+02 -0.12542801069E+03  0.13192547174E+03  0.41800000000E+01 0.  1.
         -5    1    4    4    0  501  0.13483106794E+03  0.33977380395E+02 -0.15799980169E+03  0.21051196876E+03  0.41800000000E+01 0.  1.
</event>
<event>
11    1  0.8974665E-009  0.1500062E+03  0.7561462E-02  0.1096872E+00
         22   -1    0    0    0    0  0.00000000000E+00  0.00000000000E+00  0.10007563323E+04  0.10007563323E+04  0.00000000000E+00 0. -1.
         22   -1    0    0    0    0 -0.00000000000E+00 -0.00000000000E+00 -0.27822963537E+03  0.27822963537E+03  0.00000000000E+00 0.  1.
        -24    2    1    2    0    0 -0.25375447941E+01  0.83064995175E+02 -0.25016671852E+03  0.27579519105E+03  0.81076308469E+02 0.  0.
         25    2    1    2    0    0  0.38545203838E+02 -0.63432567755E+02  0.72787096034E+03  0.74226239095E+03  0.12509156130E+03 0.  0.
         24    2    1    2    0    0 -0.36007659044E+02 -0.19632427421E+02  0.24482245509E+03  0.26092838566E+03  0.80396543524E+02 0.  0.
        -13    1    5    5    0    0  0.18305942562E+02 -0.35375658534E+01  0.14465980846E+03  0.14585637487E+03  0.00000000000E+00 0.  1.
         14    1    5    5    0    0 -0.54313601606E+02 -0.16094861567E+02  0.10016264663E+03  0.11507201079E+03  0.00000000000E+00 0. -1.
         13    1    3    3    0    0 -0.27444847351E+02  0.66901508582E+02 -0.10416298568E+03  0.12680283547E+03  0.00000000000E+00 0. -1.
        -14    1    3    3    0    0  0.24907302557E+02  0.16163486593E+02 -0.14600373284E+03  0.14899235558E+03  0.00000000000E+00 0.  1.
          5    1    4    4  501    0  0.13281657355E+02 -0.75090179992E+02  0.69417956301E+03  0.69836786556E+03  0.41800000000E+01 0. -1.
         -5    1    4    4    0  501  0.25263546483E+02  0.11657612238E+02  0.33691397335E+02  0.43894525381E+02  0.41800000000E+01 0. -1.
</event>
<event>
11    1  0.8974665E-009  0.1329916E+03  0.7561462E-02  0.1115647E+00
         22   -1    0    0    0    0  0.00000000000E+00  0.00000000000E+00  0.12295411193E+04  0.12295411193E+04  0.00000000000E+00 0.  1.
         22   -1    0    0    0    0 -0.00000000000E+00 -0.00000000000E+00 -0.16656612170E+03  0.16656612170E+03  0.00000000000E+00 0.  1.
        -24    2    1    2    0    0  0.50414103649E+02  0.10272271813E+02 -0.12933294159E+03  0.16087808755E+03  0.80669993540E+02 0.  0.
         25    2    1    2    0    0 -0.75868143957E+02  0.21212706288E+02  0.28855111390E+03  0.32421437334E+03  0.12508900982E+03 0.  0.
         24    2    1    2    0    0  0.25454040308E+02 -0.31484978101E+02  0.90375682532E+03  0.91101478014E+03  0.10738863211E+03 0.  0.
        -11    1    5    5    0    0 -0.25346593060E+01  0.24950177596E+02  0.61297015795E+03  0.61348296668E+03  0.00000000000E+00 0.  1.
         12    1    5    5    0    0  0.27988699614E+02 -0.56435155698E+02  0.29078666737E+03  0.29753181347E+03  0.00000000000E+00 0. -1.
         13    1    3    3    0    0  0.18455105557E+02  0.25982912221E+02 -0.59012880934E+01  0.32411847368E+02  0.00000000000E+00 0. -1.
        -14    1    3    3    0    0  0.31958998092E+02 -0.15710640408E+02 -0.12343165350E+03  0.12846624018E+03  0.00000000000E+00 0.  1.
          5    1    4    4  501    0 -0.22714267034E+02  0.53576935159E+02  0.47527692158E+02  0.75251444038E+02  0.41800000000E+01 0.  1.
         -5    1    4    4    0  501 -0.53153876923E+02 -0.32364228870E+02  0.24102342174E+03  0.24896292931E+03  0.41800000000E+01 0.  1.
</event>
<event>
11    1  0.8974665E-009  0.1308982E+03  0.7561462E-02  0.1118170E+00
         22   -1    0    0    0    0  0.00000000000E+00  0.00000000000E+00  0.16573647318E+04  0.16573647318E+04  0.00000000000E+00 0.  1.
         22   -1    0    0    0    0 -0.00000000000E+00 -0.00000000000E+00 -0.85726177997E+02  0.85726177997E+02  0.00000000000E+00 0.  1.
        -24    2    1    2    0    0 -0.35109335999E+02  0.19158014874E+02 -0.40111617141E+02  0.99592881793E+02  0.81915232197E+02 0.  0.
         25    2    1    2    0    0  0.12178372765E+02 -0.27939459406E+02  0.27048608912E+03  0.29956844487E+03  0.12509837167E+03 0.  0.
         24    2    1    2    0    0  0.22930963234E+02  0.87814445315E+01  0.13412640818E+04  0.13439295831E+04  0.80959523253E+02 0.  0.
        -11    1    5    5    0    0  0.51433299316E+02  0.17922926582E+02  0.82020549436E+03  0.82201196376E+03  0.00000000000E+00 0.  1.
         12    1    5    5    0    0 -0.28502336082E+02 -0.91414820504E+01  0.52105858745E+03  0.52191761937E+03  0.00000000000E+00 0. -1.
         11    1    3    3    0    0  0.12294353568E+02 -0.33037448527E+01  0.17524108793E+02  0.21660107310E+02  0.00000000000E+00 0. -1.
        -12    1    3    3    0    0 -0.47403689568E+02  0.22461759727E+02 -0.57635725933E+02  0.77932774482E+02  0.00000000000E+00 0.  1.
          5    1    4    4  501    0 -0.18358125302E+02 -0.19987148577E+02  0.26601138602E+03  0.26742482451E+03  0.41800000000E+01 0.  1.
         -5    1    4    4    0  501  0.30536498067E+02 -0.79523108286E+01  0.44747031037E+01  0.32143620356E+02  0.41800000000E+01 0.  1.
</event>
<event>
11    1  0.8974665E-009  0.1459709E+03  0.7561462E-02  0.1101068E+00
         22   -1    0    0    0    0  0.00000000000E+00  0.00000000000E+00  0.13306507367E+03  0.13306507367E+03  0.00000000000E+00 0.  1.
         22   -1    0    0    0    0 -0.00000000000E+00 -0.00000000000E+00 -0.37049211170E+04  0.37049211170E+04  0.00000000000E+00 0. -1.
         24    2    1    2    0    0  0.50674357087E+02 -0.57123534228E+02 -0.30615413103E+04  0.30635194954E+04  0.79281240153E+02 0.  0.
         25    2    1    2    0    0 -0.67154578493E+02  0.28294662027E+02 -0.61929365651E+03  0.63598044645E+03  0.12504467187E+03 0.  0.
        -24    2    1    2    0    0  0.16480221406E+02  0.28828872201E+02  0.10897892346E+03  0.13848624890E+03  0.78735848285E+02 0.  0.
        -13    1    3    3    0    0 -0.68700549136E+01  0.15280610308E+02 -0.62221284921E+03  0.62243836998E+03  0.00000000000E+00 0.  1.
         14    1    3    3    0    0  0.57544412001E+02 -0.72404144536E+02 -0.24393284611E+04  0.24410811254E+04  0.00000000000E+00 0. -1.
         11    1    5    5    0    0 -0.26654754330E+02 -0.41926687424E+01  0.17714708149E+02  0.32277938044E+02  0.00000000000E+00 0. -1.
        -12    1    5    5    0    0  0.43134975736E+02  0.33021540943E+02  0.91264215311E+02  0.10620831085E+03  0.00000000000E+00 0.  1.
          5    1    4    4  501    0 -0.89204713399E+02 -0.60410727682E-01 -0.55565160352E+03  0.56278207277E+03  0.41800000000E+01 0. -1.
         -5    1    4    4    0  501  0.22050134905E+02  0.28355072755E+02 -0.63642052992E+02  0.73198373680E+02  0.41800000000E+01 0. -1.
</event>
<event>
11    1  0.8974665E-009  0.3180280E+03  0.7561462E-02  0.9928374E-01
         22   -1    0    0    0    0  0.00000000000E+00  0.00000000000E+00  0.64119678040E+03  0.64119678040E+03  0.00000000000E+00 0.  1.
         22   -1    0    0    0    0 -0.00000000000E+00 -0.00000000000E+00 -0.83718019583E+03  0.83718019583E+03  0.00000000000E+00 0.  1.
        -24    2    1    2    0    0  0.26904253679E+03  0.13215268160E+03 -0.67670789604E+03  0.74473652803E+03  0.82768966200E+02 0.  0.
         25    2    1    2    0    0 -0.22618400000E+03 -0.12065153938E+03  0.45690199148E+02  0.28887957091E+03  0.12509123222E+03 0.  0.
         24    2    1    2    0    0 -0.42858536787E+02 -0.11501142228E+02  0.43503428147E+03  0.44476087730E+03  0.81168229462E+02 0.  0.
        -11    1    5    5    0    0  0.17463149721E+02  0.17834448395E+02  0.13890139021E+03  0.14112627448E+03  0.00000000000E+00 0.  1.
         12    1    5    5    0    0 -0.60321686508E+02 -0.29335590623E+02  0.29613289126E+03  0.30363460281E+03  0.00000000000E+00 0. -1.
         11    1    3    3    0    0  0.92911375049E+02  0.27822958498E+02 -0.30926619374E+03  0.32411760092E+03  0.00000000000E+00 0. -1.
        -12    1    3    3    0    0  0.17613116174E+03  0.10432972311E+03 -0.36744170229E+03  0.42061892711E+03  0.00000000000E+00 0.  1.
          5    1    4    4  501    0 -0.16248863300E+03 -0.76829169508E+02  0.88519912422E+02  0.20039591921E+03  0.41800000000E+01 0. -1.
         -5    1    4    4    0  501 -0.63695367002E+02 -0.43822369868E+02 -0.42829713274E+02  0.88483651696E+02  0.41800000000E+01 0. -1.
</event>
<event>
11    1  0.8974665E-009  0.3790045E+03  0.7561462E-02  0.9713821E-01
         22   -1    0    0    0    0  0.00000000000E+00  0.00000000000E+00  0.14959406350E+04  0.14959406350E+04  0.00000000000E+00 0.  1.
         22   -1    0    0    0    0 -0.00000000000E+00 -0.00000000000E+00 -0.15264177179E+04  0.15264177179E+04  0.00000000000E+00 0. -1.
         24    2    1    2    0    0 -0.30417121253E+02  0.67367791661E+02 -0.12311235015E+04  0.12358577792E+04  0.78840052343E+02 0.  0.
         25    2    1    2    0    0 -0.26135262447E+03  0.14894507030E+03 -0.16922544982E+03  0.36711690286E+03  0.12509092381E+03 0.  0.
        -24    2    1    2    0    0  0.29176974572E+03 -0.21631286196E+03  0.13698718685E+04  0.14193836709E+04  0.78614441105E+02 0.  0.
        -11    1    3    3    0    0 -0.27956364910E+02 -0.76988901763E+01 -0.21253609427E+03  0.21450506431E+03  0.00000000000E+00 0.  1.
         12    1    3    3    0    0 -0.24607563426E+01  0.75066681837E+02 -0.10185874072E+04  0.10213527149E+04  0.00000000000E+00 0. -1.
         13    1    5    5    0    0  0.55460986867E+02 -0.77783776729E+02  0.29090926889E+03  0.30619346778E+03  0.00000000000E+00 0. -1.
        -14    1    5    5    0    0  0.23630875885E+03 -0.13852908523E+03  0.10789625996E+04  0.11131902031E+04  0.00000000000E+00 0.  1.
          5    1    4    4  501    0 -0.16107894157E+03  0.49983354557E+02 -0.14830797374E+03  0.22462744407E+03  0.41800000000E+01 0.  1.
         -5    1    4    4    0  501 -0.10027368289E+03  0.98961715741E+02 -0.20917476074E+02  0.14248945880E+03  0.41800000000E+01 0.  1.
</event>
<event>
11    1  0.8974665E-009  0.1633951E+03  0.7561462E-02  0.1083927E+00
         22   -1    0    0    0    0  0.00000000000E+00  0.00000000000E+00  0.50175945411E+03  0.50175945411E+03  0.00000000000E+00 0.  1.
         22   -1    0    0    0    0 -0.00000000000E+00 -0.00000000000E+00 -0.35339430806E+03  0.35339430806E+03  0.00000000000E+00 0. -1.
        -24    2    1    2    0    0  0.24432008252E+02  0.17993667615E+02 -0.19580172115E+03  0.21400561810E+03  0.80866528749E+02 0.  0.
         25    2    1    2    0    0 -0.12245314149E+03  0.16663066315E+02 -0.82782135861E+02  0.19435326460E+03  0.12509148574E+03 0.  0.
         24    2    1    2    0    0  0.98021133235E+02 -0.34656733930E+02  0.42694900306E+03  0.44679487947E+03  0.80814487162E+02 0.  0.
        -13    1    5    5    0    0  0.98875054052E+02 -0.31435975357E+02  0.42996184001E+03  0.44230270260E+03  0.00000000000E+00 0.  1.
         14    1    5    5    0    0 -0.85392081706E+00 -0.32207585730E+01 -0.30128369484E+01  0.44921768693E+01  0.00000000000E+00 0. -1.
         11    1    3    3    0    0 -0.98825351649E+01  0.41146208726E+02 -0.12526590881E+03  0.13222035737E+03  0.00000000000E+00 0. -1.
        -12    1    3    3    0    0  0.34314543417E+02 -0.23152541111E+02 -0.70535812337E+02  0.81785260725E+02  0.00000000000E+00 0.  1.
          5    1    4    4  501    0 -0.91462202045E+02 -0.86592822745E+01  0.10692448417E+02  0.92585735540E+02  0.41800000000E+01 0. -1.
         -5    1    4    4    0  501 -0.30990939442E+02  0.25322348590E+02 -0.93474584278E+02  0.10176752906E+03  0.41800000000E+01 0. -1.
</event>
<event>
11    1  0.8974665E-009  0.1506836E+03  0.7561462E-02  0.1096182E+00
         22   -1    0    0    0    0  0.00000000000E+00  0.00000000000E+00  0.28247771560E+03  0.28247771560E+03  0.00000000000E+00 0.  1.
         22   -1    0    0    0    0 -0.00000000000E+00 -0.00000000000E+00 -0.12534821782E+04  0.12534821782E+04  0.00000000000E+00 0. -1.
         24    2    1    2    0    0 -0.38348756516E+01 -0.95462127075E+02 -0.88318818453E+03  0.89205376614E+03  0.81307001033E+02 0.  0.
         25    2    1    2    0    0 -0.22421751196E+02  0.50073012792E+02 -0.34404551080E+03  0.37016944375E+03  0.12509221418E+03 0.  0.
        -24    2    1    2    0    0  0.26256626848E+02  0.45389114283E+02  0.25622923275E+03  0.27373668389E+03  0.80800805961E+02 0.  0.
        -13    1    3    3    0    0  0.12710563661E+02  0.27985137465E+00 -0.34044759854E+03  0.34068490442E+03  0.00000000000E+00 0.  1.
         14    1    3    3    0    0 -0.16545439313E+02 -0.95741978450E+02 -0.54274058598E+03  0.55136886172E+03  0.00000000000E+00 0. -1.
         13    1    5    5    0    0  0.53896014442E+02  0.41865949286E+02  0.17340778853E+03  0.18635396214E+03  0.00000000000E+00 0. -1.
        -14    1    5    5    0    0 -0.27639387594E+02  0.35231649963E+01  0.82821444224E+02  0.87382721756E+02  0.00000000000E+00 0.  1.
          5    1    4    4  501    0 -0.69944015882E+02  0.23754562760E+02 -0.25735884016E+03  0.26778254166E+03  0.41800000000E+01 0. -1.
         -5    1    4    4    0  501  0.47522264686E+02  0.26318450032E+02 -0.86686670649E+02  0.10238690210E+03  0.41800000000E+01 0. -1.
</event>
<event>
11    1  0.8974665E-009  0.2124615E+03  0.7561462E-02  0.1046045E+00
         22   -1    0    0    0    0  0.00000000000E+00  0.00000000000E+00  0.42813429736E+03  0.42813429736E+03  0.00000000000E+00 0. -1.
         22   -1    0    0    0    0 -0.00000000000E+00 -0.00000000000E+00 -0.81933886038E+03  0.81933886038E+03  0.00000000000E+00 0. -1.
        -24    2    1    2    0    0  0.10238174134E+03 -0.13532498021E+03 -0.55411291068E+03  0.58446181425E+03  0.75892182152E+02 0.  0.
         25    2    1    2    0    0 -0.10286212876E+03  0.14563877510E+03 -0.19719257856E+03  0.29381005238E+03  0.12509261966E+03 0.  0.
         24    2    1    2    0    0  0.48038741883E+00 -0.10313794889E+02  0.36010092621E+03  0.36920129111E+03  0.80810340678E+02 0.  0.
        -13    1    5    5    0    0  0.11714408138E+02 -0.24971022699E+02  0.40113027094E+02  0.48680943656E+02  0.00000000000E+00 0.  1.
         14    1    5    5    0    0 -0.11234020720E+02  0.14657227810E+02  0.31998789912E+03  0.32052034745E+03  0.00000000000E+00 0. -1.
         11    1    3    3    0    0  0.65789774446E+02 -0.11953341394E+03 -0.33441840707E+03  0.36118167514E+03  0.00000000000E+00 0. -1.
        -12    1    3    3    0    0  0.36591966897E+02 -0.15791566264E+02 -0.21969450360E+03  0.22328013911E+03  0.00000000000E+00 0.  1.
          5    1    4    4  501    0 -0.52820646581E+02  0.25823409963E+02 -0.15517356567E+01  0.58963967734E+02  0.41800000000E+01 0.  1.
         -5    1    4    4    0  501 -0.50041482180E+02  0.11981536513E+03 -0.19564084290E+03  0.23484608464E+03  0.41800000000E+01 0.  1.
</event>
<event>
11    1  0.8974665E-009  0.2304472E+03  0.7561462E-02  0.1034864E+00
         22   -1    0    0    0    0  0.00000000000E+00  0.00000000000E+00  0.33960630344E+04  0.33960630344E+04  0.00000000000E+00 0.  1.
         22   -1    0    0    0    0 -0.00000000000E+00 -0.00000000000E+00 -0.49343262449E+03  0.49343262449E+03  0.00000000000E+00 0. -1.
         24    2    1    2    0    0  0.47947222374E+02 -0.30333103937E+02 -0.46807218530E+03  0.47851055116E+03  0.81619504979E+02 0.  0.
         25    2    1    2    0    0 -0.19397398202E+03 -0.90205403206E+02  0.95772582545E+03  0.98926789552E+03  0.12509712989E+03 0.  0.
        -24    2    1    2    0    0  0.14602675964E+03  0.12053850714E+03  0.24129767698E+04  0.24217172122E+04  0.80025110263E+02 0.  0.
        -11    1    3    3    0    0 -0.18638247726E+02  0.87696278514E+01 -0.67870919038E+02  0.70927796399E+02  0.00000000000E+00 0.  1.
         12    1    3    3    0    0  0.66585470100E+02 -0.39102731788E+02 -0.40020126626E+03  0.40758275476E+03  0.00000000000E+00 0. -1.
         11    1    5    5    0    0 -0.80779453545E+01 -0.11800864930E+00  0.17937713849E+03  0.17955897344E+03  0.00000000000E+00 0. -1.
        -12    1    5    5    0    0  0.15410470500E+03  0.12065651579E+03  0.22335996313E+04  0.22421582388E+04  0.00000000000E+00 0.  1.
          5    1    4    4  501    0 -0.17139844436E+03 -0.18738612608E+02  0.64524508536E+03  0.66789763805E+03  0.41800000000E+01 0.  1.
         -5    1    4    4    0  501 -0.22575537653E+02 -0.71466790599E+02  0.31248074009E+03  0.32137025747E+03  0.41800000000E+01 0.  1.
</event>
<event>
11    1  0.8974665E-009  0.1416620E+03  0.7561462E-02  0.1105717E+00
         22   -1    0    0    0    0  0.00000000000E+00  0.00000000000E+00  0.43520493520E+03  0.43520493520E+03  0.00000000000E+00 0.  1.
         22   -1    0    0    0    0 -0.00000000000E+00 -0.00000000000E+00 -0.51806380476E+03  0.51806380476E+03  0.00000000000E+00 0. -1.
        -24    2    1    2    0    0 -0.81675551535E+02 -0.11570767948E+02 -0.33603926622E+03  0.35505879533E+03  0.79621487731E+02 0.  0.
         25    2    1    2    0    0  0.11402241840E+02  0.44812613091E+02 -0.13823207946E+03  0.19207670985E+03  0.12508866161E+03 0.  0.
         24    2    1    2    0    0  0.70273309695E+02 -0.33241845144E+02  0.39141247611E+03  0.40613323478E+03  0.75479266136E+02 0.  0.
        -11    1    5    5    0    0  0.12757933075E+02 -0.47359889001E+02  0.16945405391E+03  0.17640975123E+03  0.00000000000E+00 0.  1.
         12    1    5    5    0    0  0.57515376620E+02  0.14118043857E+02  0.22195842220E+03  0.22972348355E+03  0.00000000000E+00 0. -1.
         13    1    3    3    0    0 -0.50534485107E+02 -0.69691737941E+01 -0.31010387280E+03  0.31427172239E+03  0.00000000000E+00 0. -1.
        -14    1    3    3    0    0 -0.31141066428E+02 -0.46015941534E+01 -0.25935393422E+02  0.40787072940E+02  0.00000000000E+00 0.  1.
          5    1    4    4  501    0  0.48112804419E+01  0.57852389159E+02 -0.15728326045E+03  0.16770671951E+03  0.41800000000E+01 0.  1.
         -5    1    4    4    0  501  0.65909613978E+01 -0.13039776068E+02  0.19051180991E+02  0.24369990340E+02  0.41800000000E+01 0.  1.
</event>
<event>
11    1  0.8974665E-009  0.1293607E+03  0.7561462E-02  0.1120057E+00
         22   -1    0    0    0    0  0.00000000000E+00  0.00000000000E+00  0.20940563701E+03  0.20940563701E+03  0.00000000000E+00 0.  1.
         22   -1    0    0    0    0 -0.00000000000E+00 -0.00000000000E+00 -0.11041478477E+04  0.11041478477E+04  0.00000000000E+00 0.  1.
        -24    2    1    2    0    0 -0.29219965830E+00 -0.80250738654E+01 -0.10092226802E+04  0.10127815866E+04  0.84449017968E+02 0.  0.
         25    2    1    2    0    0 -0.32718089861E+02  0.67762616246E+01 -0.29262876971E+02  0.13273919824E+03  0.12508791970E+03 0.  0.
         24    2    1    2    0    0  0.33010289519E+02  0.12488122408E+01  0.14374334655E+03  0.16803269984E+03  0.80508383369E+02 0.  0.
        -13    1    5    5    0    0  0.13696203512E+02  0.27417585523E+02  0.12851643988E+03  0.13212034403E+03  0.00000000000E+00 0.  1.
         14    1    5    5    0    0  0.19314086007E+02 -0.26168773283E+02  0.15226906671E+02  0.35912355815E+02  0.00000000000E+00 0. -1.
         11    1    3    3    0    0  0.10881725439E+02 -0.19867374409E+02 -0.73369198116E+02  0.76786481535E+02  0.00000000000E+00 0. -1.
        -12    1    3    3    0    0 -0.11173925097E+02  0.11842300543E+02 -0.93585348211E+03  0.93599510504E+03  0.00000000000E+00 0.  1.
          5    1    4    4  501    0  0.37349784116E+02 -0.26873891894E+02  0.72353649033E+01  0.46765749693E+02  0.41800000000E+01 0.  1.
         -5    1    4    4    0  501 -0.70067873977E+02  0.33650153519E+02 -0.36498241874E+02  0.85973448549E+02  0.41800000000E+01 0.  1.
</event>
<event>
11    1  0.8974665E-009  0.1486718E+03  0.7561462E-02  0.1098244E+00
         22   -1    0    0    0    0  0.00000000000E+00  0.00000000000E+00  0.82595438888E+02  0.82595438888E+02  0.00000000000E+00 0.  1.
         22   -1    0    0    0    0 -0.00000000000E+00 -0.00000000000E+00 -0.14374408541E+04  0.14374408541E+04  0.00000000000E+00 0.  1.
        -24    2    1    2    0    0 -0.82326109342E+01  0.24517698768E+02 -0.11210451961E+04  0.11241406023E+04  0.79251931352E+02 0.  0.
         25    2    1    2    0    0 -0.15231529753E+02  0.56903425863E+02 -0.24308229352E+03  0.27965481869E+03  0.12509123398E+03 0.  0.
         24    2    1    2    0    0  0.23464140687E+02 -0.81421124631E+02  0.92820743659E+01  0.11624087203E+03  0.79030487738E+02 0.  0.
        -13    1    5    5    0    0 -0.12247592673E+02 -0.66360356913E+02  0.28171121625E+02  0.73125321124E+02  0.00000000000E+00 0.  1.
         14    1    5    5    0    0  0.35711733360E+02 -0.15060767719E+02 -0.18889047259E+02  0.43115550909E+02  0.00000000000E+00 0. -1.
         11    1    3    3    0    0  0.35139079351E+02  0.16729295006E+02 -0.57968946105E+03  0.58099440227E+03  0.00000000000E+00 0. -1.
        -12    1    3    3    0    0 -0.43371690285E+02  0.77884037622E+01 -0.54135573500E+03  0.54314619999E+03  0.00000000000E+00 0.  1.
          5    1    4    4  501    0 -0.58701438079E+02 -0.70868886153E+01 -0.85223741657E+02  0.10381060333E+03  0.41800000000E+01 0. -1.
         -5    1    4    4    0  501  0.43469908326E+02  0.63990314479E+02 -0.15785855187E+03  0.17584421536E+03  0.41800000000E+01 0. -1.
</event>
<event>
11    1  0.8974665E-009  0.2363570E+03  0.7561462E-02  0.1031429E+00
         22   -1    0    0    0    0  0.00000000000E+00  0.00000000000E+00  0.39282764330E+04  0.39282764330E+04  0.00000000000E+00 0. -1.
         22   -1    0    0    0    0 -0.00000000000E+00 -0.00000000000E+00 -0.79041547953E+03  0.79041547953E+03  0.00000000000E+00 0. -1.
         24    2    1    2    0    0 -0.86988898724E+00  0.51081793793E+02 -0.50651515835E+03  0.51517373265E+03  0.78970012041E+02 0.  0.
         25    2    1    2    0    0  0.15564412078E+03  0.76982147927E+02 -0.23517032762E+03  0.31796688152E+03  0.12508601569E+03 0.  0.
        -24    2    1    2    0    0 -0.15477423180E+03 -0.12806394172E+03  0.38795464395E+04  0.38855512984E+04  0.79201517072E+02 0.  0.
        -13    1    3    3    0    0  0.33290805039E+02  0.13918170095E+02 -0.11801746419E+03  0.12341035213E+03  0.00000000000E+00 0.  1.
         14    1    3    3    0    0 -0.34160694026E+02  0.37163623698E+02 -0.38849769416E+03  0.39176338051E+03  0.00000000000E+00 0. -1.
         11    1    5    5    0    0 -0.11507928782E+03 -0.44432238437E+02  0.22260837965E+04  0.22294991669E+04  0.00000000000E+00 0. -1.
        -12    1    5    5    0    0 -0.39694943979E+02 -0.83631703282E+02  0.16534626430E+04  0.16560521315E+04  0.00000000000E+00 0.  1.
          5    1    4    4  501    0  0.11756768179E+03  0.11080116061E+03 -0.19291991177E+03  0.25166370766E+03  0.41800000000E+01 0. -1.
         -5    1    4    4    0  501  0.38076438990E+02 -0.33819012686E+02 -0.42250415853E+02  0.66303173868E+02  0.41800000000E+01 0. -1.
</event>
<event>
11    1  0.8974665E-009  0.1556631E+03  0.7561462E-02  0.1091229E+00
         22   -1    0    0    0    0  0.00000000000E+00  0.00000000000E+00  0.14426272637E+04  0.14426272637E+04  0.00000000000E+00 0. -1.
         22   -1    0    0    0    0 -0.00000000000E+00 -0.00000000000E+00 -0.27302570398E+03  0.27302570398E+03  0.00000000000E+00 0. -1.
        -24    2    1    2    0    0  0.29628636816E+02  0.37507795024E+01 -0.24421134721E+03  0.25903566148E+03  0.81045464675E+02 0.  0.
         25    2    1    2    0    0  0.64754014090E+02 -0.26235572958E+02  0.26666029605E+03  0.30271944646E+03  0.12509980874E+03 0.  0.
         24    2    1    2    0    0 -0.94382650907E+02  0.22484793456E+02  0.11471526109E+04  0.11538978598E+04  0.78150542851E+02 0.  0.
        -13    1    5    5    0    0 -0.31247471064E+02  0.41049154838E+02  0.32002822740E+03  0.32415968888E+03  0.00000000000E+00 0.  1.
         14    1    5    5    0    0 -0.63135179843E+02 -0.18564361382E+02  0.82712438352E+03  0.82973817091E+03  0.00000000000E+00 0. -1.
         13    1    3    3    0    0  0.37233938523E+02 -0.89475014746E+01 -0.24082639733E+03  0.24385195839E+03  0.00000000000E+00 0. -1.
        -14    1    3    3    0    0 -0.76053017067E+01  0.12698280977E+02 -0.33849498856E+01  0.15183703091E+02  0.00000000000E+00 0.  1.
          5    1    4    4  501    0 -0.87261096117E+01 -0.31642540198E+02  0.84224325099E+01  0.34143888304E+02  0.41800000000E+01 0.  1.
         -5    1    4    4    0  501  0.73480123702E+02  0.54069672393E+01  0.25823786354E+03  0.26857555816E+03  0.41800000000E+01 0.  1.
</event>
<event>
11    1  0.8974665E-009  0.1634349E+03  0.7561462E-02  0.1083890E+00
         22   -1    0    0    0    0  0.00000000000E+00  0.00000000000E+00  0.70233309453E+03  0.70233309453E+03  0.00000000000E+00 0.  1.
         22   -1    0    0    0    0 -0.00000000000E+00 -0.00000000000E+00 -0.18704568875E+03  0.18704568875E+03  0.00000000000E+00 0.  1.
         24    2    1    2    0    0  0.39658450638E+02  0.63469617501E+01 -0.86641015375E+02  0.12486768405E+03  0.80449961747E+02 0.  0.
         25    2    1    2    0    0 -0.13997747919E+03  0.10247060297E+02  0.45879492262E+02  0.19351938432E+03  0.12508448094E+03 0.  0.
        -24    2    1    2    0    0  0.10031902855E+03 -0.16594022047E+02  0.55604892889E+03  0.57099171491E+03  0.80634100244E+02 0.  0.
        -13    1    3    3    0    0  0.29983699675E+02 -0.31881299343E+02 -0.21598628269E+02  0.48805125111E+02  0.00000000000E+00 0.  1.
         14    1    3    3    0    0  0.96747509628E+01  0.38228261093E+02 -0.65042387106E+02  0.76062558942E+02  0.00000000000E+00 0. -1.
         11    1    5    5    0    0  0.51126881175E+01 -0.91249570299E+01  0.47590447175E+01  0.11491428423E+02  0.00000000000E+00 0. -1.
        -12    1    5    5    0    0  0.95206340431E+02 -0.74690650172E+01  0.55128988417E+03  0.55950028648E+03  0.00000000000E+00 0.  1.
          5    1    4    4  501    0  0.19176353307E+02  0.20101640729E+02  0.11418696791E+02  0.30326020552E+02  0.41800000000E+01 0. -1.
         -5    1    4    4    0  501 -0.15915383249E+03 -0.98545804320E+01  0.34460795472E+02  0.16319336377E+03  0.41800000000E+01 0. -1.
</event>
<event>
11    1  0.8974665E-009  0.2785528E+03  0.7561462E-02  0.1009700E+00
         22   -1    0    0    0    0  0.00000000000E+00  0.00000000000E+00  0.41457478557E+03  0.41457478557E+03  0.00000000000E+00 0. -1.
         22   -1    0    0    0    0 -0.00000000000E+00 -0.00000000000E+00 -0.93108613961E+03  0.93108613961E+03  0.00000000000E+00 0.  1.
         24    2    1    2    0    0 -0.17096559233E+03 -0.16754853466E+03 -0.71167613926E+03  0.75532043326E+03  0.82001734614E+02 0.  0.
         25    2    1    2    0    0  0.18493862783E+03  0.30749093433E+03  0.71633378617E+02  0.38669371545E+03  0.12509083850E+03 0.  0.
        -24    2    1    2    0    0 -0.13973035499E+02 -0.13994239967E+03  0.12353140661E+03  0.20364677647E+03  0.80205237989E+02 0.  0.
        -11    1    3    3    0    0 -0.13876649368E+03 -0.14937556231E+03 -0.66625548689E+03  0.69675359504E+03  0.00000000000E+00 0.  1.
         12    1    3    3    0    0 -0.32199098649E+02 -0.18172972352E+02 -0.45420652373E+02  0.58566838227E+02  0.00000000000E+00 0. -1.
         13    1    5    5    0    0 -0.42465676751E+02 -0.10568625724E+03  0.10653856511E+03  0.15595956055E+03  0.00000000000E+00 0. -1.
        -14    1    5    5    0    0  0.28492641253E+02 -0.34256142433E+02  0.16992841497E+02  0.47687215918E+02  0.00000000000E+00 0.  1.
          5    1    4    4  501    0  0.75345443502E+02  0.12852609847E+03  0.93056420365E+02  0.17570675461E+03  0.41800000000E+01 0. -1.
         -5    1    4    4    0  501  0.10959318433E+03  0.17896483586E+03 -0.21423041748E+02  0.21098696084E+03  0.41800000000E+01 0. -1.
</event>
<event>
11    1  0.8974665E-009  0.1489612E+03  0.7561462E-02  0.1097945E+00
         22   -1    0    0    0    0  0.00000000000E+00  0.00000000000E+00  0.73851359561E+03  0.73851359561E+03  0.00000000000E+00 0.  1.
         22   -1    0    0    0    0 -0.00000000000E+00 -0.00000000000E+00 -0.35078639583E+03  0.35078639583E+03  0.00000000000E+00 0.  1.
        -24    2    1    2    0    0 -0.22861178467E+02 -0.38695788328E+01 -0.30483110244E+03  0.31625467829E+03  0.80977857500E+02 0.  0.
         25    2    1    2    0    0 -0.36463211501E+02  0.61649944856E+02  0.11643778594E+03  0.18529850201E+03  0.12508994907E+03 0.  0.
         24    2    1    2    0    0  0.59324389968E+02 -0.57780366023E+02  0.57612051628E+03  0.58774681113E+03  0.81691558785E+02 0.  0.
        -13    1    5    5    0    0  0.74347543421E+02 -0.59593274770E+02  0.54347856065E+03  0.55176794171E+03  0.00000000000E+00 0.  1.
         14    1    5    5    0    0 -0.15023153453E+02  0.18129087465E+01  0.32641955623E+02  0.35978869419E+02  0.00000000000E+00 0. -1.
         11    1    3    3    0    0  0.14320454844E+02 -0.24673623805E+02 -0.47409762581E+02  0.55331263555E+02  0.00000000000E+00 0. -1.
        -12    1    3    3    0    0 -0.37181633311E+02  0.20804044972E+02 -0.25742133986E+03  0.26092341474E+03  0.00000000000E+00 0.  1.
          5    1    4    4  501    0  0.43141087533E+02  0.28931074350E+01  0.23027707968E+02  0.49165752699E+02  0.41800000000E+01 0. -1.
         -5    1    4    4    0  501 -0.79604299035E+02  0.58756837421E+02  0.93410077973E+02  0.13613274931E+03  0.41800000000E+01 0. -1.
</event>
<event>
11    1  0.8974665E-009  0.1832013E+03  0.7561462E-02  0.1067082E+00
         22   -1    0    0    0    0  0.00000000000E+00  0.00000000000E+00  0.28212467306E+03  0.28212467306E+03  0.00000000000E+00 0. -1.
         22   -1    0    0    0    0 -0.00000000000E+00 -0.00000000000E+00 -0.35859546457E+03  0.35859546457E+03  0.00000000000E+00 0. -1.
        -24    2    1    2    0    0 -0.27144567170E+02  0.14807595892E+02 -0.15366825560E+03  0.17643448389E+03  0.80988282513E+02 0.  0.
         25    2    1    2    0    0 -0.94404529097E+02  0.51113562704E+02 -0.12487105165E+03  0.20679743798E+03  0.12509032500E+03 0.  0.
         24    2    1    2    0    0  0.12154909627E+03 -0.65921158595E+02  0.20206851574E+03  0.25748821576E+03  0.79678819341E+02 0.  0.
        -11    1    5    5    0    0  0.68083379384E+00 -0.16944837946E+02 -0.37156690122E-01  0.16958550890E+02  0.00000000000E+00 0.  1.
         12    1    5    5    0    0  0.12086826247E+03 -0.48976320650E+02  0.20210567243E+03  0.24052966487E+03  0.00000000000E+00 0. -1.
         11    1    3    3    0    0 -0.21135800573E+02  0.17055066169E+02 -0.16292438745E+03  0.16517249581E+03  0.00000000000E+00 0. -1.
        -12    1    3    3    0    0 -0.60087665970E+01 -0.22474702771E+01  0.92561318495E+01  0.11261988078E+02  0.00000000000E+00 0.  1.
          5    1    4    4  501    0  0.27886345440E+02 -0.73273891000E+01 -0.24942247689E+02  0.38352666307E+02  0.41800000000E+01 0. -1.
         -5    1    4    4    0  501 -0.12229087454E+03  0.58440951804E+02 -0.99928803964E+02  0.16844477167E+03  0.41800000000E+01 0. -1.
</event>
<event>
11    1  0.8974665E-009  0.1274830E+03  0.7561462E-02  0.1122401E+00
         22   -1    0    0    0    0  0.00000000000E+00  0.00000000000E+00  0.34863285514E+03  0.34863285514E+03  0.00000000000E+00 0. -1.
         22   -1    0    0    0    0 -0.00000000000E+00 -0.00000000000E+00 -0.12449887055E+04  0.12449887055E+04  0.00000000000E+00 0.  1.
         24    2    1    2    0    0  0.60613778356E+01 -0.10804541697E+02 -0.67164017641E+03  0.67683999203E+03  0.82815275311E+02 0.  0.
         25    2    1    2    0    0 -0.47648785258E+01 -0.13849778545E+02 -0.55838468205E+03  0.57241199929E+03  0.12509006096E+03 0.  0.
        -24    2    1    2    0    0 -0.12964993098E+01  0.24654320242E+02  0.33366900809E+03  0.34436956933E+03  0.81522247908E+02 0.  0.
        -11    1    3    3    0    0 -0.22058331590E+01 -0.31006257764E+02 -0.61996542798E+03  0.62074421916E+03  0.00000000000E+00 0.  1.
         12    1    3    3    0    0  0.82672109946E+01  0.20201716068E+02 -0.51674748420E+02  0.56095772871E+02  0.00000000000E+00 0. -1.
         11    1    5    5    0    0  0.12122273243E+02  0.49418530874E+02  0.14631870476E+03  0.15491386014E+03  0.00000000000E+00 0. -1.
        -12    1    5    5    0    0 -0.13418772553E+02 -0.24764210633E+02  0.18735030333E+03  0.18945570919E+03  0.00000000000E+00 0.  1.
          5    1    4    4  501    0  0.21960432277E+02  0.41439806276E+02 -0.39536943316E+03  0.39816325698E+03  0.41800000000E+01 0. -1.
         -5    1    4    4    0  501 -0.26725310803E+02 -0.55289584821E+02 -0.16301524889E+03  0.17424874231E+03  0.41800000000E+01 0. -1.
</event>
<event>
11    1  0.8974665E-009  0.1532837E+03  0.7561462E-02  0.1093570E+00
         22   -1    0    0    0    0  0.00000000000E+00  0.00000000000E+00  0.23343305922E+03  0.23343305922E+03  0.00000000000E+00 0. -1.
         22   -1    0    0    0    0 -0.00000000000E+00 -0.00000000000E+00 -0.11317647418E+04  0.11317647418E+04  0.00000000000E+00 0.  1.
         24    2    1    2    0    0  0.59064107938E+02 -0.66129576091E+02 -0.94943362922E+03  0.95730342588E+03  0.84521850587E+02 0.  0.
         25    2    1    2    0    0 -0.26328671407E+02  0.92991098335E+02 -0.13093599054E+03  0.20526232043E+03  0.12509133968E+03 0.  0.
        -24    2    1    2    0    0 -0.32735436530E+02 -0.26861522244E+02  0.18203793716E+03  0.20263205473E+03  0.78286581590E+02 0.  0.
        -13    1    3    3    0    0  0.14427426086E+01 -0.60539993357E+02 -0.60671432204E+03  0.60972898969E+03  0.00000000000E+00 0.  1.
         14    1    3    3    0    0  0.57621365329E+02 -0.55895827341E+01 -0.34271930718E+03  0.34757443619E+03  0.00000000000E+00 0. -1.
         13    1    5    5    0    0 -0.47888682144E+02 -0.18482496513E+02  0.17744105290E+03  0.18471669066E+03  0.00000000000E+00 0. -1.
        -14    1    5    5    0    0  0.15153245614E+02 -0.83790257307E+01  0.45968842599E+01  0.17915364069E+02  0.00000000000E+00 0.  1.
          5    1    4    4  501    0 -0.74458773517E+02  0.76932718103E+02 -0.90322933167E+02  0.14013727814E+03  0.41800000000E+01 0. -1.
         -5    1    4    4    0  501  0.48130102110E+02  0.16058380232E+02 -0.40613057371E+02  0.65125042294E+02  0.41800000000E+01 0. -1.
</event>
<event>
11    1  0.8974665E-009  0.1460539E+03  0.7561462E-02  0.1100980E+00
         22   -1    0    0    0    0  0.00000000000E+00  0.00000000000E+00  0.16201710315E+03  0.16201710315E+03  0.00000000000E+00 0.  1.
         22   -1    0    0    0    0 -0.00000000000E+00 -0.00000000000E+00 -0.18286694488E+04  0.18286694488E+04  0.00000000000E+00 0. -1.
        -24    2    1    2    0    0 -0.60226438783E+02 -0.46833613745E+02 -0.17218343098E+04  0.17254718473E+04  0.81970080301E+02 0.  0.
         25    2    1    2    0    0  0.37259610263E+02  0.33074185915E+02 -0.38896875003E+02  0.14016430537E+03  0.12510349829E+03 0.  0.
         24    2    1    2    0    0  0.22966828520E+02  0.13759427830E+02  0.94078839141E+02  0.12505039931E+03  0.77910059210E+02 0.  0.
        -13    1    5    5    0    0  0.17067544217E+02  0.17752145429E+02  0.10726909844E+03  0.11005952577E+03  0.00000000000E+00 0.  1.
         14    1    5    5    0    0  0.58992843035E+01 -0.39927175989E+01 -0.13190259296E+02  0.14990873538E+02  0.00000000000E+00 0. -1.
         11    1    3    3    0    0  0.19267879561E+02  0.66598489584E+00 -0.32483091565E+03  0.32540254836E+03  0.00000000000E+00 0. -1.
        -12    1    3    3    0    0 -0.79494318343E+02 -0.47499598641E+02 -0.13970033942E+04  0.14000692990E+04  0.00000000000E+00 0.  1.
          5    1    4    4  501    0 -0.23263040595E+02  0.62749577321E+02 -0.21636044879E+02  0.70457571273E+02  0.41800000000E+01 0.  1.
         -5    1    4    4    0  501  0.60522650858E+02 -0.29675391405E+02 -0.17260830124E+02  0.69706734097E+02  0.41800000000E+01 0.  1.
</event>
<event>
11    1  0.8974665E-009  0.1506665E+03  0.7561462E-02  0.1096200E+00
         22   -1    0    0    0    0  0.00000000000E+00  0.00000000000E+00  0.34659547491E+03  0.34659547491E+03  0.00000000000E+00 0.  1.
         22   -1    0    0    0    0 -0.00000000000E+00 -0.00000000000E+00 -0.29353449372E+03  0.29353449372E+03  0.00000000000E+00 0.  1.
        -24    2    1    2    0    0 -0.39055128026E+02 -0.60503475059E+02 -0.12554469573E+03  0.16348100390E+03  0.76017067117E+02 0.  0.
         25    2    1    2    0    0  0.31327929340E+02  0.11822679790E+03 -0.84942055408E+02  0.19448038593E+03  0.12509377617E+03 0.  0.
         24    2    1    2    0    0  0.77271986854E+01 -0.57723322841E+02  0.26354773233E+03  0.28216857879E+03  0.82280058594E+02 0.  0.
        -13    1    5    5    0    0  0.43975441780E+02 -0.41380898402E+02  0.14278466296E+03  0.15502799170E+03  0.00000000000E+00 0.  1.
         14    1    5    5    0    0 -0.36248243095E+02 -0.16342424439E+02  0.12076306936E+03  0.12714058709E+03  0.00000000000E+00 0. -1.
         11    1    3    3    0    0 -0.46448016711E+02 -0.50055550817E+01 -0.73184449497E+02  0.86824175701E+02  0.00000000000E+00 0. -1.
        -12    1    3    3    0    0  0.73928886849E+01 -0.55497919977E+02 -0.52360246231E+02  0.76656828204E+02  0.00000000000E+00 0.  1.
          5    1    4    4  501    0  0.60866172162E+02  0.16770839981E+02 -0.81644249777E+01  0.63797196040E+02  0.41800000000E+01 0. -1.
         -5    1    4    4    0  501 -0.29538242822E+02  0.10145595792E+03 -0.76777630430E+02  0.13068318989E+03  0.41800000000E+01 0. -1.
</event>
<event>
11    1  0.8974665E-009  0.1524874E+03  0.7561462E-02  0.1094364E+00
         22   -1    0    0    0    0  0.00000000000E+00  0.00000000000E+00  0.22942498469E+04  0.22942498469E+04  0.00000000000E+00 0.  1.
         22   -1    0    0    0    0 -0.00000000000E+00 -0.00000000000E+00 -0.24390231020E+03  0.24390231020E+03  0.00000000000E+00 0.  1.
        -24    2    1    2    0    0  0.39713028679E+02  0.79749927284E+02 -0.18990540746E+03  0.22501570295E+03  0.81429891567E+02 0.  0.
         25    2    1    2    0    0 -0.71835112852E+02 -0.41150716072E+02  0.12367942903E+03  0.19441950967E+03  0.12509468295E+03 0.  0.
         24    2    1    2    0    0  0.32122084173E+02 -0.38599211212E+02  0.21165735151E+04  0.21187169445E+04  0.80971096494E+02 0.  0.
        -13    1    5    5    0    0  0.41699051165E+02 -0.55148986249E+02  0.19125742398E+04  0.19138235144E+04  0.00000000000E+00 0.  1.
         14    1    5    5    0    0 -0.95769669917E+01  0.16549775037E+02  0.20399927530E+03  0.20489343004E+03  0.00000000000E+00 0. -1.
         11    1    3    3    0    0 -0.12894694546E+02  0.62706424838E+02 -0.84814309055E+02  0.10626305042E+03  0.00000000000E+00 0. -1.
        -12    1    3    3    0    0  0.52607723225E+02  0.17043502447E+02 -0.10509109841E+03  0.11875265253E+03  0.00000000000E+00 0.  1.
          5    1    4    4  501    0 -0.18252564429E+02  0.26621982320E+02 -0.10999912587E+02  0.34356317145E+02  0.41800000000E+01 0.  1.
         -5    1    4    4    0  501 -0.53582548424E+02 -0.67772698392E+02  0.13467934161E+03  0.16006319252E+03  0.41800000000E+01 0.  1.
</event>
<event>
11    1  0.8974665E-009  0.1353009E+03  0.7561462E-02  0.1112922E+00
         22   -1    0    0    0    0  0.00000000000E+00  0.00000000000E+00  0.93919488650E+03  0.93919488650E+03  0.00000000000E+00 0. -1.
         22   -1    0    0    0    0 -0.00000000000E+00 -0.00000000000E+00 -0.67317749574E+03  0.67317749574E+03  0.00000000000E+00 0.  1.
         24    2    1    2    0    0 -0.28839948000E+01 -0.14107537933E+01 -0.57702798720E+03  0.58267662494E+03  0.80873009006E+02 0.  0.
         25    2    1    2    0    0 -0.39766748745E+01  0.52487429414E+02 -0.39967021965E+02  0.14147659620E+03  0.12509004852E+03 0.  0.
        -24    2    1    2    0    0  0.68606696745E+01 -0.51076675621E+02  0.88301239993E+03  0.88821916110E+03  0.81033845668E+02 0.  0.
        -13    1    3    3    0    0 -0.41767546802E+02 -0.40511193446E+01 -0.29880196822E+03  0.30173424689E+03  0.00000000000E+00 0.  1.
         14    1    3    3    0    0  0.38883552002E+02  0.26403655513E+01 -0.27822601898E+03  0.28094237805E+03  0.00000000000E+00 0. -1.
         11    1    5    5    0    0 -0.87189731696E+01 -0.57000364429E+02  0.84167446451E+03  0.84364741820E+03  0.00000000000E+00 0. -1.
        -12    1    5    5    0    0  0.15579642844E+02  0.59236888083E+01  0.41337935417E+02  0.44571742896E+02  0.00000000000E+00 0.  1.
          5    1    4    4  501    0  0.11962196699E+02  0.91651535468E+02 -0.33988363578E+02  0.98568653040E+02  0.41800000000E+01 0.  1.
         -5    1    4    4    0  501 -0.15938871573E+02 -0.39164106054E+02 -0.59786583873E+01  0.42907943159E+02  0.41800000000E+01 0.  1.
</event>
<event>
11    1  0.8974665E-009  0.1460358E+03  0.7561462E-02  0.1101000E+00
         22   -1    0    0    0    0  0.00000000000E+00  0.00000000000E+00  0.86621294000E+03  0.86621294000E+03  0.00000000000E+00 0.  1.
         22   -1    0    0    0    0 -0.00000000000E+00 -0.00000000000E+00 -0.13833700803E+03  0.13833700803E+03  0.00000000000E+00 0.  1.
         24    2    1    2    0    0 -0.84325754739E+01  0.80889391660E+02 -0.64333346229E+02  0.13177650985E+03  0.81314617997E+02 0.  0.
         25    2    1    2    0    0 -0.40117730362E+02 -0.52965495889E+02  0.99376629945E+02  0.17302657309E+03  0.12509078452E+03 0.  0.
        -24    2    1    2    0    0  0.48550305836E+02 -0.27923895771E+02  0.69283264825E+03  0.69974686507E+03  0.80571214105E+02 0.  0.
        -11    1    3    3    0    0  0.23582106944E+02  0.35518260172E+02 -0.63200028958E+02  0.76235859239E+02  0.00000000000E+00 0.  1.
         12    1    3    3    0    0 -0.32014682417E+02  0.45371131487E+02 -0.11333172710E+01  0.55540650615E+02  0.00000000000E+00 0. -1.
         11    1    5    5    0    0 -0.44433922625E+01 -0.35546927540E+02  0.14731180154E+03  0.15160506147E+03  0.00000000000E+00 0. -1.
        -12    1    5    5    0    0  0.52993698098E+02  0.76230317689E+01  0.54552084672E+03  0.54814180360E+03  0.00000000000E+00 0.  1.
          5    1    4    4  501    0 -0.53627025151E+02 -0.30532216828E+02 -0.80523897446E+01  0.62372970681E+02  0.41800000000E+01 0. -1.
         -5    1    4    4    0  501  0.13509294789E+02 -0.22433279061E+02  0.10742901969E+03  0.11065360241E+03  0.41800000000E+01 0. -1.
</event>
<event>
11    1  0.8974665E-009  0.1305325E+03  0.7561462E-02  0.1118616E+00
         22   -1    0    0    0    0  0.00000000000E+00  0.00000000000E+00  0.19997094901E+04  0.19997094901E+04  0.00000000000E+00 0.  1.
         22   -1    0    0    0    0 -0.00000000000E+00 -0.00000000000E+00 -0.22728382697E+03  0.22728382697E+03  0.00000000000E+00 0.  1.
         24    2    1    2    0    0  0.28675207357E+02 -0.25780038349E+02 -0.18300272296E+03  0.20146089875E+03  0.74897391265E+02 0.  0.
         25    2    1    2    0    0 -0.79589804408E+01  0.56581924521E+02  0.10533380571E+03  0.17322463802E+03  0.12508679002E+03 0.  0.
        -24    2    1    2    0    0 -0.20716226916E+02 -0.30801886172E+02  0.18500945804E+04  0.18523077803E+04  0.82560513666E+02 0.  0.
        -13    1    3    3    0    0  0.38405818450E+02 -0.46024537380E+02 -0.11259982162E+03  0.12756169002E+03  0.00000000000E+00 0.  1.
         14    1    3    3    0    0 -0.97306110926E+01  0.20244499030E+02 -0.70402901342E+02  0.73899208728E+02  0.00000000000E+00 0. -1.
         13    1    5    5    0    0  0.31237214952E+02 -0.70694539465E+01  0.51792304454E+03  0.51891234409E+03  0.00000000000E+00 0. -1.
        -14    1    5    5    0    0 -0.51953441868E+02 -0.23732432225E+02  0.13321715358E+04  0.13333954362E+04  0.00000000000E+00 0.  1.
          5    1    4    4  501    0 -0.31253788047E+02  0.90652859794E+02  0.75772627937E+02  0.12228533764E+03  0.41800000000E+01 0. -1.
         -5    1    4    4    0  501  0.23294807606E+02 -0.34070935273E+02  0.29561177776E+02  0.50939300380E+02  0.41800000000E+01 0. -1.
</event>
<event>
11    1  0.8974665E-009  0.2000136E+03  0.7561462E-02  0.1054514E+00
         22   -1    0    0    0    0  0.00000000000E+00  0.00000000000E+00  0.78320837714E+03  0.78320837714E+03  0.00000000000E+00 0. -1.
         22   -1    0    0    0    0 -0.00000000000E+00 -0.00000000000E+00 -0.21062410096E+03  0.21062410096E+03  0.00000000000E+00 0. -1.
        -24    2    1    2    0    0 -0.12412084288E+02  0.48787839505E+02 -0.13020470689E+03  0.16103242847E+03  0.80273683137E+02 0.  0.
         25    2    1    2    0    0 -0.61370551781E+01  0.11657617674E+03  0.90585586645E+02  0.19361072763E+03  0.12510674209E+03 0.  0.
         24    2    1    2    0    0  0.18549139467E+02 -0.16536401625E+03  0.61220339643E+03  0.63918932200E+03  0.77978601620E+02 0.  0.
        -13    1    5    5    0    0 -0.98038616700E+01 -0.10938145008E+02  0.15667828655E+03  0.15736532082E+03  0.00000000000E+00 0.  1.
         14    1    5    5    0    0  0.28353001137E+02 -0.15442587124E+03  0.45552510988E+03  0.48182400118E+03  0.00000000000E+00 0. -1.
         11    1    3    3    0    0  0.11782814367E+02  0.64700336029E+02 -0.92254180655E+02  0.11329519868E+03  0.00000000000E+00 0. -1.
        -12    1    3    3    0    0 -0.24194898656E+02 -0.15912496524E+02 -0.37950526233E+02  0.47737229789E+02  0.00000000000E+00 0.  1.
          5    1    4    4  501    0  0.38586855915E+02 -0.70429523675E+01  0.17656088563E+02  0.43217571551E+02  0.41800000000E+01 0.  1.
         -5    1    4    4    0  501 -0.44723911093E+02  0.12361912911E+03  0.72929498081E+02  0.15039315608E+03  0.41800000000E+01 0.  1.
</event>
<event>
11    1  0.8974665E-009  0.1925602E+03  0.7561462E-02  0.1059913E+00
         22   -1    0    0    0    0  0.00000000000E+00  0.00000000000E+00  0.13882029650E+04  0.13882029650E+04  0.00000000000E+00 0.  1.
         22   -1    0    0    0    0 -0.00000000000E+00 -0.00000000000E+00 -0.44045916056E+03  0.44045916056E+03  0.00000000000E+00 0.  1.
         24    2    1    2    0    0 -0.57659122820E+01  0.19386618114E+02 -0.37893425190E+03  0.38790916353E+03  0.80456604308E+02 0.  0.
         25    2    1    2    0    0  0.98515740025E+02 -0.13026902669E+03  0.15467576541E+03  0.25737630240E+03  0.12507037332E+03 0.  0.
        -24    2    1    2    0    0 -0.92749827743E+02  0.11088240858E+03  0.11720022909E+04  0.11833766596E+04  0.76769196471E+02 0.  0.
        -11    1    3    3    0    0 -0.13312125901E+02  0.14030147414E+02 -0.37812556570E+03  0.37861986368E+03  0.00000000000E+00 0.  1.
         12    1    3    3    0    0  0.75462136195E+01  0.53564706998E+01 -0.80868620056E+00  0.92892998509E+01  0.00000000000E+00 0. -1.
         11    1    5    5    0    0 -0.10287664137E+02  0.22872891223E+02  0.62586882444E+02  0.67424943755E+02  0.00000000000E+00 0. -1.
        -12    1    5    5    0    0 -0.82462163605E+02  0.88009517352E+02  0.11094154085E+04  0.11159517159E+04  0.00000000000E+00 0.  1.
          5    1    4    4  501    0  0.68093582937E+02 -0.22525776546E+01  0.83061291448E+02  0.10751028174E+03  0.41800000000E+01 0. -1.
         -5    1    4    4    0  501  0.30422157088E+02 -0.12801644904E+03  0.71614473964E+02  0.14986602065E+03  0.41800000000E+01 0. -1.
</event>
<event>
11    1  0.8974665E-009  0.1399471E+03  0.7561462E-02  0.1107617E+00
         22   -1    0    0    0    0  0.00000000000E+00  0.00000000000E+00  0.23109318331E+03  0.23109318331E+03  0.00000000000E+00 0.  1.
         22   -1    0    0    0    0 -0.00000000000E+00 -0.00000000000E+00 -0.15409013371E+04  0.15409013371E+04  0.00000000000E+00 0.  1.
         24    2    1    2    0    0 -0.16178098200E+01 -0.11253450601E+02 -0.67351940583E+03  0.67725950479E+03  0.70162592190E+02 0.  0.
         25    2    1    2    0    0  0.85605604426E+01  0.73469210489E+02 -0.84778838611E+03  0.86015310203E+03  0.12508878138E+03 0.  0.
        -24    2    1    2    0    0 -0.69427506225E+01 -0.62215759889E+02  0.21149963815E+03  0.23458191359E+03  0.79859718781E+02 0.  0.
        -13    1    3    3    0    0 -0.27122813321E+02 -0.13684550914E+02 -0.56259785265E+03  0.56341748086E+03  0.00000000000E+00 0.  1.
         14    1    3    3    0    0  0.25505003501E+02  0.24311003130E+01 -0.11092155318E+03  0.11384202393E+03  0.00000000000E+00 0. -1.
         13    1    5    5    0    0 -0.38016544764E+02 -0.38900889978E+02  0.74905347648E+02  0.92570773051E+02  0.00000000000E+00 0. -1.
        -14    1    5    5    0    0  0.31073794141E+02 -0.23314869911E+02  0.13659429050E+03  0.14201114054E+03  0.00000000000E+00 0.  1.
          5    1    4    4  501    0  0.49089428577E+02  0.47641224364E+02 -0.72494311426E+03  0.72817542500E+03  0.41800000000E+01 0. -1.
         -5    1    4    4    0  501 -0.40528868134E+02  0.25827986126E+02 -0.12284527185E+03  0.13197767703E+03  0.41800000000E+01 0. -1.
</event>
<event>
11    1  0.8974665E-009  0.1443582E+03  0.7561462E-02  0.1102787E+00
         22   -1    0    0    0    0  0.00000000000E+00  0.00000000000E+00  0.73903943487E+03  0.73903943487E+03  0.00000000000E+00 0.  1.
         22   -1    0    0    0    0 -0.00000000000E+00 -0.00000000000E+00 -0.30488163049E+03  0.30488163049E+03  0.00000000000E+00 0. -1.
        -24    2    1    2    0    0 -0.50687845019E+02 -0.37339038446E+02 -0.19829460190E+03  0.22348706970E+03  0.81622666913E+02 0.  0.
         25    2    1    2    0    0  0.16979969472E+02 -0.29283860605E+02 -0.42737241980E+02  0.13645680535E+03  0.12509246188E+03 0.  0.
         24    2    1    2    0    0  0.33707875548E+02  0.66622899051E+02  0.67518964826E+03  0.68397719031E+03  0.79805414622E+02 0.  0.
        -11    1    5    5    0    0  0.32101472751E+02  0.36815177691E+02  0.14615609464E+03  0.15410212802E+03  0.00000000000E+00 0.  1.
         12    1    5    5    0    0  0.16064027966E+01  0.29807721360E+02  0.52903355362E+03  0.52987506229E+03  0.00000000000E+00 0. -1.
         13    1    3    3    0    0 -0.16867814403E+02 -0.56638481773E+02 -0.15145040063E+03  0.16257202906E+03  0.00000000000E+00 0. -1.
        -14    1    3    3    0    0 -0.33820030616E+02  0.19299443327E+02 -0.46844201267E+02  0.60915040638E+02  0.00000000000E+00 0.  1.
          5    1    4    4  501    0 -0.34341259374E+02 -0.57269922272E+02 -0.39642650960E+02  0.77770034509E+02  0.41800000000E+01 0.  1.
         -5    1    4    4    0  501  0.51321228846E+02  0.27986061666E+02 -0.30945910198E+01  0.58686770838E+02  0.41800000000E+01 0.  1.
</event>
<event>
11    1  0.8974665E-009  0.1677836E+03  0.7561462E-02  0.1079977E+00
         22   -1    0    0    0    0  0.00000000000E+00  0.00000000000E+00  0.76919985994E+03  0.76919985994E+03  0.00000000000E+00 0. -1.
         22   -1    0    0    0    0 -0.00000000000E+00 -0.00000000000E+00 -0.26293283317E+04  0.26293283317E+04  0.00000000000E+00 0.  1.
         24    2    1    2    0    0  0.26904362517E+02  0.19009833293E+02 -0.25603158245E+04  0.25618384329E+04  0.81937880592E+02 0.  0.
         25    2    1    2    0    0  0.66077759318E+02 -0.83228295332E+02  0.49670193261E+02  0.17147932985E+03  0.12507922708E+03 0.  0.
        -24    2    1    2    0    0 -0.92982121835E+02  0.64218462038E+02  0.65051715949E+03  0.66521042895E+03  0.81010210118E+02 0.  0.
        -13    1    3    3    0    0  0.50322015316E+02  0.33320269704E+02 -0.16262942232E+04  0.16274137292E+04  0.00000000000E+00 0.  1.
         14    1    3    3    0    0 -0.23417652799E+02 -0.14310436411E+02 -0.93402160132E+03  0.93442470365E+03  0.00000000000E+00 0. -1.
         11    1    5    5    0    0 -0.47208175969E+02  0.75718404593E+02  0.48293579926E+03  0.49110983993E+03  0.00000000000E+00 0. -1.
        -12    1    5    5    0    0 -0.45773945866E+02 -0.11499942554E+02  0.16758136023E+03  0.17410058901E+03  0.00000000000E+00 0.  1.
          5    1    4    4  501    0  0.45980443184E+02 -0.55798029308E+02 -0.34781983085E+02  0.80342267689E+02  0.41800000000E+01 0. -1.
         -5    1    4    4    0  501  0.20097316134E+02 -0.27430266024E+02  0.84452176346E+02  0.91137062162E+02  0.41800000000E+01 0. -1.
</event>
<event>
11    1  0.8974665E-009  0.1632625E+03  0.7561462E-02  0.1084048E+00
         22   -1    0    0    0    0  0.00000000000E+00  0.00000000000E+00  0.29038779007E+03  0.29038779007E+03  0.00000000000E+00 0. -1.
         22   -1    0    0    0    0 -0.00000000000E+00 -0.00000000000E+00 -0.46070407323E+03  0.46070407323E+03  0.00000000000E+00 0. -1.
        -24    2    1    2    0    0  0.72760672961E+02  0.17200466379E+02 -0.22221015062E+03  0.24768920925E+03  0.79891312218E+02 0.  0.
         25    2    1    2    0    0  0.58558164120E+01 -0.91548398081E+02 -0.17796724580E+03  0.23607786805E+03  0.12508005208E+03 0.  0.
         24    2    1    2    0    0 -0.78616489373E+02  0.74347931702E+02  0.22986111327E+03  0.26732478600E+03  0.83175972891E+02 0.  0.
        -13    1    5    5    0    0 -0.23814050221E+02  0.29326069962E+02  0.14296162897E+02  0.40391925442E+02  0.00000000000E+00 0.  1.
         14    1    5    5    0    0 -0.54802439152E+02  0.45021861740E+02  0.21556495037E+03  0.22693286056E+03  0.00000000000E+00 0. -1.
         13    1    3    3    0    0  0.31790318332E+02 -0.88096623533E+01 -0.18112307710E+03  0.18410269838E+03  0.00000000000E+00 0. -1.
        -14    1    3    3    0    0  0.40970354629E+02  0.26010128732E+02 -0.41087073519E+02  0.63586510876E+02  0.00000000000E+00 0.  1.
          5    1    4    4  501    0 -0.21611523921E+02  0.21102157901E+02 -0.74958626124E+02  0.80923587814E+02  0.41800000000E+01 0. -1.
         -5    1    4    4    0  501  0.27467340333E+02 -0.11265055598E+03 -0.10300861968E+03  0.15515428024E+03  0.41800000000E+01 0. -1.
</event>
<event>
11    1  0.8974665E-009  0.1468185E+03  0.7561462E-02  0.1100175E+00
         22   -1    0    0    0    0  0.00000000000E+00  0.00000000000E+00  0.79779817542E+03  0.79779817542E+03  0.00000000000E+00 0.  1.
         22   -1    0    0    0    0 -0.00000000000E+00 -0.00000000000E+00 -0.11340863721E+03  0.11340863721E+03  0.00000000000E+00 0. -1.
         24    2    1    2    0    0 -0.47913873046E+02 -0.33393008893E+01 -0.39982449798E+02  0.95644434675E+02  0.72404222472E+02 0.  0.
         25    2    1    2    0    0  0.98138185856E+02  0.56418196517E+02  0.13354760944E+03  0.21516784374E+03  0.12509244810E+03 0.  0.
        -24    2    1    2    0    0 -0.50224312810E+02 -0.53078895628E+02  0.59082437856E+03  0.60039453422E+03  0.77847926455E+02 0.  0.
        -13    1    3    3    0    0  0.29221048590E+01 -0.28100316385E+02 -0.37823711370E+01  0.28503908664E+02  0.00000000000E+00 0.  1.
         14    1    3    3    0    0 -0.50835977905E+02  0.24761015496E+02 -0.36200078661E+02  0.67140526011E+02  0.00000000000E+00 0. -1.
         11    1    5    5    0    0 -0.25426237030E+02 -0.14496538226E+02  0.52398063421E+02  0.60018332203E+02  0.00000000000E+00 0. -1.
        -12    1    5    5    0    0 -0.24798075779E+02 -0.38582357402E+02  0.53842631514E+03  0.54037620201E+03  0.00000000000E+00 0.  1.
          5    1    4    4  501    0 -0.10998912878E+02  0.53327831584E+01  0.83708258690E+02  0.84699230419E+02  0.41800000000E+01 0. -1.
         -5    1    4    4    0  501  0.10913709873E+03  0.51085413359E+02  0.49839350747E+02  0.13046861332E+03  0.41800000000E+01 0. -1.
</event>
<event>
11    1  0.8974665E-009  0.1698014E+03  0.7561462E-02  0.1078205E+00
         22   -1    0    0    0    0  0.00000000000E+00  0.00000000000E+00  0.93398097315E+03  0.93398097315E+03  0.00000000000E+00 0. -1.
         22   -1    0    0    0    0 -0.00000000000E+00 -0.00000000000E+00 -0.14656977494E+04  0.14656977494E+04  0.00000000000E+00 0. -1.
        -24    2    1    2    0    0 -0.94277153512E+02  0.69909530519E+02 -0.12526012354E+04  0.12605849489E+04  0.79303433082E+02 0.  0.
         25    2    1    2    0    0  0.99511029560E+02 -0.23513995642E+02 -0.17534732131E+03  0.23843108922E+03  0.12508936094E+03 0.  0.
         24    2    1    2    0    0 -0.52338760474E+01 -0.46395534877E+02  0.89623178041E+03  0.90066268442E+03  0.76038988465E+02 0.  0.
        -13    1    5    5    0    0 -0.35721020653E+02 -0.51761975419E+01  0.28321347135E+03  0.28550421134E+03  0.00000000000E+00 0.  1.
         14    1    5    5    0    0  0.30487144606E+02 -0.41219337336E+02  0.61301830906E+03  0.61515847308E+03  0.00000000000E+00 0. -1.
         11    1    3    3    0    0 -0.64026650519E+02  0.26770934776E+02 -0.10073668552E+04  0.10097544632E+04  0.00000000000E+00 0. -1.
        -12    1    3    3    0    0 -0.30250502993E+02  0.43138595743E+02 -0.24523438015E+03  0.25083048575E+03  0.00000000000E+00 0.  1.
          5    1    4    4  501    0 -0.28884536529E+02 -0.98508755600E+01 -0.21644091661E+02  0.37646982663E+02  0.41800000000E+01 0.  1.
         -5    1    4    4    0  501  0.12839556609E+03 -0.13663120082E+02 -0.15370322965E+03  0.20078410656E+03  0.41800000000E+01 0.  1.
</event>
<event>
11    1  0.8974665E-009  0.1634965E+03  0.7561462E-02  0.1083834E+00
         22   -1    0    0    0    0  0.00000000000E+00  0.00000000000E+00  0.62348538754E+03  0.62348538754E+03  0.00000000000E+00 0. -1.
         22   -1    0    0    0    0 -0.00000000000E+00 -0.00000000000E+00 -0.42204508817E+03  0.42204508817E+03  0.00000000000E+00 0. -1.
         24    2    1    2    0    0  0.15990904504E+02  0.14310725807E+02 -0.32745456140E+03  0.33800035946E+03  0.80976831984E+02 0.  0.
         25    2    1    2    0    0  0.88990443855E+02  0.61839565165E+01 -0.84050344526E+01  0.15386861350E+03  0.12508942881E+03 0.  0.
        -24    2    1    2    0    0 -0.10498134836E+03 -0.20494682323E+02  0.53729989522E+03  0.55366150276E+03  0.80054773305E+02 0.  0.
        -11    1    3    3    0    0  0.29331780660E+02 -0.14149897453E+02 -0.56381581406E+02  0.65111102559E+02  0.00000000000E+00 0.  1.
         12    1    3    3    0    0 -0.13340876156E+02  0.28460623260E+02 -0.27107297999E+03  0.27288925690E+03  0.00000000000E+00 0. -1.
         13    1    5    5    0    0 -0.39266630469E+02  0.88963867471E+01  0.36088838857E+03  0.36312730959E+03  0.00000000000E+00 0. -1.
        -14    1    5    5    0    0 -0.65714717890E+02 -0.29391069071E+02  0.17641150665E+03  0.19053419317E+03  0.00000000000E+00 0.  1.
          5    1    4    4  501    0  0.41888961490E+02 -0.25563455625E+02 -0.59579193971E+02  0.77300246522E+02  0.41800000000E+01 0.  1.
         -5    1    4    4    0  501  0.47101482365E+02  0.31747412141E+02  0.51174159518E+02  0.76568366974E+02  0.41800000000E+01 0.  1.
</event>
<event>
11    1  0.8974665E-009  0.1938913E+03  0.7561462E-02  0.1058929E+00
         22   -1    0    0    0    0  0.00000000000E+00  0.00000000000E+00  0.29343595162E+04  0.29343595162E+04  0.00000000000E+00 0.  1.
         22   -1    0    0    0    0 -0.00000000000E+00 -0.00000000000E+00 -0.25475444542E+03  0.25475444542E+03  0.00000000000E+00 0. -1.
        -24    2    1    2    0    0  0.14088255220E+03 -0.45485790868E+02 -0.20873511663E+03  0.26952195160E+03  0.84586540277E+02 0.  0.
         25    2    1    2    0    0 -0.12062641832E+03  0.11418636373E+03  0.74372862009E+03  0.77224994824E+03  0.12509381978E+03 0.  0.
         24    2    1    2    0    0 -0.20256133887E+02 -0.68700572861E+02  0.21446115673E+04  0.21473420618E+04  0.81173123573E+02 0.  0.
        -13    1    5    5    0    0 -0.27425952611E+02 -0.40428419181E+02  0.19447418701E+04  0.19453553869E+04  0.00000000000E+00 0.  1.
         14    1    5    5    0    0  0.71698187237E+01 -0.28272153680E+02  0.19986969719E+03  0.20198667488E+03  0.00000000000E+00 0. -1.
         11    1    3    3    0    0  0.11558326533E+03 -0.31756746301E+02 -0.20877400021E+03  0.24073754449E+03  0.00000000000E+00 0. -1.
        -12    1    3    3    0    0  0.25299286874E+02 -0.13729044567E+02  0.38883587991E-01  0.28784407116E+02  0.00000000000E+00 0.  1.
          5    1    4    4  501    0  0.11477741437E+02 -0.71202360424E+01  0.11098180639E+02  0.17974379636E+02  0.41800000000E+01 0. -1.
         -5    1    4    4    0  501 -0.13210415976E+03  0.12130659977E+03  0.73263043945E+03  0.75427556860E+03  0.41800000000E+01 0. -1.
</event>
<event>
11    1  0.8974665E-009  0.1417391E+03  0.7561462E-02  0.1105632E+00
         22   -1    0    0    0    0  0.00000000000E+00  0.00000000000E+00  0.18819460856E+04  0.18819460856E+04  0.00000000000E+00 0.  1.
         22   -1    0    0    0    0 -0.00000000000E+00 -0.00000000000E+00 -0.19138495522E+04  0.19138495522E+04  0.00000000000E+00 0. -1.
        -24    2    1    2    0    0  0.46632541404E+02 -0.55207605292E+01 -0.18882810371E+04  0.18905845812E+04  0.80620785701E+02 0.  0.
         25    2    1    2    0    0 -0.69243371263E+02  0.66591161698E+02  0.25053865986E+03  0.29605497120E+03  0.12509955477E+03 0.  0.
         24    2    1    2    0    0  0.22610829859E+02 -0.61070401168E+02  0.16058389106E+04  0.16091560853E+04  0.80148965842E+02 0.  0.
        -11    1    5    5    0    0  0.43523383090E+02 -0.67922404296E+02  0.11855517279E+04  0.11882931614E+04  0.00000000000E+00 0.  1.
         12    1    5    5    0    0 -0.20912553231E+02  0.68520031275E+01  0.42028718266E+03  0.42086292393E+03  0.00000000000E+00 0. -1.
         13    1    3    3    0    0  0.47169897498E+02 -0.30580404224E+02 -0.16562262341E+04  0.16571799838E+04  0.00000000000E+00 0. -1.
        -14    1    3    3    0    0 -0.53735609465E+00  0.25059643695E+02 -0.23205480302E+03  0.23340459743E+03  0.00000000000E+00 0.  1.
          5    1    4    4  501    0  0.12621538837E+02  0.43333886495E+02  0.18663079873E+02  0.49019505421E+02  0.41800000000E+01 0. -1.
         -5    1    4    4    0  501 -0.81864910100E+02  0.23257275203E+02  0.23187557999E+03  0.24703546578E+03  0.41800000000E+01 0. -1.
</event>
<event>
11    1  0.8974665E-009  0.2927240E+03  0.7561462E-02  0.1003318E+00
         22   -1    0    0    0    0  0.00000000000E+00  0.00000000000E+00  0.21629304551E+04  0.21629304551E+04  0.00000000000E+00 0. -1.
         22   -1    0    0    0    0 -0.00000000000E+00 -0.00000000000E+00 -0.10943880053E+04  0.10943880053E+04  0.00000000000E+00 0. -1.
         24    2    1    2    0    0 -0.11099158742E+03 -0.96617016163E+02 -0.98552871418E+03  0.99970349008E+03  0.80537204470E+02 0.  0.
         25    2    1    2    0    0  0.25823566868E+03  0.29886341448E+03  0.37742195542E+03  0.56044665902E+03  0.12509246215E+03 0.  0.
        -24    2    1    2    0    0 -0.14724408126E+03 -0.20224639831E+03  0.16766492085E+04  0.16971683113E+04  0.81506339155E+02 0.  0.
        -13    1    3    3    0    0  0.34744899245E+01 -0.39785271953E+02 -0.24053596641E+03  0.24382881512E+03  0.00000000000E+00 0.  1.
         14    1    3    3    0    0 -0.11446607734E+03 -0.56831744210E+02 -0.74499274777E+03  0.75587467496E+03  0.00000000000E+00 0. -1.
         13    1    5    5    0    0 -0.12026251380E+03 -0.15253146868E+03  0.14750452080E+04  0.14877793139E+04  0.00000000000E+00 0. -1.
        -14    1    5    5    0    0 -0.26981567460E+02 -0.49714929633E+02  0.20160400049E+03  0.20938899738E+03  0.00000000000E+00 0.  1.
          5    1    4    4  501    0  0.26122434154E+03  0.28847246991E+03  0.38431139339E+03  0.54696182866E+03  0.41800000000E+01 0.  1.
         -5    1    4    4    0  501 -0.29886728664E+01  0.10390944562E+02 -0.68894379750E+01  0.13484830366E+02  0.41800000000E+01 0.  1.
</event>
<event>
11    1  0.8974665E-009  0.1501203E+03  0.7561462E-02  0.1096756E+00
         22   -1    0    0    0    0  0.00000000000E+00  0.00000000000E+00  0.40889035404E+03  0.40889035404E+03  0.00000000000E+00 0. -1.
         22   -1    0    0    0    0 -0.00000000000E+00 -0.00000000000E+00 -0.11482673879E+03  0.11482673879E+03  0.00000000000E+00 0.  1.
         24    2    1    2    0    0  0.58350989022E-01  0.90421710570E+02  0.25752989364E+02  0.12405908825E+03  0.80940421114E+02 0.  0.
         25    2    1    2    0    0  0.35416822845E+01  0.47799928503E+02  0.15037791969E+03  0.20139205024E+03  0.12509141653E+03 0.  0.
        -24    2    1    2    0    0 -0.36000332736E+01 -0.13822163907E+03  0.11793270619E+03  0.19826595433E+03  0.79265905085E+02 0.  0.
        -13    1    3    3    0    0  0.52665383092E+00  0.72768960893E+02 -0.19621211504E+02  0.75369695333E+02  0.00000000000E+00 0.  1.
         14    1    3    3    0    0 -0.46830284190E+00  0.17652749677E+02  0.45374200868E+02  0.48689392922E+02  0.00000000000E+00 0. -1.
         13    1    5    5    0    0  0.55133594091E+01 -0.86499411223E+02  0.11716658162E+03  0.14574139125E+03  0.00000000000E+00 0. -1.
        -14    1    5    5    0    0 -0.91133926826E+01 -0.51722227850E+02  0.76612456781E+00  0.52524563081E+02  0.00000000000E+00 0.  1.
          5    1    4    4  501    0  0.16845820960E+02  0.31653623520E+02 -0.11674894900E+02  0.37940863679E+02  0.41800000000E+01 0. -1.
         -5    1    4    4    0  501 -0.13304138676E+02  0.16146304983E+02  0.16205281459E+03  0.16345118656E+03  0.41800000000E+01 0. -1.
</event>
<event>
11    1  0.8974665E-009  0.2176107E+03  0.7561462E-02  0.1042725E+00
         22   -1    0    0    0    0  0.00000000000E+00  0.00000000000E+00  0.84116266731E+02  0.84116266731E+02  0.00000000000E+00 0. -1.
         22   -1    0    0    0    0 -0.00000000000E+00 -0.00000000000E+00 -0.27335618009E+04  0.27335618009E+04  0.00000000000E+00 0. -1.
        -24    2    1    2    0    0  0.63600333099E+02 -0.15662928110E+02 -0.17833916425E+04  0.17863918807E+04  0.80124100172E+02 0.  0.
         25    2    1    2    0    0 -0.22293992161E+03 -0.42979306338E+02 -0.78473567676E+03  0.82644327820E+03  0.12509588429E+03 0.  0.
         24    2    1    2    0    0  0.15933958852E+03  0.58642234449E+02 -0.81318214962E+02  0.20484290873E+03  0.80746201413E+02 0.  0.
        -11    1    5    5    0    0  0.71604237401E+02  0.66595077820E+02 -0.58082817811E+02  0.11373515256E+03  0.00000000000E+00 0.  1.
         12    1    5    5    0    0  0.87735351115E+02 -0.79528433715E+01 -0.23235397151E+02  0.91107756167E+02  0.00000000000E+00 0. -1.
         13    1    3    3    0    0  0.43502716048E+02  0.17894412421E+02 -0.14419455592E+04  0.14427126159E+04  0.00000000000E+00 0. -1.
        -14    1    3    3    0    0  0.20097617051E+02 -0.33557340531E+02 -0.34144608323E+03  0.34367926482E+03  0.00000000000E+00 0.  1.
          5    1    4    4  501    0 -0.82606204238E+02 -0.59349495693E+01 -0.49991885332E+03  0.50674978137E+03  0.41800000000E+01 0. -1.
         -5    1    4    4    0  501 -0.14033371738E+03 -0.37044356769E+02 -0.28481682344E+03  0.31969349683E+03  0.41800000000E+01 0. -1.
</event>
<event>
11    1  0.8974665E-009  0.2167428E+03  0.7561462E-02  0.1043277E+00
         22   -1    0    0    0    0  0.00000000000E+00  0.00000000000E+00  0.53073744503E+03  0.53073744503E+03  0.00000000000E+00 0.  1.
         22   -1    0    0    0    0 -0.00000000000E+00 -0.00000000000E+00 -0.19309372658E+04  0.19309372658E+04  0.00000000000E+00 0. -1.
         24    2    1    2    0    0 -0.83597323591E+02 -0.15567883441E+03 -0.18679771004E+04  0.18779736578E+04  0.78880921317E+02 0.  0.
         25    2    1    2    0    0  0.14077094109E+03  0.14582133760E+03  0.25177762723E+03  0.34658012423E+03  0.12508192748E+03 0.  0.
        -24    2    1    2    0    0 -0.57173617497E+02  0.98574968070E+01  0.21599965248E+03  0.23712092875E+03  0.78768599072E+02 0.  0.
        -11    1    3    3    0    0 -0.35254336389E+02 -0.10246690793E+03 -0.76251032963E+03  0.77017162909E+03  0.00000000000E+00 0.  1.
         12    1    3    3    0    0 -0.48342987203E+02 -0.53211926479E+02 -0.11054667708E+04  0.11078020288E+04  0.00000000000E+00 0. -1.
         11    1    5    5    0    0 -0.19660157290E+02 -0.40800545739E+00  0.21708303756E+01  0.19783850931E+02  0.00000000000E+00 0. -1.
        -12    1    5    5    0    0 -0.37513460207E+02  0.10265502264E+02  0.21382882210E+03  0.21733707782E+03  0.00000000000E+00 0.  1.
          5    1    4    4  501    0  0.11231794866E+03  0.27051333777E+02  0.13198653972E+03  0.17545659098E+03  0.41800000000E+01 0.  1.
         -5    1    4    4    0  501  0.28452992433E+02  0.11877000382E+03  0.11979108750E+03  0.17112353325E+03  0.41800000000E+01 0.  1.
</event>
<event>
11    1  0.8974665E-009  0.1496955E+03  0.7561462E-02  0.1097190E+00
         22   -1    0    0    0    0  0.00000000000E+00  0.00000000000E+00  0.63365387586E+03  0.63365387586E+03  0.00000000000E+00 0. -1.
         22   -1    0    0    0    0 -0.00000000000E+00 -0.00000000000E+00 -0.13778589168E+03  0.13778589168E+03  0.00000000000E+00 0.  1.
        -24    2    1    2    0    0 -0.60868314585E+02  0.68004325038E+02 -0.74572857141E+02  0.14357059893E+03  0.81986986219E+02 0.  0.
         25    2    1    2    0    0 -0.13782474081E+02 -0.38868419379E+02  0.21585738390E+03  0.25286980827E+03  0.12509204264E+03 0.  0.
         24    2    1    2    0    0  0.74650788666E+02 -0.29135905659E+02  0.35458345742E+03  0.37499936034E+03  0.92051348348E+02 0.  0.
        -11    1    5    5    0    0  0.46807547044E+02 -0.57656745950E+02  0.16027007503E+03  0.17664015331E+03  0.00000000000E+00 0.  1.
         12    1    5    5    0    0  0.27843241622E+02  0.28520840290E+02  0.19431338240E+03  0.19835920703E+03  0.00000000000E+00 0. -1.
         11    1    3    3    0    0 -0.37663237450E+02  0.32368388947E+01  0.52784576625E+01  0.38168818381E+02  0.00000000000E+00 0. -1.
        -12    1    3    3    0    0 -0.23205077134E+02  0.64767486144E+02 -0.79851314803E+02  0.10540178054E+03  0.00000000000E+00 0.  1.
          5    1    4    4  501    0  0.52128710615E+02 -0.79357188141E+01  0.55291840372E+02  0.76518220805E+02  0.41800000000E+01 0.  1.
         -5    1    4    4    0  501 -0.65911184696E+02 -0.30932700565E+02  0.16056554353E+03  0.17635158746E+03  0.41800000000E+01 0.  1.
</event>
<event>
11    1  0.8974665E-009  0.1268813E+03  0.7561462E-02  0.1123161E+00
         22   -1    0    0    0    0  0.00000000000E+00  0.00000000000E+00  0.27115466362E+03  0.27115466362E+03  0.00000000000E+00 0.  1.
         22   -1    0    0    0    0 -0.00000000000E+00 -0.00000000000E+00 -0.11393499340E+04  0.11393499340E+04  0.00000000000E+00 0.  1.
         24    2    1    2    0    0 -0.16428795805E+02 -0.13972973985E+02 -0.10723715876E+04  0.10755230042E+04  0.79396230857E+02 0.  0.
         25    2    1    2    0    0  0.11826243745E+02 -0.24484469489E+01  0.11673772439E+02  0.12621145331E+03  0.12508876469E+03 0.  0.
        -24    2    1    2    0    0  0.46025520598E+01  0.16421420934E+02  0.19250254470E+03  0.20877014013E+03  0.78974015612E+02 0.  0.
        -11    1    3    3    0    0 -0.18917719993E+02 -0.33914528377E+02 -0.98905283024E+03  0.98981492026E+03  0.00000000000E+00 0.  1.
         12    1    3    3    0    0  0.24889241877E+01  0.19941554392E+02 -0.83318757312E+02  0.85708083955E+02  0.00000000000E+00 0. -1.
         13    1    5    5    0    0 -0.15841542213E+02  0.23221973114E+02  0.18987505071E+02  0.33922556563E+02  0.00000000000E+00 0. -1.
        -14    1    5    5    0    0  0.20444094273E+02 -0.68005521800E+01  0.17351503963E+03  0.17484758356E+03  0.00000000000E+00 0.  1.
          5    1    4    4  501    0 -0.52463434380E+02 -0.19081690914E+02 -0.86328170478E+01  0.56643806415E+02  0.41800000000E+01 0.  1.
         -5    1    4    4    0  501  0.64289678125E+02  0.16633243965E+02  0.20306589487E+02  0.69567646897E+02  0.41800000000E+01 0.  1.
</event>
<event>
11    1  0.8974665E-009  0.2068693E+03  0.7561462E-02  0.1049770E+00
         22   -1    0    0    0    0  0.00000000000E+00  0.00000000000E+00  0.20557018417E+04  0.20557018417E+04  0.00000000000E+00 0. -1.
         22   -1    0    0    0    0 -0.00000000000E+00 -0.00000000000E+00 -0.19910878478E+04  0.19910878478E+04  0.00000000000E+00 0. -1.
        -24    2    1    2    0    0  0.16039782362E+03 -0.42317389181E+02 -0.19457179396E+04  0.19543717364E+04  0.78945298788E+02 0.  0.
         25    2    1    2    0    0 -0.12417583172E+03 -0.36008046492E+02  0.16739472938E+03  0.24573391833E+03  0.12509175272E+03 0.  0.
         24    2    1    2    0    0 -0.36221991906E+02  0.78325435673E+02  0.18429372043E+04  0.18466840348E+04  0.79859118745E+02 0.  0.
        -11    1    5    5    0    0  0.22118365521E+02  0.48002236678E+01  0.26885309733E+03  0.26980409965E+03  0.00000000000E+00 0.  1.
         12    1    5    5    0    0 -0.58340357427E+02  0.73525212006E+02  0.15740841069E+04  0.15768799351E+04  0.00000000000E+00 0. -1.
         11    1    3    3    0    0  0.16732427105E+03 -0.40596346359E+02 -0.17325668756E+04  0.17411012186E+04  0.00000000000E+00 0. -1.
        -12    1    3    3    0    0 -0.69264474250E+01 -0.17210428220E+01 -0.21315106401E+03  0.21327051777E+03  0.00000000000E+00 0.  1.
          5    1    4    4  501    0 -0.27305341095E+02 -0.61149349686E+02  0.24931943899E+02  0.71581414110E+02  0.41800000000E+01 0. -1.
         -5    1    4    4    0  501 -0.96870490621E+02  0.25141303194E+02  0.14246278548E+03  0.17415250422E+03  0.41800000000E+01 0. -1.
</event>
<event>
11    1  0.8974665E-009  0.1486742E+03  0.7561462E-02  0.1098241E+00
         22   -1    0    0    0    0  0.00000000000E+00  0.00000000000E+00  0.79601789411E+02  0.79601789411E+02  0.00000000000E+00 0. -1.
         22   -1    0    0    0    0 -0.00000000000E+00 -0.00000000000E+00 -0.12238101254E+04  0.12238101254E+04  0.00000000000E+00 0.  1.
        -24    2    1    2    0    0  0.83826794272E+02  0.16120295455E+02 -0.96933646049E+03  0.97619991438E+03  0.77886480430E+02 0.  0.
         25    2    1    2    0    0 -0.51156279496E+02  0.92591197547E+01 -0.19082494620E+03  0.23401944616E+03  0.12509294487E+03 0.  0.
         24    2    1    2    0    0 -0.32670514776E+02 -0.25379415209E+02  0.15953070738E+02  0.93192554237E+02  0.81968740671E+02 0.  0.
        -13    1    5    5    0    0 -0.51192825867E+02  0.92942189665E+01  0.13771013548E+02  0.53821266620E+02  0.00000000000E+00 0.  1.
         14    1    5    5    0    0  0.18522311090E+02 -0.34673634176E+02  0.21820571898E+01  0.39371287618E+02  0.00000000000E+00 0. -1.
         11    1    3    3    0    0  0.81741069448E+01  0.17701906334E+02 -0.48688758246E+02  0.52447771085E+02  0.00000000000E+00 0. -1.
        -12    1    3    3    0    0  0.75652687327E+02 -0.15816108794E+01 -0.92064770224E+03  0.92375214329E+03  0.00000000000E+00 0.  1.
          5    1    4    4  501    0 -0.76074035314E+02 -0.31385999836E+02 -0.14987452927E+03  0.17103270670E+03  0.41800000000E+01 0. -1.
         -5    1    4    4    0  501  0.24917755819E+02  0.40645119591E+02 -0.40950416928E+02  0.62986739463E+02  0.41800000000E+01 0. -1.
</event>
<event>
11    1  0.8974665E-009  0.1642367E+03  0.7561462E-02  0.1083159E+00
         22   -1    0    0    0    0  0.00000000000E+00  0.00000000000E+00  0.10357029208E+04  0.10357029208E+04  0.00000000000E+00 0.  1.
         22   -1    0    0    0    0 -0.00000000000E+00 -0.00000000000E+00 -0.83586437270E+03  0.83586437270E+03  0.00000000000E+00 0.  1.
        -24    2    1    2    0    0  0.95112815679E+02 -0.51204273075E+02 -0.80688088443E+03  0.81784788412E+03  0.78422411413E+02 0.  0.
         25    2    1    2    0    0 -0.50479720702E+02 -0.44632965399E+02  0.26670573321E+03  0.30219170234E+03  0.12509025955E+03 0.  0.
         24    2    1    2    0    0 -0.44633094977E+02  0.95837238474E+02  0.74001369930E+03  0.75152770703E+03  0.77438555202E+02 0.  0.
        -13    1    5    5    0    0 -0.30777289451E+02  0.28164872690E+02  0.50095597665E+03  0.50269015521E+03  0.00000000000E+00 0.  1.
         14    1    5    5    0    0 -0.13855805527E+02  0.67672365784E+02  0.23905772265E+03  0.24883755182E+03  0.00000000000E+00 0. -1.
         13    1    3    3    0    0  0.13510847588E+02 -0.45820872210E+02 -0.39899034253E+03  0.40184000394E+03  0.00000000000E+00 0. -1.
        -14    1    3    3    0    0  0.81601968091E+02 -0.53834008645E+01 -0.40789054189E+03  0.41600788018E+03  0.00000000000E+00 0.  1.
          5    1    4    4  501    0 -0.90875545486E+02 -0.23160623133E+02  0.15228896547E+03  0.17889712305E+03  0.41800000000E+01 0. -1.
         -5    1    4    4    0  501  0.40395824784E+02 -0.21472342265E+02  0.11441676773E+03  0.12329457929E+03  0.41800000000E+01 0. -1.
</event>
<event>
11    1  0.8974665E-009  0.1351048E+03  0.7561462E-02  0.1113151E+00
         22   -1    0    0    0    0  0.00000000000E+00  0.00000000000E+00  0.12681457184E+03  0.12681457184E+03  0.00000000000E+00 0.  1.
         22   -1    0    0    0    0 -0.00000000000E+00 -0.00000000000E+00 -0.19675118301E+04  0.19675118301E+04  0.00000000000E+00 0.  1.
         24    2    1    2    0    0 -0.51664866018E+02 -0.31983332827E+01 -0.18016062621E+04  0.18042251129E+04  0.82241392881E+02 0.  0.
         25    2    1    2    0    0  0.35826992149E+02 -0.14850847291E+02 -0.11695580459E+03  0.17558603091E+03  0.12509065909E+03 0.  0.
        -24    2    1    2    0    0  0.15837873869E+02  0.18049180573E+02  0.77864808466E+02  0.11451525808E+03  0.80462443215E+02 0.  0.
        -13    1    3    3    0    0 -0.22753018073E+02  0.84727550595E+01 -0.16032133049E+04  0.16033971399E+04  0.00000000000E+00 0.  1.
         14    1    3    3    0    0 -0.28911847945E+02 -0.11671088342E+02 -0.19839295721E+03  0.20082797297E+03  0.00000000000E+00 0. -1.
         13    1    5    5    0    0  0.94716989442E+01  0.27290208816E+02 -0.63327740691E+01  0.29573173748E+02  0.00000000000E+00 0. -1.
        -14    1    5    5    0    0  0.63661749249E+01 -0.92410282432E+01  0.84197582535E+02  0.84942084334E+02  0.00000000000E+00 0.  1.
          5    1    4    4  501    0 -0.20147470892E+02  0.48101428196E+01 -0.11410338032E+03  0.11604357741E+03  0.41800000000E+01 0. -1.
         -5    1    4    4    0  501  0.55974463041E+02 -0.19660990110E+02 -0.28524242699E+01  0.59542453502E+02  0.41800000000E+01 0. -1.
</event>
<event>
11    1  0.8974665E-009  0.1290786E+03  0.7561462E-02  0.1120406E+00
         22   -1    0    0    0    0  0.00000000000E+00  0.00000000000E+00  0.85060862002E+02  0.85060862002E+02  0.00000000000E+00 0. -1.
         22   -1    0    0    0    0 -0.00000000000E+00 -0.00000000000E+00 -0.57383111960E+03  0.57383111960E+03  0.00000000000E+00 0. -1.
         24    2    1    2    0    0  0.31276583757E+02  0.12714906729E+02 -0.38734035729E+03  0.39699844588E+03  0.80220446899E+02 0.  0.
         25    2    1    2    0    0 -0.23950515396E+02  0.41980895941E+01 -0.12253022546E+03  0.17678457289E+03  0.12509147820E+03 0.  0.
        -24    2    1    2    0    0 -0.73260683608E+01 -0.16912996323E+02  0.21100325155E+02  0.85108962828E+02  0.80365360136E+02 0.  0.
        -13    1    3    3    0    0 -0.19892507281E+02  0.13103559460E+02 -0.45585501601E+02  0.51433968082E+02  0.00000000000E+00 0.  1.
         14    1    3    3    0    0  0.51169091038E+02 -0.38865273119E+00 -0.34175485569E+03  0.34556447780E+03  0.00000000000E+00 0. -1.
         11    1    5    5    0    0 -0.37075106904E+02 -0.11923011491E+02  0.34568653388E+02  0.52074115950E+02  0.00000000000E+00 0. -1.
        -12    1    5    5    0    0  0.29749038543E+02 -0.49899848323E+01 -0.13468328233E+02  0.33034846878E+02  0.00000000000E+00 0.  1.
          5    1    4    4  501    0 -0.47195013314E+01  0.23343645635E+01 -0.14596838406E+03  0.14612311417E+03  0.41800000000E+01 0. -1.
         -5    1    4    4    0  501 -0.19231014064E+02  0.18637250306E+01  0.23438158592E+02  0.30661458725E+02  0.41800000000E+01 0. -1.
</event>
<event>
11    1  0.8974665E-009  0.1885825E+03  0.7561462E-02  0.1062905E+00
         22   -1    0    0    0    0  0.00000000000E+00  0.00000000000E+00  0.11742079677E+04  0.11742079677E+04  0.00000000000E+00 0.  1.
         22   -1    0    0    0    0 -0.00000000000E+00 -0.00000000000E+00 -0.14465203834E+03  0.14465203834E+03  0.00000000000E+00 0.  1.
        -24    2    1    2    0    0 -0.49251273814E+01 -0.10268698228E+03 -0.55671426178E+01  0.13037605861E+03  0.79987813907E+02 0.  0.
         25    2    1    2    0    0  0.81800666280E+02  0.21140854968E+03  0.17068389800E+03  0.31010549726E+03  0.12508997767E+03 0.  0.
         24    2    1    2    0    0 -0.76875538898E+02 -0.10872156740E+03  0.86443917403E+03  0.87837845021E+03  0.81014742404E+02 0.  0.
        -11    1    5    5    0    0 -0.39737361320E+02 -0.29877109171E+02  0.54502028034E+03  0.54728311276E+03  0.00000000000E+00 0.  1.
         12    1    5    5    0    0 -0.37138177578E+02 -0.78844458228E+02  0.31941889370E+03  0.33109533744E+03  0.00000000000E+00 0. -1.
         13    1    3    3    0    0 -0.38775953589E+02 -0.44246640257E+02  0.13169031432E+02  0.60288996837E+02  0.00000000000E+00 0. -1.
        -14    1    3    3    0    0  0.33850826207E+02 -0.58440342023E+02 -0.18736174050E+02  0.70087061778E+02  0.00000000000E+00 0.  1.
          5    1    4    4  501    0 -0.41188426802E+01  0.87884827332E+02  0.12478184669E+03  0.15273732158E+03  0.41800000000E+01 0.  1.
         -5    1    4    4    0  501  0.85919508960E+02  0.12352372235E+03  0.45902051306E+02  0.15736817568E+03  0.41800000000E+01 0.  1.
</event>
<event>
11    1  0.8974665E-009  0.1550156E+03  0.7561462E-02  0.1091861E+00
         22   -1    0    0    0    0  0.00000000000E+00  0.00000000000E+00  0.60257252177E+03  0.60257252177E+03  0.00000000000E+00 0. -1.
         22   -1    0    0    0    0 -0.00000000000E+00 -0.00000000000E+00 -0.72160060787E+03  0.72160060787E+03  0.00000000000E+00 0.  1.
         24    2    1    2    0    0 -0.88110414574E+02 -0.21968619042E+02 -0.64345798020E+03  0.65500310207E+03  0.82126889978E+02 0.  0.
         25    2    1    2    0    0  0.11395509542E+03 -0.23478623452E+02  0.41252752940E+02  0.17574530257E+03  0.12509041617E+03 0.  0.
        -24    2    1    2    0    0 -0.25844680844E+02  0.45447242494E+02  0.48317714115E+03  0.49342472501E+03  0.85290152636E+02 0.  0.
        -13    1    3    3    0    0 -0.85053104267E+01 -0.12251553530E+02 -0.36295329656E+03  0.36325959912E+03  0.00000000000E+00 0.  1.
         14    1    3    3    0    0 -0.79605104147E+02 -0.97170655121E+01 -0.28050468364E+03  0.29174350294E+03  0.00000000000E+00 0. -1.
         13    1    5    5    0    0 -0.22478409317E+02  0.40417111898E+02  0.48492459435E+03  0.48712491624E+03  0.00000000000E+00 0. -1.
        -14    1    5    5    0    0 -0.33662715276E+01  0.50301305957E+01 -0.17474531950E+01  0.62998087651E+01  0.00000000000E+00 0.  1.
          5    1    4    4  501    0  0.73936624844E+02 -0.24125485541E+02  0.85688752266E+02  0.11579593348E+03  0.41800000000E+01 0. -1.
         -5    1    4    4    0  501  0.40018470574E+02  0.64686208817E+00 -0.44435999326E+02  0.59949369086E+02  0.41800000000E+01 0. -1.
</event>
<event>
11    1  0.8974665E-009  0.1698224E+03  0.7561462E-02  0.1078186E+00
         22   -1    0    0    0    0  0.00000000000E+00  0.00000000000E+00  0.14551830305E+04  0.14551830305E+04  0.00000000000E+00 0.  1.
         22   -1    0    0    0    0 -0.00000000000E+00 -0.00000000000E+00 -0.31452583471E+04  0.31452583471E+04  0.00000000000E+00 0.  1.
        -24    2    1    2    0    0 -0.20704845082E+02 -0.11324743728E+03 -0.30708668159E+04  0.30739888501E+04  0.77011535303E+02 0.  0.
         25    2    1    2    0    0  0.40435277998E+02  0.93457660044E+02  0.19430837083E+02  0.16246389326E+03  0.12509042032E+03 0.  0.
         24    2    1    2    0    0 -0.19730432916E+02  0.19789777235E+02  0.13613606622E+04  0.13639886343E+04  0.79882518043E+02 0.  0.
        -11    1    5    5    0    0 -0.30061427153E+02  0.36934452776E+02  0.47065974543E+03  0.47306282793E+03  0.00000000000E+00 0.  1.
         12    1    5    5    0    0  0.10330994238E+02 -0.17144675541E+02  0.89070091676E+03  0.89092580637E+03  0.00000000000E+00 0. -1.
         13    1    3    3    0    0  0.16277516954E+02 -0.83645099972E+02 -0.15092698213E+04  0.15116735275E+04  0.00000000000E+00 0. -1.
        -14    1    3    3    0    0 -0.36982362036E+02 -0.29602337307E+02 -0.15615969946E+04  0.15623153225E+04  0.00000000000E+00 0.  1.
          5    1    4    4  501    0  0.75773668504E+02  0.58740021423E+02  0.45636658266E+02  0.10626483865E+03  0.41800000000E+01 0. -1.
         -5    1    4    4    0  501 -0.35338390506E+02  0.34717638620E+02 -0.26205821183E+02  0.56199054608E+02  0.41800000000E+01 0. -1.
</event>
<event>
11    1  0.8974665E-009  0.1337195E+03  0.7561462E-02  0.1114782E+00
         22   -1    0    0    0    0  0.00000000000E+00  0.00000000000E+00  0.78857374642E+03  0.78857374642E+03  0.00000000000E+00 0. -1.
         22   -1    0    0    0    0 -0.00000000000E+00 -0.00000000000E+00 -0.54247749158E+03  0.54247749158E+03  0.00000000000E+00 0.  1.
        -24    2    1    2    0    0  0.57680435570E+01  0.40280885359E+01 -0.42201241084E+03  0.43024867083E+03  0.83486214579E+02 0.  0.
         25    2    1    2    0    0  0.31799923866E+02 -0.32777054365E+02 -0.74401923821E+02  0.15254253326E+03  0.12509199708E+03 0.  0.
         24    2    1    2    0    0 -0.37567967423E+02  0.28748965829E+02  0.74251058950E+03  0.74826003391E+03  0.79581704003E+02 0.  0.
        -11    1    5    5    0    0 -0.56401188872E+02 -0.66836515057E+00  0.39671929676E+03  0.40070904812E+03  0.00000000000E+00 0.  1.
         12    1    5    5    0    0  0.18833221449E+02  0.29417330980E+02  0.34579129273E+03  0.34755098579E+03  0.00000000000E+00 0. -1.
         13    1    3    3    0    0  0.14687228566E+02 -0.18404833418E+02 -0.33282133766E+02  0.40769510717E+02  0.00000000000E+00 0. -1.
        -14    1    3    3    0    0 -0.89191850091E+01  0.22432921954E+02 -0.38873027707E+03  0.38947916011E+03  0.00000000000E+00 0.  1.
          5    1    4    4  501    0  0.75189997323E+02 -0.42849691528E+02 -0.36938345597E+02  0.94188882236E+02  0.41800000000E+01 0.  1.
         -5    1    4    4    0  501 -0.43390073457E+02  0.10072637162E+02 -0.37463578223E+02  0.58353651020E+02  0.41800000000E+01 0.  1.
</event>
<event>
11    1  0.8974665E-009  0.3758922E+03  0.7561462E-02  0.9723695E-01
         22   -1    0    0    0    0  0.00000000000E+00  0.00000000000E+00  0.33426358950E+03  0.33426358950E+03  0.00000000000E+00 0.  1.
         22   -1    0    0    0    0 -0.00000000000E+00 -0.00000000000E+00 -0.22152940755E+04  0.22152940755E+04  0.00000000000E+00 0.  1.
        -24    2    1    2    0    0 -0.97609735776E+02  0.10689049917E+03 -0.14851106365E+04  0.14941849974E+04  0.77986949665E+02 0.  0.
         25    2    1    2    0    0 -0.39964894244E+02  0.11960744070E+03 -0.65351640733E+03  0.67722482199E+03  0.12508649900E+03 0.  0.
         24    2    1    2    0    0  0.13757463002E+03 -0.22649793987E+03  0.25759655788E+03  0.37814784561E+03  0.80073159799E+02 0.  0.
        -11    1    5    5    0    0  0.13269025090E+03 -0.19640086391E+03  0.18924761253E+03  0.30330621635E+03  0.00000000000E+00 0.  1.
         12    1    5    5    0    0  0.48843791242E+01 -0.30097075959E+02  0.68348945344E+02  0.74841629260E+02  0.00000000000E+00 0. -1.
         13    1    3    3    0    0 -0.52707143071E+02  0.85710835944E+01 -0.36742405680E+03  0.37128418215E+03  0.00000000000E+00 0. -1.
        -14    1    3    3    0    0 -0.44902592705E+02  0.98319415576E+02 -0.11176865797E+04  0.11229008152E+04  0.00000000000E+00 0.  1.
          5    1    4    4  501    0 -0.61646016401E+02  0.26398094688E+02 -0.14561068462E+03  0.16036531613E+03  0.41800000000E+01 0. -1.
         -5    1    4    4    0  501  0.21681122157E+02  0.93209346014E+02 -0.50790572270E+03  0.51685950586E+03  0.41800000000E+01 0. -1.
</event>
<event>
11    1  0.8974665E-009  0.1745756E+03  0.7561462E-02  0.1074117E+00
         22   -1    0    0    0    0  0.00000000000E+00  0.00000000000E+00  0.20355714020E+03  0.20355714020E+03  0.00000000000E+00 0. -1.
         22   -1    0    0    0    0 -0.00000000000E+00 -0.00000000000E+00 -0.81121831279E+03  0.81121831279E+03  0.00000000000E+00 0.  1.
        -24    2    1    2    0    0  0.11977191355E+03  0.36554918285E+02 -0.61822509495E+03  0.63587566859E+03  0.80336943904E+02 0.  0.
         25    2    1    2    0    0 -0.62648050825E+02  0.91027248128E+02 -0.88721186013E+02  0.18902240186E+03  0.12508909378E+03 0.  0.
         24    2    1    2    0    0 -0.57123862722E+02 -0.12758216641E+03  0.99285108374E+02  0.18987738254E+03  0.81581510008E+02 0.  0.
        -13    1    5    5    0    0 -0.60833650743E+02 -0.38587193490E+02  0.53457418630E+02  0.89707302772E+02  0.00000000000E+00 0.  1.
         14    1    5    5    0    0  0.37097880207E+01 -0.88994972923E+02  0.45827689744E+02  0.10017007976E+03  0.00000000000E+00 0. -1.
         13    1    3    3    0    0  0.22130549569E+02  0.45586383518E+02 -0.20304596648E+03  0.20927384951E+03  0.00000000000E+00 0. -1.
        -14    1    3    3    0    0  0.97641363978E+02 -0.90314652334E+01 -0.41517912847E+03  0.42660181908E+03  0.00000000000E+00 0.  1.
          5    1    4    4  501    0 -0.29566317098E+01  0.51808460672E+02  0.22550279938E+02  0.56734872817E+02  0.41800000000E+01 0.  1.
         -5    1    4    4    0  501 -0.59691419115E+02  0.39218787457E+02 -0.11127146595E+03  0.13228752904E+03  0.41800000000E+01 0.  1.
</event>
<event>
11    1  0.1167281E-008  0.1750740E+03  0.7561462E-02  0.1073699E+00
         22   -1    0    0    0    0  0.00000000000E+00  0.00000000000E+00  0.53870670897E+03  0.53870670897E+03  0.00000000000E+00 0.  1.
         22   -1    0    0    0    0 -0.00000000000E+00 -0.00000000000E+00 -0.72231508858E+03  0.72231508858E+03  0.00000000000E+00 0. -1.
         24    2    1    2    0    0 -0.81989517271E+02 -0.80043493063E+01 -0.53975751656E+03  0.55231092786E+03  0.83203568485E+02 0.  0.
         25    2    1    2    0    0  0.84412669462E+02 -0.11475497894E+03 -0.11057400104E+03  0.21947311479E+03  0.12509050505E+03 0.  0.
        -24    2    1    2    0    0 -0.24231521912E+01  0.12275932824E+03  0.46672313799E+03  0.48923775489E+03  0.80295510076E+02 0.  0.
        -11    1    3    3    0    0  0.43643208860E+01 -0.23994938595E+02 -0.63470667864E+02  0.67995073748E+02  0.00000000000E+00 0.  1.
         12    1    3    3    0    0 -0.86353838157E+02  0.15990589288E+02 -0.47628684869E+03  0.48431585412E+03  0.00000000000E+00 0. -1.
         13    1    5    5    0    0  0.24333986896E+02  0.34838779039E+02  0.69012383613E+02  0.81046853950E+02  0.00000000000E+00 0. -1.
        -14    1    5    5    0    0 -0.26757139087E+02  0.87920549205E+02  0.39771075438E+03  0.40819090094E+03  0.00000000000E+00 0.  1.
          5    1    4    4  501    0  0.63095776272E+02 -0.81910444692E+02 -0.14796748436E+01  0.10348941864E+03  0.41800000000E+01 0. -1.
         -5    1    4    4    0  501  0.21316893190E+02 -0.32844534246E+02 -0.10909432620E+03  0.11598369615E+03  0.41800000000E+01 0. -1.
</event>
<event>
11    1  0.8974665E-009  0.1505168E+03  0.7561462E-02  0.1096352E+00
         22   -1    0    0    0    0  0.00000000000E+00  0.00000000000E+00  0.67090752436E+03  0.67090752436E+03  0.00000000000E+00 0.  1.
         22   -1    0    0    0    0 -0.00000000000E+00 -0.00000000000E+00 -0.45745118017E+03  0.45745118017E+03  0.00000000000E+00 0. -1.
         24    2    1    2    0    0 -0.31698256377E+02 -0.13709310650E+02 -0.36446032810E+03  0.37478789761E+03  0.80261527402E+02 0.  0.
         25    2    1    2    0    0  0.76079414335E+02 -0.56838870452E+02 -0.71290632996E+01  0.15721505826E+03  0.12508803508E+03 0.  0.
        -24    2    1    2    0    0 -0.44381157958E+02  0.70548181102E+02  0.58504573558E+03  0.59635574866E+03  0.80093278098E+02 0.  0.
        -11    1    3    3    0    0 -0.13069229106E+02  0.24115253319E+02 -0.46063733047E+02  0.53611730939E+02  0.00000000000E+00 0.  1.
         12    1    3    3    0    0 -0.18629027271E+02 -0.37824563969E+02 -0.31839659505E+03  0.32117616667E+03  0.00000000000E+00 0. -1.
         13    1    5    5    0    0  0.50764708282E+01  0.35138744608E+02  0.78309360622E+02  0.85981729976E+02  0.00000000000E+00 0. -1.
        -14    1    5    5    0    0 -0.49457628786E+02  0.35409436494E+02  0.50673637496E+03  0.51037401868E+03  0.00000000000E+00 0.  1.
          5    1    4    4  501    0 -0.14195004578E+02  0.19638176317E+02 -0.27715114970E+02  0.37050723634E+02  0.41800000000E+01 0. -1.
         -5    1    4    4    0  501  0.90274418913E+02 -0.76477046769E+02  0.20586051670E+02  0.12016433463E+03  0.41800000000E+01 0. -1.
</event>
<event>
11    1  0.8974665E-009  0.2183612E+03  0.7561462E-02  0.1042249E+00
         22   -1    0    0    0    0  0.00000000000E+00  0.00000000000E+00  0.35952169804E+03  0.35952169804E+03  0.00000000000E+00 0.  1.
         22   -1    0    0    0    0 -0.00000000000E+00 -0.00000000000E+00 -0.14269421730E+04  0.14269421730E+04  0.00000000000E+00 0. -1.
        -24    2    1    2    0    0  0.16296949629E+02  0.18433080571E+02 -0.11184110705E+04  0.11216368842E+04  0.81367120381E+02 0.  0.
         25    2    1    2    0    0 -0.64857404577E+02  0.15520222900E+03 -0.23669926179E+03  0.31617651759E+03  0.12508730922E+03 0.  0.
         24    2    1    2    0    0  0.48560454947E+02 -0.17363530957E+03  0.28768985733E+03  0.34865046928E+03  0.79273937767E+02 0.  0.
        -11    1    5    5    0    0  0.19857054712E+02 -0.14149378574E+03  0.26214778512E+03  0.29855695482E+03  0.00000000000E+00 0.  1.
         12    1    5    5    0    0  0.28703400235E+02 -0.32141523830E+02  0.25542072205E+02  0.50093514467E+02  0.00000000000E+00 0. -1.
         11    1    3    3    0    0  0.34930505157E+02 -0.37363597624E+01 -0.95725407856E+03  0.95789846617E+03  0.00000000000E+00 0. -1.
        -12    1    3    3    0    0 -0.18633555528E+02  0.22169440334E+02 -0.16115699197E+03  0.16373841802E+03  0.00000000000E+00 0.  1.
          5    1    4    4  501    0 -0.96784023104E+02  0.14754044395E+03 -0.20095815092E+03  0.26746397992E+03  0.41800000000E+01 0.  1.
         -5    1    4    4    0  501  0.31926618528E+02  0.76617850460E+01 -0.35741110871E+02  0.48712537677E+02  0.41800000000E+01 0.  1.
</event>
<event>
11    1  0.8974665E-009  0.1479836E+03  0.7561462E-02  0.1098957E+00
         22   -1    0    0    0    0  0.00000000000E+00  0.00000000000E+00  0.80373524195E+02  0.80373524195E+02  0.00000000000E+00 0.  1.
         22   -1    0    0    0    0 -0.00000000000E+00 -0.00000000000E+00 -0.15494319547E+04  0.15494319547E+04  0.00000000000E+00 0.  1.
         24    2    1    2    0    0 -0.18962346603E+02 -0.80368721302E+02 -0.13302798546E+04  0.13352952597E+04  0.80933534229E+02 0.  0.
         25    2    1    2    0    0  0.48872170110E+02  0.27738549224E+02 -0.13721136836E+03  0.19399905358E+03  0.12510298581E+03 0.  0.
        -24    2    1    2    0    0 -0.29909823507E+02  0.52630172078E+02 -0.15672075473E+01  0.10051116566E+03  0.80221603866E+02 0.  0.
        -11    1    3    3    0    0 -0.43474129920E+02 -0.79459808306E+02 -0.99143895764E+03  0.99556771132E+03  0.00000000000E+00 0.  1.
         12    1    3    3    0    0  0.24511783317E+02 -0.90891299521E+00 -0.33884089701E+03  0.33972754838E+03  0.00000000000E+00 0. -1.
         13    1    5    5    0    0  0.85124971001E+01  0.52235954113E+02  0.19845285567E+02  0.56523383375E+02  0.00000000000E+00 0. -1.
        -14    1    5    5    0    0 -0.38422320607E+02  0.39421796508E+00 -0.21412493114E+02  0.43987782281E+02  0.00000000000E+00 0.  1.
          5    1    4    4  501    0  0.74864197089E+02  0.26918646766E+02 -0.14592584547E+03  0.16625608658E+03  0.41800000000E+01 0. -1.
         -5    1    4    4    0  501 -0.25992026979E+02  0.81990245718E+00  0.87144771115E+01  0.27742966998E+02  0.41800000000E+01 0. -1.
</event>
<event>
11    1  0.8974665E-009  0.3069623E+03  0.7561462E-02  0.9972869E-01
         22   -1    0    0    0    0  0.00000000000E+00  0.00000000000E+00  0.12704562687E+03  0.12704562687E+03  0.00000000000E+00 0.  1.
         22   -1    0    0    0    0 -0.00000000000E+00 -0.00000000000E+00 -0.11259186752E+04  0.11259186752E+04  0.00000000000E+00 0. -1.
        -24    2    1    2    0    0 -0.33322549904E+03 -0.21561796869E+02 -0.51128657374E+03  0.61587391231E+03  0.79890995016E+02 0.  0.
         25    2    1    2    0    0  0.22974832223E+03  0.61819761043E+02 -0.36840990440E+03  0.45604917846E+03  0.12509604747E+03 0.  0.
         24    2    1    2    0    0  0.10347717680E+03 -0.40257964174E+02 -0.11917657021E+03  0.18104121132E+03  0.79023006210E+02 0.  0.
        -13    1    5    5    0    0  0.98937461654E+02 -0.10262268452E+02 -0.64615701839E+02  0.11861333988E+03  0.00000000000E+00 0.  1.
         14    1    5    5    0    0  0.45397151474E+01 -0.29995695722E+02 -0.54560868373E+02  0.62427871444E+02  0.00000000000E+00 0. -1.
         13    1    3    3    0    0 -0.17636805401E+03  0.19448811229E+02 -0.31243278202E+03  0.35930236573E+03  0.00000000000E+00 0. -1.
        -14    1    3    3    0    0 -0.15685744502E+03 -0.41010608098E+02 -0.19885379172E+03  0.25657154659E+03  0.00000000000E+00 0.  1.
          5    1    4    4  501    0  0.22992605619E+02  0.95902944678E+01  0.52487415281E+01  0.25800297455E+02  0.41800000000E+01 0. -1.
         -5    1    4    4    0  501  0.20675571662E+03  0.52229466575E+02 -0.37365864593E+03  0.43024888101E+03  0.41800000000E+01 0. -1.
</event>
<event>
11    1  0.8974665E-009  0.1309923E+03  0.7561462E-02  0.1118056E+00
         22   -1    0    0    0    0  0.00000000000E+00  0.00000000000E+00  0.50416637805E+03  0.50416637805E+03  0.00000000000E+00 0. -1.
         22   -1    0    0    0    0 -0.00000000000E+00 -0.00000000000E+00 -0.13439171355E+04  0.13439171355E+04  0.00000000000E+00 0.  1.
         24    2    1    2    0    0  0.24843457028E+02 -0.18332541228E+02 -0.11733636316E+04  0.11764071297E+04  0.78728924552E+02 0.  0.
         25    2    1    2    0    0  0.24412655661E+01 -0.10391725120E+02 -0.14114098185E+03  0.18889370388E+03  0.12508439902E+03 0.  0.
        -24    2    1    2    0    0 -0.27284722594E+02  0.28724266348E+02  0.47475385596E+03  0.48278267997E+03  0.78219900036E+02 0.  0.
        -13    1    3    3    0    0  0.39326178513E+02  0.10650430545E+02 -0.93053288595E+03  0.93142441015E+03  0.00000000000E+00 0.  1.
         14    1    3    3    0    0 -0.14482721484E+02 -0.28982971773E+02 -0.24283074562E+03  0.24498271958E+03  0.00000000000E+00 0. -1.
         11    1    5    5    0    0 -0.29007611572E+01 -0.49689822431E-01  0.39005546797E+03  0.39006625716E+03  0.00000000000E+00 0. -1.
        -12    1    5    5    0    0 -0.24383961437E+02  0.28773956171E+02  0.84698387989E+02  0.92716422801E+02  0.00000000000E+00 0.  1.
          5    1    4    4  501    0  0.55227834845E+02  0.14866718777E+02 -0.33799188896E+02  0.66565686648E+02  0.41800000000E+01 0. -1.
         -5    1    4    4    0  501 -0.52786569279E+02 -0.25258443897E+02 -0.10734179296E+03  0.12232801723E+03  0.41800000000E+01 0. -1.
</event>
<event>
11    1  0.8974665E-009  0.1510407E+03  0.7561462E-02  0.1095820E+00
         22   -1    0    0    0    0  0.00000000000E+00  0.00000000000E+00  0.11744800381E+03  0.11744800381E+03  0.00000000000E+00 0.  1.
         22   -1    0    0    0    0 -0.00000000000E+00 -0.00000000000E+00 -0.56939121824E+03  0.56939121824E+03  0.00000000000E+00 0.  1.
        -24    2    1    2    0    0 -0.98757074757E+02 -0.56610906010E+02 -0.21065977076E+03  0.25397250170E+03  0.84656589293E+02 0.  0.
         25    2    1    2    0    0  0.27979652083E+02  0.63912704760E+02 -0.28646555669E+03  0.32027445773E+03  0.12508204646E+03 0.  0.
         24    2    1    2    0    0  0.70777422674E+02 -0.73017987495E+01  0.45182113012E+02  0.11259226262E+03  0.74651419552E+02 0.  0.
        -11    1    5    5    0    0  0.59056644538E+02  0.27621488582E+02  0.20872783797E+02  0.68456606686E+02  0.00000000000E+00 0.  1.
         12    1    5    5    0    0  0.11720778136E+02 -0.34923287332E+02  0.24309329215E+02  0.44135655937E+02  0.00000000000E+00 0. -1.
         11    1    3    3    0    0 -0.12818612176E+02 -0.27305942760E+02 -0.69670015544E+01  0.30959173742E+02  0.00000000000E+00 0. -1.
        -12    1    3    3    0    0 -0.85938462581E+02 -0.29304963251E+02 -0.20369276920E+03  0.22301332796E+03  0.00000000000E+00 0.  1.
          5    1    4    4  501    0 -0.22692902660E+02  0.11231211996E+02 -0.11218036894E+01  0.25687327567E+02  0.41800000000E+01 0. -1.
         -5    1    4    4    0  501  0.50672554742E+02  0.52681492763E+02 -0.28534375300E+03  0.29458713017E+03  0.41800000000E+01 0. -1.
</event>
<event>
11    1  0.8974665E-009  0.1558770E+03  0.7561462E-02  0.1091020E+00
         22   -1    0    0    0    0  0.00000000000E+00  0.00000000000E+00  0.21733737847E+04  0.21733737847E+04  0.00000000000E+00 0. -1.
         22   -1    0    0    0    0 -0.00000000000E+00 -0.00000000000E+00 -0.20344291409E+03  0.20344291409E+03  0.00000000000E+00 0.  1.
        -24    2    1    2    0    0  0.41761516382E+02  0.23123654449E+02 -0.11667016982E+03  0.14890716712E+03  0.79263410537E+02 0.  0.
         25    2    1    2    0    0  0.68729234864E+01 -0.10246421833E+03  0.26314738185E+02  0.16396543234E+03  0.12508414944E+03 0.  0.
         24    2    1    2    0    0 -0.48634439868E+02  0.79340563884E+02  0.20602863023E+04  0.20639440994E+04  0.80158368781E+02 0.  0.
        -13    1    5    5    0    0  0.22473069053E+02  0.16455773845E+02  0.49110132100E+03  0.49189057606E+03  0.00000000000E+00 0.  1.
         14    1    5    5    0    0 -0.71107508921E+02  0.62884790039E+02  0.15691849813E+04  0.15720535233E+04  0.00000000000E+00 0. -1.
         13    1    3    3    0    0  0.39867240313E+02  0.44619580220E+02 -0.47344927718E+02  0.76301022076E+02  0.00000000000E+00 0. -1.
        -14    1    3    3    0    0  0.18942760690E+01 -0.21495925771E+02 -0.69325242097E+02  0.72606145046E+02  0.00000000000E+00 0.  1.
          5    1    4    4  501    0 -0.58713957870E+02 -0.55437753353E+02  0.94143280641E+01  0.81405007945E+02  0.41800000000E+01 0.  1.
         -5    1    4    4    0  501  0.65586881357E+02 -0.47026464980E+02  0.16900410121E+02  0.82560424398E+02  0.41800000000E+01 0.  1.
</event>
<event>
11    1  0.8974665E-009  0.1414731E+03  0.7561462E-02  0.1105925E+00
         22   -1    0    0    0    0  0.00000000000E+00  0.00000000000E+00  0.12400284615E+04  0.12400284615E+04  0.00000000000E+00 0. -1.
         22   -1    0    0    0    0 -0.00000000000E+00 -0.00000000000E+00 -0.44727151632E+03  0.44727151632E+03  0.00000000000E+00 0. -1.
         24    2    1    2    0    0 -0.32869960378E+02 -0.37914333067E+02 -0.33752385792E+03  0.35046693141E+03  0.79917359815E+02 0.  0.
         25    2    1    2    0    0  0.85039193776E+02 -0.25412937122E+01 -0.44401248413E+02  0.15766063206E+03  0.12508909380E+03 0.  0.
        -24    2    1    2    0    0 -0.52169233398E+02  0.40455626779E+02  0.11746820515E+04  0.11791724143E+04  0.78812270438E+02 0.  0.
        -13    1    3    3    0    0  0.65465275914E+01  0.39237433404E+01  0.44448170047E+00  0.76452828128E+01  0.00000000000E+00 0.  1.
         14    1    3    3    0    0 -0.39416487970E+02 -0.41838076407E+02 -0.33796833962E+03  0.34282164860E+03  0.00000000000E+00 0. -1.
         11    1    5    5    0    0 -0.73106262488E+02  0.29429738586E+02  0.86100019539E+03  0.86459931274E+03  0.00000000000E+00 0. -1.
        -12    1    5    5    0    0  0.20937029090E+02  0.11025888192E+02  0.31368185611E+03  0.31457310160E+03  0.00000000000E+00 0.  1.
          5    1    4    4  501    0  0.48052485656E+02 -0.43047689545E+02 -0.71451465146E+02  0.96358337597E+02  0.41800000000E+01 0.  1.
         -5    1    4    4    0  501  0.36986708119E+02  0.40506395833E+02  0.27050216732E+02  0.61302294461E+02  0.41800000000E+01 0.  1.
</event>
<event>
11    1  0.8974665E-009  0.1469727E+03  0.7561462E-02  0.1100013E+00
         22   -1    0    0    0    0  0.00000000000E+00  0.00000000000E+00  0.87466787150E+03  0.87466787150E+03  0.00000000000E+00 0. -1.
         22   -1    0    0    0    0 -0.00000000000E+00 -0.00000000000E+00 -0.30612047777E+04  0.30612047777E+04  0.00000000000E+00 0. -1.
         24    2    1    2    0    0  0.49628084662E+01  0.11949474220E+02 -0.30328254189E+04  0.30339138486E+04  0.80223438342E+02 0.  0.
         25    2    1    2    0    0  0.57126882305E+02  0.37129037439E+02  0.19826367846E+03  0.24412638679E+03  0.12508861030E+03 0.  0.
        -24    2    1    2    0    0 -0.62089690771E+02 -0.49078511659E+02  0.64802483424E+03  0.65783241376E+03  0.80891710313E+02 0.  0.
        -13    1    3    3    0    0  0.36130960787E+01  0.29887049827E+02 -0.44114713562E+03  0.44217313971E+03  0.00000000000E+00 0.  1.
         14    1    3    3    0    0  0.13497123874E+01 -0.17937575607E+02 -0.25916782832E+04  0.25917407089E+04  0.00000000000E+00 0. -1.
         11    1    5    5    0    0  0.77869366343E+01 -0.40173587580E+02  0.29734696212E+03  0.30014957838E+03  0.00000000000E+00 0. -1.
        -12    1    5    5    0    0 -0.69876627406E+02 -0.89049240791E+01  0.35067787211E+03  0.35768283537E+03  0.00000000000E+00 0.  1.
          5    1    4    4  501    0  0.56356371685E+02  0.13288537501E+02  0.15939539393E+02  0.60201056257E+02  0.41800000000E+01 0. -1.
         -5    1    4    4    0  501  0.77051062028E+00  0.23840499938E+02  0.18232413907E+03  0.18392533053E+03  0.41800000000E+01 0. -1.
</event>
<event>
11    1  0.8974665E-009  0.2428610E+03  0.7561462E-02  0.1027772E+00
         22   -1    0    0    0    0  0.00000000000E+00  0.00000000000E+00  0.94668088832E+03  0.94668088832E+03  0.00000000000E+00 0. -1.
         22   -1    0    0    0    0 -0.00000000000E+00 -0.00000000000E+00 -0.82058541540E+03  0.82058541540E+03  0.00000000000E+00 0. -1.
         24    2    1    2    0    0  0.51323446331E+01  0.63026328507E+02 -0.71263536040E+03  0.71983146088E+03  0.79432462785E+02 0.  0.
         25    2    1    2    0    0 -0.75514690633E+02 -0.24875872330E+03  0.14850607259E+03  0.32447651418E+03  0.12509030233E+03 0.  0.
        -24    2    1    2    0    0  0.70382346000E+02  0.18573239479E+03  0.69022476072E+03  0.72295832866E+03  0.82512590353E+02 0.  0.
        -11    1    3    3    0    0  0.20453221623E+02 -0.10708113190E+02 -0.10261215370E+03  0.10517724112E+03  0.00000000000E+00 0.  1.
         12    1    3    3    0    0 -0.15320876990E+02  0.73734441697E+02 -0.61002320669E+03  0.61465421976E+03  0.00000000000E+00 0. -1.
         11    1    5    5    0    0  0.71096324424E+02  0.11608529805E+03  0.34716583433E+03  0.37290025515E+03  0.00000000000E+00 0. -1.
        -12    1    5    5    0    0 -0.71397842384E+00  0.69647096740E+02  0.34305892639E+03  0.35005807351E+03  0.00000000000E+00 0.  1.
          5    1    4    4  501    0 -0.39438096185E+01 -0.12230108481E+03  0.86260667649E+01  0.12273952260E+03  0.41800000000E+01 0. -1.
         -5    1    4    4    0  501 -0.71570881015E+02 -0.12645763849E+03  0.13988000582E+03  0.20173699158E+03  0.41800000000E+01 0. -1.
</event>
<event>
11    1  0.8974665E-009  0.2007616E+03  0.7561462E-02  0.1053986E+00
         22   -1    0    0    0    0  0.00000000000E+00  0.00000000000E+00  0.81563197078E+03  0.81563197078E+03  0.00000000000E+00 0. -1.
         22   -1    0    0    0    0 -0.00000000000E+00 -0.00000000000E+00 -0.20766739517E+04  0.20766739517E+04  0.00000000000E+00 0.  1.
        -24    2    1    2    0    0  0.11597391130E+03  0.10412719971E+03 -0.19174345175E+04  0.19247451464E+04  0.61614347969E+02 0.  0.
         25    2    1    2    0    0 -0.12678274077E+03 -0.13226014319E+03 -0.72582756355E+02  0.23341426525E+03  0.12508938352E+03 0.  0.
         24    2    1    2    0    0  0.10808829477E+02  0.28132943475E+02  0.72897529297E+03  0.73414651079E+03  0.81595516059E+02 0.  0.
        -13    1    5    5    0    0  0.33098479877E+02 -0.51081587842E+01  0.14568920843E+03  0.14948895648E+03  0.00000000000E+00 0.  1.
         14    1    5    5    0    0 -0.22289650400E+02  0.33241102259E+02  0.58328608454E+03  0.58465755431E+03  0.00000000000E+00 0. -1.
         13    1    3    3    0    0 -0.57613558948E+00  0.28806198313E+02 -0.32010819551E+03  0.32140221814E+03  0.00000000000E+00 0. -1.
        -14    1    3    3    0    0  0.11655004689E+03  0.75321001399E+02 -0.15973263220E+04  0.16033429282E+04  0.00000000000E+00 0.  1.
          5    1    4    4  501    0 -0.10171820699E+03 -0.30164328365E+02 -0.10405351774E+01  0.10618396985E+03  0.41800000000E+01 0. -1.
         -5    1    4    4    0  501 -0.25064533782E+02 -0.10209581482E+03 -0.71542221178E+02  0.12723029541E+03  0.41800000000E+01 0. -1.
</event>
<event>
11    1  0.8974665E-009  0.2505534E+03  0.7561462E-02  0.1023605E+00
         22   -1    0    0    0    0  0.00000000000E+00  0.00000000000E+00  0.35052936371E+03  0.35052936371E+03  0.00000000000E+00 0. -1.
         22   -1    0    0    0    0 -0.00000000000E+00 -0.00000000000E+00 -0.55803700406E+03  0.55803700406E+03  0.00000000000E+00 0.  1.
        -24    2    1    2    0    0 -0.22403499639E+02 -0.19757118040E+03 -0.27430455583E+03  0.34811764059E+03  0.80041328182E+02 0.  0.
         25    2    1    2    0    0  0.11267013677E+03  0.25181136368E+03 -0.12508424662E+03  0.32771486428E+03  0.12508973148E+03 0.  0.
         24    2    1    2    0    0 -0.90266637129E+02 -0.54240183277E+02  0.19188116210E+03  0.23273386289E+03  0.79098718753E+02 0.  0.
        -11    1    5    5    0    0 -0.51355298916E+02 -0.20045323805E+02  0.29992333256E+02  0.62759236670E+02  0.00000000000E+00 0.  1.
         12    1    5    5    0    0 -0.38911338213E+02 -0.34194859472E+02  0.16188882884E+03  0.16997462622E+03  0.00000000000E+00 0. -1.
         11    1    3    3    0    0  0.19461570617E+02 -0.68022656290E+02 -0.53451845024E+02  0.88673187809E+02  0.00000000000E+00 0. -1.
        -12    1    3    3    0    0 -0.41865070256E+02 -0.12954852411E+03 -0.22085271081E+03  0.25944445278E+03  0.00000000000E+00 0.  1.
          5    1    4    4  501    0  0.80403097374E+02  0.24420237782E+03 -0.75618443848E+02  0.26802067243E+03  0.41800000000E+01 0.  1.
         -5    1    4    4    0  501  0.32267039393E+02  0.76089858587E+01 -0.49465802771E+02  0.59694191851E+02  0.41800000000E+01 0.  1.
</event>
<event>
11    1  0.8974665E-009  0.1686209E+03  0.7561462E-02  0.1079238E+00
         22   -1    0    0    0    0  0.00000000000E+00  0.00000000000E+00  0.55488026792E+03  0.55488026792E+03  0.00000000000E+00 0.  1.
         22   -1    0    0    0    0 -0.00000000000E+00 -0.00000000000E+00 -0.14672990551E+04  0.14672990551E+04  0.00000000000E+00 0.  1.
        -24    2    1    2    0    0  0.62187489578E+02  0.94870284611E+02 -0.12173953897E+04  0.12252783721E+04  0.79924335194E+02 0.  0.
         25    2    1    2    0    0  0.15354722266E+02 -0.13719464663E+03 -0.20291818478E+03  0.27546774019E+03  0.12509415497E+03 0.  0.
         24    2    1    2    0    0 -0.77542211844E+02  0.42324362021E+02  0.50789478737E+03  0.52143321072E+03  0.78302822204E+02 0.  0.
        -13    1    5    5    0    0 -0.63914985790E+02  0.44265520881E+02  0.49905428818E+03  0.50507399883E+03  0.00000000000E+00 0.  1.
         14    1    5    5    0    0 -0.13627226054E+02 -0.19411588603E+01  0.88404991948E+01  0.16359211890E+02  0.00000000000E+00 0. -1.
         11    1    3    3    0    0  0.32491488670E+02  0.19647398786E+02 -0.74830727462E+03  0.74926997428E+03  0.00000000000E+00 0. -1.
        -12    1    3    3    0    0  0.29696000908E+02  0.75222885826E+02 -0.46908811513E+03  0.47600839781E+03  0.00000000000E+00 0.  1.
          5    1    4    4  501    0 -0.48868633704E+02 -0.71785106436E+02 -0.60031338781E+02  0.10565263320E+03  0.41800000000E+01 0.  1.
         -5    1    4    4    0  501  0.64223355970E+02 -0.65409540196E+02 -0.14288684600E+03  0.16981510699E+03  0.41800000000E+01 0.  1.
</event>
<event>
11    1  0.8974665E-009  0.1504825E+03  0.7561462E-02  0.1096387E+00
         22   -1    0    0    0    0  0.00000000000E+00  0.00000000000E+00  0.38340467068E+03  0.38340467068E+03  0.00000000000E+00 0.  1.
         22   -1    0    0    0    0 -0.00000000000E+00 -0.00000000000E+00 -0.41046585845E+03  0.41046585845E+03  0.00000000000E+00 0.  1.
        -24    2    1    2    0    0  0.36850916616E+01 -0.30248375908E+02 -0.25726902219E+03  0.27253675519E+03  0.84619081827E+02 0.  0.
         25    2    1    2    0    0 -0.79710511040E+02 -0.61882997093E+01 -0.94780146546E+02  0.17613201517E+03  0.12508856848E+03 0.  0.
         24    2    1    2    0    0  0.76025419378E+02  0.36436675617E+02  0.32498798096E+03  0.34520175877E+03  0.80246936178E+02 0.  0.
        -11    1    5    5    0    0  0.15854134185E+02  0.50143446912E+02  0.18244109495E+03  0.18986961833E+03  0.00000000000E+00 0.  1.
         12    1    5    5    0    0  0.60171285194E+02 -0.13706771295E+02  0.14254688601E+03  0.15533214044E+03  0.00000000000E+00 0. -1.
         11    1    3    3    0    0  0.24893301615E+02  0.22203387825E+02 -0.94083729385E+02  0.99821916587E+02  0.00000000000E+00 0. -1.
        -12    1    3    3    0    0 -0.21208209954E+02 -0.52451763733E+02 -0.16318529280E+03  0.17271483861E+03  0.00000000000E+00 0.  1.
          5    1    4    4  501    0 -0.51301962009E+02 -0.56686816221E+02 -0.15954557239E+02  0.78213213308E+02  0.41800000000E+01 0. -1.
         -5    1    4    4    0  501 -0.28408549031E+02  0.50498516512E+02 -0.78825589307E+02  0.97918801859E+02  0.41800000000E+01 0. -1.
</event>
<event>
11    1  0.8974665E-009  0.1482904E+03  0.7561462E-02  0.1098639E+00
         22   -1    0    0    0    0  0.00000000000E+00  0.00000000000E+00  0.12920724699E+04  0.12920724699E+04  0.00000000000E+00 0.  1.
         22   -1    0    0    0    0 -0.00000000000E+00 -0.00000000000E+00 -0.43708336828E+03  0.43708336828E+03  0.00000000000E+00 0.  1.
        -24    2    1    2    0    0  0.59148981624E+01 -0.51956415742E+02 -0.38731204804E+03  0.40111807708E+03  0.90280862011E+02 0.  0.
         25    2    1    2    0    0 -0.84595898996E+02  0.39069362057E+02  0.11188312280E+03  0.19196095762E+03  0.12509314490E+03 0.  0.
         24    2    1    2    0    0  0.78681000833E+02  0.12887053686E+02  0.11304180268E+04  0.11360768035E+04  0.80428924776E+02 0.  0.
        -13    1    5    5    0    0  0.45137292168E+02  0.43088227114E+02  0.47098847860E+03  0.47510432269E+03  0.00000000000E+00 0.  1.
         14    1    5    5    0    0  0.33543708666E+02 -0.30201173429E+02  0.65942954824E+03  0.66097248079E+03  0.00000000000E+00 0. -1.
         13    1    3    3    0    0 -0.24113647219E+02 -0.35374651986E+02 -0.70689853235E+02  0.82643144517E+02  0.00000000000E+00 0. -1.
        -14    1    3    3    0    0  0.30028545381E+02 -0.16581763756E+02 -0.31662219480E+03  0.31847493256E+03  0.00000000000E+00 0.  1.
          5    1    4    4  501    0 -0.19264124171E+01 -0.38824409667E+02  0.46808709161E+02  0.60988306290E+02  0.41800000000E+01 0. -1.
         -5    1    4    4    0  501 -0.82669486579E+02  0.77893771723E+02  0.65074413643E+02  0.13097265133E+03  0.41800000000E+01 0. -1.
</event>
<event>
11    1  0.8974665E-009  0.1590377E+03  0.7561462E-02  0.1087986E+00
         22   -1    0    0    0    0  0.00000000000E+00  0.00000000000E+00  0.51426009739E+03  0.51426009739E+03  0.00000000000E+00 0.  1.
         22   -1    0    0    0    0 -0.00000000000E+00 -0.00000000000E+00 -0.16999847911E+03  0.16999847911E+03  0.00000000000E+00 0.  1.
         24    2    1    2    0    0  0.41733046234E+02  0.87697999235E+02 -0.78765455030E+02  0.15224677493E+03  0.86847552369E+02 0.  0.
         25    2    1    2    0    0  0.18311306578E+02 -0.11818940525E+03  0.11884048025E+03  0.20993978834E+03  0.12509042937E+03 0.  0.
        -24    2    1    2    0    0 -0.60044352812E+02  0.30491406016E+02  0.30418659306E+03  0.32207201323E+03  0.81644645656E+02 0.  0.
        -11    1    3    3    0    0  0.68648396386E+02  0.65314554800E+02 -0.63445748146E+02  0.11403489094E+03  0.00000000000E+00 0.  1.
         12    1    3    3    0    0 -0.26915350152E+02  0.22383444436E+02 -0.15319706884E+02  0.38211883985E+02  0.00000000000E+00 0. -1.
         13    1    5    5    0    0 -0.75382951536E+02  0.29808249092E+02  0.18606072271E+03  0.20295249107E+03  0.00000000000E+00 0. -1.
        -14    1    5    5    0    0  0.15338598724E+02  0.68315692413E+00  0.11812587035E+03  0.11911952216E+03  0.00000000000E+00 0.  1.
          5    1    4    4  501    0  0.61613821399E+02 -0.11075189311E+03  0.10186180960E+03  0.16265160764E+03  0.41800000000E+01 0. -1.
         -5    1    4    4    0  501 -0.43302514821E+02 -0.74375121445E+01  0.16978670651E+02  0.47288180699E+02  0.41800000000E+01 0. -1.
</event>
<event>
11    1  0.8974665E-009  0.1616384E+03  0.7561462E-02  0.1085546E+00
         22   -1    0    0    0    0  0.00000000000E+00  0.00000000000E+00  0.12378026141E+04  0.12378026141E+04  0.00000000000E+00 0. -1.
         22   -1    0    0    0    0 -0.00000000000E+00 -0.00000000000E+00 -0.38343824189E+03  0.38343824189E+03  0.00000000000E+00 0.  1.
        -24    2    1    2    0    0  0.75451388295E+02 -0.68793276333E+02 -0.32242316378E+03  0.34754805739E+03  0.80047041075E+02 0.  0.
         25    2    1    2    0    0 -0.97849709579E+02  0.48605695867E+02  0.10083610620E+03  0.19430310833E+03  0.12509475712E+03 0.  0.
         24    2    1    2    0    0  0.22398321285E+02  0.20187580466E+02  0.10759514297E+04  0.10793896902E+04  0.80631265609E+02 0.  0.
        -13    1    5    5    0    0  0.12335020524E+02  0.49041918184E+01  0.25229650694E+02  0.28508579460E+02  0.00000000000E+00 0.  1.
         14    1    5    5    0    0  0.10063300761E+02  0.15283388647E+02  0.10507217791E+04  0.10508811108E+04  0.00000000000E+00 0. -1.
         11    1    3    3    0    0  0.22049010147E+02 -0.15706277666E+02 -0.14819512922E+02  0.30862014999E+02  0.00000000000E+00 0. -1.
        -12    1    3    3    0    0  0.53402378147E+02 -0.53086998667E+02 -0.30760365086E+03  0.31668604239E+03  0.00000000000E+00 0.  1.
          5    1    4    4  501    0 -0.10252708215E+03  0.49682182780E+02  0.12507791099E+03  0.16923970597E+03  0.41800000000E+01 0.  1.
         -5    1    4    4    0  501  0.46773725701E+01 -0.10764869123E+01 -0.24241804792E+02  0.25063402359E+02  0.41800000000E+01 0.  1.
</event>
<event>
11    1  0.8974665E-009  0.1684443E+03  0.7561462E-02  0.1079393E+00
         22   -1    0    0    0    0  0.00000000000E+00  0.00000000000E+00  0.65117441063E+03  0.65117441063E+03  0.00000000000E+00 0.  1.
         22   -1    0    0    0    0 -0.00000000000E+00 -0.00000000000E+00 -0.27511857472E+03  0.27511857472E+03  0.00000000000E+00 0.  1.
        -24    2    1    2    0    0  0.96348691771E+02  0.67752614209E+02 -0.22023087807E+03  0.26248445110E+03  0.80764845563E+02 0.  0.
         25    2    1    2    0    0 -0.45006009401E+02 -0.57082739337E+02  0.15342588076E+03  0.21088448174E+03  0.12509509877E+03 0.  0.
         24    2    1    2    0    0 -0.51342682370E+02 -0.10669874872E+02  0.44286083321E+03  0.45292405252E+03  0.79148989214E+02 0.  0.
        -11    1    5    5    0    0  0.19815319206E+02 -0.92610798916E+01  0.14728023018E+03  0.14889553612E+03  0.00000000000E+00 0.  1.
         12    1    5    5    0    0 -0.71158001577E+02 -0.14087949800E+01  0.29558060303E+03  0.30402851640E+03  0.00000000000E+00 0. -1.
         13    1    3    3    0    0  0.26151007166E+02  0.33686903824E+02 -0.19059790910E+02  0.46711436443E+02  0.00000000000E+00 0. -1.
        -14    1    3    3    0    0  0.70197684605E+02  0.34065710385E+02 -0.20117108716E+03  0.21577301466E+03  0.00000000000E+00 0.  1.
          5    1    4    4  501    0 -0.72684555871E+02  0.51802496998E+01  0.56356840734E+02  0.92214128780E+02  0.41800000000E+01 0. -1.
         -5    1    4    4    0  501  0.27678546471E+02 -0.62262989037E+02  0.97069040029E+02  0.11867035296E+03  0.41800000000E+01 0. -1.
</event>
<event>
11    1  0.8974665E-009  0.1402559E+03  0.7561462E-02  0.1107273E+00
         22   -1    0    0    0    0  0.00000000000E+00  0.00000000000E+00  0.12699387811E+04  0.12699387811E+04  0.00000000000E+00 0. -1.
         22   -1    0    0    0    0 -0.00000000000E+00 -0.00000000000E+00 -0.15950444545E+03  0.15950444545E+03  0.00000000000E+00 0. -1.
         24    2    1    2    0    0  0.51068066170E+01  0.30799949131E+02 -0.13140246155E+03  0.14973841932E+03  0.64655015115E+02 0.  0.
         25    2    1    2    0    0 -0.65170978565E+02 -0.83045739591E+01  0.29071723666E+03  0.32323421530E+03  0.12509046269E+03 0.  0.
        -24    2    1    2    0    0  0.60064171948E+02 -0.22495375172E+02  0.95111956051E+03  0.95647059189E+03  0.78062975297E+02 0.  0.
        -13    1    3    3    0    0 -0.12564578789E+02  0.91882840553E+01 -0.16711144847E+00  0.15566667282E+02  0.00000000000E+00 0.  1.
         14    1    3    3    0    0  0.17671385406E+02  0.21611665075E+02 -0.13123535010E+03  0.13417175204E+03  0.00000000000E+00 0. -1.
         13    1    5    5    0    0  0.43748253938E+02  0.20479400377E+02  0.65777292920E+03  0.65954419257E+03  0.00000000000E+00 0. -1.
        -14    1    5    5    0    0  0.16315918010E+02 -0.42974775548E+02  0.29334663131E+03  0.29692639933E+03  0.00000000000E+00 0.  1.
          5    1    4    4  501    0 -0.22030186885E-01  0.52148708984E+02  0.10662405131E+03  0.11876720529E+03  0.41800000000E+01 0.  1.
         -5    1    4    4    0  501 -0.65148948378E+02 -0.60453282943E+02  0.18409318535E+03  0.20446701001E+03  0.41800000000E+01 0.  1.
</event>
<event>
11    1  0.8974665E-009  0.1702755E+03  0.7561462E-02  0.1077792E+00
         22   -1    0    0    0    0  0.00000000000E+00  0.00000000000E+00  0.75658352369E+03  0.75658352369E+03  0.00000000000E+00 0.  1.
         22   -1    0    0    0    0 -0.00000000000E+00 -0.00000000000E+00 -0.25740279525E+03  0.25740279525E+03  0.00000000000E+00 0.  1.
        -24    2    1    2    0    0  0.30794250305E+01 -0.55362550690E+01 -0.20358108973E+03  0.21931181007E+03  0.81315908420E+02 0.  0.
         25    2    1    2    0    0 -0.41537081431E+02  0.11316972307E+03  0.16755984913E+03  0.24136227909E+03  0.12508689529E+03 0.  0.
         24    2    1    2    0    0  0.38457656401E+02 -0.10763346800E+03  0.53520196904E+03  0.55331222978E+03  0.81543369991E+02 0.  0.
        -13    1    5    5    0    0 -0.57943819113E+01 -0.42317930333E+02  0.34148265292E+03  0.34414355193E+03  0.00000000000E+00 0.  1.
         14    1    5    5    0    0  0.44252038312E+02 -0.65315537666E+02  0.19371931612E+03  0.20916867785E+03  0.00000000000E+00 0. -1.
         11    1    3    3    0    0 -0.28827871399E+02  0.23508259934E+02 -0.11330221624E+03  0.11925215578E+03  0.00000000000E+00 0. -1.
        -12    1    3    3    0    0  0.31907296429E+02 -0.29044515003E+02 -0.90278873490E+02  0.10005965429E+03  0.00000000000E+00 0.  1.
          5    1    4    4  501    0  0.35589177143E+02  0.22471986783E+01  0.19399433345E+02  0.40809923373E+02  0.41800000000E+01 0. -1.
         -5    1    4    4    0  501 -0.77126258574E+02  0.11092252439E+03  0.14816041579E+03  0.20055235572E+03  0.41800000000E+01 0. -1.
</event>
<event>
11    1  0.8974665E-009  0.1363670E+03  0.7561462E-02  0.1111684E+00
         22   -1    0    0    0    0  0.00000000000E+00  0.00000000000E+00  0.80164460667E+03  0.80164460667E+03  0.00000000000E+00 0.  1.
         22   -1    0    0    0    0 -0.00000000000E+00 -0.00000000000E+00 -0.28114413704E+03  0.28114413704E+03  0.00000000000E+00 0. -1.
         24    2    1    2    0    0 -0.30108934016E+02 -0.20606313097E+02 -0.23180435221E+03  0.24790621988E+03  0.79956663896E+02 0.  0.
         25    2    1    2    0    0  0.73387626077E+02 -0.10258902747E+02  0.10191424722E+03  0.17755649360E+03  0.12509518730E+03 0.  0.
        -24    2    1    2    0    0 -0.43278692062E+02  0.30865215843E+02  0.65039057462E+03  0.65732603024E+03  0.79018375960E+02 0.  0.
        -11    1    3    3    0    0 -0.22053736363E+01  0.11008203036E+02  0.10395125602E+01  0.11274963118E+02  0.00000000000E+00 0.  1.
         12    1    3    3    0    0 -0.27903560380E+02 -0.31614516133E+02 -0.23284386477E+03  0.23663125676E+03  0.00000000000E+00 0. -1.
         13    1    5    5    0    0 -0.26281058263E+02  0.47167856304E+02  0.22907269489E+03  0.23535037760E+03  0.00000000000E+00 0. -1.
        -14    1    5    5    0    0 -0.16997633798E+02 -0.16302640461E+02  0.42131787973E+03  0.42197565264E+03  0.00000000000E+00 0.  1.
          5    1    4    4  501    0  0.36378919007E+02 -0.34109653349E+02 -0.15255949040E+02  0.52317402275E+02  0.41800000000E+01 0.  1.
         -5    1    4    4    0  501  0.37008707071E+02  0.23850750602E+02  0.11717019626E+03  0.12523909132E+03  0.41800000000E+01 0.  1.
</event>
<event>
11    1  0.8974665E-009  0.1456117E+03  0.7561462E-02  0.1101449E+00
         22   -1    0    0    0    0  0.00000000000E+00  0.00000000000E+00  0.79032321791E+03  0.79032321791E+03  0.00000000000E+00 0. -1.
         22   -1    0    0    0    0 -0.00000000000E+00 -0.00000000000E+00 -0.72221425640E+03  0.72221425640E+03  0.00000000000E+00 0.  1.
         24    2    1    2    0    0 -0.20836135418E+02  0.69321844723E+02 -0.64651177538E+03  0.65566239594E+03  0.81707031854E+02 0.  0.
         25    2    1    2    0    0  0.41388963233E+02 -0.12264286506E+03  0.52809169799E+02  0.18761500278E+03  0.12512498642E+03 0.  0.
        -24    2    1    2    0    0 -0.20552827816E+02  0.53321020333E+02  0.66181156709E+03  0.66926007560E+03  0.81541084808E+02 0.  0.
        -11    1    3    3    0    0 -0.38349152724E+02  0.79695929343E+02 -0.50338417606E+03  0.51109463642E+03  0.00000000000E+00 0.  1.
         12    1    3    3    0    0  0.17513017306E+02 -0.10374084620E+02 -0.14312759932E+03  0.14456775952E+03  0.00000000000E+00 0. -1.
         11    1    5    5    0    0 -0.14250818186E+02  0.68070282377E+02  0.62797800604E+03  0.63181724037E+03  0.00000000000E+00 0. -1.
        -12    1    5    5    0    0 -0.63020096294E+01 -0.14749262045E+02  0.33833561050E+02  0.37442835223E+02  0.00000000000E+00 0.  1.
          5    1    4    4  501    0 -0.35194825895E+02 -0.37361773962E+02 -0.15919437502E+02  0.53902493577E+02  0.41800000000E+01 0. -1.
         -5    1    4    4    0  501  0.76583789128E+02 -0.85281091093E+02  0.68728607302E+02  0.13371250920E+03  0.41800000000E+01 0. -1.
</event>
<event>
11    1  0.8974665E-009  0.1445878E+03  0.7561462E-02  0.1102541E+00
         22   -1    0    0    0    0  0.00000000000E+00  0.00000000000E+00  0.20941709729E+03  0.20941709729E+03  0.00000000000E+00 0.  1.
         22   -1    0    0    0    0 -0.00000000000E+00 -0.00000000000E+00 -0.88089313525E+03  0.88089313525E+03  0.00000000000E+00 0.  1.
         24    2    1    2    0    0 -0.45556059333E+02 -0.60098304605E+02 -0.61578901764E+03  0.62561647930E+03  0.80701326910E+02 0.  0.
         25    2    1    2    0    0  0.11039425018E+02  0.65922266430E+02 -0.22805323159E+03  0.26856094497E+03  0.12509632532E+03 0.  0.
        -24    2    1    2    0    0  0.34516634316E+02 -0.58239618251E+01  0.17236621126E+03  0.19613280827E+03  0.86790846988E+02 0.  0.
        -11    1    3    3    0    0 -0.48976697761E+02 -0.35793157563E+01 -0.37812857912E+03  0.38130401358E+03  0.00000000000E+00 0.  1.
         12    1    3    3    0    0  0.34206384282E+01 -0.56518988849E+02 -0.23766043851E+03  0.24431246571E+03  0.00000000000E+00 0. -1.
         11    1    5    5    0    0  0.55745113522E+02 -0.28034113258E+02  0.10603907681E+03  0.12303542173E+03  0.00000000000E+00 0. -1.
        -12    1    5    5    0    0 -0.21228479207E+02  0.22210151433E+02  0.66327134447E+02  0.73097386547E+02  0.00000000000E+00 0.  1.
          5    1    4    4  501    0  0.59034934249E+01  0.95983693976E+02 -0.10820317775E+03  0.14482099578E+03  0.41800000000E+01 0.  1.
         -5    1    4    4    0  501  0.51359315929E+01 -0.30061427546E+02 -0.11985005384E+03  0.12373994919E+03  0.41800000000E+01 0.  1.
</event>
<event>
11    1  0.8974665E-009  0.1432579E+03  0.7561462E-02  0.1103974E+00
         22   -1    0    0    0    0  0.00000000000E+00  0.00000000000E+00  0.10118575797E+04  0.10118575797E+04  0.00000000000E+00 0.  1.
         22   -1    0    0    0    0 -0.00000000000E+00 -0.00000000000E+00 -0.44157132106E+03  0.44157132106E+03  0.00000000000E+00 0.  1.
        -24    2    1    2    0    0  0.30801225566E+02 -0.64647911734E+02 -0.39956814254E+03  0.41283870785E+03  0.75186635667E+02 0.  0.
         25    2    1    2    0    0  0.15329264984E+02  0.34052637755E+01  0.92622534824E+02  0.15643893703E+03  0.12509046677E+03 0.  0.
         24    2    1    2    0    0 -0.46130490550E+02  0.61242647959E+02  0.87723186635E+03  0.88415125586E+03  0.79429288118E+02 0.  0.
        -11    1    5    5    0    0 -0.61878291794E+02  0.38148253045E+02  0.76675069216E+03  0.77018883148E+03  0.00000000000E+00 0.  1.
         12    1    5    5    0    0  0.15747801245E+02  0.23094394914E+02  0.11048117419E+03  0.11396242438E+03  0.00000000000E+00 0. -1.
         13    1    3    3    0    0  0.53975334241E+01  0.89633110748E+01 -0.69227662462E+01  0.12545876015E+02  0.00000000000E+00 0. -1.
        -14    1    3    3    0    0  0.25403692142E+02 -0.73611222809E+02 -0.39264537629E+03  0.40029283184E+03  0.00000000000E+00 0.  1.
          5    1    4    4  501    0  0.66864479060E+02  0.22851074535E+02  0.54139315405E+02  0.89115475872E+02  0.41800000000E+01 0. -1.
         -5    1    4    4    0  501 -0.51535214076E+02 -0.19445810759E+02  0.38483219419E+02  0.67323461162E+02  0.41800000000E+01 0. -1.
</event>
<event>
11    1  0.8974665E-009  0.1393130E+03  0.7561462E-02  0.1108328E+00
         22   -1    0    0    0    0  0.00000000000E+00  0.00000000000E+00  0.31436536804E+03  0.31436536804E+03  0.00000000000E+00 0. -1.
         22   -1    0    0    0    0 -0.00000000000E+00 -0.00000000000E+00 -0.78046662572E+03  0.78046662572E+03  0.00000000000E+00 0. -1.
        -24    2    1    2    0    0  0.38146707069E+02 -0.47021711608E+02 -0.69805423548E+03  0.70516315197E+03  0.79430111469E+02 0.  0.
         25    2    1    2    0    0 -0.62447879007E+02  0.49844313826E+02  0.58110356932E+01  0.14854417552E+03  0.12508961080E+03 0.  0.
         24    2    1    2    0    0  0.24301171937E+02 -0.28226022189E+01  0.22614194210E+03  0.24112466628E+03  0.80015077763E+02 0.  0.
        -11    1    5    5    0    0  0.38331124194E+02 -0.11349593001E+02  0.49067169797E+02  0.63290406027E+02  0.00000000000E+00 0.  1.
         12    1    5    5    0    0 -0.14029952256E+02  0.85269907825E+01  0.17707477230E+03  0.17783426025E+03  0.00000000000E+00 0. -1.
         11    1    3    3    0    0 -0.10486338952E+01 -0.51154916467E+02 -0.23874966442E+03  0.24417069310E+03  0.00000000000E+00 0. -1.
        -12    1    3    3    0    0  0.39195340964E+02  0.41332048591E+01 -0.45930457106E+03  0.46099245887E+03  0.00000000000E+00 0.  1.
          5    1    4    4  501    0  0.89938140684E+01 -0.91058284923E+01  0.45676577469E+02  0.47619606606E+02  0.41800000000E+01 0. -1.
         -5    1    4    4    0  501 -0.71441693075E+02  0.58950142319E+02 -0.39865541776E+02  0.10092456891E+03  0.41800000000E+01 0. -1.
</event>
<event>
11    1  0.8974665E-009  0.1457181E+03  0.7561462E-02  0.1101336E+00
         22   -1    0    0    0    0  0.00000000000E+00  0.00000000000E+00  0.16186367024E+04  0.16186367024E+04  0.00000000000E+00 0.  1.
         22   -1    0    0    0    0 -0.00000000000E+00 -0.00000000000E+00 -0.39762591416E+03  0.39762591416E+03  0.00000000000E+00 0. -1.
        -24    2    1    2    0    0 -0.25384356107E+02 -0.13577546071E+02 -0.37198553100E+03  0.38199724537E+03  0.81975270061E+02 0.  0.
         25    2    1    2    0    0 -0.10202729331E+02 -0.55104770860E+02  0.23809544139E+03  0.27473861096E+03  0.12510489074E+03 0.  0.
         24    2    1    2    0    0  0.35587085438E+02  0.68682316931E+02  0.13549008778E+04  0.13595267602E+04  0.81073557194E+02 0.  0.
        -11    1    5    5    0    0 -0.21271585836E+02  0.36007097650E+02  0.35027369964E+03  0.35276147196E+03  0.00000000000E+00 0.  1.
         12    1    5    5    0    0  0.56858671274E+02  0.32675219282E+02  0.10046271782E+04  0.10067652882E+04  0.00000000000E+00 0. -1.
         11    1    3    3    0    0  0.11767249274E+02  0.12460444843E+02 -0.26798091228E+03  0.26852839736E+03  0.00000000000E+00 0. -1.
        -12    1    3    3    0    0 -0.37151605381E+02 -0.26037990913E+02 -0.10400461872E+03  0.11346884801E+03  0.00000000000E+00 0.  1.
          5    1    4    4  501    0  0.34374607244E+02 -0.41371326031E+01  0.18589939466E+03  0.18914223966E+03  0.41800000000E+01 0. -1.
         -5    1    4    4    0  501 -0.44577336575E+02 -0.50967638257E+02  0.52196046725E+02  0.85596371298E+02  0.41800000000E+01 0. -1.
</event>
<event>
11    1  0.8974665E-009  0.2244844E+03  0.7561462E-02  0.1038444E+00
         22   -1    0    0    0    0  0.00000000000E+00  0.00000000000E+00  0.88558467875E+03  0.88558467875E+03  0.00000000000E+00 0. -1.
         22   -1    0    0    0    0 -0.00000000000E+00 -0.00000000000E+00 -0.76616478889E+03  0.76616478889E+03  0.00000000000E+00 0.  1.
         24    2    1    2    0    0  0.62360191544E+02 -0.15242428063E+03 -0.32923367652E+03  0.37684440367E+03  0.80591165821E+02 0.  0.
         25    2    1    2    0    0  0.29671903868E+02  0.31091993774E+03 -0.32977657185E+03  0.47111624601E+03  0.12508517238E+03 0.  0.
        -24    2    1    2    0    0 -0.92032095411E+02 -0.15849565711E+03  0.77843013822E+03  0.80378881797E+03  0.80822050815E+02 0.  0.
        -11    1    3    3    0    0  0.50969242987E+02 -0.16030351978E+03 -0.31426148120E+03  0.35644825817E+03  0.00000000000E+00 0.  1.
         12    1    3    3    0    0  0.11390948556E+02  0.78792391526E+01 -0.14972195315E+02  0.20396145499E+02  0.00000000000E+00 0. -1.
         11    1    5    5    0    0 -0.12708729989E+02 -0.10230805247E+03  0.40366705563E+03  0.41662398061E+03  0.00000000000E+00 0. -1.
        -12    1    5    5    0    0 -0.79323365423E+02 -0.56187604646E+02  0.37476308259E+03  0.38716483736E+03  0.00000000000E+00 0.  1.
          5    1    4    4  501    0  0.44447419752E+02  0.27847397871E+03 -0.33142547405E+03  0.43518231489E+03  0.41800000000E+01 0.  1.
         -5    1    4    4    0  501 -0.14775515884E+02  0.32445959026E+02  0.16489022072E+01  0.35933931113E+02  0.41800000000E+01 0.  1.
</event>
<event>
11    1  0.8974665E-009  0.1488058E+03  0.7561462E-02  0.1098105E+00
         22   -1    0    0    0    0  0.00000000000E+00  0.00000000000E+00  0.49354505724E+03  0.49354505724E+03  0.00000000000E+00 0. -1.
         22   -1    0    0    0    0 -0.00000000000E+00 -0.00000000000E+00 -0.32925829268E+03  0.32925829268E+03  0.00000000000E+00 0.  1.
        -24    2    1    2    0    0 -0.14939737799E+03  0.51601193501E+02 -0.10673356464E+03  0.20672883258E+03  0.79765259847E+02 0.  0.
         25    2    1    2    0    0  0.39988157099E+02  0.35741265606E+02 -0.12790064373E+03  0.18676669954E+03  0.12508690826E+03 0.  0.
         24    2    1    2    0    0  0.10940922089E+03 -0.87342459107E+02  0.39892097294E+03  0.42930781780E+03  0.74620218434E+02 0.  0.
        -13    1    5    5    0    0  0.61209629297E+02 -0.28210036500E+01  0.16032541973E+03  0.17163571013E+03  0.00000000000E+00 0.  1.
         14    1    5    5    0    0  0.48199591590E+02 -0.84521455457E+02  0.23859555321E+03  0.25767210768E+03  0.00000000000E+00 0. -1.
         13    1    3    3    0    0 -0.98573016638E+02  0.47802411215E+02 -0.11052779026E+03  0.15562166477E+03  0.00000000000E+00 0. -1.
        -14    1    3    3    0    0 -0.50824361347E+02  0.37987822852E+01  0.37942256148E+01  0.51107167806E+02  0.00000000000E+00 0.  1.
          5    1    4    4  501    0 -0.20072201640E+02  0.36591727370E+02  0.36383392635E+01  0.42101754158E+02  0.41800000000E+01 0.  1.
         -5    1    4    4    0  501  0.60060358739E+02 -0.85046176384E+00 -0.13153898299E+03  0.14466494539E+03  0.41800000000E+01 0.  1.
</event>
<event>
11    1  0.8974665E-009  0.1363611E+03  0.7561462E-02  0.1111691E+00
         22   -1    0    0    0    0  0.00000000000E+00  0.00000000000E+00  0.17354996882E+04  0.17354996882E+04  0.00000000000E+00 0. -1.
         22   -1    0    0    0    0 -0.00000000000E+00 -0.00000000000E+00 -0.99436072398E+02  0.99436072398E+02  0.00000000000E+00 0.  1.
         24    2    1    2    0    0 -0.23294725254E+02  0.42036323053E+02 -0.60302302582E+02  0.10838880011E+03  0.76171304387E+02 0.  0.
         25    2    1    2    0    0 -0.27964469696E+02 -0.61434282333E+02  0.36594192445E+03  0.39257778570E+03  0.12509053980E+03 0.  0.
        -24    2    1    2    0    0  0.51259194950E+02  0.19397959280E+02  0.13304239939E+04  0.13339691748E+04  0.80261882303E+02 0.  0.
        -13    1    3    3    0    0  0.39625139964E+01  0.16636399625E+02 -0.68193214998E+02  0.70304949196E+02  0.00000000000E+00 0.  1.
         14    1    3    3    0    0 -0.27257239250E+02  0.25399923428E+02  0.78909124157E+01  0.38083850914E+02  0.00000000000E+00 0. -1.
         13    1    5    5    0    0  0.24884552425E+02  0.67347627701E-01  0.11690802732E+04  0.11693450862E+04  0.00000000000E+00 0. -1.
        -14    1    5    5    0    0  0.26374642526E+02  0.19330611653E+02  0.16134372074E+03  0.16462408857E+03  0.00000000000E+00 0.  1.
          5    1    4    4  501    0 -0.14872645614E+02 -0.95711979103E+02  0.19597438064E+03  0.21864448038E+03  0.41800000000E+01 0. -1.
         -5    1    4    4    0  501 -0.13091824082E+02  0.34277696770E+02  0.16996754380E+03  0.17393330532E+03  0.41800000000E+01 0. -1.
</event>
<event>
11    1  0.8974665E-009  0.1321550E+03  0.7561462E-02  0.1116649E+00
         22   -1    0    0    0    0  0.00000000000E+00  0.00000000000E+00  0.14134545879E+04  0.14134545879E+04  0.00000000000E+00 0. -1.
         22   -1    0    0    0    0 -0.00000000000E+00 -0.00000000000E+00 -0.15269299603E+03  0.15269299603E+03  0.00000000000E+00 0.  1.
         24    2    1    2    0    0 -0.19879497093E+02  0.32201655801E+02 -0.25249683312E+02  0.93191402714E+02  0.81332342838E+02 0.  0.
         25    2    1    2    0    0  0.41596893035E+02 -0.30529804382E+02 -0.42674865219E+02  0.14188275046E+03  0.12508876964E+03 0.  0.
        -24    2    1    2    0    0 -0.21717395943E+02 -0.16718514193E+01  0.13286861404E+04  0.13310734307E+04  0.76649709666E+02 0.  0.
        -11    1    3    3    0    0  0.13770452907E+02  0.91044927307E+01 -0.44939760487E+02  0.47875873190E+02  0.00000000000E+00 0.  1.
         12    1    3    3    0    0 -0.33649950000E+02  0.23097163070E+02  0.19690077175E+02  0.45315529524E+02  0.00000000000E+00 0. -1.
         13    1    5    5    0    0 -0.42596208746E+02 -0.20353410531E+02  0.10284471588E+04  0.10295301146E+04  0.00000000000E+00 0. -1.
        -14    1    5    5    0    0  0.20878812804E+02  0.18681559111E+02  0.30023898155E+03  0.30154331615E+03  0.00000000000E+00 0.  1.
          5    1    4    4  501    0 -0.37325484959E+02  0.28533032208E+00  0.13755638874E+02  0.39999540518E+02  0.41800000000E+01 0.  1.
         -5    1    4    4    0  501  0.78922377994E+02 -0.30815134704E+02 -0.56430504093E+02  0.10188320994E+03  0.41800000000E+01 0.  1.
</event>
<event>
11    1  0.8974665E-009  0.1348448E+03  0.7561462E-02  0.1113456E+00
         22   -1    0    0    0    0  0.00000000000E+00  0.00000000000E+00  0.14252755311E+04  0.14252755311E+04  0.00000000000E+00 0.  1.
         22   -1    0    0    0    0 -0.00000000000E+00 -0.00000000000E+00 -0.65331385190E+03  0.65331385190E+03  0.00000000000E+00 0.  1.
         24    2    1    2    0    0  0.13481606077E+02  0.24179484494E+02 -0.60232581577E+03  0.60815639361E+03  0.79318406312E+02 0.  0.
         25    2    1    2    0    0  0.21099156799E+01 -0.71355942029E+02  0.65599383106E+02  0.15825703894E+03  0.12508352851E+03 0.  0.
        -24    2    1    2    0    0 -0.15591521757E+02  0.47176457535E+02  0.13086881119E+04  0.13121759505E+04  0.81684986978E+02 0.  0.
        -11    1    3    3    0    0 -0.24740683885E+01  0.55694199920E+01 -0.55339444252E+03  0.55342799754E+03  0.00000000000E+00 0.  1.
         12    1    3    3    0    0  0.15955674466E+02  0.18610064502E+02 -0.48931373247E+02  0.54728396069E+02  0.00000000000E+00 0. -1.
         11    1    5    5    0    0  0.14516683644E+02  0.81027595669E+01  0.53604626140E+02  0.56123477798E+02  0.00000000000E+00 0. -1.
        -12    1    5    5    0    0 -0.30108205401E+02  0.39073697968E+02  0.12550834857E+04  0.12560524727E+04  0.00000000000E+00 0.  1.
          5    1    4    4  501    0  0.73140296425E+01  0.28353963007E+02 -0.11810130981E+02  0.31849550100E+02  0.41800000000E+01 0.  1.
         -5    1    4    4    0  501 -0.52041139626E+01 -0.99709905036E+02  0.77409514086E+02  0.12640748884E+03  0.41800000000E+01 0.  1.
</event>
<event>
11    1  0.8974665E-009  0.2098838E+03  0.7561462E-02  0.1047746E+00
         22   -1    0    0    0    0  0.00000000000E+00  0.00000000000E+00  0.55279896727E+03  0.55279896727E+03  0.00000000000E+00 0. -1.
         22   -1    0    0    0    0 -0.00000000000E+00 -0.00000000000E+00 -0.10473777915E+04  0.10473777915E+04  0.00000000000E+00 0. -1.
         24    2    1    2    0    0  0.22765643872E+02 -0.18704125306E+00 -0.32902637382E+03  0.34020809511E+03  0.83455879285E+02 0.  0.
         25    2    1    2    0    0  0.11888859938E+03  0.92295319872E+02 -0.68262621318E+03  0.71012677313E+03  0.12509421196E+03 0.  0.
        -24    2    1    2    0    0 -0.14165424325E+03 -0.92108278619E+02  0.51707376278E+03  0.54984189052E+03  0.80068525650E+02 0.  0.
        -13    1    3    3    0    0  0.19969185809E+02  0.30772417687E+02 -0.67355618648E+02  0.76697388715E+02  0.00000000000E+00 0.  1.
         14    1    3    3    0    0  0.27964580628E+01 -0.30959458940E+02 -0.26167075517E+03  0.26351070640E+03  0.00000000000E+00 0. -1.
         13    1    5    5    0    0 -0.12898364523E+03 -0.42831933973E+02  0.36496919579E+03  0.38945329525E+03  0.00000000000E+00 0. -1.
        -14    1    5    5    0    0 -0.12670598026E+02 -0.49276344646E+02  0.15210456699E+03  0.16038859528E+03  0.00000000000E+00 0.  1.
          5    1    4    4  501    0  0.13019094701E+03  0.11241893776E+03 -0.59004230300E+03  0.61461784223E+03  0.41800000000E+01 0. -1.
         -5    1    4    4    0  501 -0.11302347630E+02 -0.20123617890E+02 -0.92583910174E+02  0.95508930902E+02  0.41800000000E+01 0. -1.
</event>
<event>
11    1  0.8974665E-009  0.2510765E+03  0.7561462E-02  0.1023327E+00
         22   -1    0    0    0    0  0.00000000000E+00  0.00000000000E+00  0.19194337871E+03  0.19194337871E+03  0.00000000000E+00 0. -1.
         22   -1    0    0    0    0 -0.00000000000E+00 -0.00000000000E+00 -0.10768157024E+04  0.10768157024E+04  0.00000000000E+00 0.  1.
         24    2    1    2    0    0 -0.16088270564E+03  0.47534657368E+00 -0.65497060707E+03  0.67914993439E+03  0.79841507586E+02 0.  0.
         25    2    1    2    0    0  0.26433013697E+03 -0.15613795584E+03 -0.18992551938E+03  0.38205841742E+03  0.12508976312E+03 0.  0.
        -24    2    1    2    0    0 -0.10344743133E+03  0.15566260927E+03 -0.39976197219E+02  0.20755072928E+03  0.80913471725E+02 0.  0.
        -13    1    3    3    0    0 -0.13713827842E+03  0.28426254041E+02 -0.56246596177E+03  0.57964033459E+03  0.00000000000E+00 0.  1.
         14    1    3    3    0    0 -0.23744427218E+02 -0.27950907468E+02 -0.92504645297E+02  0.99509599807E+02  0.00000000000E+00 0. -1.
         13    1    5    5    0    0 -0.84413709642E+02  0.63628805513E+02 -0.74886034367E+00  0.10571121066E+03  0.00000000000E+00 0. -1.
        -14    1    5    5    0    0 -0.19033721691E+02  0.92033803755E+02 -0.39227336875E+02  0.10183951862E+03  0.00000000000E+00 0.  1.
          5    1    4    4  501    0  0.79205546795E+02 -0.57616208832E+02  0.15628813947E+01  0.98046219516E+02  0.41800000000E+01 0. -1.
         -5    1    4    4    0  501  0.18512459018E+03 -0.98521747010E+02 -0.19148840078E+03  0.28401219790E+03  0.41800000000E+01 0. -1.
</event>
<event>
11    1  0.8974665E-009  0.1268149E+03  0.7561462E-02  0.1123246E+00
         22   -1    0    0    0    0  0.00000000000E+00  0.00000000000E+00  0.15739027810E+04  0.15739027810E+04  0.00000000000E+00 0.  1.
         22   -1    0    0    0    0 -0.00000000000E+00 -0.00000000000E+00 -0.43633145311E+03  0.43633145311E+03  0.00000000000E+00 0. -1.
        -24    2    1    2    0    0 -0.18737447016E+02  0.22448532513E+01 -0.41820445697E+03  0.42546082776E+03  0.75932975988E+02 0.  0.
         25    2    1    2    0    0  0.34484577052E+02  0.93706589569E+01  0.30892816981E+03  0.33519995681E+03  0.12508157993E+03 0.  0.
         24    2    1    2    0    0 -0.15747130036E+02 -0.11615512208E+02  0.12468476150E+04  0.12495734495E+04  0.80136997704E+02 0.  0.
        -11    1    5    5    0    0 -0.26920253343E+02 -0.22142725746E+02  0.11948196854E+04  0.11953280223E+04  0.00000000000E+00 0.  1.
         12    1    5    5    0    0  0.11173123307E+02  0.10527213538E+02  0.52027929655E+02  0.54245427212E+02  0.00000000000E+00 0. -1.
         11    1    3    3    0    0 -0.44468692088E+02  0.59034551033E+01 -0.34237067046E+03  0.34529696110E+03  0.00000000000E+00 0. -1.
        -12    1    3    3    0    0  0.25731245072E+02 -0.36586018520E+01 -0.75833786511E+02  0.80163866655E+02  0.00000000000E+00 0.  1.
          5    1    4    4  501    0  0.14284476238E+02 -0.55738877277E+02  0.18384874164E+03  0.19268809228E+03  0.41800000000E+01 0. -1.
         -5    1    4    4    0  501  0.20200100813E+02  0.65109536233E+02  0.12507942817E+03  0.14251186453E+03  0.41800000000E+01 0. -1.
</event>
<event>
11    1  0.8974665E-009  0.1448792E+03  0.7561462E-02  0.1102229E+00
         22   -1    0    0    0    0  0.00000000000E+00  0.00000000000E+00  0.56439963023E+03  0.56439963023E+03  0.00000000000E+00 0.  1.
         22   -1    0    0    0    0 -0.00000000000E+00 -0.00000000000E+00 -0.18829425389E+04  0.18829425389E+04  0.00000000000E+00 0. -1.
        -24    2    1    2    0    0  0.52750575188E+02 -0.53482913293E+02 -0.15855351449E+04  0.15892388077E+04  0.78200044784E+02 0.  0.
         25    2    1    2    0    0 -0.16729403513E+02  0.59759673973E+02 -0.27550854668E+03  0.30887255794E+03  0.12508479595E+03 0.  0.
         24    2    1    2    0    0 -0.36021171675E+02 -0.62767606802E+01  0.54250078290E+03  0.54923080349E+03  0.77527114784E+02 0.  0.
        -13    1    5    5    0    0 -0.24424908401E+02  0.34448987909E+02  0.31558833676E+03  0.31840117340E+03  0.00000000000E+00 0.  1.
         14    1    5    5    0    0 -0.11596263274E+02 -0.40725748590E+02  0.22691244614E+03  0.23082963010E+03  0.00000000000E+00 0. -1.
         13    1    3    3    0    0  0.66035303546E+02 -0.63482582002E+02 -0.13753247999E+04  0.13783718674E+04  0.00000000000E+00 0. -1.
        -14    1    3    3    0    0 -0.13284728358E+02  0.99996687089E+01 -0.21021034500E+03  0.21086694034E+03  0.00000000000E+00 0.  1.
          5    1    4    4  501    0 -0.43389542526E+02  0.60497399714E+02 -0.72244116597E+02  0.10382327560E+03  0.41800000000E+01 0. -1.
         -5    1    4    4    0  501  0.26660139014E+02 -0.73772574049E+00 -0.20326443008E+03  0.20504928234E+03  0.41800000000E+01 0. -1.
</event>
<event>
11    1  0.8974665E-009  0.1703492E+03  0.7561462E-02  0.1077728E+00
         22   -1    0    0    0    0  0.00000000000E+00  0.00000000000E+00  0.11878310098E+04  0.11878310098E+04  0.00000000000E+00 0.  1.
         22   -1    0    0    0    0 -0.00000000000E+00 -0.00000000000E+00 -0.11387231137E+04  0.11387231137E+04  0.00000000000E+00 0.  1.
        -24    2    1    2    0    0  0.70806177864E+02  0.56432398534E+02 -0.98352943038E+03  0.99096951359E+03  0.80574847315E+02 0.  0.
         25    2    1    2    0    0 -0.18325701877E+03 -0.39989185868E+02 -0.59993738057E+02  0.23329828053E+03  0.12508624695E+03 0.  0.
         24    2    1    2    0    0  0.11245084091E+03 -0.16443212666E+02  0.10926310645E+04  0.11022863295E+04  0.90977679001E+02 0.  0.
        -13    1    5    5    0    0  0.35015010249E+02 -0.43924830126E+02  0.62244772362E+03  0.62497728782E+03  0.00000000000E+00 0.  1.
         14    1    5    5    0    0  0.77435830657E+02  0.27481617460E+02  0.47018334091E+03  0.47730904165E+03  0.00000000000E+00 0. -1.
         13    1    3    3    0    0  0.34092428378E+02  0.16821480670E+02 -0.12286259062E+03  0.12860976658E+03  0.00000000000E+00 0. -1.
        -14    1    3    3    0    0  0.36713749487E+02  0.39610917864E+02 -0.86066683976E+03  0.86235974701E+03  0.00000000000E+00 0.  1.
          5    1    4    4  501    0  0.92340718155E+01  0.68884275452E+01  0.16785055679E+02  0.20782901879E+02  0.41800000000E+01 0.  1.
         -5    1    4    4    0  501 -0.19249109059E+03 -0.46877613413E+02 -0.76778793736E+02  0.21251537865E+03  0.41800000000E+01 0.  1.
</event>
<event>
11    1  0.8974665E-009  0.1737773E+03  0.7561462E-02  0.1074791E+00
         22   -1    0    0    0    0  0.00000000000E+00  0.00000000000E+00  0.40764552784E+03  0.40764552784E+03  0.00000000000E+00 0. -1.
         22   -1    0    0    0    0 -0.00000000000E+00 -0.00000000000E+00 -0.92285915455E+03  0.92285915455E+03  0.00000000000E+00 0. -1.
         24    2    1    2    0    0 -0.33438374728E+01  0.39041584321E+02 -0.72543334668E+03  0.72900182833E+03  0.60454103958E+02 0.  0.
         25    2    1    2    0    0 -0.78084851255E+02 -0.12537647635E+03 -0.12956842456E+03  0.23292582368E+03  0.12509979167E+03 0.  0.
        -24    2    1    2    0    0  0.81428688727E+02  0.86334892026E+02  0.33978814453E+03  0.36857703038E+03  0.79427320452E+02 0.  0.
        -11    1    3    3    0    0  0.23099706907E+01  0.11880105337E+02 -0.22731822366E+02  0.25752837037E+02  0.00000000000E+00 0.  1.
         12    1    3    3    0    0 -0.56538081635E+01  0.27161478983E+02 -0.70270152431E+03  0.70324899129E+03  0.00000000000E+00 0. -1.
         13    1    5    5    0    0  0.77616560083E+02  0.77919940993E+02  0.34185457961E+03  0.35911056961E+03  0.00000000000E+00 0. -1.
        -14    1    5    5    0    0  0.38121286444E+01  0.84149510335E+01 -0.20664350795E+01  0.94664607766E+01  0.00000000000E+00 0.  1.
          5    1    4    4  501    0 -0.96613148159E+02 -0.92920779495E+02 -0.14003032012E+03  0.19389258524E+03  0.41800000000E+01 0.  1.
         -5    1    4    4    0  501  0.18528296904E+02 -0.32455696851E+02  0.10461895558E+02  0.39033238438E+02  0.41800000000E+01 0.  1.
</event>
<event>
11    1  0.8974665E-009  0.1444628E+03  0.7561462E-02  0.1102675E+00
         22   -1    0    0    0    0  0.00000000000E+00  0.00000000000E+00  0.41990254470E+02  0.41990254470E+02  0.00000000000E+00 0. -1.
         22   -1    0    0    0    0 -0.00000000000E+00 -0.00000000000E+00 -0.15354031186E+04  0.15354031186E+04  0.00000000000E+00 0. -1.
         24    2    1    2    0    0  0.72730485042E+02  0.89926380951E+01 -0.12035956589E+04  0.12096999196E+04  0.96751198911E+02 0.  0.
         25    2    1    2    0    0 -0.62896228767E+02 -0.18968612142E+02 -0.20634938858E+03  0.25008999795E+03  0.12509673484E+03 0.  0.
        -24    2    1    2    0    0 -0.98342562751E+01  0.99759740468E+01 -0.83467816690E+02  0.11760345551E+03  0.81654538578E+02 0.  0.
        -11    1    3    3    0    0  0.17196492880E+02 -0.41059581719E+02 -0.34602017591E+03  0.34887185434E+03  0.00000000000E+00 0.  1.
         12    1    3    3    0    0  0.55533992161E+02  0.50052219814E+02 -0.85757548299E+03  0.86082806530E+03  0.00000000000E+00 0. -1.
         11    1    5    5    0    0  0.30831605770E+02  0.14701006237E+02 -0.13886826766E+02  0.36872095904E+02  0.00000000000E+00 0. -1.
        -12    1    5    5    0    0 -0.40665862045E+02 -0.47250321905E+01 -0.69580989924E+02  0.80731359606E+02  0.00000000000E+00 0.  1.
          5    1    4    4  501    0 -0.88235710746E+02  0.10988867537E+02 -0.18482061631E+03  0.20514002163E+03  0.41800000000E+01 0.  1.
         -5    1    4    4    0  501  0.25339481980E+02 -0.29957479679E+02 -0.21528772273E+02  0.44949976322E+02  0.41800000000E+01 0.  1.
</event>
<event>
11    1  0.8974665E-009  0.1897750E+03  0.7561462E-02  0.1061999E+00
         22   -1    0    0    0    0  0.00000000000E+00  0.00000000000E+00  0.34802360072E+03  0.34802360072E+03  0.00000000000E+00 0.  1.
         22   -1    0    0    0    0 -0.00000000000E+00 -0.00000000000E+00 -0.51020930609E+03  0.51020930609E+03  0.00000000000E+00 0.  1.
         24    2    1    2    0    0 -0.10518361737E+03  0.11571512059E+03 -0.39005197201E+03  0.42825360467E+03  0.82504706200E+02 0.  0.
         25    2    1    2    0    0  0.89458858510E+02 -0.40919501767E+02 -0.17082113190E+02  0.16005536620E+03  0.12509447897E+03 0.  0.
        -24    2    1    2    0    0  0.15724758863E+02 -0.74795618823E+02  0.24494837983E+03  0.26992393593E+03  0.83770936324E+02 0.  0.
        -13    1    3    3    0    0 -0.92342224205E+02  0.92479380349E+02 -0.37631452562E+03  0.39836182593E+03  0.00000000000E+00 0.  1.
         14    1    3    3    0    0 -0.12841393168E+02  0.23235740241E+02 -0.13737446386E+02  0.29891778741E+02  0.00000000000E+00 0. -1.
         13    1    5    5    0    0  0.28988449445E+02  0.21668734596E+01  0.32644376276E+02  0.43711335420E+02  0.00000000000E+00 0. -1.
        -14    1    5    5    0    0 -0.13263690582E+02 -0.76962492283E+02  0.21230400355E+03  0.22621260051E+03  0.00000000000E+00 0.  1.
          5    1    4    4  501    0 -0.20452423789E+01 -0.61813412110E+02 -0.22503904645E+02  0.65946789591E+02  0.41800000000E+01 0.  1.
         -5    1    4    4    0  501  0.91504100889E+02  0.20893910343E+02  0.54217914547E+01  0.94108576610E+02  0.41800000000E+01 0.  1.
</event>
<event>
11    1  0.8974665E-009  0.1941394E+03  0.7561462E-02  0.1058747E+00
         22   -1    0    0    0    0  0.00000000000E+00  0.00000000000E+00  0.15403927613E+04  0.15403927613E+04  0.00000000000E+00 0. -1.
         22   -1    0    0    0    0 -0.00000000000E+00 -0.00000000000E+00 -0.84781412132E+03  0.84781412132E+03  0.00000000000E+00 0. -1.
         24    2    1    2    0    0  0.85116606728E+02  0.51253848613E+02 -0.43867711024E+03  0.45693556705E+03  0.80502867354E+02 0.  0.
         25    2    1    2    0    0 -0.21854156030E+03  0.12354730329E+02 -0.35507596097E+03  0.43547783649E+03  0.12509578362E+03 0.  0.
        -24    2    1    2    0    0  0.13342495357E+03 -0.63608578942E+02  0.14863317112E+04  0.14957934791E+04  0.79799165576E+02 0.  0.
        -11    1    3    3    0    0  0.11740417446E+01  0.36252336036E+02 -0.20504045577E+03  0.20822391492E+03  0.00000000000E+00 0.  1.
         12    1    3    3    0    0  0.83942564984E+02  0.15001512577E+02 -0.23363665447E+03  0.24871165213E+03  0.00000000000E+00 0. -1.
         13    1    5    5    0    0  0.12061392114E+03 -0.66476699231E+02  0.10175035842E+04  0.10267815802E+04  0.00000000000E+00 0. -1.
        -14    1    5    5    0    0  0.12811032425E+02  0.28681202890E+01  0.46882812696E+03  0.46901189888E+03  0.00000000000E+00 0.  1.
          5    1    4    4  501    0 -0.12617829026E+03 -0.26274880252E+02 -0.28613138830E+03  0.31384705517E+03  0.41800000000E+01 0. -1.
         -5    1    4    4    0  501 -0.92363270037E+02  0.38629610582E+02 -0.68944572668E+02  0.12163078133E+03  0.41800000000E+01 0. -1.
</event>
<event>
11    1  0.8974665E-009  0.1603825E+03  0.7561462E-02  0.1086718E+00
         22   -1    0    0    0    0  0.00000000000E+00  0.00000000000E+00  0.14321328145E+04  0.14321328145E+04  0.00000000000E+00 0. -1.
         22   -1    0    0    0    0 -0.00000000000E+00 -0.00000000000E+00 -0.62031970811E+02  0.62031970811E+02  0.00000000000E+00 0.  1.
         24    2    1    2    0    0  0.61552654736E+02  0.68072728211E+02  0.68980183632E+02  0.13984899525E+03  0.79855182095E+02 0.  0.
         25    2    1    2    0    0 -0.36031705026E+02 -0.13995816620E+03  0.36938078078E+03  0.41590381654E+03  0.12508897371E+03 0.  0.
        -24    2    1    2    0    0 -0.25520949710E+02  0.71885437991E+02  0.93173987923E+03  0.93841197348E+03  0.81602661457E+02 0.  0.
        -11    1    3    3    0    0  0.39764728379E+02  0.59855072132E+02  0.53120315422E+01  0.72056095940E+02  0.00000000000E+00 0.  1.
         12    1    3    3    0    0  0.21787926357E+02  0.82176560789E+01  0.63668152089E+02  0.67792899310E+02  0.00000000000E+00 0. -1.
         11    1    5    5    0    0  0.14123589779E+02  0.60315499295E+02  0.72148782465E+03  0.72414233157E+03  0.00000000000E+00 0. -1.
        -12    1    5    5    0    0 -0.39644539489E+02  0.11569938696E+02  0.21025205457E+03  0.21426964191E+03  0.00000000000E+00 0.  1.
          5    1    4    4  501    0 -0.36584837939E+02 -0.16305513434E+03  0.33305988653E+03  0.37265505178E+03  0.41800000000E+01 0. -1.
         -5    1    4    4    0  501  0.55313291303E+00  0.23096968143E+02  0.36320894258E+02  0.43248764758E+02  0.41800000000E+01 0. -1.
</event>
<event>
11    1  0.8974665E-009  0.3207856E+03  0.7561462E-02  0.9917588E-01
         22   -1    0    0    0    0  0.00000000000E+00  0.00000000000E+00  0.16347943224E+04  0.16347943224E+04  0.00000000000E+00 0. -1.
         22   -1    0    0    0    0 -0.00000000000E+00 -0.00000000000E+00 -0.49705804999E+03  0.49705804999E+03  0.00000000000E+00 0. -1.
         24    2    1    2    0    0 -0.76567507243E+02  0.10927604939E+03 -0.41391089836E+03  0.44224733267E+03  0.80353178809E+02 0.  0.
         25    2    1    2    0    0 -0.10071930214E+03 -0.32561284015E+03  0.68269633981E+03  0.77323343623E+03  0.12509018757E+03 0.  0.
        -24    2    1    2    0    0  0.17728680939E+03  0.21633679076E+03  0.86895083096E+03  0.91637160349E+03  0.80181975752E+02 0.  0.
        -11    1    3    3    0    0  0.42402290007E+01  0.10013427042E+02 -0.21939785981E+01  0.11093322550E+02  0.00000000000E+00 0.  1.
         12    1    3    3    0    0 -0.80807736244E+02  0.99262622344E+02 -0.41171691976E+03  0.43115401013E+03  0.00000000000E+00 0. -1.
         13    1    5    5    0    0  0.14116015686E+03  0.20653887271E+03  0.79586988964E+03  0.83426217525E+03  0.00000000000E+00 0. -1.
        -14    1    5    5    0    0  0.36126652524E+02  0.97979180503E+01  0.73080941329E+02  0.82109428243E+02  0.00000000000E+00 0.  1.
          5    1    4    4  501    0 -0.78420904032E+02 -0.14225339418E+03  0.43397934469E+03  0.46340199650E+03  0.41800000000E+01 0. -1.
         -5    1    4    4    0  501 -0.22298398112E+02 -0.18335944597E+03  0.24871699511E+03  0.30983143973E+03  0.41800000000E+01 0. -1.
</event>
<event>
11    1  0.8974665E-009  0.1262161E+03  0.7561462E-02  0.1124008E+00
         22   -1    0    0    0    0  0.00000000000E+00  0.00000000000E+00  0.16126117190E+04  0.16126117190E+04  0.00000000000E+00 0. -1.
         22   -1    0    0    0    0 -0.00000000000E+00 -0.00000000000E+00 -0.32169999220E+03  0.32169999220E+03  0.00000000000E+00 0. -1.
         24    2    1    2    0    0  0.11712191370E+02  0.12626217146E+02 -0.29459426846E+03  0.30654298919E+03  0.82983277989E+02 0.  0.
         25    2    1    2    0    0 -0.17802429605E+02  0.11950055737E+02  0.18262773744E+03  0.22239535888E+03  0.12508826819E+03 0.  0.
        -24    2    1    2    0    0  0.60902382344E+01 -0.24576272883E+02  0.14028782578E+04  0.14053733631E+04  0.79785959645E+02 0.  0.
        -11    1    3    3    0    0 -0.28161601037E+02  0.22233143652E+02 -0.20353066408E+03  0.20666910672E+03  0.00000000000E+00 0.  1.
         12    1    3    3    0    0  0.39873792408E+02 -0.96069265059E+01 -0.91063604380E+02  0.99873882474E+02  0.00000000000E+00 0. -1.
         13    1    5    5    0    0 -0.26957194819E+02 -0.37528238061E+02  0.94068897330E+03  0.94182312750E+03  0.00000000000E+00 0. -1.
        -14    1    5    5    0    0  0.33047433053E+02  0.12951965178E+02  0.46218928453E+03  0.46355023564E+03  0.00000000000E+00 0.  1.
          5    1    4    4  501    0  0.15294917020E+02 -0.17125954558E+02 -0.95286676067E+01  0.25209139464E+02  0.41800000000E+01 0. -1.
         -5    1    4    4    0  501 -0.33097346625E+02  0.29076010295E+02  0.19215640504E+03  0.19718621942E+03  0.41800000000E+01 0. -1.
</event>
<event>
11    1  0.8974665E-009  0.2123833E+03  0.7561462E-02  0.1046096E+00
         22   -1    0    0    0    0  0.00000000000E+00  0.00000000000E+00  0.84858238345E+03  0.84858238345E+03  0.00000000000E+00 0.  1.
         22   -1    0    0    0    0 -0.00000000000E+00 -0.00000000000E+00 -0.32773386067E+03  0.32773386067E+03  0.00000000000E+00 0.  1.
        -24    2    1    2    0    0  0.16432008000E+03 -0.17308134587E+03 -0.12593652336E+03  0.28027670701E+03  0.75741557908E+02 0.  0.
         25    2    1    2    0    0 -0.96728312919E+02  0.67776427390E+02 -0.53471300158E+02  0.18015216541E+03  0.12508242135E+03 0.  0.
         24    2    1    2    0    0 -0.67591767083E+02  0.10530491848E+03  0.70025634630E+03  0.71588737171E+03  0.80486058393E+02 0.  0.
        -11    1    5    5    0    0 -0.71412430470E+02  0.11328381381E+03  0.57794796530E+03  0.59325947804E+03  0.00000000000E+00 0.  1.
         12    1    5    5    0    0  0.38206633862E+01 -0.79788953349E+01  0.12230838101E+03  0.12262789366E+03  0.00000000000E+00 0. -1.
         11    1    3    3    0    0  0.74604601501E+02 -0.12287472753E+03 -0.97199633487E+02  0.17352755972E+03  0.00000000000E+00 0. -1.
        -12    1    3    3    0    0  0.89715478501E+02 -0.50206618334E+02 -0.28736889878E+02  0.10674914729E+03  0.00000000000E+00 0.  1.
          5    1    4    4  501    0  0.17860093595E+02 -0.19633516300E+02 -0.15754057191E+01  0.26914906812E+02  0.41800000000E+01 0. -1.
         -5    1    4    4    0  501 -0.11458840651E+03  0.87409943689E+02 -0.51895894439E+02  0.15323725860E+03  0.41800000000E+01 0. -1.
</event>
<event>
11    1  0.8974665E-009  0.1809729E+03  0.7561462E-02  0.1068859E+00
         22   -1    0    0    0    0  0.00000000000E+00  0.00000000000E+00  0.14868367405E+04  0.14868367405E+04  0.00000000000E+00 0.  1.
         22   -1    0    0    0    0 -0.00000000000E+00 -0.00000000000E+00 -0.24837341868E+03  0.24837341868E+03  0.00000000000E+00 0. -1.
        -24    2    1    2    0    0  0.73095530598E+02 -0.13019914538E+03 -0.42915741996E+02  0.17579844084E+03  0.82271239434E+02 0.  0.
         25    2    1    2    0    0 -0.14396784445E+03  0.15617004450E+02 -0.66373982252E+02  0.20254347995E+03  0.12509086572E+03 0.  0.
         24    2    1    2    0    0  0.70872313853E+02  0.11458214093E+03  0.13477530461E+04  0.13568682384E+04  0.80629965241E+02 0.  0.
        -13    1    5    5    0    0  0.88265755566E+02  0.10492445156E+03  0.11732097893E+04  0.11811948162E+04  0.00000000000E+00 0.  1.
         14    1    5    5    0    0 -0.17393441713E+02  0.96576893777E+01  0.17454325678E+03  0.17567342220E+03  0.00000000000E+00 0. -1.
         13    1    3    3    0    0  0.79825209432E+02 -0.73398792359E+02 -0.47561199521E+02  0.11841247603E+03  0.00000000000E+00 0. -1.
        -14    1    3    3    0    0 -0.67296788340E+01 -0.56800353024E+02  0.46454575243E+01  0.57385964804E+02  0.00000000000E+00 0.  1.
          5    1    4    4  501    0  0.17885000980E+02  0.20350373051E+02 -0.20395715585E+02  0.34168239018E+02  0.41800000000E+01 0. -1.
         -5    1    4    4    0  501 -0.16185284543E+03 -0.47333686013E+01 -0.45978266668E+02  0.16837524093E+03  0.41800000000E+01 0. -1.
</event>
<event>
11    1  0.8974665E-009  0.1649768E+03  0.7561462E-02  0.1082488E+00
         22   -1    0    0    0    0  0.00000000000E+00  0.00000000000E+00  0.75984731534E+03  0.75984731534E+03  0.00000000000E+00 0. -1.
         22   -1    0    0    0    0 -0.00000000000E+00 -0.00000000000E+00 -0.92634483311E+03  0.92634483311E+03  0.00000000000E+00 0. -1.
         24    2    1    2    0    0 -0.50474417331E+02 -0.23826803457E+02 -0.42118563439E+03  0.43263618346E+03  0.81617064683E+02 0.  0.
         25    2    1    2    0    0  0.77766659694E+02  0.12741865797E+03 -0.47414116864E+03  0.51258194034E+03  0.12508888839E+03 0.  0.
        -24    2    1    2    0    0 -0.27292242363E+02 -0.10359185452E+03  0.72882928527E+03  0.74097402466E+03  0.79838833466E+02 0.  0.
        -13    1    3    3    0    0 -0.17547922304E+02  0.10177331637E+02 -0.19389810156E+02  0.28061938535E+02  0.00000000000E+00 0.  1.
         14    1    3    3    0    0 -0.32926495027E+02 -0.34004135095E+02 -0.40179582424E+03  0.40457424492E+03  0.00000000000E+00 0. -1.
         13    1    5    5    0    0  0.12778130786E+02 -0.88185752205E+02  0.43576836331E+03  0.44478542465E+03  0.00000000000E+00 0. -1.
        -14    1    5    5    0    0 -0.40070373149E+02 -0.15406102310E+02  0.29306092196E+03  0.29618860000E+03  0.00000000000E+00 0.  1.
          5    1    4    4  501    0 -0.30497509868E+01  0.61765181072E+02 -0.62758986036E+02  0.88206583100E+02  0.41800000000E+01 0. -1.
         -5    1    4    4    0  501  0.80816410681E+02  0.65653476900E+02 -0.41138218261E+03  0.42437535724E+03  0.41800000000E+01 0. -1.
</event>
<event>
11    1  0.8974665E-009  0.1345865E+03  0.7561462E-02  0.1113759E+00
         22   -1    0    0    0    0  0.00000000000E+00  0.00000000000E+00  0.66250323318E+03  0.66250323318E+03  0.00000000000E+00 0.  1.
         22   -1    0    0    0    0 -0.00000000000E+00 -0.00000000000E+00 -0.10146751057E+03  0.10146751057E+03  0.00000000000E+00 0. -1.
        -24    2    1    2    0    0 -0.13384936246E+02 -0.43293747399E+02 -0.36262555880E+02  0.10119225465E+03  0.82893874075E+02 0.  0.
         25    2    1    2    0    0  0.17261410587E+02  0.72310994259E+02  0.15448646330E+03  0.21222625378E+03  0.12508828588E+03 0.  0.
         24    2    1    2    0    0 -0.38764743402E+01 -0.29017246860E+02  0.44281181518E+03  0.45055223533E+03  0.77833061268E+02 0.  0.
        -13    1    5    5    0    0  0.20906385187E+02 -0.14438377430E+02  0.38640871802E+03  0.38724312911E+03  0.00000000000E+00 0.  1.
         14    1    5    5    0    0 -0.24782859528E+02 -0.14578869430E+02  0.56403097164E+02  0.63309106216E+02  0.00000000000E+00 0. -1.
         13    1    3    3    0    0  0.13318950812E+02 -0.60872938647E+02 -0.26964387912E+02  0.67896887452E+02  0.00000000000E+00 0. -1.
        -14    1    3    3    0    0 -0.26703887058E+02  0.17579191248E+02 -0.92981679678E+01  0.33295367193E+02  0.00000000000E+00 0.  1.
          5    1    4    4  501    0  0.25242150870E+02 -0.18495005974E+02  0.10239803254E+03  0.10715437879E+03  0.41800000000E+01 0. -1.
         -5    1    4    4    0  501 -0.79807402836E+01  0.90806000233E+02  0.52088430763E+02  0.10507187499E+03  0.41800000000E+01 0. -1.
</event>
<event>
11    1  0.8974665E-009  0.1412401E+03  0.7561462E-02  0.1106181E+00
         22   -1    0    0    0    0  0.00000000000E+00  0.00000000000E+00  0.22187843847E+03  0.22187843847E+03  0.00000000000E+00 0.  1.
         22   -1    0    0    0    0 -0.00000000000E+00 -0.00000000000E+00 -0.69019076081E+03  0.69019076081E+03  0.00000000000E+00 0. -1.
        -24    2    1    2    0    0 -0.22482062313E+02  0.24114419154E+02 -0.61054380092E+03  0.61675429715E+03  0.80840471780E+02 0.  0.
         25    2    1    2    0    0  0.76919954332E+02  0.73305076132E+01  0.43398375770E+02  0.15330099577E+03  0.12508941030E+03 0.  0.
         24    2    1    2    0    0 -0.54437892019E+02 -0.31444926767E+02  0.98833102818E+02  0.14201390635E+03  0.80297570815E+02 0.  0.
        -13    1    5    5    0    0 -0.71286532943E+02 -0.86958210124E+01  0.82312071230E+02  0.10923673445E+03  0.00000000000E+00 0.  1.
         14    1    5    5    0    0  0.16848640924E+02 -0.22749105755E+02  0.16521031587E+02  0.32777171909E+02  0.00000000000E+00 0. -1.
         11    1    3    3    0    0  0.29529832164E+02  0.28166257950E+01 -0.16090914196E+03  0.16362058652E+03  0.00000000000E+00 0. -1.
        -12    1    3    3    0    0 -0.52011894477E+02  0.21297793359E+02 -0.44963465896E+03  0.45313371063E+03  0.00000000000E+00 0.  1.
          5    1    4    4  501    0  0.80478784303E+02 -0.91091991204E+01 -0.23305093247E+02  0.84382533754E+02  0.41800000000E+01 0.  1.
         -5    1    4    4    0  501 -0.35588299712E+01  0.16439706734E+02  0.66703469017E+02  0.68918462020E+02  0.41800000000E+01 0.  1.
</event>
<event>
11    1  0.8974665E-009  0.2136089E+03  0.7561462E-02  0.1045297E+00
         22   -1    0    0    0    0  0.00000000000E+00  0.00000000000E+00  0.26355338649E+03  0.26355338649E+03  0.00000000000E+00 0. -1.
         22   -1    0    0    0    0 -0.00000000000E+00 -0.00000000000E+00 -0.49486148576E+03  0.49486148576E+03  0.00000000000E+00 0. -1.
        -24    2    1    2    0    0  0.23450366787E+02 -0.16400286660E+02 -0.32964329832E+03  0.34048187651E+03  0.80276490974E+02 0.  0.
         25    2    1    2    0    0  0.15829215233E+03 -0.13513130416E+02  0.21476843929E+02  0.20334213252E+03  0.12509099827E+03 0.  0.
         24    2    1    2    0    0 -0.18174251912E+03  0.29913417076E+02  0.76858355116E+02  0.21459086322E+03  0.78847168953E+02 0.  0.
        -13    1    5    5    0    0 -0.20260549822E+02  0.31702454823E+02  0.54521590234E+01  0.38016595835E+02  0.00000000000E+00 0.  1.
         14    1    5    5    0    0 -0.16148196930E+03 -0.17890377470E+01  0.71406196092E+02  0.17657426739E+03  0.00000000000E+00 0. -1.
         13    1    3    3    0    0  0.29981102237E+02 -0.35557820282E+02 -0.30530435261E+03  0.30882676826E+03  0.00000000000E+00 0. -1.
        -14    1    3    3    0    0 -0.65307354501E+01  0.19157533623E+02 -0.24338945708E+02  0.31655108248E+02  0.00000000000E+00 0.  1.
          5    1    4    4  501    0  0.98774670515E+02 -0.26820777186E+02 -0.46001398971E+02  0.11229154345E+03  0.41800000000E+01 0.  1.
         -5    1    4    4    0  501  0.59517481816E+02  0.13307646770E+02  0.67478242900E+02  0.91050589065E+02  0.41800000000E+01 0.  1.
</event>
<event>
11    1  0.8974665E-009  0.1914497E+03  0.7561462E-02  0.1060740E+00
         22   -1    0    0    0    0  0.00000000000E+00  0.00000000000E+00  0.79709113774E+02  0.79709113774E+02  0.00000000000E+00 0.  1.
         22   -1    0    0    0    0 -0.00000000000E+00 -0.00000000000E+00 -0.29767713328E+04  0.29767713328E+04  0.00000000000E+00 0. -1.
         24    2    1    2    0    0  0.11479990008E+02  0.74719882584E+01 -0.23513263227E+04  0.23527766714E+04  0.81455317740E+02 0.  0.
         25    2    1    2    0    0 -0.10525076882E+03 -0.11488697112E+03 -0.49437561962E+03  0.53322873432E+03  0.12509552093E+03 0.  0.
        -24    2    1    2    0    0  0.93770778812E+02  0.10741498286E+03 -0.51360276650E+02  0.17047504082E+03  0.78057184314E+02 0.  0.
        -11    1    3    3    0    0  0.36912293060E+02 -0.15854204244E+02 -0.74718299597E+03  0.74826218843E+03  0.00000000000E+00 0.  1.
         12    1    3    3    0    0 -0.25432303052E+02  0.23326192502E+02 -0.16041433267E+04  0.16045144830E+04  0.00000000000E+00 0. -1.
         13    1    5    5    0    0  0.34839818840E+02  0.13085534815E+02 -0.45933818024E+02  0.59118185328E+02  0.00000000000E+00 0. -1.
        -14    1    5    5    0    0  0.58930959972E+02  0.94329448046E+02 -0.54264586258E+01  0.11135685549E+03  0.00000000000E+00 0.  1.
          5    1    4    4  501    0 -0.25935254144E+02 -0.10699426390E+03 -0.36451030434E+03  0.38079606653E+03  0.41800000000E+01 0.  1.
         -5    1    4    4    0  501 -0.79315514676E+02 -0.78927072152E+01 -0.12986531528E+03  0.15243266779E+03  0.41800000000E+01 0.  1.
</event>
<event>
11    1  0.8974665E-009  0.1423092E+03  0.7561462E-02  0.1105007E+00
         22   -1    0    0    0    0  0.00000000000E+00  0.00000000000E+00  0.14394931651E+03  0.14394931651E+03  0.00000000000E+00 0. -1.
         22   -1    0    0    0    0 -0.00000000000E+00 -0.00000000000E+00 -0.60752281736E+03  0.60752281736E+03  0.00000000000E+00 0. -1.
        -24    2    1    2    0    0  0.31141798050E+02 -0.85443898478E+01 -0.47246495502E+03  0.48036137007E+03  0.80505241803E+02 0.  0.
         25    2    1    2    0    0 -0.84061031494E+02 -0.24246406126E+02 -0.40340263761E+02  0.15788599165E+03  0.12508598743E+03 0.  0.
         24    2    1    2    0    0  0.52919233444E+02  0.32790795974E+02  0.49231717925E+02  0.11322477214E+03  0.80749027289E+02 0.  0.
        -13    1    5    5    0    0 -0.16863891154E+02  0.18795379090E+02 -0.22981211457E+01  0.25356231202E+02  0.00000000000E+00 0.  1.
         14    1    5    5    0    0  0.69783124598E+02  0.13995416884E+02  0.51529839071E+02  0.87868540941E+02  0.00000000000E+00 0. -1.
         11    1    3    3    0    0  0.54434706995E+02  0.11233109203E+02 -0.33096418680E+03  0.33559888709E+03  0.00000000000E+00 0. -1.
        -12    1    3    3    0    0 -0.23292908944E+02 -0.19777499050E+02 -0.14150076821E+03  0.14476248299E+03  0.00000000000E+00 0.  1.
          5    1    4    4  501    0 -0.42137678487E+01 -0.52462746721E+02  0.17070710369E+02  0.55488532018E+02  0.41800000000E+01 0.  1.
         -5    1    4    4    0  501 -0.79847263645E+02  0.28216340595E+02 -0.57410974130E+02  0.10239745963E+03  0.41800000000E+01 0.  1.
</event>
<event>
11    1  0.8974665E-009  0.1259428E+03  0.7561462E-02  0.1124357E+00
         22   -1    0    0    0    0  0.00000000000E+00  0.00000000000E+00  0.13181399209E+04  0.13181399209E+04  0.00000000000E+00 0. -1.
         22   -1    0    0    0    0 -0.00000000000E+00 -0.00000000000E+00 -0.57623588884E+03  0.57623588884E+03  0.00000000000E+00 0.  1.
        -24    2    1    2    0    0 -0.35862130603E+02  0.23878002802E+02 -0.55939453944E+03  0.56663962968E+03  0.79384933953E+02 0.  0.
         25    2    1    2    0    0  0.29675590226E+02 -0.33810550900E+02  0.40459259447E+03  0.42587201781E+03  0.12509202232E+03 0.  0.
         24    2    1    2    0    0  0.61865403766E+01  0.99325480978E+01  0.89670597699E+03  0.90186416221E+03  0.95605591418E+02 0.  0.
        -13    1    5    5    0    0 -0.28203247604E+02  0.26964781053E+01  0.89145200444E+02  0.93539087722E+02  0.00000000000E+00 0.  1.
         14    1    5    5    0    0  0.34389787981E+02  0.72360699924E+01  0.80756077655E+03  0.80832507449E+03  0.00000000000E+00 0. -1.
         13    1    3    3    0    0 -0.24496122667E+01  0.22024405340E+02 -0.36675488181E+02  0.42850512997E+02  0.00000000000E+00 0. -1.
        -14    1    3    3    0    0 -0.33412518336E+02  0.18535974621E+01 -0.52271905126E+03  0.52378911668E+03  0.00000000000E+00 0.  1.
          5    1    4    4  501    0 -0.41580109290E+02 -0.22564738790E+02  0.77510715371E+02  0.90903555060E+02  0.41800000000E+01 0.  1.
         -5    1    4    4    0  501  0.71255699517E+02 -0.11245812110E+02  0.32708187910E+03  0.33496846275E+03  0.41800000000E+01 0.  1.
</event>
<event>
11    1  0.8974665E-009  0.1665715E+03  0.7561462E-02  0.1081054E+00
         22   -1    0    0    0    0  0.00000000000E+00  0.00000000000E+00  0.25633099270E+04  0.25633099270E+04  0.00000000000E+00 0. -1.
         22   -1    0    0    0    0 -0.00000000000E+00 -0.00000000000E+00 -0.10752873449E+03  0.10752873449E+03  0.00000000000E+00 0.  1.
         24    2    1    2    0    0  0.42828932555E+02 -0.11088133647E+03 -0.34338671280E+02  0.14740000508E+03  0.80116346096E+02 0.  0.
         25    2    1    2    0    0 -0.42168034670E+02  0.47532260989E+02  0.30287631420E+03  0.33380292156E+03  0.12511142936E+03 0.  0.
        -24    2    1    2    0    0 -0.66089788514E+00  0.63349075480E+02  0.21872435496E+04  0.21896357348E+04  0.80353991400E+02 0.  0.
        -13    1    3    3    0    0  0.42709856534E+02 -0.17435955419E+02  0.41932566071E+01  0.46322001117E+02  0.00000000000E+00 0.  1.
         14    1    3    3    0    0  0.11907602080E+00 -0.93445381051E+02 -0.38531927887E+02  0.10107800396E+03  0.00000000000E+00 0. -1.
         11    1    5    5    0    0  0.36423970877E+01  0.81737433010E+02  0.16025461301E+04  0.16046334080E+04  0.00000000000E+00 0. -1.
        -12    1    5    5    0    0 -0.43032949728E+01 -0.18388357529E+02  0.58469741954E+03  0.58500232688E+03  0.00000000000E+00 0.  1.
          5    1    4    4  501    0 -0.20214925731E+02 -0.28703554958E+02  0.21393874768E+02  0.41324418533E+02  0.41800000000E+01 0.  1.
         -5    1    4    4    0  501 -0.21953108938E+02  0.76235815947E+02  0.28148243943E+03  0.29247850303E+03  0.41800000000E+01 0.  1.
</event>
<event>
11    1  0.8974665E-009  0.1365899E+03  0.7561462E-02  0.1111427E+00
         22   -1    0    0    0    0  0.00000000000E+00  0.00000000000E+00  0.19649349781E+04  0.19649349781E+04  0.00000000000E+00 0.  1.
         22   -1    0    0    0    0 -0.00000000000E+00 -0.00000000000E+00 -0.45806940708E+02  0.45806940708E+02  0.00000000000E+00 0.  1.
         24    2    1    2    0    0 -0.53324535302E+02  0.10525319952E+02  0.62021257010E+02  0.11439221198E+03  0.79275805993E+02 0.  0.
         25    2    1    2    0    0  0.57889504613E+02  0.59254921020E+01  0.23758409543E+03  0.27473604470E+03  0.12508951059E+03 0.  0.
        -24    2    1    2    0    0 -0.45649693113E+01 -0.16450812054E+02  0.16195226849E+04  0.16216136621E+04  0.80533681967E+02 0.  0.
        -13    1    3    3    0    0 -0.69859268690E+02  0.17773235761E+02  0.30931513461E+02  0.78440830288E+02  0.00000000000E+00 0.  1.
         14    1    3    3    0    0  0.16534733388E+02 -0.72479158091E+01  0.31089743549E+02  0.35951381694E+02  0.00000000000E+00 0. -1.
         13    1    5    5    0    0 -0.11886528857E+02 -0.40149095627E+02  0.48049810445E+03  0.48231905190E+03  0.00000000000E+00 0. -1.
        -14    1    5    5    0    0  0.73215595460E+01  0.23698283573E+02  0.11390245805E+04  0.11392946102E+04  0.00000000000E+00 0.  1.
          5    1    4    4  501    0 -0.36432542455E+02  0.20415616636E+02  0.62387936185E+02  0.75192117497E+02  0.41800000000E+01 0. -1.
         -5    1    4    4    0  501  0.94322047068E+02 -0.14490124534E+02  0.17519615924E+03  0.19954392721E+03  0.41800000000E+01 0. -1.
</event>
<event>
11    1  0.8974665E-009  0.1339410E+03  0.7561462E-02  0.1114519E+00
         22   -1    0    0    0    0  0.00000000000E+00  0.00000000000E+00  0.52677806563E+03  0.52677806563E+03  0.00000000000E+00 0. -1.
         22   -1    0    0    0    0 -0.00000000000E+00 -0.00000000000E+00 -0.55020100559E+03  0.55020100559E+03  0.00000000000E+00 0. -1.
        -24    2    1    2    0    0  0.42524719245E+02  0.22097813582E+02 -0.52215153812E+03  0.53045397772E+03  0.80265363659E+02 0.  0.
         25    2    1    2    0    0 -0.40070456715E+02 -0.23669351464E+02  0.23199895831E+03  0.26764754761E+03  0.12508322584E+03 0.  0.
         24    2    1    2    0    0 -0.24542625294E+01  0.15715378820E+01  0.26672963985E+03  0.27887754590E+03  0.81360258698E+02 0.  0.
        -13    1    5    5    0    0 -0.86781612031E+01  0.23113061752E+02  0.21836190119E+02  0.32959722455E+02  0.00000000000E+00 0.  1.
         14    1    5    5    0    0  0.62238986737E+01 -0.21541523870E+02  0.24489344973E+03  0.24591782344E+03  0.00000000000E+00 0. -1.
         11    1    3    3    0    0  0.49932287337E+02  0.35232375860E+02 -0.49961063283E+03  0.50333422103E+03  0.00000000000E+00 0. -1.
        -12    1    3    3    0    0 -0.74075680920E+01 -0.13134562278E+02 -0.22540905291E+02  0.27119756684E+02  0.00000000000E+00 0.  1.
          5    1    4    4  501    0 -0.58650793598E+02 -0.48558829709E+02  0.22202918624E+03  0.23476010623E+03  0.41800000000E+01 0.  1.
         -5    1    4    4    0  501  0.18580336882E+02  0.24889478244E+02  0.99697720721E+01  0.32887441389E+02  0.41800000000E+01 0.  1.
</event>
<event>
11    1  0.8974665E-009  0.1792280E+03  0.7561462E-02  0.1070269E+00
         22   -1    0    0    0    0  0.00000000000E+00  0.00000000000E+00  0.13632881528E+04  0.13632881528E+04  0.00000000000E+00 0. -1.
         22   -1    0    0    0    0 -0.00000000000E+00 -0.00000000000E+00 -0.30088100038E+03  0.30088100038E+03  0.00000000000E+00 0.  1.
         24    2    1    2    0    0  0.35587400845E+02 -0.45528857850E+01  0.44752008812E+02  0.97515989966E+02  0.78863389088E+02 0.  0.
         25    2    1    2    0    0 -0.16085124799E+03 -0.20713890133E+02 -0.23111629203E+03  0.30881444854E+03  0.12509769766E+03 0.  0.
        -24    2    1    2    0    0  0.12526384715E+03  0.25266775918E+02  0.12487714356E+04  0.12578387147E+04  0.79991826645E+02 0.  0.
        -11    1    3    3    0    0  0.51339737494E+02  0.20772148208E+02  0.37307621052E+02  0.66776563072E+02  0.00000000000E+00 0.  1.
         12    1    3    3    0    0 -0.15752336650E+02 -0.25325033993E+02  0.74443877604E+01  0.30739426894E+02  0.00000000000E+00 0. -1.
         13    1    5    5    0    0  0.10713378680E+03  0.43906064961E+02  0.11458006318E+04  0.11516355668E+04  0.00000000000E+00 0. -1.
        -14    1    5    5    0    0  0.18130060342E+02 -0.18639289043E+02  0.10297080379E+03  0.10620314786E+03  0.00000000000E+00 0.  1.
          5    1    4    4  501    0 -0.26717295386E+02 -0.57524126664E+02 -0.93851735812E+02  0.11335104647E+03  0.41800000000E+01 0.  1.
         -5    1    4    4    0  501 -0.13413395260E+03  0.36810236530E+02 -0.13726455621E+03  0.19546340207E+03  0.41800000000E+01 0.  1.
</event>
<event>
11    1  0.8974665E-009  0.1394775E+03  0.7561462E-02  0.1108143E+00
         22   -1    0    0    0    0  0.00000000000E+00  0.00000000000E+00  0.98543873425E+03  0.98543873425E+03  0.00000000000E+00 0.  1.
         22   -1    0    0    0    0 -0.00000000000E+00 -0.00000000000E+00 -0.90553935125E+02  0.90553935125E+02  0.00000000000E+00 0. -1.
         24    2    1    2    0    0  0.68999745015E+01 -0.82639690556E+01  0.41921188670E+02  0.95529719943E+02  0.85162424227E+02 0.  0.
         25    2    1    2    0    0  0.54476166199E+02  0.16817901856E+02  0.17254763575E+02  0.13854981945E+03  0.12509129105E+03 0.  0.
        -24    2    1    2    0    0 -0.61376140700E+02 -0.85539328000E+01  0.83570884688E+03  0.84191312998E+03  0.81044686847E+02 0.  0.
        -11    1    3    3    0    0  0.37971453448E+02  0.18388395948E+02  0.33171952437E+02  0.53668825317E+02  0.00000000000E+00 0.  1.
         12    1    3    3    0    0 -0.31071478946E+02 -0.26652365004E+02  0.87492362329E+01  0.41860894626E+02  0.00000000000E+00 0. -1.
         11    1    5    5    0    0 -0.26797260852E+02 -0.31605550403E+01  0.64578417241E+02  0.69988958206E+02  0.00000000000E+00 0. -1.
        -12    1    5    5    0    0 -0.34578879848E+02 -0.53933777597E+01  0.77113042963E+03  0.77192417177E+03  0.00000000000E+00 0.  1.
          5    1    4    4  501    0 -0.34868776511E+02  0.30034520384E+02  0.13141446459E+02  0.48042418810E+02  0.41800000000E+01 0. -1.
         -5    1    4    4    0  501  0.89344942710E+02 -0.13216618529E+02  0.41133171160E+01  0.90507400641E+02  0.41800000000E+01 0. -1.
</event>
<event>
11    1  0.8974665E-009  0.1802590E+03  0.7561462E-02  0.1069433E+00
         22   -1    0    0    0    0  0.00000000000E+00  0.00000000000E+00  0.20999720381E+04  0.20999720381E+04  0.00000000000E+00 0.  1.
         22   -1    0    0    0    0 -0.00000000000E+00 -0.00000000000E+00 -0.57486535525E+03  0.57486535525E+03  0.00000000000E+00 0.  1.
         24    2    1    2    0    0  0.10369970321E+03 -0.72851935749E+02 -0.42444292005E+03  0.45022940019E+03  0.80583419084E+02 0.  0.
         25    2    1    2    0    0 -0.14902487380E+03  0.40800310050E+02 -0.63934999366E+02  0.20882535428E+03  0.12508903282E+03 0.  0.
        -24    2    1    2    0    0  0.45325170599E+02  0.32051625699E+02  0.20134846023E+04  0.20157826389E+04  0.78598510536E+02 0.  0.
        -11    1    3    3    0    0  0.80411062105E+02 -0.32778501048E+02 -0.16277878845E+03  0.18449201340E+03  0.00000000000E+00 0.  1.
         12    1    3    3    0    0  0.23288641101E+02 -0.40073434701E+02 -0.26166413160E+03  0.26573738679E+03  0.00000000000E+00 0. -1.
         13    1    5    5    0    0  0.40292764781E+02 -0.18964806803E+02  0.10314603879E+04  0.10324212815E+04  0.00000000000E+00 0. -1.
        -14    1    5    5    0    0  0.50324058174E+01  0.51016432503E+02  0.98202421442E+03  0.98336135738E+03  0.00000000000E+00 0.  1.
          5    1    4    4  501    0 -0.12294357122E+03  0.80926368912E+02 -0.30709495351E+02  0.15041523990E+03  0.41800000000E+01 0. -1.
         -5    1    4    4    0  501 -0.26081302582E+02 -0.40126058862E+02 -0.33225504015E+02  0.58410114375E+02  0.41800000000E+01 0. -1.
</event>
<event>
11    1  0.8974665E-009  0.1506383E+03  0.7561462E-02  0.1096228E+00
         22   -1    0    0    0    0  0.00000000000E+00  0.00000000000E+00  0.14673029145E+04  0.14673029145E+04  0.00000000000E+00 0.  1.
         22   -1    0    0    0    0 -0.00000000000E+00 -0.00000000000E+00 -0.21064667458E+03  0.21064667458E+03  0.00000000000E+00 0. -1.
         24    2    1    2    0    0 -0.79845188115E+02  0.13653971176E+02 -0.16335517209E+03  0.19932529704E+03  0.80523144495E+02 0.  0.
         25    2    1    2    0    0  0.13248842481E+03 -0.16978405640E+02  0.27726159929E+03  0.33220995097E+03  0.12509199862E+03 0.  0.
        -24    2    1    2    0    0 -0.52643236691E+02  0.33244344639E+01  0.11427498128E+04  0.11464143411E+04  0.74875528245E+02 0.  0.
        -13    1    3    3    0    0 -0.58101498453E+02  0.40817408992E+02 -0.70050915841E+02  0.99744552781E+02  0.00000000000E+00 0.  1.
         14    1    3    3    0    0 -0.21743689662E+02 -0.27163437816E+02 -0.93304256244E+02  0.99580744260E+02  0.00000000000E+00 0. -1.
         11    1    5    5    0    0 -0.28119188300E+02 -0.20207352839E+02  0.19468005962E+03  0.19773555946E+03  0.00000000000E+00 0. -1.
        -12    1    5    5    0    0 -0.24524048392E+02  0.23531787303E+02  0.94806975314E+03  0.94867878166E+03  0.00000000000E+00 0.  1.
          5    1    4    4  501    0 -0.18398334039E+01 -0.45368358836E+02  0.72301200207E+02  0.85478704493E+02  0.41800000000E+01 0.  1.
         -5    1    4    4    0  501  0.13432825821E+03  0.28389953196E+02  0.20496039908E+03  0.24673124648E+03  0.41800000000E+01 0.  1.
</event>
<event>
11    1  0.8974665E-009  0.1399797E+03  0.7561462E-02  0.1107581E+00
         22   -1    0    0    0    0  0.00000000000E+00  0.00000000000E+00  0.10116855669E+04  0.10116855669E+04  0.00000000000E+00 0. -1.
         22   -1    0    0    0    0 -0.00000000000E+00 -0.00000000000E+00 -0.12808624765E+03  0.12808624765E+03  0.00000000000E+00 0.  1.
         24    2    1    2    0    0 -0.40077004346E+02  0.12675577643E+02 -0.67111489984E+02  0.11250506950E+03  0.79916218808E+02 0.  0.
         25    2    1    2    0    0 -0.12305299001E+02  0.30361043614E+02  0.91909013767E+02  0.15864488566E+03  0.12509084532E+03 0.  0.
        -24    2    1    2    0    0  0.52382303347E+02 -0.43036621257E+02  0.85880179544E+03  0.86862185936E+03  0.11120860681E+03 0.  0.
        -11    1    3    3    0    0 -0.35160242441E+02 -0.19813284061E+02 -0.68623482329E+02  0.79611501686E+02  0.00000000000E+00 0.  1.
         12    1    3    3    0    0 -0.49167619056E+01  0.32488861704E+02  0.15119923448E+01  0.32893567810E+02  0.00000000000E+00 0. -1.
         13    1    5    5    0    0  0.68891462078E+02 -0.31002000610E+02  0.29728884518E+03  0.30673737147E+03  0.00000000000E+00 0. -1.
        -14    1    5    5    0    0 -0.16509158731E+02 -0.12034620647E+02  0.56151295026E+03  0.56188448789E+03  0.00000000000E+00 0.  1.
          5    1    4    4  501    0 -0.63225224559E+02  0.25439013121E+02  0.81412966432E+02  0.10625495712E+03  0.41800000000E+01 0. -1.
         -5    1    4    4    0  501  0.50919925558E+02  0.49220304927E+01  0.10496047335E+02  0.52389928542E+02  0.41800000000E+01 0. -1.
</event>
<event>
11    1  0.8974665E-009  0.1895437E+03  0.7561462E-02  0.1062174E+00
         22   -1    0    0    0    0  0.00000000000E+00  0.00000000000E+00  0.39529041242E+03  0.39529041242E+03  0.00000000000E+00 0.  1.
         22   -1    0    0    0    0 -0.00000000000E+00 -0.00000000000E+00 -0.18643446531E+04  0.18643446531E+04  0.00000000000E+00 0. -1.
         24    2    1    2    0    0 -0.42052092016E+02  0.12876693031E+02 -0.16022362895E+04  0.16050050004E+04  0.83341082837E+02 0.  0.
         25    2    1    2    0    0 -0.22139873965E+01 -0.14825320744E+03 -0.20304720942E+03  0.28081953802E+03  0.12509008124E+03 0.  0.
        -24    2    1    2    0    0  0.44266079412E+02  0.13537651441E+03  0.33622925826E+03  0.37381052713E+03  0.79986934202E+02 0.  0.
        -13    1    3    3    0    0  0.17681856476E+02 -0.17695588948E+02 -0.30008523431E+03  0.30112610277E+03  0.00000000000E+00 0.  1.
         14    1    3    3    0    0 -0.59733948492E+02  0.30572281979E+02 -0.13021510552E+04  0.13038788976E+04  0.00000000000E+00 0. -1.
         13    1    5    5    0    0  0.70191210313E+01  0.15791716476E+02  0.26391869268E+01  0.17481752685E+02  0.00000000000E+00 0. -1.
        -14    1    5    5    0    0  0.37246958381E+02  0.11958479793E+03  0.33359007133E+03  0.35632877444E+03  0.00000000000E+00 0.  1.
          5    1    4    4  501    0 -0.70475111134E+01 -0.49867009388E+02  0.48104411192E+01  0.50764148589E+02  0.41800000000E+01 0. -1.
         -5    1    4    4    0  501  0.48335237169E+01 -0.98386198053E+02 -0.20785765054E+03  0.23005538943E+03  0.41800000000E+01 0. -1.
</event>
<event>
11    1  0.8974665E-009  0.1425116E+03  0.7561462E-02  0.1104786E+00
         22   -1    0    0    0    0  0.00000000000E+00  0.00000000000E+00  0.22479754175E+03  0.22479754175E+03  0.00000000000E+00 0.  1.
         22   -1    0    0    0    0 -0.00000000000E+00 -0.00000000000E+00 -0.39950853248E+03  0.39950853248E+03  0.00000000000E+00 0. -1.
        -24    2    1    2    0    0 -0.19545140398E+02 -0.62638743553E+02 -0.16412069413E+03  0.19425553879E+03  0.80585280309E+02 0.  0.
         25    2    1    2    0    0 -0.18285562947E+02  0.77274825668E+02 -0.18333625426E+03  0.23573933398E+03  0.12512030597E+03 0.  0.
         24    2    1    2    0    0  0.37830703345E+02 -0.14636082114E+02  0.17274595764E+03  0.19431120147E+03  0.79185226642E+02 0.  0.
        -11    1    5    5    0    0  0.94904514489E+01  0.36714696354E+01  0.15655996603E+03  0.15689031621E+03  0.00000000000E+00 0.  1.
         12    1    5    5    0    0  0.28340251896E+02 -0.18307551749E+02  0.16185991610E+02  0.37420885252E+02  0.00000000000E+00 0. -1.
         13    1    3    3    0    0 -0.18295380566E+02 -0.79998764031E+02 -0.10891278020E+03  0.13636904666E+03  0.00000000000E+00 0. -1.
        -14    1    3    3    0    0 -0.12497598320E+01  0.17360020478E+02 -0.55207913927E+02  0.57886492127E+02  0.00000000000E+00 0.  1.
          5    1    4    4  501    0 -0.28099154822E+01 -0.24414312347E+02  0.62114772263E+00  0.24936168448E+02  0.41800000000E+01 0. -1.
         -5    1    4    4    0  501 -0.15475647465E+02  0.10168913801E+03 -0.18395740198E+03  0.21080316553E+03  0.41800000000E+01 0. -1.
</event>
<event>
11    1  0.8974665E-009  0.1473738E+03  0.7561462E-02  0.1099593E+00
         22   -1    0    0    0    0  0.00000000000E+00  0.00000000000E+00  0.48893991249E+03  0.48893991249E+03  0.00000000000E+00 0.  1.
         22   -1    0    0    0    0 -0.00000000000E+00 -0.00000000000E+00 -0.50088809906E+03  0.50088809906E+03  0.00000000000E+00 0. -1.
        -24    2    1    2    0    0  0.14840255507E+02 -0.86429401518E+00 -0.36519324908E+03  0.37437216090E+03  0.81039653871E+02 0.  0.
         25    2    1    2    0    0 -0.29363378387E+02 -0.75581503475E+02 -0.79263716686E+02  0.16883400469E+03  0.12508961867E+03 0.  0.
         24    2    1    2    0    0  0.14523122880E+02  0.76445797490E+02  0.43250877919E+03  0.44662184596E+03  0.79701619521E+02 0.  0.
        -11    1    5    5    0    0  0.12606226649E+02  0.43739329032E+02  0.39147792026E+03  0.39411547534E+03  0.00000000000E+00 0.  1.
         12    1    5    5    0    0  0.19168962310E+01  0.32706468457E+02  0.41030858934E+02  0.52506370613E+02  0.00000000000E+00 0. -1.
         11    1    3    3    0    0 -0.46571673353E+01  0.85265378623E+01 -0.34381525843E+03  0.34395250106E+03  0.00000000000E+00 0. -1.
        -12    1    3    3    0    0  0.19497422842E+02 -0.93908318774E+01 -0.21377990646E+02  0.30419659842E+02  0.00000000000E+00 0.  1.
          5    1    4    4  501    0 -0.48765875140E+02  0.10158125992E+02  0.60098940920E+00  0.49991316147E+02  0.41800000000E+01 0.  1.
         -5    1    4    4    0  501  0.19402496753E+02 -0.85739629466E+02 -0.79864706095E+02  0.11884268855E+03  0.41800000000E+01 0.  1.
</event>
<event>
11    1  0.8974665E-009  0.1322395E+03  0.7561462E-02  0.1116548E+00
         22   -1    0    0    0    0  0.00000000000E+00  0.00000000000E+00  0.64678063824E+03  0.64678063824E+03  0.00000000000E+00 0.  1.
         22   -1    0    0    0    0 -0.00000000000E+00 -0.00000000000E+00 -0.55327326588E+03  0.55327326588E+03  0.00000000000E+00 0. -1.
         24    2    1    2    0    0 -0.40466381258E+02 -0.15701510414E+02 -0.45220691230E+03  0.46158287794E+03  0.81753264353E+02 0.  0.
         25    2    1    2    0    0  0.23696572576E+02  0.40561422629E+02 -0.47731188940E+02  0.14189111955E+03  0.12509223338E+03 0.  0.
        -24    2    1    2    0    0  0.16769808682E+02 -0.24859912214E+02  0.59344547360E+03  0.59657990663E+03  0.53205386348E+02 0.  0.
        -11    1    3    3    0    0 -0.28160723286E+01  0.14860100700E+01  0.30732891687E+01  0.44253356486E+01  0.00000000000E+00 0.  1.
         12    1    3    3    0    0 -0.37650308929E+02 -0.17187520484E+02 -0.45528020147E+03  0.45715754229E+03  0.00000000000E+00 0. -1.
         11    1    5    5    0    0 -0.56220239873E+01  0.13472217828E+01  0.68117493973E+01  0.89343209086E+01  0.00000000000E+00 0. -1.
        -12    1    5    5    0    0  0.22391832669E+02 -0.26207133997E+02  0.58663372420E+03  0.58764558572E+03  0.00000000000E+00 0.  1.
          5    1    4    4  501    0  0.64454113834E+02  0.33597101221E+02  0.70322609603E+01  0.73143852064E+02  0.41800000000E+01 0.  1.
         -5    1    4    4    0  501 -0.40757541257E+02  0.69643214077E+01 -0.54763449900E+02  0.68747267487E+02  0.41800000000E+01 0.  1.
</event>
<event>
11    1  0.8974665E-009  0.1402872E+03  0.7561462E-02  0.1107238E+00
         22   -1    0    0    0    0  0.00000000000E+00  0.00000000000E+00  0.34889216737E+03  0.34889216737E+03  0.00000000000E+00 0. -1.
         22   -1    0    0    0    0 -0.00000000000E+00 -0.00000000000E+00 -0.63101317107E+03  0.63101317107E+03  0.00000000000E+00 0.  1.
         24    2    1    2    0    0 -0.17835979832E+02 -0.61918474327E+02 -0.56709355455E+03  0.57647725161E+03  0.81110433197E+02 0.  0.
         25    2    1    2    0    0 -0.19952251791E+01  0.48771970494E+02  0.33330105584E+02  0.13835312320E+03  0.12509198509E+03 0.  0.
        -24    2    1    2    0    0  0.19831205011E+02  0.13146503833E+02  0.25164244526E+03  0.26507496364E+03  0.79841773739E+02 0.  0.
        -11    1    3    3    0    0 -0.51197151009E+01 -0.85170040438E+01 -0.40906628526E+03  0.40918697019E+03  0.00000000000E+00 0.  1.
         12    1    3    3    0    0 -0.12716264731E+02 -0.53401470284E+02 -0.15802726929E+03  0.16729028141E+03  0.00000000000E+00 0. -1.
         11    1    5    5    0    0  0.34102007859E+02 -0.82085330462E+01  0.22626651155E+03  0.22896912719E+03  0.00000000000E+00 0. -1.
        -12    1    5    5    0    0 -0.14270802847E+02  0.21355036880E+02  0.25375933711E+02  0.36105836450E+02  0.00000000000E+00 0.  1.
          5    1    4    4  501    0  0.50697681995E+02 -0.12950346922E+02  0.19067513242E+02  0.55848087758E+02  0.41800000000E+01 0.  1.
         -5    1    4    4    0  501 -0.52692907174E+02  0.61722317415E+02  0.14262592342E+02  0.82505035446E+02  0.41800000000E+01 0.  1.
</event>
<event>
11    1  0.8974665E-009  0.1359153E+03  0.7561462E-02  0.1112207E+00
         22   -1    0    0    0    0  0.00000000000E+00  0.00000000000E+00  0.45198195347E+03  0.45198195347E+03  0.00000000000E+00 0.  1.
         22   -1    0    0    0    0 -0.00000000000E+00 -0.00000000000E+00 -0.11515756795E+04  0.11515756795E+04  0.00000000000E+00 0. -1.
         24    2    1    2    0    0  0.49583173249E+01 -0.45701355888E+01 -0.10755456895E+04  0.10785522687E+04  0.80193485387E+02 0.  0.
         25    2    1    2    0    0  0.30978658815E+02 -0.35330232474E+02 -0.32741239281E+01  0.13366523596E+03  0.12509105799E+03 0.  0.
        -24    2    1    2    0    0 -0.35936976140E+02  0.39900368063E+02  0.37922608738E+03  0.39134012831E+03  0.80319144949E+02 0.  0.
        -11    1    3    3    0    0  0.29665644035E+02  0.15331815965E+02 -0.22999312621E+03  0.23240471837E+03  0.00000000000E+00 0.  1.
         12    1    3    3    0    0 -0.24707326711E+02 -0.19901951554E+02 -0.84555256324E+03  0.84614755029E+03  0.00000000000E+00 0. -1.
         13    1    5    5    0    0  0.24140740606E+02  0.68279737842E-01  0.11120413280E+03  0.11379428444E+03  0.00000000000E+00 0. -1.
        -14    1    5    5    0    0 -0.60077716746E+02  0.39832088325E+02  0.26802195459E+03  0.27754584387E+03  0.00000000000E+00 0.  1.
          5    1    4    4  501    0  0.22818229386E+02 -0.76716601450E+02 -0.27630449247E+02  0.84776309521E+02  0.41800000000E+01 0. -1.
         -5    1    4    4    0  501  0.81604294290E+01  0.41386368976E+02  0.24356325319E+02  0.48888926441E+02  0.41800000000E+01 0. -1.
</event>
<event>
11    1  0.8974665E-009  0.2503297E+03  0.7561462E-02  0.1023724E+00
         22   -1    0    0    0    0  0.00000000000E+00  0.00000000000E+00  0.14271580505E+04  0.14271580505E+04  0.00000000000E+00 0.  1.
         22   -1    0    0    0    0 -0.00000000000E+00 -0.00000000000E+00 -0.83559258610E+03  0.83559258610E+03  0.00000000000E+00 0.  1.
         24    2    1    2    0    0 -0.29697414133E+01  0.21569175623E+03 -0.58260420998E+03  0.62636428631E+03  0.79829822784E+02 0.  0.
         25    2    1    2    0    0 -0.51606113122E+02 -0.21969840769E+03 -0.15679881292E+03  0.30193315414E+03  0.12508869087E+03 0.  0.
        -24    2    1    2    0    0  0.54575854535E+02  0.40066514583E+01  0.13309684873E+04  0.13344531962E+04  0.79332473705E+02 0.  0.
        -11    1    3    3    0    0  0.18255895426E+02  0.19155219782E+03 -0.53807157602E+03  0.57144251078E+03  0.00000000000E+00 0.  1.
         12    1    3    3    0    0 -0.21225636839E+02  0.24139558412E+02 -0.44532633956E+02  0.54921775523E+02  0.00000000000E+00 0. -1.
         11    1    5    5    0    0 -0.18186147369E+02  0.47942769273E+01  0.48378276807E+03  0.48414820843E+03  0.00000000000E+00 0. -1.
        -12    1    5    5    0    0  0.72762001904E+02 -0.78762546892E+00  0.84718571924E+03  0.85030498773E+03  0.00000000000E+00 0.  1.
          5    1    4    4  501    0  0.27109501958E+02 -0.32457457537E+01 -0.15042833192E+02  0.31451855150E+02  0.41800000000E+01 0. -1.
         -5    1    4    4    0  501 -0.78715615080E+02 -0.21645266193E+03 -0.14175597973E+03  0.27048129899E+03  0.41800000000E+01 0. -1.
</event>
<event>
11    1  0.8974665E-009  0.2654759E+03  0.7561462E-02  0.1015963E+00
         22   -1    0    0    0    0  0.00000000000E+00  0.00000000000E+00  0.14619598394E+04  0.14619598394E+04  0.00000000000E+00 0.  1.
         22   -1    0    0    0    0 -0.00000000000E+00 -0.00000000000E+00 -0.66486609049E+03  0.66486609049E+03  0.00000000000E+00 0. -1.
         24    2    1    2    0    0  0.30636575837E+02  0.72746517648E+02 -0.35728353016E+03  0.37542541653E+03  0.84036104413E+02 0.  0.
         25    2    1    2    0    0 -0.25827579502E+03 -0.11993512325E+03 -0.20324699027E+03  0.37154764817E+03  0.12508995053E+03 0.  0.
        -24    2    1    2    0    0  0.22763921919E+03  0.47188605605E+02  0.13576242694E+04  0.13798528652E+04  0.82485721534E+02 0.  0.
        -13    1    3    3    0    0 -0.22981613285E+02 -0.15123580338E+01 -0.56783923113E+02  0.61276877369E+02  0.00000000000E+00 0.  1.
         14    1    3    3    0    0  0.53618189121E+02  0.74258875682E+02 -0.30049960705E+03  0.31414853916E+03  0.00000000000E+00 0. -1.
         13    1    5    5    0    0  0.37132289256E+02  0.36179949322E+02  0.40493656613E+03  0.40824186241E+03  0.00000000000E+00 0. -1.
        -14    1    5    5    0    0  0.19050692993E+03  0.11008656283E+02  0.95268770326E+03  0.97161100282E+03  0.00000000000E+00 0.  1.
          5    1    4    4  501    0 -0.62579724928E+02 -0.76616153368E+02 -0.22315478902E+02  0.10149733951E+03  0.41800000000E+01 0.  1.
         -5    1    4    4    0  501 -0.19569607010E+03 -0.43318969884E+02 -0.18093151137E+03  0.27005030866E+03  0.41800000000E+01 0.  1.
</event>
<event>
11    1  0.8974665E-009  0.1574551E+03  0.7561462E-02  0.1089496E+00
         22   -1    0    0    0    0  0.00000000000E+00  0.00000000000E+00  0.39986758646E+03  0.39986758646E+03  0.00000000000E+00 0.  1.
         22   -1    0    0    0    0 -0.00000000000E+00 -0.00000000000E+00 -0.11154650071E+04  0.11154650071E+04  0.00000000000E+00 0.  1.
        -24    2    1    2    0    0  0.84331072965E+02  0.30256949837E+02 -0.84108665434E+03  0.84962597253E+03  0.80064475342E+02 0.  0.
         25    2    1    2    0    0 -0.15970970822E+03  0.15173923494E+01 -0.22123558719E+03  0.30017063133E+03  0.12509088493E+03 0.  0.
         24    2    1    2    0    0  0.75378635254E+02 -0.31774342186E+02  0.34672482091E+03  0.36553598969E+03  0.81895731572E+02 0.  0.
        -11    1    5    5    0    0  0.27758240094E+02  0.53034188737E+01  0.24954615417E+03  0.25114125349E+03  0.00000000000E+00 0.  1.
         12    1    5    5    0    0  0.47620395160E+02 -0.37077761060E+02  0.97178666741E+02  0.11439473620E+03  0.00000000000E+00 0. -1.
         11    1    3    3    0    0  0.69947633599E+02  0.49095702766E+01 -0.31399131509E+03  0.32172553718E+03  0.00000000000E+00 0. -1.
        -12    1    3    3    0    0  0.14383439366E+02  0.25347379560E+02 -0.52709533925E+03  0.52790043535E+03  0.00000000000E+00 0.  1.
          5    1    4    4  501    0 -0.75231574955E+02 -0.44415032640E+02 -0.42670397663E+02  0.97317625492E+02  0.41800000000E+01 0.  1.
         -5    1    4    4    0  501 -0.84478133263E+02  0.45932424990E+02 -0.17856518953E+03  0.20285300584E+03  0.41800000000E+01 0.  1.
</event>
<event>
11    1  0.8974665E-009  0.1723908E+03  0.7561462E-02  0.1075970E+00
         22   -1    0    0    0    0  0.00000000000E+00  0.00000000000E+00  0.93395649543E+02  0.93395649543E+02  0.00000000000E+00 0.  1.
         22   -1    0    0    0    0 -0.00000000000E+00 -0.00000000000E+00 -0.16619478491E+04  0.16619478491E+04  0.00000000000E+00 0.  1.
        -24    2    1    2    0    0  0.15883533411E+02 -0.39679478272E+02 -0.12317674920E+04  0.12351492173E+04  0.80719806192E+02 0.  0.
         25    2    1    2    0    0 -0.36820869196E+02 -0.83248418492E+02 -0.33956765188E+03  0.37314836848E+03  0.12508972423E+03 0.  0.
         24    2    1    2    0    0  0.20937335785E+02  0.12292789676E+03  0.27829442677E+01  0.14704591288E+03  0.77878853890E+02 0.  0.
        -13    1    5    5    0    0  0.45392922624E+02  0.85041331352E+02  0.20574504449E+02  0.98569040250E+02  0.00000000000E+00 0.  1.
         14    1    5    5    0    0 -0.24455586838E+02  0.37886565412E+02 -0.17791560181E+02  0.48476872630E+02  0.00000000000E+00 0. -1.
         11    1    3    3    0    0 -0.23842799628E+02 -0.39609233802E+02 -0.44889374335E+03  0.45126817229E+03  0.00000000000E+00 0. -1.
        -12    1    3    3    0    0  0.39726333039E+02 -0.70244469855E-01 -0.78287374860E+03  0.78388104500E+03  0.00000000000E+00 0.  1.
          5    1    4    4  501    0 -0.74876964772E+02 -0.63393465718E+02 -0.29592300177E+03  0.31179029286E+03  0.41800000000E+01 0.  1.
         -5    1    4    4    0  501  0.38056095575E+02 -0.19854952774E+02 -0.43644650115E+02  0.61358075620E+02  0.41800000000E+01 0.  1.
</event>
<event>
11    1  0.8974665E-009  0.1299149E+03  0.7561462E-02  0.1119374E+00
         22   -1    0    0    0    0  0.00000000000E+00  0.00000000000E+00  0.50241779919E+02  0.50241779919E+02  0.00000000000E+00 0.  1.
         22   -1    0    0    0    0 -0.00000000000E+00 -0.00000000000E+00 -0.90447852984E+03  0.90447852984E+03  0.00000000000E+00 0.  1.
        -24    2    1    2    0    0  0.81439264394E+01  0.37617938985E+02 -0.58200816594E+03  0.58878666047E+03  0.80341729245E+02 0.  0.
         25    2    1    2    0    0  0.21159806572E+02 -0.22803998007E+02 -0.24190147373E+03  0.27408906407E+03  0.12506291342E+03 0.  0.
         24    2    1    2    0    0 -0.29303733012E+02 -0.14813940977E+02 -0.30327110246E+02  0.91844585209E+02  0.80234235839E+02 0.  0.
        -11    1    5    5    0    0 -0.44698532981E+02 -0.32389756630E+02 -0.21520350289E+01  0.55242071286E+02  0.00000000000E+00 0.  1.
         12    1    5    5    0    0  0.15394799970E+02  0.17575815653E+02 -0.28175075217E+02  0.36602513922E+02  0.00000000000E+00 0. -1.
         13    1    3    3    0    0  0.66324001012E+01  0.10792115402E+02 -0.99760745787E+01  0.16123912365E+02  0.00000000000E+00 0. -1.
        -14    1    3    3    0    0  0.15115263381E+01  0.26825823583E+02 -0.57203209136E+03  0.57266274811E+03  0.00000000000E+00 0.  1.
          5    1    4    4  501    0  0.72919336200E+02 -0.26731237669E+01 -0.13212208612E+03  0.15099037461E+03  0.41800000000E+01 0. -1.
         -5    1    4    4    0  501 -0.51759529628E+02 -0.20130874241E+02 -0.10977938761E+03  0.12309868947E+03  0.41800000000E+01 0. -1.
</event>
<event>
11    1  0.8974665E-009  0.1406396E+03  0.7561462E-02  0.1106846E+00
         22   -1    0    0    0    0  0.00000000000E+00  0.00000000000E+00  0.88211885267E+03  0.88211885267E+03  0.00000000000E+00 0. -1.
         22   -1    0    0    0    0 -0.00000000000E+00 -0.00000000000E+00 -0.11337198959E+03  0.11337198959E+03  0.00000000000E+00 0.  1.
        -24    2    1    2    0    0 -0.58200938627E+02 -0.17841269677E+02 -0.59992978191E+02  0.11788990085E+03  0.81198590689E+02 0.  0.
         25    2    1    2    0    0  0.91682125771E+02  0.44745104966E+02  0.29196955548E+03  0.33362119395E+03  0.12509653521E+03 0.  0.
         24    2    1    2    0    0 -0.33481187144E+02 -0.26903835289E+02  0.53677028579E+03  0.54397974746E+03  0.77115625462E+02 0.  0.
        -11    1    5    5    0    0  0.10578333062E+02  0.19979894385E+02  0.10203571625E+03  0.10451021338E+03  0.00000000000E+00 0.  1.
         12    1    5    5    0    0 -0.44059520205E+02 -0.46883729674E+02  0.43473456955E+03  0.43946953409E+03  0.00000000000E+00 0. -1.
         13    1    3    3    0    0 -0.68102465681E+01  0.82624470834E+01  0.17978960068E+02  0.20925833204E+02  0.00000000000E+00 0. -1.
        -14    1    3    3    0    0 -0.51390692059E+02 -0.26103716760E+02 -0.77971938260E+02  0.96964067649E+02  0.00000000000E+00 0.  1.
          5    1    4    4  501    0  0.58406422436E+02  0.88194992328E+02  0.20630213185E+03  0.23187865115E+03  0.41800000000E+01 0. -1.
         -5    1    4    4    0  501  0.33275703335E+02 -0.43449887362E+02  0.85667423628E+02  0.10174254280E+03  0.41800000000E+01 0. -1.
</event>
<event>
11    1  0.8974665E-009  0.1444702E+03  0.7561462E-02  0.1102667E+00
         22   -1    0    0    0    0  0.00000000000E+00  0.00000000000E+00  0.20597529205E+04  0.20597529205E+04  0.00000000000E+00 0. -1.
         22   -1    0    0    0    0 -0.00000000000E+00 -0.00000000000E+00 -0.36341513599E+03  0.36341513599E+03  0.00000000000E+00 0. -1.
         24    2    1    2    0    0  0.42879198406E+02  0.58910348495E+02 -0.33438554482E+03  0.35193163005E+03  0.82055620369E+02 0.  0.
         25    2    1    2    0    0  0.90924206008E+01 -0.72029537671E+02  0.25781970764E+03  0.29562014976E+03  0.12509734165E+03 0.  0.
        -24    2    1    2    0    0 -0.51971619007E+02  0.13119189177E+02  0.17729036217E+04  0.17756162766E+04  0.82175104867E+02 0.  0.
        -13    1    3    3    0    0  0.14874507352E+01  0.12723289095E+02 -0.10250354876E+01  0.12850886850E+02  0.00000000000E+00 0.  1.
         14    1    3    3    0    0  0.41391747671E+02  0.46187059400E+02 -0.33336050933E+03  0.33908074320E+03  0.00000000000E+00 0. -1.
         11    1    5    5    0    0 -0.10397945164E+02 -0.14657091666E+02  0.12911448730E+04  0.12912699295E+04  0.00000000000E+00 0. -1.
        -12    1    5    5    0    0 -0.41573673843E+02  0.27776280843E+02  0.48175874864E+03  0.48434634718E+03  0.00000000000E+00 0.  1.
          5    1    4    4  501    0  0.60259178848E+02 -0.68834727962E+02  0.14307919640E+03  0.16987794810E+03  0.41800000000E+01 0. -1.
         -5    1    4    4    0  501 -0.51166758247E+02 -0.31948097093E+01  0.11474051124E+03  0.12574220166E+03  0.41800000000E+01 0. -1.
</event>
<event>
11    1  0.8974665E-009  0.1299274E+03  0.7561462E-02  0.1119358E+00
         22   -1    0    0    0    0  0.00000000000E+00  0.00000000000E+00  0.32217286464E+03  0.32217286464E+03  0.00000000000E+00 0.  1.
         22   -1    0    0    0    0 -0.00000000000E+00 -0.00000000000E+00 -0.31988476587E+03  0.31988476587E+03  0.00000000000E+00 0. -1.
        -24    2    1    2    0    0 -0.26290782467E+02  0.75223495286E+01 -0.24643345407E+03  0.26059213794E+03  0.80193666133E+02 0.  0.
         25    2    1    2    0    0 -0.33366095577E+01 -0.29720044434E+02  0.12567973236E+02  0.12922957631E+03  0.12509162817E+03 0.  0.
         24    2    1    2    0    0  0.29627392024E+02  0.22197694905E+02  0.23615357961E+03  0.25223591625E+03  0.80522818321E+02 0.  0.
        -11    1    5    5    0    0  0.51321270453E+02  0.10333808170E+02  0.20923475731E+03  0.21568459393E+03  0.00000000000E+00 0.  1.
         12    1    5    5    0    0 -0.21693878429E+02  0.11863886735E+02  0.26918822293E+02  0.36551322321E+02  0.00000000000E+00 0. -1.
         11    1    3    3    0    0  0.20844947577E+02  0.24026468990E+02 -0.64327034565E+02  0.71761761598E+02  0.00000000000E+00 0. -1.
        -12    1    3    3    0    0 -0.47135730044E+02 -0.16504119462E+02 -0.18210641950E+03  0.18883037634E+03  0.00000000000E+00 0.  1.
          5    1    4    4  501    0  0.23991514253E+02  0.19832194855E+02  0.51566252869E+02  0.60377641092E+02  0.41800000000E+01 0.  1.
         -5    1    4    4    0  501 -0.27328123811E+02 -0.49552239288E+02 -0.38998279633E+02  0.68851935222E+02  0.41800000000E+01 0.  1.
</event>
<event>
11    1  0.8974665E-009  0.1403881E+03  0.7561462E-02  0.1107126E+00
         22   -1    0    0    0    0  0.00000000000E+00  0.00000000000E+00  0.24915030528E+03  0.24915030528E+03  0.00000000000E+00 0. -1.
         22   -1    0    0    0    0 -0.00000000000E+00 -0.00000000000E+00 -0.90439185602E+03  0.90439185602E+03  0.00000000000E+00 0. -1.
        -24    2    1    2    0    0  0.34269419933E+02  0.14869422408E+02 -0.82665486079E+03  0.83130626106E+03  0.79475455036E+02 0.  0.
         25    2    1    2    0    0 -0.26203288400E+02  0.52565928633E+02  0.27986629316E+02  0.14100645415E+03  0.12509907880E+03 0.  0.
         24    2    1    2    0    0 -0.80661315332E+01 -0.67435351040E+02  0.14342668074E+03  0.18122944608E+03  0.87523198831E+02 0.  0.
        -13    1    5    5    0    0  0.16034488096E+02 -0.22495835622E+02  0.12338253620E+03  0.12643740613E+03  0.00000000000E+00 0.  1.
         14    1    5    5    0    0 -0.24100619630E+02 -0.44939515419E+02  0.20044144535E+02  0.54792039958E+02  0.00000000000E+00 0. -1.
         11    1    3    3    0    0  0.28622997225E+02 -0.13686630764E+02 -0.72148753077E+03  0.72218478029E+03  0.00000000000E+00 0. -1.
        -12    1    3    3    0    0  0.56464227080E+01  0.28556053172E+02 -0.10516733002E+03  0.10912148077E+03  0.00000000000E+00 0.  1.
          5    1    4    4  501    0  0.41324327003E+02  0.52024030624E+02  0.30665874432E+02  0.73294392823E+02  0.41800000000E+01 0.  1.
         -5    1    4    4    0  501 -0.67527615402E+02  0.54189800847E+00 -0.26792451158E+01  0.67712061332E+02  0.41800000000E+01 0.  1.
</event>
<event>
11    1  0.8974665E-009  0.1440372E+03  0.7561462E-02  0.1103132E+00
         22   -1    0    0    0    0  0.00000000000E+00  0.00000000000E+00  0.14979551712E+03  0.14979551712E+03  0.00000000000E+00 0.  1.
         22   -1    0    0    0    0 -0.00000000000E+00 -0.00000000000E+00 -0.52796948605E+03  0.52796948605E+03  0.00000000000E+00 0.  1.
        -24    2    1    2    0    0  0.38832825563E+02  0.58567553622E+02 -0.42225068990E+03  0.43554022587E+03  0.80383434557E+02 0.  0.
         25    2    1    2    0    0 -0.58849577141E+02 -0.64848800171E+02  0.24316549267E+02  0.15462229911E+03  0.12509245062E+03 0.  0.
         24    2    1    2    0    0  0.20016751578E+02  0.62812465487E+01  0.19760171700E+02  0.87602478192E+02  0.82726086561E+02 0.  0.
        -13    1    5    5    0    0  0.49284732142E+02 -0.60553218500E+00  0.27653867312E+02  0.56516261986E+02  0.00000000000E+00 0.  1.
         14    1    5    5    0    0 -0.29267980564E+02  0.68867787337E+01 -0.78936956113E+01  0.31086216206E+02  0.00000000000E+00 0. -1.
         13    1    3    3    0    0  0.69343516920E+01  0.39078907329E+02 -0.63745642761E+02  0.75091632040E+02  0.00000000000E+00 0. -1.
        -14    1    3    3    0    0  0.31898473871E+02  0.19488646293E+02 -0.35850504714E+03  0.36044859383E+03  0.00000000000E+00 0.  1.
          5    1    4    4  501    0  0.18078774709E+02  0.78308993338E+01  0.42619234019E+02  0.47138483086E+02  0.41800000000E+01 0.  1.
         -5    1    4    4    0  501 -0.76928351850E+02 -0.72679699505E+02 -0.18302684751E+02  0.10748381603E+03  0.41800000000E+01 0.  1.
</event>
<event>
11    1  0.8974665E-009  0.1333649E+03  0.7561462E-02  0.1115202E+00
         22   -1    0    0    0    0  0.00000000000E+00  0.00000000000E+00  0.17749393792E+03  0.17749393792E+03  0.00000000000E+00 0.  1.
         22   -1    0    0    0    0 -0.00000000000E+00 -0.00000000000E+00 -0.92070467450E+03  0.92070467450E+03  0.00000000000E+00 0. -1.
         24    2    1    2    0    0 -0.71107562999E+02 -0.22018209060E+02 -0.51766023580E+03  0.52889461316E+03  0.78843547983E+02 0.  0.
         25    2    1    2    0    0  0.28114859157E+02  0.45303120520E+02 -0.36427957042E+03  0.38883161628E+03  0.12509037676E+03 0.  0.
        -24    2    1    2    0    0  0.42992703842E+02 -0.23284911460E+02  0.13872906964E+03  0.18047238298E+03  0.10456560894E+03 0.  0.
        -11    1    3    3    0    0  0.22035830899E+01  0.21132638445E+02 -0.67426978633E+02  0.70695414516E+02  0.00000000000E+00 0.  1.
         12    1    3    3    0    0 -0.73311146089E+02 -0.43150847504E+02 -0.45023325716E+03  0.45819919864E+03  0.00000000000E+00 0. -1.
         13    1    5    5    0    0  0.46616315738E+02 -0.57645592935E+02  0.63210518031E+02  0.97425175738E+02  0.00000000000E+00 0. -1.
        -14    1    5    5    0    0 -0.36236118958E+01  0.34360681475E+02  0.75518551607E+02  0.83047207246E+02  0.00000000000E+00 0.  1.
          5    1    4    4  501    0 -0.25917502723E+02  0.54133983701E+02 -0.29160194276E+03  0.29774380020E+03  0.41800000000E+01 0. -1.
         -5    1    4    4    0  501  0.54032361880E+02 -0.88308631810E+01 -0.72677627659E+02  0.91087816073E+02  0.41800000000E+01 0. -1.
</event>
<event>
11    1  0.8974665E-009  0.1598211E+03  0.7561462E-02  0.1087246E+00
         22   -1    0    0    0    0  0.00000000000E+00  0.00000000000E+00  0.10722384215E+04  0.10722384215E+04  0.00000000000E+00 0.  1.
         22   -1    0    0    0    0 -0.00000000000E+00 -0.00000000000E+00 -0.67142619894E+03  0.67142619894E+03  0.00000000000E+00 0. -1.
         24    2    1    2    0    0  0.32296203372E+02 -0.11217204053E+02 -0.64826276289E+03  0.65433610605E+03  0.82111263013E+02 0.  0.
         25    2    1    2    0    0  0.78140236337E+02  0.11416772192E+02  0.39980445321E+03  0.42629472322E+03  0.12508937210E+03 0.  0.
        -24    2    1    2    0    0 -0.11043643971E+03 -0.19956813938E+00  0.64927053218E+03  0.66303379113E+03  0.76585489332E+02 0.  0.
        -13    1    3    3    0    0  0.41308580576E+02  0.14820847405E+02 -0.18035757715E+03  0.18562034366E+03  0.00000000000E+00 0.  1.
         14    1    3    3    0    0 -0.90123772042E+01 -0.26038051458E+02 -0.46790518574E+03  0.46871576238E+03  0.00000000000E+00 0. -1.
         13    1    5    5    0    0 -0.76523013807E+02  0.11318863944E+02  0.23908908106E+03  0.25129161746E+03  0.00000000000E+00 0. -1.
        -14    1    5    5    0    0 -0.33913425902E+02 -0.11518432084E+02  0.41018145112E+03  0.41174217367E+03  0.00000000000E+00 0.  1.
          5    1    4    4  501    0 -0.77682483756E+01  0.43971354335E+02  0.21786728852E+03  0.22243527933E+03  0.41800000000E+01 0. -1.
         -5    1    4    4    0  501  0.85908484713E+02 -0.32554582143E+02  0.18193716469E+03  0.20385944388E+03  0.41800000000E+01 0. -1.
</event>
<event>
11    1  0.8974665E-009  0.1434674E+03  0.7561462E-02  0.1103747E+00
         22   -1    0    0    0    0  0.00000000000E+00  0.00000000000E+00  0.98447791009E+02  0.98447791009E+02  0.00000000000E+00 0.  1.
         22   -1    0    0    0    0 -0.00000000000E+00 -0.00000000000E+00 -0.65006503269E+03  0.65006503269E+03  0.00000000000E+00 0.  1.
        -24    2    1    2    0    0  0.35279166587E+01  0.10608800292E+02 -0.45663422236E+03  0.46386124477E+03  0.80792626716E+02 0.  0.
         25    2    1    2    0    0 -0.36630447854E+02  0.53779672505E+02 -0.10010868912E+03  0.17293115588E+03  0.12509753056E+03 0.  0.
         24    2    1    2    0    0  0.33102531196E+02 -0.64388472796E+02  0.51256697962E+01  0.11172042305E+03  0.84932487510E+02 0.  0.
        -13    1    5    5    0    0  0.54836783246E+02 -0.45185099424E+02  0.26348025837E+02  0.75782481302E+02  0.00000000000E+00 0.  1.
         14    1    5    5    0    0 -0.21734252051E+02 -0.19203373372E+02 -0.21222356040E+02  0.35937941747E+02  0.00000000000E+00 0. -1.
         11    1    3    3    0    0  0.23408985956E+02  0.25261906574E+02 -0.89509190359E+02  0.95906411183E+02  0.00000000000E+00 0. -1.
        -12    1    3    3    0    0 -0.19881069297E+02 -0.14653106282E+02 -0.36712503200E+03  0.36795483359E+03  0.00000000000E+00 0.  1.
          5    1    4    4  501    0 -0.60579869482E+01 -0.40373094478E+02 -0.20741945752E+02  0.45982460539E+02  0.41800000000E+01 0. -1.
         -5    1    4    4    0  501 -0.30572460906E+02  0.94152766983E+02 -0.79366743366E+02  0.12694869534E+03  0.41800000000E+01 0. -1.
</event>
<event>
11    1  0.8974665E-009  0.2384429E+03  0.7561462E-02  0.1030242E+00
         22   -1    0    0    0    0  0.00000000000E+00  0.00000000000E+00  0.88244566035E+03  0.88244566035E+03  0.00000000000E+00 0.  1.
         22   -1    0    0    0    0 -0.00000000000E+00 -0.00000000000E+00 -0.13360848509E+03  0.13360848509E+03  0.00000000000E+00 0. -1.
         24    2    1    2    0    0 -0.30714743401E+02 -0.44257036975E+01 -0.41734402852E+02  0.94606359639E+02  0.79029238813E+02 0.  0.
         25    2    1    2    0    0 -0.18964360795E+03  0.24417385747E+02  0.48138093998E+03  0.53285703523E+03  0.12509238128E+03 0.  0.
        -24    2    1    2    0    0  0.22035835135E+03 -0.19991682050E+02  0.30919063813E+03  0.38859075057E+03  0.80289789885E+02 0.  0.
        -11    1    3    3    0    0 -0.46098834388E+02 -0.14908087341E+02  0.49909338085E+00  0.48452065945E+02  0.00000000000E+00 0.  1.
         12    1    3    3    0    0  0.15384090987E+02  0.10482383643E+02 -0.42233496233E+02  0.46154293694E+02  0.00000000000E+00 0. -1.
         11    1    5    5    0    0  0.64500797085E+02 -0.20261660942E+02  0.42987554606E+02  0.80117523550E+02  0.00000000000E+00 0. -1.
        -12    1    5    5    0    0  0.15585755427E+03  0.26997889231E+00  0.26620308353E+03  0.30847322702E+03  0.00000000000E+00 0.  1.
          5    1    4    4  501    0 -0.32637918214E+02  0.45089982059E+02  0.22213672809E+03  0.22904265663E+03  0.41800000000E+01 0.  1.
         -5    1    4    4    0  501 -0.15700568974E+03 -0.20672596312E+02  0.25924421188E+03  0.30381437860E+03  0.41800000000E+01 0.  1.
</event>
<event>
11    1  0.8974665E-009  0.1292571E+03  0.7561462E-02  0.1120185E+00
         22   -1    0    0    0    0  0.00000000000E+00  0.00000000000E+00  0.22788384722E+04  0.22788384722E+04  0.00000000000E+00 0. -1.
         22   -1    0    0    0    0 -0.00000000000E+00 -0.00000000000E+00 -0.49361305650E+02  0.49361305650E+02  0.00000000000E+00 0. -1.
         24    2    1    2    0    0  0.30263328710E+02  0.47092877455E+01  0.13175338869E+03  0.15613353201E+03  0.77978701782E+02 0.  0.
         25    2    1    2    0    0 -0.37800584156E+02 -0.36067327105E+02  0.90503456109E+02  0.16299885212E+03  0.12509202205E+03 0.  0.
        -24    2    1    2    0    0  0.75372554463E+01  0.31358039359E+02  0.20072203217E+04  0.20090673937E+04  0.79863856525E+02 0.  0.
        -13    1    3    3    0    0  0.35028078073E+01 -0.14150456818E+02  0.12070329097E+03  0.12158038304E+03  0.00000000000E+00 0.  1.
         14    1    3    3    0    0  0.26760520902E+02  0.18859744563E+02  0.11050097722E+02  0.34553148968E+02  0.00000000000E+00 0. -1.
         13    1    5    5    0    0  0.11635970579E+02 -0.32483013703E+01  0.16714275939E+04  0.16714712528E+04  0.00000000000E+00 0. -1.
        -14    1    5    5    0    0 -0.40987151329E+01  0.34606340730E+02  0.33579272782E+03  0.33759614088E+03  0.00000000000E+00 0.  1.
          5    1    4    4  501    0 -0.20632339262E+02  0.36166657660E+02  0.76687907540E+02  0.87362624231E+02  0.41800000000E+01 0. -1.
         -5    1    4    4    0  501 -0.17168244894E+02 -0.72233984764E+02  0.13815548568E+02  0.75636227893E+02  0.41800000000E+01 0. -1.
</event>
<event>
11    1  0.8974665E-009  0.1504506E+03  0.7561462E-02  0.1096419E+00
         22   -1    0    0    0    0  0.00000000000E+00  0.00000000000E+00  0.20475561981E+03  0.20475561981E+03  0.00000000000E+00 0. -1.
         22   -1    0    0    0    0 -0.00000000000E+00 -0.00000000000E+00 -0.27585050067E+03  0.27585050067E+03  0.00000000000E+00 0.  1.
        -24    2    1    2    0    0  0.73413765140E+02  0.43842269822E+02 -0.15846019571E+03  0.19841730472E+03  0.83355069750E+02 0.  0.
         25    2    1    2    0    0 -0.40407657312E+02 -0.72061367081E+02  0.56475952499E+02  0.16019481370E+03  0.12508887134E+03 0.  0.
         24    2    1    2    0    0 -0.33006107828E+02  0.28219097259E+02  0.30889362352E+02  0.12199400206E+03  0.10973906883E+03 0.  0.
        -13    1    5    5    0    0 -0.21369360443E+02  0.66340577010E+02 -0.28756936166E+01  0.69756658016E+02  0.00000000000E+00 0.  1.
         14    1    5    5    0    0 -0.11636747385E+02 -0.38121479752E+02  0.33765055969E+02  0.52237344044E+02  0.00000000000E+00 0. -1.
         11    1    3    3    0    0 -0.14169713124E+02  0.84269188909E+01 -0.58918308319E+02  0.61181376146E+02  0.00000000000E+00 0. -1.
        -12    1    3    3    0    0  0.87583478263E+02  0.35415350931E+02 -0.99541887393E+02  0.13723592858E+03  0.00000000000E+00 0.  1.
          5    1    4    4  501    0 -0.68139245246E+02 -0.83154081540E+01  0.58846137520E+02  0.90512115523E+02  0.41800000000E+01 0. -1.
         -5    1    4    4    0  501  0.27731587934E+02 -0.63745958927E+02 -0.23701850212E+01  0.69682698181E+02  0.41800000000E+01 0. -1.
</event>
<event>
11    1  0.8974665E-009  0.1747451E+03  0.7561462E-02  0.1073975E+00
         22   -1    0    0    0    0  0.00000000000E+00  0.00000000000E+00  0.70195478039E+03  0.70195478039E+03  0.00000000000E+00 0.  1.
         22   -1    0    0    0    0 -0.00000000000E+00 -0.00000000000E+00 -0.82885296220E+02  0.82885296220E+02  0.00000000000E+00 0.  1.
         24    2    1    2    0    0  0.82460047053E+02 -0.99412092516E+02  0.11961737382E+03  0.19282705547E+03  0.78686299343E+02 0.  0.
         25    2    1    2    0    0 -0.65661893331E+02  0.93615683828E+02  0.13040520743E+03  0.21384399589E+03  0.12509338895E+03 0.  0.
        -24    2    1    2    0    0 -0.16798153722E+02  0.57964086880E+01  0.36904690292E+03  0.37816902524E+03  0.80625174598E+02 0.  0.
        -13    1    3    3    0    0  0.97463951004E+02 -0.93247209520E+02  0.10921103117E+03  0.17355492836E+03  0.00000000000E+00 0.  1.
         14    1    3    3    0    0 -0.15003903951E+02 -0.61648829962E+01  0.10406342649E+02  0.19272127113E+02  0.00000000000E+00 0. -1.
         13    1    5    5    0    0 -0.11609185512E+02 -0.36975660378E+02  0.15005849004E+03  0.15498233151E+03  0.00000000000E+00 0. -1.
        -14    1    5    5    0    0 -0.51889682099E+01  0.42772069066E+02  0.21898841288E+03  0.22318669373E+03  0.00000000000E+00 0.  1.
          5    1    4    4  501    0  0.32768560405E+02  0.53279866726E+02  0.41910973903E+02  0.75409050404E+02  0.41800000000E+01 0. -1.
         -5    1    4    4    0  501 -0.98430453737E+02  0.40335817102E+02  0.88494233525E+02  0.13843494548E+03  0.41800000000E+01 0. -1.
</event>
<event>
11    1  0.8974665E-009  0.2176010E+03  0.7561462E-02  0.1042731E+00
         22   -1    0    0    0    0  0.00000000000E+00  0.00000000000E+00  0.63218384614E+03  0.63218384614E+03  0.00000000000E+00 0. -1.
         22   -1    0    0    0    0 -0.00000000000E+00 -0.00000000000E+00 -0.72344671678E+03  0.72344671678E+03  0.00000000000E+00 0.  1.
         24    2    1    2    0    0  0.75674957150E+02 -0.39765292315E+02 -0.60154899833E+03  0.61256589433E+03  0.77896083951E+02 0.  0.
         25    2    1    2    0    0 -0.71355298062E+02  0.21100178159E+03  0.71181093587E+02  0.26519417423E+03  0.12509145281E+03 0.  0.
        -24    2    1    2    0    0 -0.43196590877E+01 -0.17123648927E+03  0.43910503411E+03  0.47787049436E+03  0.78780604791E+02 0.  0.
        -13    1    3    3    0    0  0.36874797878E+02 -0.60421000864E+02 -0.33262604320E+03  0.34007430464E+03  0.00000000000E+00 0.  1.
         14    1    3    3    0    0  0.38800159272E+02  0.20655708549E+02 -0.26892295513E+03  0.27249158969E+03  0.00000000000E+00 0. -1.
         13    1    5    5    0    0  0.15024165435E+01 -0.16277828012E+03  0.43832043065E+03  0.46757226785E+03  0.00000000000E+00 0. -1.
        -14    1    5    5    0    0 -0.58220756313E+01 -0.84582091542E+01  0.78460345458E+00  0.10298226514E+02  0.00000000000E+00 0.  1.
          5    1    4    4  501    0 -0.23083802082E+02  0.30577815170E+02 -0.33485624566E+02  0.51055108968E+02  0.41800000000E+01 0. -1.
         -5    1    4    4    0  501 -0.48271495981E+02  0.18042396642E+03  0.10466671815E+03  0.21413906526E+03  0.41800000000E+01 0. -1.
</event>
<event>
11    1  0.8974665E-009  0.1436672E+03  0.7561462E-02  0.1103531E+00
         22   -1    0    0    0    0  0.00000000000E+00  0.00000000000E+00  0.40748870833E+02  0.40748870833E+02  0.00000000000E+00 0. -1.
         22   -1    0    0    0    0 -0.00000000000E+00 -0.00000000000E+00 -0.25308211035E+04  0.25308211035E+04  0.00000000000E+00 0. -1.
        -24    2    1    2    0    0 -0.60423278674E+02 -0.32958309820E+02 -0.19674195868E+04  0.19702703980E+04  0.80550530231E+02 0.  0.
         25    2    1    2    0    0  0.94280353581E+02  0.64107518092E+01 -0.47185001088E+03  0.49721206528E+03  0.12509005666E+03 0.  0.
         24    2    1    2    0    0 -0.33857074906E+02  0.26547558011E+02 -0.50802634993E+02  0.10408751107E+03  0.80013923039E+02 0.  0.
        -13    1    5    5    0    0  0.17237270547E+02 -0.23265019179E+01 -0.41064837344E+02  0.44596602709E+02  0.00000000000E+00 0.  1.
         14    1    5    5    0    0 -0.51094345453E+02  0.28874059929E+02 -0.97377976487E+01  0.59490908357E+02  0.00000000000E+00 0. -1.
         11    1    3    3    0    0 -0.67392062551E+02 -0.26188781055E+02 -0.19367427897E+04  0.19380918904E+04  0.00000000000E+00 0. -1.
        -12    1    3    3    0    0  0.69687838762E+01 -0.67695287651E+01 -0.30676797148E+02  0.32178507604E+02  0.00000000000E+00 0.  1.
          5    1    4    4  501    0  0.85154446519E+02 -0.10980844861E+02 -0.13683391360E+03  0.16159471225E+03  0.41800000000E+01 0.  1.
         -5    1    4    4    0  501  0.91259070621E+01  0.17391596671E+02 -0.33501609728E+03  0.33561735302E+03  0.41800000000E+01 0.  1.
</event>
<event>
11    1  0.8974665E-009  0.1351958E+03  0.7561462E-02  0.1113045E+00
         22   -1    0    0    0    0  0.00000000000E+00  0.00000000000E+00  0.30089966241E+04  0.30089966241E+04  0.00000000000E+00 0.  1.
         22   -1    0    0    0    0 -0.00000000000E+00 -0.00000000000E+00 -0.10637382300E+03  0.10637382300E+03  0.00000000000E+00 0.  1.
         24    2    1    2    0    0  0.49691697521E+02  0.30967297523E+01 -0.69615260969E+02  0.11708235422E+03  0.79894546569E+02 0.  0.
         25    2    1    2    0    0 -0.78615063434E+02 -0.23062647335E+02  0.44300846069E+03  0.46756409842E+03  0.12508987163E+03 0.  0.
        -24    2    1    2    0    0  0.28923365913E+02  0.19965917583E+02  0.25292296014E+04  0.25307239945E+04  0.79538423023E+02 0.  0.
        -11    1    3    3    0    0  0.57652882348E+02 -0.65546132411E+01 -0.81353978752E+02  0.99926411206E+02  0.00000000000E+00 0.  1.
         12    1    3    3    0    0 -0.79611848268E+01  0.96513429934E+01  0.11738717783E+02  0.17155943011E+02  0.00000000000E+00 0. -1.
         11    1    5    5    0    0  0.28673757566E+02 -0.20436741301E+02  0.18227036445E+04  0.18230437242E+04  0.00000000000E+00 0. -1.
        -12    1    5    5    0    0  0.24960834736E+00  0.40402658884E+02  0.70652595694E+03  0.70768027031E+03  0.00000000000E+00 0.  1.
          5    1    4    4  501    0 -0.87833028970E+02 -0.62715152983E+02  0.30175067982E+03  0.32049770134E+03  0.41800000000E+01 0.  1.
         -5    1    4    4    0  501  0.92179655356E+01  0.39652505648E+02  0.14125778087E+03  0.14706639708E+03  0.41800000000E+01 0.  1.
</event>
<event>
11    1  0.8974665E-009  0.1449896E+03  0.7561462E-02  0.1102111E+00
         22   -1    0    0    0    0  0.00000000000E+00  0.00000000000E+00  0.10330818630E+04  0.10330818630E+04  0.00000000000E+00 0.  1.
         22   -1    0    0    0    0 -0.00000000000E+00 -0.00000000000E+00 -0.62120589692E+03  0.62120589692E+03  0.00000000000E+00 0. -1.
        -24    2    1    2    0    0  0.50035489238E+02 -0.21001305135E+02 -0.47959658407E+03  0.48943714586E+03  0.81186398470E+02 0.  0.
         25    2    1    2    0    0 -0.43820022544E+02 -0.52606301476E+02 -0.95700813791E+02  0.17172925741E+03  0.12507867427E+03 0.  0.
         24    2    1    2    0    0 -0.62154666938E+01  0.73607606611E+02  0.98717336398E+03  0.99312135669E+03  0.79511425509E+02 0.  0.
        -11    1    5    5    0    0 -0.41705764522E+01  0.75568736560E+02  0.98738388314E+03  0.99028024334E+03  0.00000000000E+00 0.  1.
         12    1    5    5    0    0 -0.20448902416E+01 -0.19611299491E+01 -0.21051916180E+00  0.28411133548E+01  0.00000000000E+00 0. -1.
         11    1    3    3    0    0  0.34849781535E+02 -0.75077149495E+01 -0.45943484622E+03  0.46081585365E+03  0.00000000000E+00 0. -1.
        -12    1    3    3    0    0  0.15185707703E+02 -0.13493590185E+02 -0.20161737849E+02  0.28621292208E+02  0.00000000000E+00 0.  1.
          5    1    4    4  501    0  0.42266004499E+02 -0.31604097630E+02 -0.26391590014E+02  0.59154226787E+02  0.41800000000E+01 0.  1.
         -5    1    4    4    0  501 -0.86086027043E+02 -0.21002203846E+02 -0.69309223777E+02  0.11257503062E+03  0.41800000000E+01 0.  1.
</event>
<event>
11    1  0.8974665E-009  0.1843986E+03  0.7561462E-02  0.1066139E+00
         22   -1    0    0    0    0  0.00000000000E+00  0.00000000000E+00  0.94327740550E+03  0.94327740550E+03  0.00000000000E+00 0.  1.
         22   -1    0    0    0    0 -0.00000000000E+00 -0.00000000000E+00 -0.12825308751E+04  0.12825308751E+04  0.00000000000E+00 0.  1.
         24    2    1    2    0    0 -0.12322560225E+03  0.57678745941E+02 -0.12244658482E+04  0.12346318743E+04  0.80547283353E+02 0.  0.
         25    2    1    2    0    0  0.11532353027E+03 -0.33756387872E+02  0.97171486623E+02  0.19881744927E+03  0.12508824871E+03 0.  0.
        -24    2    1    2    0    0  0.79020719769E+01 -0.23922358069E+02  0.78804089191E+03  0.79235895709E+03  0.78673677928E+02 0.  0.
        -13    1    3    3    0    0 -0.40656545665E+02  0.17460623366E+02 -0.75328450327E+03  0.75458291191E+03  0.00000000000E+00 0.  1.
         14    1    3    3    0    0 -0.82569056584E+02  0.40218122575E+02 -0.47118134489E+03  0.48004896235E+03  0.00000000000E+00 0. -1.
         11    1    5    5    0    0  0.22024015179E-01  0.29041698511E+02  0.28557018681E+03  0.28704311929E+03  0.00000000000E+00 0. -1.
        -12    1    5    5    0    0  0.78800479617E+01 -0.52964056580E+02  0.50247070509E+03  0.50531583779E+03  0.00000000000E+00 0.  1.
          5    1    4    4  501    0 -0.13095103833E+02 -0.28666592234E+02  0.54934910470E+02  0.63471033102E+02  0.41800000000E+01 0. -1.
         -5    1    4    4    0  501  0.12841863411E+03 -0.50897956377E+01  0.42236576153E+02  0.13534641617E+03  0.41800000000E+01 0. -1.
</event>
<event>
11    1  0.8974665E-009  0.3707681E+03  0.7561462E-02  0.9740177E-01
         22   -1    0    0    0    0  0.00000000000E+00  0.00000000000E+00  0.87924842307E+03  0.87924842307E+03  0.00000000000E+00 0. -1.
         22   -1    0    0    0    0 -0.00000000000E+00 -0.00000000000E+00 -0.34092888779E+04  0.34092888779E+04  0.00000000000E+00 0. -1.
        -24    2    1    2    0    0  0.18492417843E+03  0.30614625204E+03 -0.29109289710E+04  0.29338922378E+04  0.79332902764E+02 0.  0.
         25    2    1    2    0    0 -0.13730511330E+03 -0.27473446866E+03 -0.42698899338E+03  0.54064667733E+03  0.12508999494E+03 0.  0.
         24    2    1    2    0    0 -0.47619065133E+02 -0.31411783389E+02  0.80787750956E+03  0.81399838582E+03  0.81688592637E+02 0.  0.
        -13    1    5    5    0    0  0.12368979196E+02  0.14402149399E+02  0.80192203764E+02  0.82408756198E+02  0.00000000000E+00 0.  1.
         14    1    5    5    0    0 -0.59988044329E+02 -0.45813932788E+02  0.72768530579E+03  0.73158962962E+03  0.00000000000E+00 0. -1.
         13    1    3    3    0    0  0.19132157455E+03  0.28009327838E+03 -0.26628743267E+04  0.26843911543E+04  0.00000000000E+00 0. -1.
        -14    1    3    3    0    0 -0.63973961192E+01  0.26052973668E+02 -0.24805464430E+03  0.24950108351E+03  0.00000000000E+00 0.  1.
          5    1    4    4  501    0  0.10630830308E+02 -0.40417973842E+02 -0.11964164757E+03  0.12679993453E+03  0.41800000000E+01 0.  1.
         -5    1    4    4    0  501 -0.14793594361E+03 -0.23431649481E+03 -0.30734734580E+03  0.41384674280E+03  0.41800000000E+01 0.  1.
</event>
<event>
11    1  0.8974665E-009  0.1373284E+03  0.7561462E-02  0.1110579E+00
         22   -1    0    0    0    0  0.00000000000E+00  0.00000000000E+00  0.82738616841E+03  0.82738616841E+03  0.00000000000E+00 0. -1.
         22   -1    0    0    0    0 -0.00000000000E+00 -0.00000000000E+00 -0.13613838614E+04  0.13613838614E+04  0.00000000000E+00 0. -1.
        -24    2    1    2    0    0 -0.25627219255E+02  0.43468958852E+02 -0.13363270508E+04  0.13396892978E+04  0.80318882817E+02 0.  0.
         25    2    1    2    0    0 -0.22337717623E+02  0.17029527927E+01  0.19449182322E+03  0.23232055603E+03  0.12507556827E+03 0.  0.
         24    2    1    2    0    0  0.47964936878E+02 -0.45171911644E+02  0.60783753464E+03  0.61676017602E+03  0.81151151763E+02 0.  0.
        -11    1    5    5    0    0  0.13451874001E+01  0.95624880789E+01  0.77529089503E+01  0.12383792012E+02  0.00000000000E+00 0.  1.
         12    1    5    5    0    0  0.46619749478E+02 -0.54734399723E+02  0.60008462569E+03  0.60437638401E+03  0.00000000000E+00 0. -1.
         11    1    3    3    0    0 -0.40636018460E+02  0.27956313551E+02 -0.12396962557E+04  0.12406770925E+04  0.00000000000E+00 0. -1.
        -12    1    3    3    0    0  0.15008799205E+02  0.15512645301E+02 -0.96630795161E+02  0.99012205264E+02  0.00000000000E+00 0.  1.
          5    1    4    4  501    0  0.30327791215E+01  0.76833655478E+01  0.20403858513E+03  0.20424849688E+03  0.41800000000E+01 0. -1.
         -5    1    4    4    0  501 -0.25370496745E+02 -0.59804127552E+01 -0.95467619138E+01  0.28072059149E+02  0.41800000000E+01 0. -1.
</event>
<event>
11    1  0.8974665E-009  0.1938855E+03  0.7561462E-02  0.1058934E+00
         22   -1    0    0    0    0  0.00000000000E+00  0.00000000000E+00  0.26061822557E+03  0.26061822557E+03  0.00000000000E+00 0. -1.
         22   -1    0    0    0    0 -0.00000000000E+00 -0.00000000000E+00 -0.32149116187E+03  0.32149116187E+03  0.00000000000E+00 0.  1.
        -24    2    1    2    0    0 -0.16653538958E+03 -0.41289265446E+02 -0.17742410338E+03  0.25944270036E+03  0.79952253796E+02 0.  0.
         25    2    1    2    0    0  0.53966763322E+02  0.38008404428E+02  0.11763565043E+03  0.18396287245E+03  0.12508853599E+03 0.  0.
         24    2    1    2    0    0  0.11256862626E+03  0.32808610179E+01 -0.10844833569E+01  0.13870381463E+03  0.80963648768E+02 0.  0.
        -13    1    5    5    0    0  0.23727798337E+02  0.32088030438E+02 -0.18017270917E+02  0.43786666493E+02  0.00000000000E+00 0.  1.
         14    1    5    5    0    0  0.88840827923E+02 -0.28807169420E+02  0.16932787560E+02  0.94917148137E+02  0.00000000000E+00 0. -1.
         11    1    3    3    0    0 -0.78208815627E+02 -0.57237146390E+02 -0.70526680674E+02  0.11986126337E+03  0.00000000000E+00 0. -1.
        -12    1    3    3    0    0 -0.88326573955E+02  0.15947880944E+02 -0.10689742270E+03  0.13958143699E+03  0.00000000000E+00 0.  1.
          5    1    4    4  501    0  0.69978692793E+02 -0.14839142654E+01  0.12221290623E+03  0.14089956102E+03  0.41800000000E+01 0. -1.
         -5    1    4    4    0  501 -0.16011929470E+02  0.39492318694E+02 -0.45772557929E+01  0.43063311435E+02  0.41800000000E+01 0. -1.
</event>
<event>
11    1  0.8974665E-009  0.1583060E+03  0.7561462E-02  0.1088681E+00
         22   -1    0    0    0    0  0.00000000000E+00  0.00000000000E+00  0.16946117232E+03  0.16946117232E+03  0.00000000000E+00 0.  1.
         22   -1    0    0    0    0 -0.00000000000E+00 -0.00000000000E+00 -0.66079322112E+03  0.66079322112E+03  0.00000000000E+00 0.  1.
         24    2    1    2    0    0 -0.68329745086E+02 -0.27837936377E+02 -0.47722239865E+03  0.48985861062E+03  0.82318502547E+02 0.  0.
         25    2    1    2    0    0 -0.40101374888E+02 -0.60581407513E+00 -0.10999081554E+03  0.17133242878E+03  0.12509330265E+03 0.  0.
        -24    2    1    2    0    0  0.10843111997E+03  0.28443750452E+02  0.95881165382E+02  0.16906335405E+03  0.82600636128E+02 0.  0.
        -11    1    3    3    0    0 -0.40843348614E+02 -0.12321516671E+02 -0.43528431927E+03  0.43736990923E+03  0.00000000000E+00 0.  1.
         12    1    3    3    0    0 -0.27486396472E+02 -0.15516419706E+02 -0.41938079379E+02  0.52488701389E+02  0.00000000000E+00 0. -1.
         13    1    5    5    0    0  0.64320897210E+01  0.18387386256E+02 -0.98326981717E+01  0.21820854814E+02  0.00000000000E+00 0. -1.
        -14    1    5    5    0    0  0.10199903025E+03  0.10056364196E+02  0.10571386355E+03  0.14724249923E+03  0.00000000000E+00 0.  1.
          5    1    4    4  501    0 -0.12803949224E+02  0.57170125969E+02 -0.22471018383E+02  0.62887069308E+02  0.41800000000E+01 0. -1.
         -5    1    4    4    0  501 -0.27297425664E+02 -0.57775940044E+02 -0.87519797157E+02  0.10844535947E+03  0.41800000000E+01 0. -1.
</event>
<event>
11    1  0.8974665E-009  0.1494974E+03  0.7561462E-02  0.1097393E+00
         22   -1    0    0    0    0  0.00000000000E+00  0.00000000000E+00  0.11447995152E+04  0.11447995152E+04  0.00000000000E+00 0. -1.
         22   -1    0    0    0    0 -0.00000000000E+00 -0.00000000000E+00 -0.33552654500E+03  0.33552654500E+03  0.00000000000E+00 0.  1.
         24    2    1    2    0    0  0.82844384020E+02 -0.26367272223E+02 -0.26228272350E+03  0.28837753911E+03  0.82528498142E+02 0.  0.
         25    2    1    2    0    0 -0.56597143861E+02 -0.16333593587E+02  0.24264791958E+02  0.14037757062E+03  0.12508820581E+03 0.  0.
        -24    2    1    2    0    0 -0.26247240160E+02  0.42700865810E+02  0.10472909018E+04  0.10515709505E+04  0.80442211728E+02 0.  0.
        -13    1    3    3    0    0  0.78478145045E+02  0.59760048545E+01 -0.22727171498E+03  0.24051395866E+03  0.00000000000E+00 0.  1.
         14    1    3    3    0    0  0.43662389749E+01 -0.32343277078E+02 -0.35011008528E+02  0.47863580445E+02  0.00000000000E+00 0. -1.
         13    1    5    5    0    0 -0.34076573432E+02  0.63062505562E+02  0.86877331323E+03  0.87172539383E+03  0.00000000000E+00 0. -1.
        -14    1    5    5    0    0  0.78293332723E+01 -0.20361639752E+02  0.17851758853E+03  0.17984555665E+03  0.00000000000E+00 0.  1.
          5    1    4    4  501    0 -0.48040112485E+02  0.40801723497E+02  0.46390444449E+02  0.78372053591E+02  0.41800000000E+01 0. -1.
         -5    1    4    4    0  501 -0.85570313756E+01 -0.57135317084E+02 -0.22125652491E+02  0.62005517032E+02  0.41800000000E+01 0. -1.
</event>
<event>
11    1  0.8974665E-009  0.3379773E+03  0.7561462E-02  0.9852872E-01
         22   -1    0    0    0    0  0.00000000000E+00  0.00000000000E+00  0.10612021943E+04  0.10612021943E+04  0.00000000000E+00 0. -1.
         22   -1    0    0    0    0 -0.00000000000E+00 -0.00000000000E+00 -0.13315812144E+04  0.13315812144E+04  0.00000000000E+00 0. -1.
         24    2    1    2    0    0  0.29598097076E+02 -0.10496646351E+03 -0.97826631679E+03  0.98760839240E+03  0.80444666514E+02 0.  0.
         25    2    1    2    0    0  0.12884378677E+03 -0.17578059602E+03 -0.27178764321E+03  0.37016313573E+03  0.12511068989E+03 0.  0.
        -24    2    1    2    0    0 -0.15844188384E+03  0.28074705952E+03  0.97967493984E+03  0.10350118806E+04  0.86970473107E+02 0.  0.
        -11    1    3    3    0    0  0.38504240986E+02 -0.66968911877E+02 -0.36416168200E+03  0.37226488200E+03  0.00000000000E+00 0.  1.
         12    1    3    3    0    0 -0.89061439102E+01 -0.37997551631E+02 -0.61410463478E+03  0.61534351040E+03  0.00000000000E+00 0. -1.
         13    1    5    5    0    0 -0.12517654322E+03  0.26664672506E+03  0.91058978776E+03  0.95704932188E+03  0.00000000000E+00 0. -1.
        -14    1    5    5    0    0 -0.33265340623E+02  0.14100334468E+02  0.69085152084E+02  0.77962558689E+02  0.00000000000E+00 0.  1.
          5    1    4    4  501    0  0.63347713927E+02 -0.11898570005E+03 -0.24442090921E+03  0.27915870564E+03  0.41800000000E+01 0. -1.
         -5    1    4    4    0  501  0.65496072842E+02 -0.56794895965E+02 -0.27366734002E+02  0.91004430086E+02  0.41800000000E+01 0. -1.
</event>
<event>
11    1  0.8974665E-009  0.2129701E+03  0.7561462E-02  0.1045713E+00
         22   -1    0    0    0    0  0.00000000000E+00  0.00000000000E+00  0.12206778832E+04  0.12206778832E+04  0.00000000000E+00 0. -1.
         22   -1    0    0    0    0 -0.00000000000E+00 -0.00000000000E+00 -0.29152321592E+03  0.29152321592E+03  0.00000000000E+00 0.  1.
         24    2    1    2    0    0  0.67971098883E+01  0.75775514540E+01 -0.15494275972E+03  0.17278525875E+03  0.75788302951E+02 0.  0.
         25    2    1    2    0    0 -0.16571022265E+03 -0.72808913707E+02 -0.18416561777E+02  0.22079134227E+03  0.12509448935E+03 0.  0.
        -24    2    1    2    0    0  0.15891311277E+03  0.65231362253E+02  0.11025139888E+04  0.11186244981E+04  0.79215934541E+02 0.  0.
        -11    1    3    3    0    0  0.57717335577E+01  0.31390681912E+02 -0.14223906971E+03  0.14577599518E+03  0.00000000000E+00 0.  1.
         12    1    3    3    0    0  0.10253763306E+01 -0.23813130458E+02 -0.12703690008E+02  0.27009263570E+02  0.00000000000E+00 0. -1.
         11    1    5    5    0    0  0.11197580680E+03  0.13693316002E+02  0.81554818138E+03  0.82331338163E+03  0.00000000000E+00 0. -1.
        -12    1    5    5    0    0  0.46937305962E+02  0.51538046251E+02  0.28696580744E+03  0.29531111652E+03  0.00000000000E+00 0.  1.
          5    1    4    4  501    0 -0.23721508574E+02 -0.22345156627E+02  0.46272062545E+02  0.56750261373E+02  0.41800000000E+01 0. -1.
         -5    1    4    4    0  501 -0.14198871408E+03 -0.50463757079E+02 -0.64688624322E+02  0.16404108089E+03  0.41800000000E+01 0. -1.
</event>
<event>
11    1  0.8974665E-009  0.2068482E+03  0.7561462E-02  0.1049784E+00
         22   -1    0    0    0    0  0.00000000000E+00  0.00000000000E+00  0.42330579948E+03  0.42330579948E+03  0.00000000000E+00 0. -1.
         22   -1    0    0    0    0 -0.00000000000E+00 -0.00000000000E+00 -0.22682049500E+03  0.22682049500E+03  0.00000000000E+00 0. -1.
        -24    2    1    2    0    0 -0.10368366586E+03  0.13791737106E+03  0.18347551928E+02  0.19106749577E+03  0.79991571245E+02 0.  0.
         25    2    1    2    0    0 -0.27534022921E+02 -0.18302834385E+03 -0.10126092553E-01  0.22340518249E+03  0.12510946564E+03 0.  0.
         24    2    1    2    0    0  0.13121768878E+03  0.45110972783E+02  0.17814787864E+03  0.23565361622E+03  0.67400878760E+02 0.  0.
        -11    1    5    5    0    0  0.11127907659E+03  0.54321818066E+02  0.17357611722E+03  0.21321951429E+03  0.00000000000E+00 0.  1.
         12    1    5    5    0    0  0.19938612194E+02 -0.92108452831E+01  0.45717614268E+01  0.22434101934E+02  0.00000000000E+00 0. -1.
         11    1    3    3    0    0 -0.58491751852E+02  0.12754532966E+03  0.29483909397E+02  0.14338199700E+03  0.00000000000E+00 0. -1.
        -12    1    3    3    0    0 -0.45191914009E+02  0.10372041409E+02 -0.11136357469E+02  0.47685498765E+02  0.00000000000E+00 0.  1.
          5    1    4    4  501    0 -0.77423106915E+02 -0.11217799892E+03 -0.55117156071E+01  0.13647744259E+03  0.41800000000E+01 0. -1.
         -5    1    4    4    0  501  0.49889083994E+02 -0.70850344923E+02  0.55015895146E+01  0.86927739903E+02  0.41800000000E+01 0. -1.
</event>
<event>
11    1  0.8974665E-009  0.1596876E+03  0.7561462E-02  0.1087372E+00
         22   -1    0    0    0    0  0.00000000000E+00  0.00000000000E+00  0.24511391318E+04  0.24511391318E+04  0.00000000000E+00 0. -1.
         22   -1    0    0    0    0 -0.00000000000E+00 -0.00000000000E+00 -0.85379087541E+02  0.85379087541E+02  0.00000000000E+00 0.  1.
         24    2    1    2    0    0  0.38687622082E+02  0.90633041032E+02 -0.22003694960E+02  0.13022200810E+03  0.82234594752E+02 0.  0.
         25    2    1    2    0    0 -0.45170878307E+02 -0.10086355374E+03  0.84063784783E+03  0.85704910874E+03  0.12508924357E+03 0.  0.
        -24    2    1    2    0    0  0.64832562248E+01  0.10230512704E+02  0.15471258914E+04  0.15492471025E+04  0.80133418781E+02 0.  0.
        -13    1    3    3    0    0  0.26627196835E+02  0.83999618628E+02 -0.48338918823E+02  0.10050668940E+03  0.00000000000E+00 0.  1.
         14    1    3    3    0    0  0.12060425247E+02  0.66334224034E+01  0.26335223862E+02  0.29715318706E+02  0.00000000000E+00 0. -1.
         13    1    5    5    0    0  0.30394096123E+02  0.92743817525E+01  0.13850169930E+04  0.13853814948E+04  0.00000000000E+00 0. -1.
        -14    1    5    5    0    0 -0.23910839898E+02  0.95613095120E+00  0.16210889845E+03  0.16386560776E+03  0.00000000000E+00 0.  1.
          5    1    4    4  501    0 -0.54367532232E+02  0.38572437891E+01  0.41582184709E+03  0.41939955628E+03  0.41800000000E+01 0.  1.
         -5    1    4    4    0  501  0.91966539255E+01 -0.10472079752E+03  0.42481600074E+03  0.43764955245E+03  0.41800000000E+01 0.  1.
</event>
<event>
11    1  0.8974665E-009  0.1433286E+03  0.7561462E-02  0.1103897E+00
         22   -1    0    0    0    0  0.00000000000E+00  0.00000000000E+00  0.15179687942E+04  0.15179687942E+04  0.00000000000E+00 0. -1.
         22   -1    0    0    0    0 -0.00000000000E+00 -0.00000000000E+00 -0.53334971764E+03  0.53334971764E+03  0.00000000000E+00 0.  1.
        -24    2    1    2    0    0 -0.66148147075E+02 -0.10124641102E+02 -0.44378158528E+03  0.45597817565E+03  0.80597242576E+02 0.  0.
         25    2    1    2    0    0  0.11975967903E+03 -0.16999078151E+02  0.10910309783E+02  0.17434856619E+03  0.12508812211E+03 0.  0.
         24    2    1    2    0    0 -0.53611531960E+02  0.27123719252E+02  0.14174903520E+04  0.14209917700E+04  0.79553879154E+02 0.  0.
        -13    1    5    5    0    0 -0.58562628241E+01  0.20764117015E+02  0.87195161862E+02  0.89824499007E+02  0.00000000000E+00 0.  1.
         14    1    5    5    0    0 -0.47755269136E+02  0.63596022375E+01  0.13302951902E+04  0.13311672710E+04  0.00000000000E+00 0. -1.
         11    1    3    3    0    0 -0.18590831774E+02  0.11987698816E+02 -0.22891724647E+02  0.31833237445E+02  0.00000000000E+00 0. -1.
        -12    1    3    3    0    0 -0.47557315301E+02 -0.22112339918E+02 -0.42088986064E+03  0.42414493820E+03  0.00000000000E+00 0.  1.
          5    1    4    4  501    0  0.23991136063E+02 -0.20335676622E+02 -0.51088189072E+02  0.60138089559E+02  0.41800000000E+01 0.  1.
         -5    1    4    4    0  501  0.95768542971E+02  0.33365984708E+01  0.61998498854E+02  0.11421047663E+03  0.41800000000E+01 0.  1.
</event>
<event>
11    1  0.8974665E-009  0.1658838E+03  0.7561462E-02  0.1081670E+00
         22   -1    0    0    0    0  0.00000000000E+00  0.00000000000E+00  0.15824773382E+04  0.15824773382E+04  0.00000000000E+00 0. -1.
         22   -1    0    0    0    0 -0.00000000000E+00 -0.00000000000E+00 -0.23377198102E+03  0.23377198102E+03  0.00000000000E+00 0. -1.
        -24    2    1    2    0    0 -0.64723646108E+01  0.56049603688E+00 -0.18368606527E+03  0.20070654906E+03  0.80624702181E+02 0.  0.
         25    2    1    2    0    0  0.85909982014E+02 -0.74526671616E+02  0.14841062973E+03  0.22496244418E+03  0.12509051316E+03 0.  0.
         24    2    1    2    0    0 -0.79437617403E+02  0.73966175580E+02  0.13839807927E+04  0.13905803260E+04  0.80805186524E+02 0.  0.
        -13    1    5    5    0    0 -0.39693679224E+01  0.76014269446E+01  0.11102556991E+02  0.14028697197E+02  0.00000000000E+00 0.  1.
         14    1    5    5    0    0 -0.75468249481E+02  0.66364748635E+02  0.13728782357E+04  0.13765516288E+04  0.00000000000E+00 0. -1.
         13    1    3    3    0    0 -0.81135871884E+01 -0.39272922763E+02 -0.10717113311E+03  0.11442833797E+03  0.00000000000E+00 0. -1.
        -14    1    3    3    0    0  0.16412225776E+01  0.39833418799E+02 -0.76514932165E+02  0.86278211091E+02  0.00000000000E+00 0.  1.
          5    1    4    4  501    0  0.34330262558E+02  0.34153928860E+02  0.45958655888E+02  0.66893409503E+02  0.41800000000E+01 0. -1.
         -5    1    4    4    0  501  0.51579719456E+02 -0.10868060048E+03  0.10245197385E+03  0.15806903468E+03  0.41800000000E+01 0. -1.
</event>
<event>
11    1  0.8974665E-009  0.1548800E+03  0.7561462E-02  0.1091994E+00
         22   -1    0    0    0    0  0.00000000000E+00  0.00000000000E+00  0.14019404108E+04  0.14019404108E+04  0.00000000000E+00 0.  1.
         22   -1    0    0    0    0 -0.00000000000E+00 -0.00000000000E+00 -0.62287133365E+02  0.62287133365E+02  0.00000000000E+00 0.  1.
        -24    2    1    2    0    0 -0.40249950527E+02  0.82279778196E+02  0.38076298209E+02  0.12655772741E+03  0.78594105782E+02 0.  0.
         25    2    1    2    0    0  0.60270839431E+02 -0.70217502773E+02  0.35818454499E+03  0.39052088661E+03  0.12508925945E+03 0.  0.
         24    2    1    2    0    0 -0.20020888904E+02 -0.12062275423E+02  0.94339243427E+03  0.94714893018E+03  0.80965896647E+02 0.  0.
        -11    1    5    5    0    0  0.38193845339E+01 -0.41117408328E+02  0.32459299551E+03  0.32720917117E+03  0.00000000000E+00 0.  1.
         12    1    5    5    0    0 -0.23840273438E+02  0.29055132905E+02  0.61879943876E+03  0.61993975901E+03  0.00000000000E+00 0. -1.
         13    1    3    3    0    0 -0.27636273758E+02 -0.31912627075E+01  0.28175432704E+02  0.39595489553E+02  0.00000000000E+00 0. -1.
        -14    1    3    3    0    0 -0.12613676769E+02  0.85471040904E+02  0.99008655048E+01  0.86962237854E+02  0.00000000000E+00 0.  1.
          5    1    4    4  501    0 -0.28826234528E+01  0.10552489009E+02 -0.52822644384E+01  0.12846760676E+02  0.41800000000E+01 0. -1.
         -5    1    4    4    0  501  0.63153462884E+02 -0.80769991782E+02  0.36346680943E+03  0.37767412594E+03  0.41800000000E+01 0. -1.
</event>
<event>
11    1  0.8974665E-009  0.1564347E+03  0.7561462E-02  0.1090479E+00
         22   -1    0    0    0    0  0.00000000000E+00  0.00000000000E+00  0.55292501001E+03  0.55292501001E+03  0.00000000000E+00 0.  1.
         22   -1    0    0    0    0 -0.00000000000E+00 -0.00000000000E+00 -0.28380844467E+03  0.28380844467E+03  0.00000000000E+00 0. -1.
         24    2    1    2    0    0  0.11477073444E+01 -0.48818243279E+02 -0.22197932907E+03  0.24084380124E+03  0.79664144729E+02 0.  0.
         25    2    1    2    0    0  0.49625057847E+02 -0.39521550537E+02  0.73011714958E+02  0.15812352850E+03  0.12509092862E+03 0.  0.
        -24    2    1    2    0    0 -0.50772765192E+02  0.88339793816E+02  0.41808417945E+03  0.43776612493E+03  0.80392824181E+02 0.  0.
        -11    1    3    3    0    0 -0.23523549538E+02  0.10983572400E+02 -0.39792090887E+02  0.47512174679E+02  0.00000000000E+00 0.  1.
         12    1    3    3    0    0  0.24671256882E+02 -0.59801815679E+02 -0.18218723818E+03  0.19333162657E+03  0.00000000000E+00 0. -1.
         13    1    5    5    0    0 -0.31591620623E+02  0.55766055727E+02  0.10952477742E+03  0.12689980431E+03  0.00000000000E+00 0. -1.
        -14    1    5    5    0    0 -0.19181144569E+02  0.32573738089E+02  0.30855940202E+03  0.31086632062E+03  0.00000000000E+00 0.  1.
          5    1    4    4  501    0  0.13119513563E+02  0.33488018144E+02  0.67012726082E+02  0.76169198843E+02  0.41800000000E+01 0. -1.
         -5    1    4    4    0  501  0.36505544284E+02 -0.73009568682E+02  0.59989888761E+01  0.81954329660E+02  0.41800000000E+01 0. -1.
</event>
<event>
11    1  0.8974665E-009  0.1961184E+03  0.7561462E-02  0.1057303E+00
         22   -1    0    0    0    0  0.00000000000E+00  0.00000000000E+00  0.15029957418E+04  0.15029957418E+04  0.00000000000E+00 0. -1.
         22   -1    0    0    0    0 -0.00000000000E+00 -0.00000000000E+00 -0.63507804322E+02  0.63507804322E+02  0.00000000000E+00 0. -1.
         24    2    1    2    0    0  0.53372926824E+02 -0.17802773031E+03  0.18580842114E+03  0.27434641549E+03  0.78731469243E+02 0.  0.
         25    2    1    2    0    0  0.95606016499E+01  0.90681771306E+02  0.41912006957E+03  0.44679257120E+03  0.12508948879E+03 0.  0.
        -24    2    1    2    0    0 -0.62933528474E+02  0.87345959001E+02  0.83455944677E+03  0.84536455944E+03  0.81005077667E+02 0.  0.
        -13    1    3    3    0    0  0.57926133854E+02 -0.13857727265E+03  0.10186023331E+03  0.18147893710E+03  0.00000000000E+00 0.  1.
         14    1    3    3    0    0 -0.45532070294E+01 -0.39450457653E+02  0.83948187828E+02  0.92867478392E+02  0.00000000000E+00 0. -1.
         13    1    5    5    0    0 -0.80777908838E+02  0.77191564985E+02  0.63529970165E+03  0.64504985790E+03  0.00000000000E+00 0. -1.
        -14    1    5    5    0    0  0.17844380364E+02  0.10154394016E+02  0.19925974512E+03  0.20031470154E+03  0.00000000000E+00 0.  1.
          5    1    4    4  501    0 -0.42324477363E+02  0.59755829211E+02  0.33627237983E+03  0.34417830604E+03  0.41800000000E+01 0. -1.
         -5    1    4    4    0  501  0.51885079013E+02  0.30925942095E+02  0.82847689744E+02  0.10261426516E+03  0.41800000000E+01 0. -1.
</event>
<event>
11    1  0.8974665E-009  0.1269831E+03  0.7561462E-02  0.1123032E+00
         22   -1    0    0    0    0  0.00000000000E+00  0.00000000000E+00  0.11069332094E+04  0.11069332094E+04  0.00000000000E+00 0. -1.
         22   -1    0    0    0    0 -0.00000000000E+00 -0.00000000000E+00 -0.69668586366E+02  0.69668586366E+02  0.00000000000E+00 0.  1.
        -24    2    1    2    0    0  0.61977699648E+01  0.27493536894E+02  0.39891068270E+02  0.93497291082E+02  0.79725398641E+02 0.  0.
         25    2    1    2    0    0  0.73792114989E+01 -0.13686419115E+02  0.55746457892E+02  0.13782536266E+03  0.12508553951E+03 0.  0.
         24    2    1    2    0    0 -0.13576981464E+02 -0.13807117779E+02  0.94162709689E+03  0.94527914204E+03  0.80722337998E+02 0.  0.
        -13    1    5    5    0    0  0.18329326156E+01 -0.29944172527E+02  0.13288721033E+03  0.13623150803E+03  0.00000000000E+00 0.  1.
         14    1    5    5    0    0 -0.15409914079E+02  0.16137054748E+02  0.80873988656E+03  0.80904763401E+03  0.00000000000E+00 0. -1.
         13    1    3    3    0    0  0.27150961114E+02 -0.13095880101E+02  0.37003164020E+02  0.47727464971E+02  0.00000000000E+00 0. -1.
        -14    1    3    3    0    0 -0.20953191149E+02  0.40589416995E+02  0.28879042499E+01  0.45769826111E+02  0.00000000000E+00 0.  1.
          5    1    4    4  501    0 -0.40111253577E+02 -0.49149377510E+02  0.13702115935E+02  0.65036869191E+02  0.41800000000E+01 0. -1.
         -5    1    4    4    0  501  0.47490465076E+02  0.35462958395E+02  0.42044341957E+02  0.72788493471E+02  0.41800000000E+01 0. -1.
</event>
<event>
11    1  0.8974665E-009  0.1767928E+03  0.7561462E-02  0.1072267E+00
         22   -1    0    0    0    0  0.00000000000E+00  0.00000000000E+00  0.90332934275E+03  0.90332934275E+03  0.00000000000E+00 0.  1.
         22   -1    0    0    0    0 -0.00000000000E+00 -0.00000000000E+00 -0.11203068541E+03  0.11203068541E+03  0.00000000000E+00 0.  1.
        -24    2    1    2    0    0 -0.15850320157E+02  0.31587813811E+02 -0.29245579278E+02  0.92464449481E+02  0.80282923963E+02 0.  0.
         25    2    1    2    0    0  0.49501644576E+02 -0.14616534403E+03  0.18602679420E+03  0.27215456129E+03  0.12508963370E+03 0.  0.
         24    2    1    2    0    0 -0.33651324419E+02  0.11457753022E+03  0.63451744241E+03  0.65074101738E+03  0.81185373781E+02 0.  0.
        -11    1    5    5    0    0 -0.31822831250E+02  0.10146372762E+03  0.62606720075E+03  0.63503363727E+03  0.00000000000E+00 0.  1.
         12    1    5    5    0    0 -0.18284931690E+01  0.13113802599E+02  0.84502416615E+01  0.15707380113E+02  0.00000000000E+00 0. -1.
         11    1    3    3    0    0 -0.23271438058E+02  0.29932286404E+02  0.19841226900E+02  0.42792240927E+02  0.00000000000E+00 0. -1.
        -12    1    3    3    0    0  0.74211179016E+01  0.16555274074E+01 -0.49086806178E+02  0.49672208554E+02  0.00000000000E+00 0.  1.
          5    1    4    4  501    0 -0.38171841758E+02 -0.40440909009E+02  0.26922256294E+02  0.61926060012E+02  0.41800000000E+01 0. -1.
         -5    1    4    4    0  501  0.87673486333E+02 -0.10572443502E+03  0.15910453791E+03  0.21022850128E+03  0.41800000000E+01 0. -1.
</event>
<event>
11    1  0.8974665E-009  0.1472108E+03  0.7561462E-02  0.1099763E+00
         22   -1    0    0    0    0  0.00000000000E+00  0.00000000000E+00  0.19301601276E+04  0.19301601276E+04  0.00000000000E+00 0.  1.
         22   -1    0    0    0    0 -0.00000000000E+00 -0.00000000000E+00 -0.64007142346E+02  0.64007142346E+02  0.00000000000E+00 0. -1.
        -24    2    1    2    0    0 -0.29590747144E+02 -0.28149412528E+02 -0.15797349994E+02  0.91707447249E+02  0.80577278881E+02 0.  0.
         25    2    1    2    0    0  0.51609388933E+02  0.91957923741E+02  0.89160618671E+03  0.90649238288E+03  0.12508820598E+03 0.  0.
         24    2    1    2    0    0 -0.22018641789E+02 -0.63808511213E+02  0.99034414850E+03  0.99596743978E+03  0.81321964692E+02 0.  0.
        -13    1    5    5    0    0 -0.12938072702E+02  0.18177133464E+02  0.26855508016E+03  0.26948030167E+03  0.00000000000E+00 0.  1.
         14    1    5    5    0    0 -0.90805690876E+01 -0.81985644676E+02  0.72178906834E+03  0.72648713811E+03  0.00000000000E+00 0. -1.
         13    1    3    3    0    0 -0.93342590840E+01 -0.54509316350E+02 -0.98189385221E+00  0.55311464247E+02  0.00000000000E+00 0. -1.
        -14    1    3    3    0    0 -0.20256488060E+02  0.26359903822E+02 -0.14815456141E+02  0.36395983002E+02  0.00000000000E+00 0.  1.
          5    1    4    4  501    0  0.77923268429E+02  0.75969613854E+02  0.83363354828E+03  0.84071742173E+03  0.41800000000E+01 0. -1.
         -5    1    4    4    0  501 -0.26313879496E+02  0.15988309887E+02  0.57972638434E+02  0.65774961149E+02  0.41800000000E+01 0. -1.
</event>
<event>
11    1  0.8974665E-009  0.1975783E+03  0.7561462E-02  0.1056249E+00
         22   -1    0    0    0    0  0.00000000000E+00  0.00000000000E+00  0.10891176713E+04  0.10891176713E+04  0.00000000000E+00 0.  1.
         22   -1    0    0    0    0 -0.00000000000E+00 -0.00000000000E+00 -0.65552044238E+03  0.65552044238E+03  0.00000000000E+00 0.  1.
        -24    2    1    2    0    0  0.37431335405E+02 -0.17443572425E+03 -0.51312115252E+03  0.54912241968E+03  0.80082381779E+02 0.  0.
         25    2    1    2    0    0 -0.81485804141E+01  0.85526289298E+02 -0.72920668255E+02  0.16836147002E+03  0.12508802983E+03 0.  0.
         24    2    1    2    0    0 -0.29282754991E+02  0.88909434950E+02  0.10196390497E+04  0.10271542239E+04  0.81361174979E+02 0.  0.
        -13    1    5    5    0    0 -0.18469431965E+02  0.45705148216E+02  0.86020804220E+03  0.86161938021E+03  0.00000000000E+00 0.  1.
         14    1    5    5    0    0 -0.10813323026E+02  0.43204286734E+02  0.15943100746E+03  0.16553484373E+03  0.00000000000E+00 0. -1.
         11    1    3    3    0    0 -0.13608422793E+02 -0.21658963441E+01 -0.62530286084E+02  0.64030593904E+02  0.00000000000E+00 0. -1.
        -12    1    3    3    0    0  0.51039758198E+02 -0.17226982790E+03 -0.45059086643E+03  0.48509182578E+03  0.00000000000E+00 0.  1.
          5    1    4    4  501    0  0.15910914046E+02  0.83990589489E+01 -0.84625924496E+02  0.86618247927E+02  0.41800000000E+01 0.  1.
         -5    1    4    4    0  501 -0.24059494461E+02  0.77127230349E+02  0.11705256241E+02  0.81743222096E+02  0.41800000000E+01 0.  1.
</event>
<event>
11    1  0.8974665E-009  0.1267633E+03  0.7561462E-02  0.1123311E+00
         22   -1    0    0    0    0  0.00000000000E+00  0.00000000000E+00  0.13222826680E+04  0.13222826680E+04  0.00000000000E+00 0.  1.
         22   -1    0    0    0    0 -0.00000000000E+00 -0.00000000000E+00 -0.36155167025E+03  0.36155167025E+03  0.00000000000E+00 0. -1.
        -24    2    1    2    0    0 -0.58515665880E+00 -0.21985053939E+02 -0.32664349355E+03  0.33885039286E+03  0.87406703711E+02 0.  0.
         25    2    1    2    0    0 -0.17473010375E+02 -0.12021584840E+02  0.12129645277E+03  0.17551493753E+03  0.12507133663E+03 0.  0.
         24    2    1    2    0    0  0.18058167034E+02  0.34006638779E+02  0.11660780386E+04  0.11694690079E+04  0.80232284917E+02 0.  0.
        -11    1    5    5    0    0  0.49249012397E+02  0.11807379938E+02  0.64195268766E+03  0.64394730579E+03  0.00000000000E+00 0.  1.
         12    1    5    5    0    0 -0.31190845363E+02  0.22199258841E+02  0.52412535091E+03  0.52552170212E+03  0.00000000000E+00 0. -1.
         11    1    3    3    0    0  0.38960139022E+02  0.43640568397E+01 -0.19477353104E+03  0.19867980728E+03  0.00000000000E+00 0. -1.
        -12    1    3    3    0    0 -0.39545295681E+02 -0.26349110779E+02 -0.13186996251E+03  0.14017058558E+03  0.00000000000E+00 0.  1.
          5    1    4    4  501    0 -0.42505025556E+02 -0.55108450829E+02  0.40890569586E+02  0.80827777597E+02  0.41800000000E+01 0.  1.
         -5    1    4    4    0  501  0.25032015180E+02  0.43086865989E+02  0.80405883187E+02  0.94687159931E+02  0.41800000000E+01 0.  1.
</event>
<event>
11    1  0.8974665E-009  0.1312732E+03  0.7561462E-02  0.1117714E+00
         22   -1    0    0    0    0  0.00000000000E+00  0.00000000000E+00  0.23692291243E+04  0.23692291243E+04  0.00000000000E+00 0.  1.
         22   -1    0    0    0    0 -0.00000000000E+00 -0.00000000000E+00 -0.14918431735E+03  0.14918431735E+03  0.00000000000E+00 0.  1.
        -24    2    1    2    0    0  0.18974490962E+02 -0.36098609051E+02 -0.11875580334E+03  0.15088826265E+03  0.83673090637E+02 0.  0.
         25    2    1    2    0    0  0.23873925492E+02  0.34329326320E+02  0.31350628447E+03  0.34012100894E+03  0.12509054063E+03 0.  0.
         24    2    1    2    0    0 -0.42848416454E+02  0.17692827304E+01  0.20252943258E+04  0.20274041701E+04  0.81923412230E+02 0.  0.
        -13    1    5    5    0    0  0.20191949972E+02 -0.20007425675E+01  0.97612311903E+03  0.97633399067E+03  0.00000000000E+00 0.  1.
         14    1    5    5    0    0 -0.63040366427E+02  0.37700252978E+01  0.10491712068E+04  0.10510701794E+04  0.00000000000E+00 0. -1.
         11    1    3    3    0    0 -0.12722036244E+02  0.11569152689E+02  0.19405751605E+01  0.17304951085E+02  0.00000000000E+00 0. -1.
        -12    1    3    3    0    0  0.31696527206E+02 -0.47667761739E+02 -0.12069637850E+03  0.13358331157E+03  0.00000000000E+00 0.  1.
          5    1    4    4  501    0  0.61353585494E+02  0.35051326126E+02  0.28268093153E+03  0.29140837217E+03  0.41800000000E+01 0. -1.
         -5    1    4    4    0  501 -0.37479660002E+02 -0.72199980585E+00  0.30825352934E+02  0.48712636770E+02  0.41800000000E+01 0. -1.
</event>
<event>
11    1  0.8974665E-009  0.1524004E+03  0.7561462E-02  0.1094451E+00
         22   -1    0    0    0    0  0.00000000000E+00  0.00000000000E+00  0.12430266159E+04  0.12430266159E+04  0.00000000000E+00 0.  1.
         22   -1    0    0    0    0 -0.00000000000E+00 -0.00000000000E+00 -0.25495185010E+03  0.25495185010E+03  0.00000000000E+00 0. -1.
         24    2    1    2    0    0 -0.23152144385E+02  0.84609644813E+02 -0.22660825647E+03  0.25552005501E+03  0.79021407402E+02 0.  0.
         25    2    1    2    0    0 -0.10260687799E+02 -0.71134141693E+02  0.44372866690E+03  0.46659204944E+03  0.12509061891E+03 0.  0.
        -24    2    1    2    0    0  0.33412832184E+02 -0.13475503120E+02  0.77095435533E+03  0.77586636150E+03  0.79372453501E+02 0.  0.
        -11    1    3    3    0    0  0.23426927533E+02  0.32363179139E+02 -0.13147591684E+03  0.13741220108E+03  0.00000000000E+00 0.  1.
         12    1    3    3    0    0 -0.46579071918E+02  0.52246465675E+02 -0.95132339633E+02  0.11810785393E+03  0.00000000000E+00 0. -1.
         13    1    5    5    0    0  0.19428660999E+02 -0.34580038804E+02  0.17773706844E+03  0.18210908118E+03  0.00000000000E+00 0. -1.
        -14    1    5    5    0    0  0.13984171185E+02  0.21104535684E+02  0.59321728689E+03  0.59375728032E+03  0.00000000000E+00 0.  1.
          5    1    4    4  501    0 -0.21725726738E+02 -0.10170826352E+03  0.38937121852E+03  0.40304341736E+03  0.41800000000E+01 0. -1.
         -5    1    4    4    0  501  0.11465038938E+02  0.30574121831E+02  0.54357448390E+02  0.63548632078E+02  0.41800000000E+01 0. -1.
</event>
<event>
11    1  0.8974665E-009  0.1454407E+03  0.7561462E-02  0.1101631E+00
         22   -1    0    0    0    0  0.00000000000E+00  0.00000000000E+00  0.97332166253E+02  0.97332166253E+02  0.00000000000E+00 0.  1.
         22   -1    0    0    0    0 -0.00000000000E+00 -0.00000000000E+00 -0.10937627862E+04  0.10937627862E+04  0.00000000000E+00 0. -1.
        -24    2    1    2    0    0  0.42195387096E+02  0.51438715825E+02 -0.43482749568E+03  0.44704800423E+03  0.79690494459E+02 0.  0.
         25    2    1    2    0    0 -0.65828149117E+01 -0.96275796286E+02 -0.61277169708E+03  0.63281015408E+03  0.12508867240E+03 0.  0.
         24    2    1    2    0    0 -0.35612572184E+02  0.44837080461E+02  0.51168572829E+02  0.11123679413E+03  0.80478459482E+02 0.  0.
        -11    1    5    5    0    0 -0.28239544238E+02  0.49088950389E+02  0.70314275385E+02  0.90284518229E+02  0.00000000000E+00 0.  1.
         12    1    5    5    0    0 -0.73730279464E+01 -0.42518699278E+01 -0.19145702556E+02  0.20952275899E+02  0.00000000000E+00 0. -1.
         13    1    3    3    0    0  0.45343350463E+02  0.70181058871E+02 -0.32385782939E+03  0.33446269465E+03  0.00000000000E+00 0. -1.
        -14    1    3    3    0    0 -0.31479633672E+01 -0.18742343046E+02 -0.11096966630E+03  0.11258530958E+03  0.00000000000E+00 0.  1.
          5    1    4    4  501    0 -0.28274591182E+02 -0.11944718211E+03 -0.42750728980E+03  0.44479999669E+03  0.41800000000E+01 0. -1.
         -5    1    4    4    0  501  0.21691776271E+02  0.23171385822E+02 -0.18526440728E+03  0.18801015740E+03  0.41800000000E+01 0. -1.
</event>
<event>
11    1  0.8974665E-009  0.1664361E+03  0.7561462E-02  0.1081175E+00
         22   -1    0    0    0    0  0.00000000000E+00  0.00000000000E+00  0.92119936565E+03  0.92119936565E+03  0.00000000000E+00 0.  1.
         22   -1    0    0    0    0 -0.00000000000E+00 -0.00000000000E+00 -0.12844781360E+03  0.12844781360E+03  0.00000000000E+00 0. -1.
        -24    2    1    2    0    0  0.35903148178E+02  0.56709497701E+02 -0.67381280004E+02  0.12518844915E+03  0.81405821205E+02 0.  0.
         25    2    1    2    0    0  0.52491992777E+02 -0.11822948598E+03  0.31409426988E+03  0.36198963353E+03  0.12509062217E+03 0.  0.
         24    2    1    2    0    0 -0.88395140955E+02  0.61519988278E+02  0.54603856217E+03  0.56246909656E+03  0.81332424683E+02 0.  0.
        -11    1    5    5    0    0 -0.36630874941E+02  0.30621708319E+02  0.42054702138E+03  0.42324851708E+03  0.00000000000E+00 0.  1.
         12    1    5    5    0    0 -0.51764266014E+02  0.30898279959E+02  0.12549154079E+03  0.13922057948E+03  0.00000000000E+00 0. -1.
         11    1    3    3    0    0  0.38092050830E+02  0.75283668239E+02 -0.64637272405E+02  0.10628552123E+03  0.00000000000E+00 0. -1.
        -12    1    3    3    0    0 -0.21889026520E+01 -0.18574170538E+02 -0.27440075997E+01  0.18902927913E+02  0.00000000000E+00 0.  1.
          5    1    4    4  501    0 -0.48177542426E+01 -0.12046344245E+03  0.23556797359E+03  0.26465901515E+03  0.41800000000E+01 0.  1.
         -5    1    4    4    0  501  0.57309747020E+02  0.22339564687E+01  0.78526296291E+02  0.97330618380E+02  0.41800000000E+01 0.  1.
</event>
<event>
11    1  0.8974665E-009  0.2640365E+03  0.7561462E-02  0.1016677E+00
         22   -1    0    0    0    0  0.00000000000E+00  0.00000000000E+00  0.12976738460E+04  0.12976738460E+04  0.00000000000E+00 0.  1.
         22   -1    0    0    0    0 -0.00000000000E+00 -0.00000000000E+00 -0.84337720519E+03  0.84337720519E+03  0.00000000000E+00 0. -1.
        -24    2    1    2    0    0 -0.45999357303E+02  0.12822842568E+03 -0.77859100929E+03  0.79449180855E+03  0.80341795356E+02 0.  0.
         25    2    1    2    0    0  0.11654817943E+01  0.14975536602E+03  0.22897668816E+03  0.30084965855E+03  0.12510861414E+03 0.  0.
         24    2    1    2    0    0  0.44833875509E+02 -0.27798379170E+03  0.10039109620E+04  0.10457095841E+04  0.79914015732E+02 0.  0.
        -11    1    5    5    0    0  0.22423187662E+02 -0.17241605694E+03  0.47306234388E+03  0.50400206075E+03  0.00000000000E+00 0.  1.
         12    1    5    5    0    0  0.22410687847E+02 -0.10556773476E+03  0.53084861811E+03  0.54170752339E+03  0.00000000000E+00 0. -1.
         11    1    3    3    0    0 -0.25033332629E+02  0.13387863764E+03 -0.68584648909E+03  0.69923927518E+03  0.00000000000E+00 0. -1.
        -12    1    3    3    0    0 -0.20966024674E+02 -0.56502119652E+01 -0.92744520205E+02  0.95252533373E+02  0.00000000000E+00 0.  1.
          5    1    4    4  501    0 -0.27531740423E+01 -0.17813121259E+02  0.60069237874E+02  0.62854379284E+02  0.41800000000E+01 0.  1.
         -5    1    4    4    0  501  0.39186558366E+01  0.16756848728E+03  0.16890745028E+03  0.23799527927E+03  0.41800000000E+01 0.  1.
</event>
<event>
11    1  0.8974665E-009  0.1307005E+03  0.7561462E-02  0.1118411E+00
         22   -1    0    0    0    0  0.00000000000E+00  0.00000000000E+00  0.13569074317E+04  0.13569074317E+04  0.00000000000E+00 0. -1.
         22   -1    0    0    0    0 -0.00000000000E+00 -0.00000000000E+00 -0.46090076516E+02  0.46090076516E+02  0.00000000000E+00 0.  1.
         24    2    1    2    0    0 -0.36902104454E+02 -0.32171955193E+02  0.96434751435E+02  0.13344257378E+03  0.78169426244E+02 0.  0.
         25    2    1    2    0    0  0.63258699461E+01  0.25328350029E+02  0.13216647571E+03  0.18383953111E+03  0.12508978356E+03 0.  0.
        -24    2    1    2    0    0  0.30576234508E+02  0.68436051634E+01  0.10822161281E+04  0.10857154033E+04  0.81267756079E+02 0.  0.
        -11    1    3    3    0    0 -0.61392231191E+02 -0.23791991048E+02  0.62678665342E+02  0.90904785230E+02  0.00000000000E+00 0.  1.
         12    1    3    3    0    0  0.24490126737E+02 -0.83799641446E+01  0.33756086093E+02  0.42537788552E+02  0.00000000000E+00 0. -1.
         11    1    5    5    0    0  0.29728118672E+02 -0.98156338019E+01  0.10377709422E+04  0.10382430525E+04  0.00000000000E+00 0. -1.
        -12    1    5    5    0    0  0.84811583581E+00  0.16659238965E+02  0.44445185884E+02  0.47472350812E+02  0.00000000000E+00 0.  1.
          5    1    4    4  501    0  0.36458452455E+02 -0.34994110407E+02  0.23510856817E+02  0.55893106076E+02  0.41800000000E+01 0. -1.
         -5    1    4    4    0  501 -0.30132582509E+02  0.60322460437E+02  0.10865561889E+03  0.12794642503E+03  0.41800000000E+01 0. -1.
</event>
<event>
11    1  0.8974665E-009  0.1398747E+03  0.7561462E-02  0.1107698E+00
         22   -1    0    0    0    0  0.00000000000E+00  0.00000000000E+00  0.22336514551E+03  0.22336514551E+03  0.00000000000E+00 0. -1.
         22   -1    0    0    0    0 -0.00000000000E+00 -0.00000000000E+00 -0.76024051466E+03  0.76024051466E+03  0.00000000000E+00 0.  1.
         24    2    1    2    0    0  0.48428535976E+02  0.34670147587E+02 -0.62601847141E+03  0.63372128724E+03  0.78461462684E+02 0.  0.
         25    2    1    2    0    0 -0.86461147625E+02 -0.67082184633E+02 -0.56959615762E+02  0.17568981674E+03  0.12508782649E+03 0.  0.
        -24    2    1    2    0    0  0.38032611649E+02  0.32412037046E+02  0.14610271802E+03  0.17419455618E+03  0.80627039492E+02 0.  0.
        -13    1    3    3    0    0  0.61726565337E+02  0.26084693322E+02 -0.59627070624E+03  0.60002444551E+03  0.00000000000E+00 0.  1.
         14    1    3    3    0    0 -0.13298029361E+02  0.85854542647E+01 -0.29747765167E+02  0.33696841725E+02  0.00000000000E+00 0. -1.
         11    1    5    5    0    0  0.47157275148E+02  0.31155161281E+02  0.15272664981E+03  0.16284926231E+03  0.00000000000E+00 0. -1.
        -12    1    5    5    0    0 -0.91246634996E+01  0.12568757654E+01 -0.66239317898E+01  0.11345293871E+02  0.00000000000E+00 0.  1.
          5    1    4    4  501    0 -0.98272543776E+02 -0.61149917428E+02 -0.85500467578E+02  0.14396043768E+03  0.41800000000E+01 0.  1.
         -5    1    4    4    0  501  0.11811396151E+02 -0.59322672047E+01  0.28540851817E+02  0.31729379062E+02  0.41800000000E+01 0.  1.
</event>
<event>
11    1  0.8974665E-009  0.2130216E+03  0.7561462E-02  0.1045679E+00
         22   -1    0    0    0    0  0.00000000000E+00  0.00000000000E+00  0.12843971408E+04  0.12843971408E+04  0.00000000000E+00 0. -1.
         22   -1    0    0    0    0 -0.00000000000E+00 -0.00000000000E+00 -0.35376199658E+03  0.35376199658E+03  0.00000000000E+00 0.  1.
        -24    2    1    2    0    0  0.11962555084E+02 -0.85798589647E+02 -0.23383703340E+03  0.26185538308E+03  0.79899829462E+02 0.  0.
         25    2    1    2    0    0 -0.10333444721E+03  0.22502410583E+03  0.98420393857E+02  0.29435932992E+03  0.12508790910E+03 0.  0.
         24    2    1    2    0    0  0.91371892125E+02 -0.13922551618E+03  0.10660517838E+04  0.10819444244E+04  0.80029774013E+02 0.  0.
        -11    1    5    5    0    0  0.63127142087E+02 -0.51975159592E+02  0.32022039033E+03  0.33049591777E+03  0.00000000000E+00 0.  1.
         12    1    5    5    0    0  0.28244750038E+02 -0.87250356589E+02  0.74583139345E+03  0.75144850661E+03  0.00000000000E+00 0. -1.
         11    1    3    3    0    0 -0.25513493016E+02 -0.69104550644E+02 -0.11949566939E+03  0.14037660863E+03  0.00000000000E+00 0. -1.
        -12    1    3    3    0    0  0.37476048099E+02 -0.16694039003E+02 -0.11434136401E+03  0.12147877445E+03  0.00000000000E+00 0.  1.
          5    1    4    4  501    0 -0.12860650008E+03  0.19451311424E+03  0.64343338100E+02  0.24193495207E+03  0.41800000000E+01 0. -1.
         -5    1    4    4    0  501  0.25272052876E+02  0.30510991587E+02  0.34077055757E+02  0.52424377853E+02  0.41800000000E+01 0. -1.
</event>
<event>
11    1  0.8974665E-009  0.1848468E+03  0.7561462E-02  0.1065788E+00
         22   -1    0    0    0    0  0.00000000000E+00  0.00000000000E+00  0.62381246059E+02  0.62381246059E+02  0.00000000000E+00 0.  1.
         22   -1    0    0    0    0 -0.00000000000E+00 -0.00000000000E+00 -0.16398522084E+04  0.16398522084E+04  0.00000000000E+00 0.  1.
        -24    2    1    2    0    0 -0.13613567637E+03  0.29715268716E+02 -0.13537837750E+04  0.13631265340E+04  0.77249716247E+02 0.  0.
         25    2    1    2    0    0  0.10742426339E+03 -0.29781221339E+02 -0.16150524220E+03  0.23271942507E+03  0.12508994380E+03 0.  0.
         24    2    1    2    0    0  0.28711412979E+02  0.65952622621E-01 -0.62181945144E+02  0.10638749539E+03  0.81408570116E+02 0.  0.
        -11    1    5    5    0    0  0.85256589951E+01  0.27332489395E+01  0.19898187328E+02  0.21819609758E+02  0.00000000000E+00 0.  1.
         12    1    5    5    0    0  0.20185753984E+02 -0.26672963169E+01 -0.82080132472E+02  0.84567885631E+02  0.00000000000E+00 0. -1.
         13    1    3    3    0    0 -0.12801874070E+03  0.40384362196E+01 -0.97336994253E+03  0.98176074069E+03  0.00000000000E+00 0. -1.
        -14    1    3    3    0    0 -0.81169356707E+01  0.25676832497E+02 -0.38041383243E+03  0.38136579327E+03  0.00000000000E+00 0.  1.
          5    1    4    4  501    0  0.24383231725E+02  0.46718997010E+02 -0.67525651904E+02  0.85757756127E+02  0.41800000000E+01 0. -1.
         -5    1    4    4    0  501  0.83041031666E+02 -0.76500218349E+02 -0.93979590296E+02  0.14696166895E+03  0.41800000000E+01 0. -1.
</event>
<event>
11    1  0.8974665E-009  0.1518755E+03  0.7561462E-02  0.1094978E+00
         22   -1    0    0    0    0  0.00000000000E+00  0.00000000000E+00  0.14344126808E+04  0.14344126808E+04  0.00000000000E+00 0.  1.
         22   -1    0    0    0    0 -0.00000000000E+00 -0.00000000000E+00 -0.11569408959E+04  0.11569408959E+04  0.00000000000E+00 0. -1.
        -24    2    1    2    0    0 -0.56520122190E+02 -0.55463714087E+02 -0.81009779927E+03  0.81793302881E+03  0.80531034017E+02 0.  0.
         25    2    1    2    0    0  0.54733844993E+02  0.12996361927E+03 -0.31474399470E+03  0.36687508202E+03  0.12508879840E+03 0.  0.
         24    2    1    2    0    0  0.17862771970E+01 -0.74499905180E+02  0.14023135789E+04  0.14065454659E+04  0.79582330190E+02 0.  0.
        -11    1    5    5    0    0 -0.10481961722E-01 -0.58090231250E+02  0.13582427330E+04  0.13594843864E+04  0.00000000000E+00 0.  1.
         12    1    5    5    0    0  0.17967591587E+01 -0.16409673929E+02  0.44070845871E+02  0.47061079436E+02  0.00000000000E+00 0. -1.
         11    1    3    3    0    0 -0.52189221674E+02 -0.14249255048E+02 -0.66017889114E+03  0.66239182093E+03  0.00000000000E+00 0. -1.
        -12    1    3    3    0    0 -0.43309005168E+01 -0.41214459039E+02 -0.14991890813E+03  0.15554120788E+03  0.00000000000E+00 0.  1.
          5    1    4    4  501    0  0.95670799767E+01 -0.23537519318E+02 -0.68513477919E+02  0.73192300766E+02  0.41800000000E+01 0.  1.
         -5    1    4    4    0  501  0.45166765017E+02  0.15350113859E+03 -0.24623051678E+03  0.29368278125E+03  0.41800000000E+01 0.  1.
</event>
<event>
11    1  0.8974665E-009  0.1538184E+03  0.7561462E-02  0.1093040E+00
         22   -1    0    0    0    0  0.00000000000E+00  0.00000000000E+00  0.15216762713E+04  0.15216762713E+04  0.00000000000E+00 0. -1.
         22   -1    0    0    0    0 -0.00000000000E+00 -0.00000000000E+00 -0.52722740044E+03  0.52722740044E+03  0.00000000000E+00 0.  1.
         24    2    1    2    0    0 -0.88390578972E+01  0.50736698289E+01 -0.50042710594E+03  0.50686327819E+03  0.79870040346E+02 0.  0.
         25    2    1    2    0    0 -0.49384637484E+02 -0.73366154474E+02  0.26319719475E+03  0.30453312058E+03  0.12508486384E+03 0.  0.
        -24    2    1    2    0    0  0.58223695381E+02  0.68292484646E+02  0.12316787820E+04  0.12375072729E+04  0.79610089484E+02 0.  0.
        -13    1    3    3    0    0 -0.30594833625E+02  0.28768963624E+02 -0.18041309405E+03  0.18523655584E+03  0.00000000000E+00 0.  1.
         14    1    3    3    0    0  0.21755775728E+02 -0.23695293795E+02 -0.32001401189E+03  0.32162672235E+03  0.00000000000E+00 0. -1.
         11    1    5    5    0    0  0.33962704212E+01  0.64855744805E+02  0.64391531724E+03  0.64718215215E+03  0.00000000000E+00 0. -1.
        -12    1    5    5    0    0  0.54827424960E+02  0.34367398408E+01  0.58776346478E+03  0.59032512079E+03  0.00000000000E+00 0.  1.
          5    1    4    4  501    0 -0.18598192840E+02  0.35231642417E+02  0.75522530688E+02  0.85488516456E+02  0.41800000000E+01 0. -1.
         -5    1    4    4    0  501 -0.30786444644E+02 -0.10859779689E+03  0.18767466406E+03  0.21904460412E+03  0.41800000000E+01 0. -1.
</event>
<event>
11    1  0.8974665E-009  0.1539377E+03  0.7561462E-02  0.1092922E+00
         22   -1    0    0    0    0  0.00000000000E+00  0.00000000000E+00  0.16458784304E+04  0.16458784304E+04  0.00000000000E+00 0.  1.
         22   -1    0    0    0    0 -0.00000000000E+00 -0.00000000000E+00 -0.31289199052E+03  0.31289199052E+03  0.00000000000E+00 0. -1.
         24    2    1    2    0    0 -0.28846566164E+02 -0.89618313272E+02 -0.19942413604E+03  0.23452530004E+03  0.79803282304E+02 0.  0.
         25    2    1    2    0    0  0.23679005105E+02 -0.24136497909E+01 -0.49892103905E+02  0.13675965782E+03  0.12508981168E+03 0.  0.
        -24    2    1    2    0    0  0.51675610594E+01  0.92031963063E+02  0.15823026798E+04  0.15874854630E+04  0.89060310729E+02 0.  0.
        -13    1    3    3    0    0 -0.19985980723E+02 -0.87638777292E+01 -0.11591096157E+03  0.11794742893E+03  0.00000000000E+00 0.  1.
         14    1    3    3    0    0 -0.88605854409E+01 -0.80854435543E+02 -0.83513174472E+02  0.11657787111E+03  0.00000000000E+00 0. -1.
         13    1    5    5    0    0  0.49244731482E+01  0.25948777468E+02  0.91943059169E+02  0.95661463596E+02  0.00000000000E+00 0. -1.
        -14    1    5    5    0    0  0.24308791115E+00  0.66083185595E+02  0.14903596206E+04  0.14918239994E+04  0.00000000000E+00 0.  1.
          5    1    4    4  501    0 -0.39502478911E+02  0.35177062940E+02 -0.14192757376E+02  0.54925206955E+02  0.41800000000E+01 0. -1.
         -5    1    4    4    0  501  0.63181484015E+02 -0.37590712731E+02 -0.35699346529E+02  0.81834450866E+02  0.41800000000E+01 0. -1.
</event>
<event>
11    1  0.8974665E-009  0.1381469E+03  0.7561462E-02  0.1109645E+00
         22   -1    0    0    0    0  0.00000000000E+00  0.00000000000E+00  0.99088157413E+02  0.99088157413E+02  0.00000000000E+00 0. -1.
         22   -1    0    0    0    0 -0.00000000000E+00 -0.00000000000E+00 -0.19257518384E+04  0.19257518384E+04  0.00000000000E+00 0.  1.
        -24    2    1    2    0    0  0.18116883077E+02  0.64927901720E+01 -0.13648037450E+04  0.13673159481E+04  0.80580777290E+02 0.  0.
         25    2    1    2    0    0  0.17060814370E+02 -0.53735098319E+02 -0.52327430588E+03  0.54096345878E+03  0.12508769870E+03 0.  0.
         24    2    1    2    0    0 -0.35177697447E+02  0.47242308146E+02  0.61414369914E+02  0.11656058895E+03  0.79657642371E+02 0.  0.
        -13    1    5    5    0    0  0.34740124242E+01 -0.20121200592E+02  0.64479590642E+01  0.21412791777E+02  0.00000000000E+00 0.  1.
         14    1    5    5    0    0 -0.38651709871E+02  0.67363508738E+02  0.54966410850E+02  0.95147797175E+02  0.00000000000E+00 0. -1.
         11    1    3    3    0    0 -0.29000841514E+02 -0.12948381966E+02 -0.48921659515E+03  0.49024645473E+03  0.00000000000E+00 0. -1.
        -12    1    3    3    0    0  0.47117724591E+02  0.19441172138E+02 -0.87558714989E+03  0.87706949337E+03  0.00000000000E+00 0.  1.
          5    1    4    4  501    0  0.69863987189E+02 -0.45425728366E+02 -0.30603930683E+03  0.31720971490E+03  0.41800000000E+01 0. -1.
         -5    1    4    4    0  501 -0.52803172819E+02 -0.83093699522E+01 -0.21723499905E+03  0.22375374388E+03  0.41800000000E+01 0. -1.
</event>
<event>
11    1  0.8974665E-009  0.1527301E+03  0.7561462E-02  0.1094121E+00
         22   -1    0    0    0    0  0.00000000000E+00  0.00000000000E+00  0.59989083825E+03  0.59989083825E+03  0.00000000000E+00 0.  1.
         22   -1    0    0    0    0 -0.00000000000E+00 -0.00000000000E+00 -0.24214270317E+03  0.24214270317E+03  0.00000000000E+00 0. -1.
         24    2    1    2    0    0 -0.12443665760E+02  0.38826443251E+02 -0.18859074231E+03  0.20946362602E+03  0.81524260351E+02 0.  0.
         25    2    1    2    0    0 -0.33130193278E+02  0.45155496696E+02  0.10122826236E+03  0.17038494430E+03  0.12508892658E+03 0.  0.
        -24    2    1    2    0    0  0.45573859038E+02 -0.83981939947E+02  0.44511061503E+03  0.46218497111E+03  0.79759294381E+02 0.  0.
        -11    1    3    3    0    0  0.75507411168E+01 -0.98452747193E+01  0.12456911758E+01  0.12469758306E+02  0.00000000000E+00 0.  1.
         12    1    3    3    0    0 -0.19994406877E+02  0.48671717970E+02 -0.18983643349E+03  0.19699386771E+03  0.00000000000E+00 0. -1.
         11    1    5    5    0    0  0.14380350762E+02 -0.13969123575E+02  0.14340871796E+02  0.24649371298E+02  0.00000000000E+00 0. -1.
        -12    1    5    5    0    0  0.31193508276E+02 -0.70012816372E+02  0.43076974323E+03  0.43753559981E+03  0.00000000000E+00 0.  1.
          5    1    4    4  501    0 -0.79139912435E+02  0.17570887226E+02  0.46108356894E+02  0.93355850345E+02  0.41800000000E+01 0. -1.
         -5    1    4    4    0  501  0.46009719157E+02  0.27584609470E+02  0.55119905464E+02  0.77029093951E+02  0.41800000000E+01 0. -1.
</event>
<event>
11    1  0.8974665E-009  0.1443429E+03  0.7561462E-02  0.1102804E+00
         22   -1    0    0    0    0  0.00000000000E+00  0.00000000000E+00  0.27374874094E+04  0.27374874094E+04  0.00000000000E+00 0. -1.
         22   -1    0    0    0    0 -0.00000000000E+00 -0.00000000000E+00 -0.12416388879E+03  0.12416388879E+03  0.00000000000E+00 0.  1.
         24    2    1    2    0    0 -0.64337305856E+01 -0.33521586760E+02 -0.99908980464E+02  0.13304654474E+03  0.80959798793E+02 0.  0.
         25    2    1    2    0    0 -0.65603514794E+02  0.16362667065E+02  0.77362517114E+03  0.78658493232E+03  0.12509353423E+03 0.  0.
        -24    2    1    2    0    0  0.72037245380E+02  0.17158919696E+02  0.19396073299E+04  0.19420198211E+04  0.62294446740E+02 0.  0.
        -11    1    3    3    0    0 -0.25487781096E+01 -0.63998340408E+01 -0.10496038230E+03  0.10518619680E+03  0.00000000000E+00 0.  1.
         12    1    3    3    0    0 -0.38849524760E+01 -0.27121752720E+02  0.50514018363E+01  0.27860347931E+02  0.00000000000E+00 0. -1.
         11    1    5    5    0    0  0.75080383891E+02  0.31043975055E+02  0.17473161742E+04  0.17492039918E+04  0.00000000000E+00 0. -1.
        -12    1    5    5    0    0 -0.30431385108E+01 -0.13885055360E+02  0.19229115572E+03  0.19281582929E+03  0.00000000000E+00 0.  1.
          5    1    4    4  501    0  0.19363815935E+02 -0.33341607900E+02  0.13711039939E+03  0.14248983895E+03  0.41800000000E+01 0.  1.
         -5    1    4    4    0  501 -0.84967330729E+02  0.49704274965E+02  0.63651477175E+03  0.64409509336E+03  0.41800000000E+01 0.  1.
</event>
<event>
11    1  0.8974665E-009  0.2521632E+03  0.7561462E-02  0.1022753E+00
         22   -1    0    0    0    0  0.00000000000E+00  0.00000000000E+00  0.55394881761E+03  0.55394881761E+03  0.00000000000E+00 0. -1.
         22   -1    0    0    0    0 -0.00000000000E+00 -0.00000000000E+00 -0.19927818205E+04  0.19927818205E+04  0.00000000000E+00 0.  1.
         24    2    1    2    0    0  0.55900653205E+02  0.20977317542E+03 -0.18430535960E+04  0.18580027623E+04  0.90543021320E+02 0.  0.
         25    2    1    2    0    0 -0.85307399947E+02 -0.24212093076E+03  0.12346748095E+02  0.28583158493E+03  0.12508938866E+03 0.  0.
        -24    2    1    2    0    0  0.29406746742E+02  0.32347755342E+02  0.39187384500E+03  0.40289629093E+03  0.82759753600E+02 0.  0.
        -13    1    3    3    0    0  0.65919560144E+02  0.20858034945E+03 -0.16176333052E+04  0.16323567810E+04  0.00000000000E+00 0.  1.
         14    1    3    3    0    0 -0.10018906939E+02  0.11928259767E+01 -0.22542029084E+03  0.22564598124E+03  0.00000000000E+00 0. -1.
         11    1    5    5    0    0  0.44667739599E+01 -0.89357348104E+01  0.29009981949E+03  0.29027177730E+03  0.00000000000E+00 0. -1.
        -12    1    5    5    0    0  0.24939972782E+02  0.41283490153E+02  0.10177402551E+03  0.11262451363E+03  0.00000000000E+00 0.  1.
          5    1    4    4  501    0 -0.50060690768E+02 -0.28524082797E+02  0.35921978137E+02  0.68026149184E+02  0.41800000000E+01 0.  1.
         -5    1    4    4    0  501 -0.35246709180E+02 -0.21359684797E+03 -0.23575230042E+02  0.21780543575E+03  0.41800000000E+01 0.  1.
</event>
<event>
11    1  0.8974665E-009  0.1883712E+03  0.7561462E-02  0.1063066E+00
         22   -1    0    0    0    0  0.00000000000E+00  0.00000000000E+00  0.10849990838E+03  0.10849990838E+03  0.00000000000E+00 0. -1.
         22   -1    0    0    0    0 -0.00000000000E+00 -0.00000000000E+00 -0.13746765404E+04  0.13746765404E+04  0.00000000000E+00 0. -1.
        -24    2    1    2    0    0 -0.17924409902E+03 -0.31022695309E+02 -0.97561444444E+03  0.99566802134E+03  0.80252164247E+02 0.  0.
         25    2    1    2    0    0  0.61490607100E+02  0.51226100355E+02 -0.30836611501E+03  0.34225905606E+03  0.12508554054E+03 0.  0.
         24    2    1    2    0    0  0.11775349192E+03 -0.20203405046E+02  0.17803927456E+02  0.14524937134E+03  0.80661872079E+02 0.  0.
        -11    1    5    5    0    0  0.25508902758E+02  0.25558289445E+02  0.21835649032E+02  0.42198647465E+02  0.00000000000E+00 0.  1.
         12    1    5    5    0    0  0.92244589166E+02 -0.45761694491E+02 -0.40317215766E+01  0.10305072388E+03  0.00000000000E+00 0. -1.
         11    1    3    3    0    0 -0.17433369528E+03 -0.42356511401E+02 -0.95443381028E+03  0.97114891215E+03  0.00000000000E+00 0. -1.
        -12    1    3    3    0    0 -0.49104037418E+01  0.11333816092E+02 -0.21180634161E+02  0.24519109192E+02  0.00000000000E+00 0.  1.
          5    1    4    4  501    0 -0.19287517294E+02  0.44783372936E+02 -0.44314622242E+02  0.66021337152E+02  0.41800000000E+01 0. -1.
         -5    1    4    4    0  501  0.80778124394E+02  0.64427274197E+01 -0.26405149277E+03  0.27623771891E+03  0.41800000000E+01 0. -1.
</event>
<event>
11    1  0.9460857E-009  0.1588006E+03  0.7561462E-02  0.1088211E+00
         22   -1    0    0    0    0  0.00000000000E+00  0.00000000000E+00  0.14783686515E+03  0.14783686515E+03  0.00000000000E+00 0.  1.
         22   -1    0    0    0    0 -0.00000000000E+00 -0.00000000000E+00 -0.95968539098E+03  0.95968539098E+03  0.00000000000E+00 0. -1.
         24    2    1    2    0    0 -0.35835091691E+02  0.38528345353E+02 -0.57139324390E+03  0.57948144294E+03  0.80869749210E+02 0.  0.
         25    2    1    2    0    0  0.13064702029E+03 -0.32873279357E+02 -0.32807781016E+03  0.37607021082E+03  0.12507780594E+03 0.  0.
        -24    2    1    2    0    0 -0.94811928597E+02 -0.56550659953E+01  0.87622528226E+02  0.15197060238E+03  0.79975464738E+02 0.  0.
        -11    1    3    3    0    0  0.18285938864E+02 -0.11728708626E+02 -0.16597332892E+03  0.16738902018E+03  0.00000000000E+00 0.  1.
         12    1    3    3    0    0 -0.54121030555E+02  0.50257053978E+02 -0.40541991498E+03  0.41209242275E+03  0.00000000000E+00 0. -1.
         13    1    5    5    0    0 -0.13055341199E+02 -0.86739402104E+01 -0.14339447151E+02  0.21243797146E+02  0.00000000000E+00 0. -1.
        -14    1    5    5    0    0 -0.81756587398E+02  0.30188742151E+01  0.10196197538E+03  0.13072680524E+03  0.00000000000E+00 0.  1.
          5    1    4    4  501    0  0.60911406976E+02 -0.39204981201E+02 -0.47185759119E+02  0.86551708905E+02  0.41800000000E+01 0. -1.
         -5    1    4    4    0  501  0.69735613313E+02  0.63317018439E+01 -0.28089205104E+03  0.28951850191E+03  0.41800000000E+01 0. -1.
</event>
<event>
11    1  0.8974665E-009  0.1568881E+03  0.7561462E-02  0.1090041E+00
         22   -1    0    0    0    0  0.00000000000E+00  0.00000000000E+00  0.18342252585E+03  0.18342252585E+03  0.00000000000E+00 0.  1.
         22   -1    0    0    0    0 -0.00000000000E+00 -0.00000000000E+00 -0.11204666665E+04  0.11204666665E+04  0.00000000000E+00 0. -1.
         24    2    1    2    0    0  0.52311720240E+02  0.83287474981E+02 -0.86485430741E+03  0.87411837012E+03  0.80228625588E+02 0.  0.
         25    2    1    2    0    0 -0.70173062417E+02 -0.44297130059E+02 -0.21319140127E+03  0.26073570642E+03  0.12508413412E+03 0.  0.
        -24    2    1    2    0    0  0.17861342177E+02 -0.38990344922E+02  0.14100156805E+03  0.16903511578E+03  0.82777736341E+02 0.  0.
        -13    1    3    3    0    0 -0.10631419010E+02  0.21192780340E+02 -0.61484091908E+02  0.65897303181E+02  0.00000000000E+00 0.  1.
         14    1    3    3    0    0  0.62943139249E+02  0.62094694641E+02 -0.80337021550E+03  0.80822106694E+03  0.00000000000E+00 0. -1.
         11    1    5    5    0    0 -0.14430685166E+02  0.13100064580E+02  0.53961850201E+01  0.20223134751E+02  0.00000000000E+00 0. -1.
        -12    1    5    5    0    0  0.32292027344E+02 -0.52090409502E+02  0.13560538303E+03  0.14881198103E+03  0.00000000000E+00 0.  1.
          5    1    4    4  501    0 -0.41148549808E+02 -0.93455483185E+01  0.32003493983E+00  0.42404212609E+02  0.41800000000E+01 0. -1.
         -5    1    4    4    0  501 -0.29024512609E+02 -0.34951581741E+02 -0.21351143621E+03  0.21833149381E+03  0.41800000000E+01 0. -1.
</event>
<event>
11    1  0.8974665E-009  0.1512550E+03  0.7561462E-02  0.1095603E+00
         22   -1    0    0    0    0  0.00000000000E+00  0.00000000000E+00  0.17309453681E+03  0.17309453681E+03  0.00000000000E+00 0.  1.
         22   -1    0    0    0    0 -0.00000000000E+00 -0.00000000000E+00 -0.52532149258E+03  0.52532149258E+03  0.00000000000E+00 0. -1.
         24    2    1    2    0    0 -0.49257147099E+02  0.98158360966E+01 -0.40812689741E+03  0.41745531892E+03  0.71963613919E+02 0.  0.
         25    2    1    2    0    0  0.97425568230E+02  0.45719269914E+02  0.31225380180E+02  0.16795102857E+03  0.12510208089E+03 0.  0.
        -24    2    1    2    0    0 -0.48168421132E+02 -0.55535106010E+02  0.24674561454E+02  0.11300968190E+03  0.82207112986E+02 0.  0.
        -13    1    3    3    0    0  0.14654152445E+02 -0.43090539393E+01 -0.16388031026E+03  0.16459060794E+03  0.00000000000E+00 0.  1.
         14    1    3    3    0    0 -0.63911299543E+02  0.14124890036E+02 -0.24424658714E+03  0.25286471098E+03  0.00000000000E+00 0. -1.
         13    1    5    5    0    0 -0.21985485429E+02 -0.35102734699E+02 -0.28526936581E+02  0.50292640253E+02  0.00000000000E+00 0. -1.
        -14    1    5    5    0    0 -0.26182935703E+02 -0.20432371311E+02  0.53201498034E+02  0.62717041644E+02  0.00000000000E+00 0.  1.
          5    1    4    4  501    0  0.10964843653E+03 -0.47297428617E+01  0.57583169489E+01  0.10998081976E+03  0.41800000000E+01 0. -1.
         -5    1    4    4    0  501 -0.12222868302E+02  0.50449012776E+02  0.25467063231E+02  0.57970208807E+02  0.41800000000E+01 0. -1.
</event>
<event>
11    1  0.8974665E-009  0.1748027E+03  0.7561462E-02  0.1073926E+00
         22   -1    0    0    0    0  0.00000000000E+00  0.00000000000E+00  0.34581317533E+04  0.34581317533E+04  0.00000000000E+00 0.  1.
         22   -1    0    0    0    0 -0.00000000000E+00 -0.00000000000E+00 -0.78660280073E+02  0.78660280073E+02  0.00000000000E+00 0. -1.
        -24    2    1    2    0    0 -0.78357530281E+02 -0.89666765401E+02  0.23161454295E+02  0.15270659706E+03  0.92751390570E+02 0.  0.
         25    2    1    2    0    0  0.13035206897E+03  0.81476370329E+02  0.74030213087E+03  0.76637119543E+03  0.12508998123E+03 0.  0.
         24    2    1    2    0    0 -0.51994538686E+02  0.81903950722E+01  0.26160078881E+04  0.26177142409E+04  0.78486061757E+02 0.  0.
        -13    1    5    5    0    0 -0.40037309264E+02 -0.15283073734E+02  0.23530221215E+04  0.23534123444E+04  0.00000000000E+00 0.  1.
         14    1    5    5    0    0 -0.11957229422E+02  0.23473468806E+02  0.26298576656E+03  0.26430189649E+03  0.00000000000E+00 0. -1.
         13    1    3    3    0    0 -0.83885343013E+02 -0.95655053669E+02 -0.97600023513E+00  0.12723047057E+03  0.00000000000E+00 0. -1.
        -14    1    3    3    0    0  0.55278127319E+01  0.59882882680E+01  0.24137454530E+02  0.25476126495E+02  0.00000000000E+00 0.  1.
          5    1    4    4  501    0  0.59136728907E+02 -0.29523484889E+02  0.24385296373E+03  0.25268662249E+03  0.41800000000E+01 0. -1.
         -5    1    4    4    0  501  0.71215340060E+02  0.11099985522E+03  0.49644916714E+03  0.51368457294E+03  0.41800000000E+01 0. -1.
</event>
<event>
11    1  0.8974665E-009  0.1600017E+03  0.7561462E-02  0.1087076E+00
         22   -1    0    0    0    0  0.00000000000E+00  0.00000000000E+00  0.71864778324E+03  0.71864778324E+03  0.00000000000E+00 0.  1.
         22   -1    0    0    0    0 -0.00000000000E+00 -0.00000000000E+00 -0.22920504250E+03  0.22920504250E+03  0.00000000000E+00 0.  1.
         24    2    1    2    0    0  0.52799933110E+01 -0.70314719123E+01 -0.15933746562E+03  0.17831659511E+03  0.79567959714E+02 0.  0.
         25    2    1    2    0    0 -0.10434190260E+03  0.85263310270E+01  0.73433221614E+02  0.17888811027E+03  0.12509431243E+03 0.  0.
        -24    2    1    2    0    0  0.99061909286E+02 -0.14948591148E+01  0.57534698475E+03  0.59064812036E+03  0.89585449427E+02 0.  0.
        -13    1    3    3    0    0  0.15129227528E+02  0.32841551152E+02 -0.98372266833E+02  0.10480727021E+03  0.00000000000E+00 0.  1.
         14    1    3    3    0    0 -0.98492342168E+01 -0.39873023064E+02 -0.60965198788E+02  0.73509324893E+02  0.00000000000E+00 0. -1.
         11    1    5    5    0    0  0.13384261911E+01 -0.98947795592E+01  0.37013739195E+01  0.10648859849E+02  0.00000000000E+00 0. -1.
        -12    1    5    5    0    0  0.97723483095E+02  0.83999204444E+01  0.57164561083E+03  0.57999926051E+03  0.00000000000E+00 0.  1.
          5    1    4    4  501    0  0.26135159341E+02 -0.15076583722E+02  0.13867692330E+02  0.33468421251E+02  0.41800000000E+01 0. -1.
         -5    1    4    4    0  501 -0.13047706194E+03  0.23602914749E+02  0.59565529284E+02  0.14541968902E+03  0.41800000000E+01 0. -1.
</event>
<event>
11    1  0.8974665E-009  0.1315439E+03  0.7561462E-02  0.1117386E+00
         22   -1    0    0    0    0  0.00000000000E+00  0.00000000000E+00  0.26782125639E+03  0.26782125639E+03  0.00000000000E+00 0.  1.
         22   -1    0    0    0    0 -0.00000000000E+00 -0.00000000000E+00 -0.51690278404E+03  0.51690278404E+03  0.00000000000E+00 0.  1.
        -24    2    1    2    0    0 -0.30708938420E+02  0.40714189347E+02 -0.29896297374E+03  0.31424589540E+03  0.82285715616E+02 0.  0.
         25    2    1    2    0    0  0.23234502225E+02  0.22107755850E+01 -0.18174611146E+03  0.22186890532E+03  0.12509769181E+03 0.  0.
         24    2    1    2    0    0  0.74744361947E+01 -0.42924964932E+02  0.23162755755E+03  0.24860923970E+03  0.79099992667E+02 0.  0.
        -13    1    5    5    0    0  0.30932510479E+02 -0.33624008852E+02  0.21136435604E+03  0.21624589055E+03  0.00000000000E+00 0.  1.
         14    1    5    5    0    0 -0.23458074284E+02 -0.93009560807E+01  0.20263201508E+02  0.32363349154E+02  0.00000000000E+00 0. -1.
         11    1    3    3    0    0 -0.30398481958E+02  0.27804924719E+02 -0.49290291348E+02  0.64239507822E+02  0.00000000000E+00 0. -1.
        -12    1    3    3    0    0 -0.31045646150E+00  0.12909264628E+02 -0.24967268239E+03  0.25000638758E+03  0.00000000000E+00 0.  1.
          5    1    4    4  501    0 -0.46332711834E+02  0.25491905762E+02 -0.64652375167E+02  0.83629895731E+02  0.41800000000E+01 0. -1.
         -5    1    4    4    0  501  0.69567214059E+02 -0.23281130177E+02 -0.11709373629E+03  0.13823900959E+03  0.41800000000E+01 0. -1.
</event>
<event>
11    1  0.8974665E-009  0.1658230E+03  0.7561462E-02  0.1081725E+00
         22   -1    0    0    0    0  0.00000000000E+00  0.00000000000E+00  0.23918622915E+03  0.23918622915E+03  0.00000000000E+00 0.  1.
         22   -1    0    0    0    0 -0.00000000000E+00 -0.00000000000E+00 -0.12085047047E+04  0.12085047047E+04  0.00000000000E+00 0. -1.
        -24    2    1    2    0    0 -0.11367255384E+02 -0.11980782654E+03 -0.88369970439E+03  0.89626151171E+03  0.88749084772E+02 0.  0.
         25    2    1    2    0    0 -0.52363969932E+02  0.74253041026E+02 -0.28391712429E+03  0.32328100843E+03  0.12508468132E+03 0.  0.
         24    2    1    2    0    0  0.63731225316E+02  0.45554785512E+02  0.19829835317E+03  0.22814841366E+03  0.81194545516E+02 0.  0.
        -13    1    5    5    0    0  0.43266064649E+02  0.52165874213E+02  0.19493509722E+03  0.20638052939E+03  0.00000000000E+00 0.  1.
         14    1    5    5    0    0  0.20465160667E+02 -0.66110887019E+01  0.33632559491E+01  0.21767884268E+02  0.00000000000E+00 0. -1.
         13    1    3    3    0    0  0.13132270073E+00 -0.74669367092E+02 -0.76674510460E+03  0.77037236909E+03  0.00000000000E+00 0. -1.
        -14    1    3    3    0    0 -0.11498578085E+02 -0.45138459445E+02 -0.11695459979E+03  0.12588914262E+03  0.00000000000E+00 0.  1.
          5    1    4    4  501    0 -0.22275662212E+02  0.24223359136E+02 -0.25652045497E+03  0.25865651446E+03  0.41800000000E+01 0. -1.
         -5    1    4    4    0  501 -0.30088307719E+02  0.50029681890E+02 -0.27396669319E+02  0.64624493972E+02  0.41800000000E+01 0. -1.
</event>
<event>
11    1  0.8974665E-009  0.1475218E+03  0.7561462E-02  0.1099438E+00
         22   -1    0    0    0    0  0.00000000000E+00  0.00000000000E+00  0.57840840948E+02  0.57840840948E+02  0.00000000000E+00 0. -1.
         22   -1    0    0    0    0 -0.00000000000E+00 -0.00000000000E+00 -0.29408605053E+04  0.29408605053E+04  0.00000000000E+00 0.  1.
         24    2    1    2    0    0 -0.49668534587E+02 -0.59161774736E+02 -0.23459590114E+04  0.23487210512E+04  0.83664893817E+02 0.  0.
         25    2    1    2    0    0  0.35358422020E+02  0.81364750860E+02 -0.54200024804E+03  0.56327841784E+03  0.12509143232E+03 0.  0.
        -24    2    1    2    0    0  0.14310112567E+02 -0.22202976124E+02  0.49395950231E+01  0.86701877231E+02  0.82432180888E+02 0.  0.
        -13    1    3    3    0    0 -0.35479952644E+02 -0.63459829315E+02 -0.98435902924E+03  0.98704036159E+03  0.00000000000E+00 0.  1.
         14    1    3    3    0    0 -0.14188581942E+02  0.42980545789E+01 -0.13615999821E+04  0.13616806896E+04  0.00000000000E+00 0. -1.
         11    1    5    5    0    0 -0.30739511715E+02 -0.20895151527E+02  0.15728704864E+02  0.40359845076E+02  0.00000000000E+00 0. -1.
        -12    1    5    5    0    0  0.45049624282E+02 -0.13078245964E+01 -0.10789109841E+02  0.46342032155E+02  0.00000000000E+00 0.  1.
          5    1    4    4  501    0  0.42732021569E+02  0.46946647938E+02 -0.51449121261E+03  0.51840977390E+03  0.41800000000E+01 0.  1.
         -5    1    4    4    0  501 -0.73735995495E+01  0.34418102921E+02 -0.27509035429E+02  0.44868643943E+02  0.41800000000E+01 0.  1.
</event>
<event>
11    1  0.8974665E-009  0.1637848E+03  0.7561462E-02  0.1083571E+00
         22   -1    0    0    0    0  0.00000000000E+00  0.00000000000E+00  0.54172771522E+03  0.54172771522E+03  0.00000000000E+00 0. -1.
         22   -1    0    0    0    0 -0.00000000000E+00 -0.00000000000E+00 -0.51594266336E+03  0.51594266336E+03  0.00000000000E+00 0.  1.
         24    2    1    2    0    0  0.20793416123E+02 -0.10342126352E+03 -0.33486663996E+03  0.36007098005E+03  0.79919460778E+02 0.  0.
         25    2    1    2    0    0  0.47630594399E+02  0.11345578871E+03 -0.11538299834E+03  0.21000382666E+03  0.12508989324E+03 0.  0.
        -24    2    1    2    0    0 -0.68424010521E+02 -0.10034525194E+02  0.47603469015E+03  0.48759557188E+03  0.79736306509E+02 0.  0.
        -13    1    3    3    0    0 -0.12285998195E+02 -0.97850032281E+02 -0.25787085731E+03  0.27608504780E+03  0.00000000000E+00 0.  1.
         14    1    3    3    0    0  0.33079414318E+02 -0.55712312344E+01 -0.76995782650E+02  0.83985932244E+02  0.00000000000E+00 0. -1.
         11    1    5    5    0    0 -0.86427442796E+02 -0.39347469051E+01  0.39408923770E+03  0.40347430199E+03  0.00000000000E+00 0. -1.
        -12    1    5    5    0    0  0.18003432274E+02 -0.60997782893E+01  0.81945452457E+02  0.84121269886E+02  0.00000000000E+00 0.  1.
          5    1    4    4  501    0 -0.39478241848E+02  0.63691252170E+02 -0.48438146936E+02  0.89324317299E+02  0.41800000000E+01 0.  1.
         -5    1    4    4    0  501  0.87108836247E+02  0.49764536541E+02 -0.66944851403E+02  0.12067950936E+03  0.41800000000E+01 0.  1.
</event>
<event>
11    1  0.8974665E-009  0.1836931E+03  0.7561462E-02  0.1066694E+00
         22   -1    0    0    0    0  0.00000000000E+00  0.00000000000E+00  0.21897113997E+04  0.21897113997E+04  0.00000000000E+00 0.  1.
         22   -1    0    0    0    0 -0.00000000000E+00 -0.00000000000E+00 -0.11627371241E+04  0.11627371241E+04  0.00000000000E+00 0.  1.
         24    2    1    2    0    0  0.56261733343E+01  0.12376109598E+02 -0.11239862291E+04  0.11268025037E+04  0.78447544430E+02 0.  0.
         25    2    1    2    0    0  0.12935886434E+03 -0.12901090790E+02  0.20369875242E+03  0.27210400774E+03  0.12508898979E+03 0.  0.
        -24    2    1    2    0    0 -0.13498503767E+03  0.52498119190E+00  0.19472617523E+04  0.19535420123E+04  0.79226421843E+02 0.  0.
        -13    1    3    3    0    0 -0.33140908597E+02  0.85538345077E+01 -0.75281569666E+03  0.75359336585E+03  0.00000000000E+00 0.  1.
         14    1    3    3    0    0  0.38767081931E+02  0.38222750904E+01 -0.37117053246E+03  0.37320913788E+03  0.00000000000E+00 0. -1.
         11    1    5    5    0    0 -0.35709269353E+02 -0.43091054234E+01  0.10807594193E+04  0.10813577774E+04  0.00000000000E+00 0. -1.
        -12    1    5    5    0    0 -0.99275768317E+02  0.48340866153E+01  0.86650233299E+03  0.87218423492E+03  0.00000000000E+00 0.  1.
          5    1    4    4  501    0  0.63147005142E+02 -0.64396139422E+02  0.70122772478E+02  0.11432008857E+03  0.41800000000E+01 0.  1.
         -5    1    4    4    0  501  0.66211859193E+02  0.51495048632E+02  0.13357597994E+03  0.15778391917E+03  0.41800000000E+01 0.  1.
</event>
<event>
11    1  0.8974665E-009  0.1593670E+03  0.7561462E-02  0.1087674E+00
         22   -1    0    0    0    0  0.00000000000E+00  0.00000000000E+00  0.12407984031E+03  0.12407984031E+03  0.00000000000E+00 0.  1.
         22   -1    0    0    0    0 -0.00000000000E+00 -0.00000000000E+00 -0.57431486371E+03  0.57431486371E+03  0.00000000000E+00 0. -1.
        -24    2    1    2    0    0  0.13395911132E+00  0.23147134134E+02 -0.35106335483E+03  0.36123386457E+03  0.81906153878E+02 0.  0.
         25    2    1    2    0    0 -0.51210828664E+02  0.66594104079E+02 -0.13498573545E+03  0.20230247642E+03  0.12509124477E+03 0.  0.
         24    2    1    2    0    0  0.51076869552E+02 -0.89741238213E+02  0.35814066889E+02  0.13485836304E+03  0.79005026767E+02 0.  0.
        -11    1    5    5    0    0  0.62930372920E+02 -0.87315768011E+02  0.47854265718E+02  0.11778924368E+03  0.00000000000E+00 0.  1.
         12    1    5    5    0    0 -0.11853503367E+02 -0.24254702023E+01 -0.12040198829E+02  0.17069119357E+02  0.00000000000E+00 0. -1.
         11    1    3    3    0    0 -0.28585295435E+02 -0.15200809921E+02 -0.86349868965E+02  0.92219757143E+02  0.00000000000E+00 0. -1.
        -12    1    3    3    0    0  0.28719254546E+02  0.38347944055E+02 -0.26471348586E+03  0.26901410742E+03  0.00000000000E+00 0.  1.
          5    1    4    4  501    0 -0.20785984020E+02 -0.31008003471E+02 -0.74519860498E+02  0.83451994701E+02  0.41800000000E+01 0. -1.
         -5    1    4    4    0  501 -0.30424844643E+02  0.97602107550E+02 -0.60465874957E+02  0.11885048172E+03  0.41800000000E+01 0. -1.
</event>
<event>
11    1  0.8974665E-009  0.1378661E+03  0.7561462E-02  0.1109965E+00
         22   -1    0    0    0    0  0.00000000000E+00  0.00000000000E+00  0.16509483703E+04  0.16509483703E+04  0.00000000000E+00 0. -1.
         22   -1    0    0    0    0 -0.00000000000E+00 -0.00000000000E+00 -0.20521684131E+03  0.20521684131E+03  0.00000000000E+00 0.  1.
        -24    2    1    2    0    0 -0.14736465059E+02  0.50465390082E+02 -0.16380798101E+03  0.18994141764E+03  0.80503220383E+02 0.  0.
         25    2    1    2    0    0 -0.23398710268E+02 -0.30595364467E+01  0.12535818826E+03  0.17866072551E+03  0.12509244209E+03 0.  0.
         24    2    1    2    0    0  0.38135175327E+02 -0.47405853635E+02  0.14841813217E+04  0.14875630684E+04  0.79674841120E+02 0.  0.
        -11    1    5    5    0    0  0.20045405520E+01  0.21889074068E+02  0.29681148586E+03  0.29762427301E+03  0.00000000000E+00 0.  1.
         12    1    5    5    0    0  0.36130634775E+02 -0.69294927703E+02  0.11873698359E+04  0.11899387954E+04  0.00000000000E+00 0. -1.
         11    1    3    3    0    0 -0.65598913350E+00 -0.20534832586E+02 -0.59755683719E+02  0.63189013348E+02  0.00000000000E+00 0. -1.
        -12    1    3    3    0    0 -0.14080475926E+02  0.71000222668E+02 -0.10405229729E+03  0.12675240429E+03  0.00000000000E+00 0.  1.
          5    1    4    4  501    0  0.39486317853E+02 -0.34701238409E+02  0.32079894515E+02  0.61724689362E+02  0.41800000000E+01 0.  1.
         -5    1    4    4    0  501 -0.62885028121E+02  0.31641701962E+02  0.93278293749E+02  0.11693603615E+03  0.41800000000E+01 0.  1.
</event>
<event>
11    1  0.8974665E-009  0.1876722E+03  0.7561462E-02  0.1063601E+00
         22   -1    0    0    0    0  0.00000000000E+00  0.00000000000E+00  0.12868495952E+04  0.12868495952E+04  0.00000000000E+00 0.  1.
         22   -1    0    0    0    0 -0.00000000000E+00 -0.00000000000E+00 -0.23917284181E+03  0.23917284181E+03  0.00000000000E+00 0. -1.
        -24    2    1    2    0    0 -0.11172602880E+03  0.90334419431E+02 -0.14444584164E+03  0.21866171329E+03  0.79406113393E+02 0.  0.
         25    2    1    2    0    0  0.10335725588E+03 -0.71833570736E+02  0.84657504626E+02  0.19661580669E+03  0.12509235837E+03 0.  0.
         24    2    1    2    0    0  0.83687729126E+01 -0.18500848695E+02  0.11074650904E+04  0.11107449170E+04  0.82843385418E+02 0.  0.
        -13    1    5    5    0    0 -0.19004327057E+02 -0.43426130926E+02  0.54181113354E+03  0.54388077529E+03  0.00000000000E+00 0.  1.
         14    1    5    5    0    0  0.27373099970E+02  0.24925282231E+02  0.56565395685E+03  0.56686414175E+03  0.00000000000E+00 0. -1.
         11    1    3    3    0    0 -0.10741437755E+03  0.44660130072E+02 -0.87660792005E+02  0.14565984408E+03  0.00000000000E+00 0. -1.
        -12    1    3    3    0    0 -0.43116512453E+01  0.45674289359E+02 -0.56785049639E+02  0.73001869205E+02  0.00000000000E+00 0.  1.
          5    1    4    4  501    0 -0.92483575621E+01  0.19877155233E+01  0.58476736426E+02  0.59384208622E+02  0.41800000000E+01 0.  1.
         -5    1    4    4    0  501  0.11260561345E+03 -0.73821286259E+02  0.26180768200E+02  0.13723159807E+03  0.41800000000E+01 0.  1.
</event>
<event>
11    1  0.8974665E-009  0.1316371E+03  0.7561462E-02  0.1117274E+00
         22   -1    0    0    0    0  0.00000000000E+00  0.00000000000E+00  0.17003287853E+03  0.17003287853E+03  0.00000000000E+00 0. -1.
         22   -1    0    0    0    0 -0.00000000000E+00 -0.00000000000E+00 -0.10001697349E+04  0.10001697349E+04  0.00000000000E+00 0. -1.
        -24    2    1    2    0    0 -0.20762884085E+02 -0.28066488254E+02 -0.82386725277E+03  0.82849083898E+03  0.80131111155E+02 0.  0.
         25    2    1    2    0    0 -0.21958776165E+02  0.26631721394E+02 -0.13297022529E+03  0.18579759556E+03  0.12509288255E+03 0.  0.
         24    2    1    2    0    0  0.42721660250E+02  0.14347668601E+01  0.12670062174E+03  0.15591417885E+03  0.80180950410E+02 0.  0.
        -11    1    5    5    0    0  0.21591591436E+02  0.31746834375E+02  0.20615273969E+02  0.43578065978E+02  0.00000000000E+00 0.  1.
         12    1    5    5    0    0  0.21130068813E+02 -0.30312067514E+02  0.10608534777E+03  0.11233611287E+03  0.00000000000E+00 0. -1.
         13    1    3    3    0    0 -0.42185321350E+01  0.11020528147E+02 -0.62650863170E+03  0.62661975205E+03  0.00000000000E+00 0. -1.
        -14    1    3    3    0    0 -0.16544351950E+02 -0.39087016400E+02 -0.19735862106E+03  0.20187108694E+03  0.00000000000E+00 0.  1.
          5    1    4    4  501    0  0.60531781517E+01  0.68726352947E+02 -0.11043665854E+03  0.13028307835E+03  0.41800000000E+01 0. -1.
         -5    1    4    4    0  501 -0.28011954316E+02 -0.42094631553E+02 -0.22533566755E+02  0.55514517209E+02  0.41800000000E+01 0. -1.
</event>
<event>
11    1  0.8974665E-009  0.1294156E+03  0.7561462E-02  0.1119989E+00
         22   -1    0    0    0    0  0.00000000000E+00  0.00000000000E+00  0.80116828714E+03  0.80116828714E+03  0.00000000000E+00 0.  1.
         22   -1    0    0    0    0 -0.00000000000E+00 -0.00000000000E+00 -0.11549014011E+03  0.11549014011E+03  0.00000000000E+00 0.  1.
         24    2    1    2    0    0  0.18515892243E+02  0.29216614724E+02 -0.73719063331E+02  0.11455245544E+03  0.80568703024E+02 0.  0.
         25    2    1    2    0    0  0.48077204489E+01 -0.23907605040E+02  0.20428947887E+03  0.24078090550E+03  0.12508623234E+03 0.  0.
        -24    2    1    2    0    0 -0.23323612692E+02 -0.53090096840E+01  0.55510773149E+03  0.56132506630E+03  0.79806390765E+02 0.  0.
        -13    1    3    3    0    0  0.33403612696E+02  0.50680240736E+02 -0.58606885506E+02  0.84374493604E+02  0.00000000000E+00 0.  1.
         14    1    3    3    0    0 -0.14887720452E+02 -0.21463626012E+02 -0.15112177825E+02  0.30177961834E+02  0.00000000000E+00 0. -1.
         13    1    5    5    0    0  0.25204742841E+02  0.58943657176E+01  0.92803384087E+02  0.96345683385E+02  0.00000000000E+00 0. -1.
        -14    1    5    5    0    0 -0.48528355533E+02 -0.11203375402E+02  0.46230434740E+03  0.46497938292E+03  0.00000000000E+00 0.  1.
          5    1    4    4  501    0  0.37899582530E+02  0.35403793052E+02  0.50041671834E+02  0.72190361118E+02  0.41800000000E+01 0.  1.
         -5    1    4    4    0  501 -0.33091862082E+02 -0.59311398092E+02  0.15424780704E+03  0.16859054439E+03  0.41800000000E+01 0.  1.
</event>
<event>
11    1  0.8974665E-009  0.2124314E+03  0.7561462E-02  0.1046065E+00
         22   -1    0    0    0    0  0.00000000000E+00  0.00000000000E+00  0.67505844352E+03  0.67505844352E+03  0.00000000000E+00 0.  1.
         22   -1    0    0    0    0 -0.00000000000E+00 -0.00000000000E+00 -0.32638003777E+04  0.32638003777E+04  0.00000000000E+00 0. -1.
         24    2    1    2    0    0 -0.13751958627E+03  0.55252256861E+02 -0.31161895122E+04  0.31208141106E+04  0.82940874025E+02 0.  0.
         25    2    1    2    0    0  0.98854517903E+01 -0.17911232223E+03 -0.35940632398E+02  0.22162301104E+03  0.12508430691E+03 0.  0.
        -24    2    1    2    0    0  0.12763413448E+03  0.12386006537E+03  0.56338821044E+03  0.59642169954E+03  0.81736038213E+02 0.  0.
        -11    1    3    3    0    0 -0.11010280728E+03  0.60620028102E+02 -0.18252552253E+04  0.18295775615E+04  0.00000000000E+00 0.  1.
         12    1    3    3    0    0 -0.27416778987E+02 -0.53677712409E+01 -0.12909342869E+04  0.12912365492E+04  0.00000000000E+00 0. -1.
         11    1    5    5    0    0  0.30532864120E+01 -0.81810446096E+01  0.72824828436E+02  0.73346490615E+02  0.00000000000E+00 0. -1.
        -12    1    5    5    0    0  0.12458084807E+03  0.13204110997E+03  0.49056338200E+03  0.52307520892E+03  0.00000000000E+00 0.  1.
          5    1    4    4  501    0  0.15649988946E+02 -0.62267651189E+02  0.45687756195E+02  0.78911507429E+02  0.41800000000E+01 0. -1.
         -5    1    4    4    0  501 -0.57645371560E+01 -0.11684467104E+03 -0.81628388593E+02  0.14271150361E+03  0.41800000000E+01 0. -1.
</event>
<event>
11    1  0.8974665E-009  0.1487993E+03  0.7561462E-02  0.1098112E+00
         22   -1    0    0    0    0  0.00000000000E+00  0.00000000000E+00  0.10244994870E+04  0.10244994870E+04  0.00000000000E+00 0. -1.
         22   -1    0    0    0    0 -0.00000000000E+00 -0.00000000000E+00 -0.86870223723E+03  0.86870223723E+03  0.00000000000E+00 0. -1.
        -24    2    1    2    0    0 -0.55733649545E+02  0.57933946087E+02 -0.83086735706E+03  0.83838692821E+03  0.78035213568E+02 0.  0.
         25    2    1    2    0    0  0.86880914510E+02 -0.42508380156E+02  0.16465464189E+03  0.22828271572E+03  0.12508633623E+03 0.  0.
         24    2    1    2    0    0 -0.31147264965E+02 -0.15425565930E+02  0.82200996498E+03  0.82653208034E+03  0.79036682057E+02 0.  0.
        -13    1    5    5    0    0 -0.34179171458E+02  0.24711035654E+02  0.29676276444E+03  0.29974487386E+03  0.00000000000E+00 0.  1.
         14    1    5    5    0    0  0.30319064928E+01 -0.40136601584E+02  0.52524720054E+03  0.52678720648E+03  0.00000000000E+00 0. -1.
         13    1    3    3    0    0 -0.64859758287E+02  0.29413032428E+02 -0.72109785966E+03  0.72460612606E+03  0.00000000000E+00 0. -1.
        -14    1    3    3    0    0  0.91261087426E+01  0.28520913658E+02 -0.10976949740E+03  0.11378080215E+03  0.00000000000E+00 0.  1.
          5    1    4    4  501    0  0.11013909305E+03 -0.23518012842E+02  0.79569983243E+02  0.13795858574E+03  0.41800000000E+01 0.  1.
         -5    1    4    4    0  501 -0.23258178541E+02 -0.18990367314E+02  0.85084658648E+02  0.90324129982E+02  0.41800000000E+01 0.  1.
</event>
<event>
11    1  0.8974665E-009  0.1258602E+03  0.7561462E-02  0.1124463E+00
         22   -1    0    0    0    0  0.00000000000E+00  0.00000000000E+00  0.35050686270E+03  0.35050686270E+03  0.00000000000E+00 0.  1.
         22   -1    0    0    0    0 -0.00000000000E+00 -0.00000000000E+00 -0.27330635375E+03  0.27330635375E+03  0.00000000000E+00 0.  1.
         24    2    1    2    0    0  0.40129268310E+00 -0.15102376322E+02 -0.15741266264E+03  0.17730008071E+03  0.80176863584E+02 0.  0.
         25    2    1    2    0    0  0.34090088244E+01  0.86253696150E+00 -0.60753479193E+02  0.13910690897E+03  0.12508949428E+03 0.  0.
        -24    2    1    2    0    0 -0.38103015075E+01  0.14239839361E+02  0.29536665078E+03  0.30740622677E+03  0.83903745100E+02 0.  0.
        -13    1    3    3    0    0 -0.11058130172E+02  0.27059601268E+02 -0.10536533107E+03  0.10934512909E+03  0.00000000000E+00 0.  1.
         14    1    3    3    0    0  0.11459422855E+02 -0.42161977590E+02 -0.52047331567E+02  0.67954951620E+02  0.00000000000E+00 0. -1.
         13    1    5    5    0    0 -0.35908641122E+02  0.18295286331E+01  0.23650563225E+03  0.23922310041E+03  0.00000000000E+00 0. -1.
        -14    1    5    5    0    0  0.32098339614E+02  0.12410310728E+02  0.58861018526E+02  0.68183126360E+02  0.00000000000E+00 0.  1.
          5    1    4    4  501    0 -0.11509733495E+02 -0.44627789140E+02  0.15645553314E+02  0.48850478679E+02  0.41800000000E+01 0.  1.
         -5    1    4    4    0  501  0.14918742319E+02  0.45490326102E+02 -0.76399032507E+02  0.90256430293E+02  0.41800000000E+01 0.  1.
</event>
<event>
11    1  0.8974665E-009  0.1559479E+03  0.7561462E-02  0.1090952E+00
         22   -1    0    0    0    0  0.00000000000E+00  0.00000000000E+00  0.51216939075E+03  0.51216939075E+03  0.00000000000E+00 0. -1.
         22   -1    0    0    0    0 -0.00000000000E+00 -0.00000000000E+00 -0.18478224904E+03  0.18478224904E+03  0.00000000000E+00 0.  1.
         24    2    1    2    0    0 -0.15422118727E+02  0.65262866797E+02 -0.10818994624E+03  0.14870999820E+03  0.76892883732E+02 0.  0.
         25    2    1    2    0    0 -0.26097304511E+02 -0.13726130209E+03  0.14885122079E+03  0.23942951823E+03  0.12509226161E+03 0.  0.
        -24    2    1    2    0    0  0.41519423238E+02  0.71998435293E+02  0.28672586717E+03  0.30881212335E+03  0.79028902517E+02 0.  0.
        -11    1    3    3    0    0 -0.44010059094E+02  0.24963924056E+02 -0.69437212744E+02  0.85916292514E+02  0.00000000000E+00 0.  1.
         12    1    3    3    0    0  0.28587940366E+02  0.40298942742E+02 -0.38752733501E+02  0.62793705690E+02  0.00000000000E+00 0. -1.
         11    1    5    5    0    0  0.11021740772E+02  0.77538616864E+02  0.15720077192E+03  0.17562972006E+03  0.00000000000E+00 0. -1.
        -12    1    5    5    0    0  0.30497682466E+02 -0.55401815711E+01  0.12952509525E+03  0.13318240330E+03  0.00000000000E+00 0.  1.
          5    1    4    4  501    0 -0.21833869910E+01 -0.56017084735E+01 -0.21530658827E+02  0.22741767436E+02  0.41800000000E+01 0.  1.
         -5    1    4    4    0  501 -0.23913917520E+02 -0.13165959362E+03  0.17038187961E+03  0.21668775079E+03  0.41800000000E+01 0.  1.
</event>
<event>
11    1  0.8974665E-009  0.2764201E+03  0.7561462E-02  0.1010696E+00
         22   -1    0    0    0    0  0.00000000000E+00  0.00000000000E+00  0.14794621594E+04  0.14794621594E+04  0.00000000000E+00 0.  1.
         22   -1    0    0    0    0 -0.00000000000E+00 -0.00000000000E+00 -0.33017942931E+04  0.33017942931E+04  0.00000000000E+00 0.  1.
        -24    2    1    2    0    0 -0.42507649787E+02 -0.24353060507E+03 -0.32656996379E+04  0.32760289740E+04  0.80359554075E+02 0.  0.
         25    2    1    2    0    0  0.75675155795E+02  0.17249404224E+03  0.42999652981E+03  0.48582468758E+03  0.12509071749E+03 0.  0.
         24    2    1    2    0    0 -0.33167506008E+02  0.71036562830E+02  0.10133709743E+04  0.10194027909E+04  0.78198733200E+02 0.  0.
        -11    1    5    5    0    0 -0.47191128201E+02  0.12190610633E+02  0.53667840466E+03  0.53888711582E+03  0.00000000000E+00 0.  1.
         12    1    5    5    0    0  0.14023622193E+02  0.58845952197E+02  0.47669256963E+03  0.48051567509E+03  0.00000000000E+00 0. -1.
         13    1    3    3    0    0 -0.32676153355E+01 -0.97694110881E+02 -0.84759244787E+03  0.85321027555E+03  0.00000000000E+00 0. -1.
        -14    1    3    3    0    0 -0.39240034451E+02 -0.14583649419E+03 -0.24181071900E+04  0.24228186985E+04  0.00000000000E+00 0.  1.
          5    1    4    4  501    0  0.10878141308E+03  0.15169129208E+03  0.36006920759E+03  0.40559949529E+03  0.41800000000E+01 0.  1.
         -5    1    4    4    0  501 -0.33106257284E+02  0.20802750160E+02  0.69927322218E+02  0.80225192291E+02  0.41800000000E+01 0.  1.
</event>
<event>
11    1  0.8974665E-009  0.1380323E+03  0.7561462E-02  0.1109776E+00
         22   -1    0    0    0    0  0.00000000000E+00  0.00000000000E+00  0.41112531047E+03  0.41112531047E+03  0.00000000000E+00 0.  1.
         22   -1    0    0    0    0 -0.00000000000E+00 -0.00000000000E+00 -0.63964931109E+03  0.63964931109E+03  0.00000000000E+00 0. -1.
        -24    2    1    2    0    0 -0.16688942782E+02  0.38041278963E+01 -0.58138365112E+03  0.58539623148E+03  0.66248062837E+02 0.  0.
         25    2    1    2    0    0 -0.43100224877E+02  0.72364700351E+01  0.42831020833E+02  0.13925598398E+03  0.12509091432E+03 0.  0.
         24    2    1    2    0    0  0.59789167659E+02 -0.11040597931E+02  0.31002862968E+03  0.32612240610E+03  0.80879126892E+02 0.  0.
        -13    1    5    5    0    0  0.61579350360E+02 -0.38303893052E+02  0.24701390393E+03  0.25743945570E+03  0.00000000000E+00 0.  1.
         14    1    5    5    0    0 -0.17901827006E+01  0.27263295121E+02  0.63014725749E+02  0.68682950403E+02  0.00000000000E+00 0. -1.
         13    1    3    3    0    0 -0.28330354126E+02 -0.24394457782E+02 -0.28348662363E+03  0.28594119030E+03  0.00000000000E+00 0. -1.
        -14    1    3    3    0    0  0.11641411344E+02  0.28198585679E+02 -0.29789702750E+03  0.29945504117E+03  0.00000000000E+00 0.  1.
          5    1    4    4  501    0 -0.43922677561E+02  0.56753653003E+02 -0.25817661443E+01  0.71932723081E+02  0.41800000000E+01 0.  1.
         -5    1    4    4    0  501  0.82245268371E+00 -0.49517182968E+02  0.45412786977E+02  0.67323260902E+02  0.41800000000E+01 0.  1.
</event>
<event>
11    1  0.8974665E-009  0.1549388E+03  0.7561462E-02  0.1091936E+00
         22   -1    0    0    0    0  0.00000000000E+00  0.00000000000E+00  0.37518514524E+03  0.37518514524E+03  0.00000000000E+00 0.  1.
         22   -1    0    0    0    0 -0.00000000000E+00 -0.00000000000E+00 -0.50050899975E+03  0.50050899975E+03  0.00000000000E+00 0. -1.
         24    2    1    2    0    0  0.58331205137E+02 -0.59087649098E+02 -0.27745690202E+03  0.30030370687E+03  0.79410982319E+02 0.  0.
         25    2    1    2    0    0 -0.12014689580E+03  0.45691711092E+02 -0.16408145855E+03  0.24309287870E+03  0.12509361934E+03 0.  0.
        -24    2    1    2    0    0  0.61815690658E+02  0.13395938006E+02  0.31621450606E+03  0.33229755942E+03  0.80183685302E+02 0.  0.
        -13    1    3    3    0    0  0.44401132695E+02 -0.77174125579E+02 -0.24454663196E+03  0.26025057434E+03  0.00000000000E+00 0.  1.
         14    1    3    3    0    0  0.13930072442E+02  0.18086476481E+02 -0.32910270058E+02  0.40053132524E+02  0.00000000000E+00 0. -1.
         13    1    5    5    0    0  0.43537162698E+01  0.20115449281E+02  0.21286023611E+03  0.21385290801E+03  0.00000000000E+00 0. -1.
        -14    1    5    5    0    0  0.57461974389E+02 -0.67195112753E+01  0.10335426994E+03  0.11844465141E+03  0.00000000000E+00 0.  1.
          5    1    4    4  501    0 -0.13091659294E+03  0.57745461916E+02 -0.17269223754E+03  0.22430732040E+03  0.41800000000E+01 0. -1.
         -5    1    4    4    0  501  0.10769697148E+02 -0.12053750824E+02  0.86107789890E+01  0.18785558293E+02  0.41800000000E+01 0. -1.
</event>
<event>
11    1  0.8974665E-009  0.1353853E+03  0.7561462E-02  0.1112824E+00
         22   -1    0    0    0    0  0.00000000000E+00  0.00000000000E+00  0.18190632570E+03  0.18190632570E+03  0.00000000000E+00 0. -1.
         22   -1    0    0    0    0 -0.00000000000E+00 -0.00000000000E+00 -0.49268260472E+03  0.49268260472E+03  0.00000000000E+00 0. -1.
         24    2    1    2    0    0 -0.16083306401E+02  0.13712496332E+02 -0.36676189880E+03  0.37521752739E+03  0.76336080264E+02 0.  0.
         25    2    1    2    0    0  0.59388372844E+02  0.12938422266E+02 -0.59229962929E+02  0.15115609540E+03  0.12508235314E+03 0.  0.
        -24    2    1    2    0    0 -0.43305066443E+02 -0.26650918598E+02  0.11521558271E+03  0.14821530763E+03  0.78150794461E+02 0.  0.
        -11    1    3    3    0    0  0.18927848201E+02 -0.12556638466E+02 -0.44154297400E+02  0.49654149736E+02  0.00000000000E+00 0.  1.
         12    1    3    3    0    0 -0.35011154602E+02  0.26269134798E+02 -0.32260760140E+03  0.32556337766E+03  0.00000000000E+00 0. -1.
         11    1    5    5    0    0 -0.56382002570E+01 -0.22330081403E+02  0.10696207170E+03  0.10941346635E+03  0.00000000000E+00 0. -1.
        -12    1    5    5    0    0 -0.37666866186E+02 -0.43208371952E+01  0.82535110112E+01  0.38801841275E+02  0.00000000000E+00 0.  1.
          5    1    4    4  501    0  0.53406979527E+02  0.25903891877E+02  0.25783609067E+02  0.64850473962E+02  0.41800000000E+01 0. -1.
         -5    1    4    4    0  501  0.59813933172E+01 -0.12965469611E+02 -0.85013571996E+02  0.86305621438E+02  0.41800000000E+01 0. -1.
</event>
<event>
11    1  0.8974665E-009  0.1447434E+03  0.7561462E-02  0.1102374E+00
         22   -1    0    0    0    0  0.00000000000E+00  0.00000000000E+00  0.31249501356E+03  0.31249501356E+03  0.00000000000E+00 0.  1.
         22   -1    0    0    0    0 -0.00000000000E+00 -0.00000000000E+00 -0.25546556550E+03  0.25546556550E+03  0.00000000000E+00 0. -1.
        -24    2    1    2    0    0  0.12854768320E+02  0.18500821505E+02 -0.17907871711E+03  0.19764398447E+03  0.80538389681E+02 0.  0.
         25    2    1    2    0    0 -0.53777500970E+02  0.43761951486E+02  0.44988094110E+02  0.14993062620E+03  0.12509250998E+03 0.  0.
         24    2    1    2    0    0  0.40922732650E+02 -0.62262772990E+02  0.19112007105E+03  0.22038596839E+03  0.80571524475E+02 0.  0.
        -13    1    5    5    0    0 -0.13621161758E+02 -0.50324980181E+02  0.11209215006E+03  0.12362358101E+03  0.00000000000E+00 0.  1.
         14    1    5    5    0    0  0.54543894407E+02 -0.11937792809E+02  0.79027920998E+02  0.96762387380E+02  0.00000000000E+00 0. -1.
         13    1    3    3    0    0  0.58982490017E+00  0.19616200829E+02 -0.18350930621E+03  0.18455570621E+03  0.00000000000E+00 0. -1.
        -14    1    3    3    0    0  0.12264943420E+02 -0.11153793241E+01  0.44305891023E+01  0.13088278265E+02  0.00000000000E+00 0.  1.
          5    1    4    4  501    0 -0.52080105827E+02  0.70685328989E+02  0.70414229776E+02  0.11262499417E+03  0.41800000000E+01 0.  1.
         -5    1    4    4    0  501 -0.16973951430E+01 -0.26923377504E+02 -0.25426135665E+02  0.37305632033E+02  0.41800000000E+01 0.  1.
</event>
<event>
11    1  0.8974665E-009  0.1461766E+03  0.7561462E-02  0.1100851E+00
         22   -1    0    0    0    0  0.00000000000E+00  0.00000000000E+00  0.61785881735E+03  0.61785881735E+03  0.00000000000E+00 0. -1.
         22   -1    0    0    0    0 -0.00000000000E+00 -0.00000000000E+00 -0.55799294965E+03  0.55799294965E+03  0.00000000000E+00 0. -1.
         24    2    1    2    0    0 -0.46965425314E+01 -0.40301103928E+02 -0.44994688167E+03  0.45879912545E+03  0.79988778570E+02 0.  0.
         25    2    1    2    0    0 -0.47059874278E+02 -0.17168712565E+02 -0.51982315640E+02  0.14443175372E+03  0.12509585878E+03 0.  0.
        -24    2    1    2    0    0  0.51756416810E+02  0.57469816494E+02  0.56179506501E+03  0.57262088783E+03  0.79369261207E+02 0.  0.
        -13    1    3    3    0    0  0.23027364592E+02 -0.43859933060E+02 -0.15962874696E+03  0.16713853566E+03  0.00000000000E+00 0.  1.
         14    1    3    3    0    0 -0.27723907123E+02  0.35588291317E+01 -0.29031813471E+03  0.29166058978E+03  0.00000000000E+00 0. -1.
         11    1    5    5    0    0  0.28354923858E+02  0.71132911646E+02  0.48872779042E+03  0.49469055576E+03  0.00000000000E+00 0. -1.
        -12    1    5    5    0    0  0.23401492952E+02 -0.13663095152E+02  0.73067274584E+02  0.77930332071E+02  0.00000000000E+00 0.  1.
          5    1    4    4  501    0 -0.54167368262E+02 -0.60121998880E+02 -0.64389618668E+01  0.81287706104E+02  0.41800000000E+01 0.  1.
         -5    1    4    4    0  501  0.71074939840E+01  0.42953286314E+02 -0.45543353773E+02  0.63144047612E+02  0.41800000000E+01 0.  1.
</event>
<event>
11    1  0.8974665E-009  0.1919320E+03  0.7561462E-02  0.1060380E+00
         22   -1    0    0    0    0  0.00000000000E+00  0.00000000000E+00  0.68629792351E+03  0.68629792351E+03  0.00000000000E+00 0.  1.
         22   -1    0    0    0    0 -0.00000000000E+00 -0.00000000000E+00 -0.24241747574E+03  0.24241747574E+03  0.00000000000E+00 0.  1.
        -24    2    1    2    0    0 -0.21529884600E+00 -0.36054351891E+02 -0.14701871189E+03  0.17350958093E+03  0.84800414998E+02 0.  0.
         25    2    1    2    0    0  0.14418823169E+03  0.91467156136E+01  0.62455458598E+02  0.20105303717E+03  0.12509089049E+03 0.  0.
         24    2    1    2    0    0 -0.14397293284E+03  0.26907636278E+02  0.52844370106E+03  0.55415278115E+03  0.79876989063E+02 0.  0.
        -11    1    5    5    0    0 -0.60988409662E+02 -0.23851430019E+02  0.27479155753E+03  0.28248695000E+03  0.00000000000E+00 0.  1.
         12    1    5    5    0    0 -0.82984523180E+02  0.50759066297E+02  0.25365214353E+03  0.27166583115E+03  0.00000000000E+00 0. -1.
         13    1    3    3    0    0  0.22427822395E+02 -0.42575869587E+02 -0.36211018730E+02  0.60224162642E+02  0.00000000000E+00 0. -1.
        -14    1    3    3    0    0 -0.22643121241E+02  0.65215176955E+01 -0.11080769316E+03  0.11328541828E+03  0.00000000000E+00 0.  1.
          5    1    4    4  501    0  0.24306488246E+02 -0.44718577129E+02 -0.82883153072E+01  0.51737076473E+02  0.41800000000E+01 0.  1.
         -5    1    4    4    0  501  0.11988174344E+03  0.53865292743E+02  0.70743773905E+02  0.14931596070E+03  0.41800000000E+01 0.  1.
</event>
<event>
11    1  0.8974665E-009  0.1483759E+03  0.7561462E-02  0.1098550E+00
         22   -1    0    0    0    0  0.00000000000E+00  0.00000000000E+00  0.20282082077E+04  0.20282082077E+04  0.00000000000E+00 0.  1.
         22   -1    0    0    0    0 -0.00000000000E+00 -0.00000000000E+00 -0.68517488088E+03  0.68517488088E+03  0.00000000000E+00 0.  1.
         24    2    1    2    0    0 -0.77021108438E+02  0.21754270034E+01 -0.56121601588E+03  0.57246296107E+03  0.82543574509E+02 0.  0.
         25    2    1    2    0    0  0.10794677849E+03 -0.13514404200E+02 -0.58901749246E+02  0.17593361496E+03  0.12509226475E+03 0.  0.
        -24    2    1    2    0    0 -0.30925670056E+02  0.11338977196E+02  0.19631510919E+04  0.19649865125E+04  0.78261198735E+02 0.  0.
        -11    1    3    3    0    0 -0.37338908074E+02  0.40134673666E+02 -0.34788508532E+03  0.35217753857E+03  0.00000000000E+00 0.  1.
         12    1    3    3    0    0 -0.39682200364E+02 -0.37959246663E+02 -0.21333093055E+03  0.22028542250E+03  0.00000000000E+00 0. -1.
         13    1    5    5    0    0 -0.91466998631E+01 -0.11031079900E+02  0.64244045541E+02  0.65822824534E+02  0.00000000000E+00 0. -1.
        -14    1    5    5    0    0 -0.21778970192E+02  0.22370057096E+02  0.18989070464E+04  0.18991636880E+04  0.00000000000E+00 0.  1.
          5    1    4    4  501    0  0.30044968285E+02  0.52212884059E+02 -0.39324907670E+02  0.72061127832E+02  0.41800000000E+01 0.  1.
         -5    1    4    4    0  501  0.77901810208E+02 -0.65727288259E+02 -0.19576841576E+02  0.10387248713E+03  0.41800000000E+01 0.  1.
</event>
<event>
11    1  0.8974665E-009  0.1844130E+03  0.7561462E-02  0.1066128E+00
         22   -1    0    0    0    0  0.00000000000E+00  0.00000000000E+00  0.29381507763E+03  0.29381507763E+03  0.00000000000E+00 0.  1.
         22   -1    0    0    0    0 -0.00000000000E+00 -0.00000000000E+00 -0.33387597815E+03  0.33387597815E+03  0.00000000000E+00 0. -1.
         24    2    1    2    0    0 -0.38599701072E+02  0.10781565021E+03 -0.12052948413E+03  0.19688276361E+03  0.10545764416E+03 0.  0.
         25    2    1    2    0    0  0.41451910616E+02 -0.17093847678E+03 -0.88174001213E+02  0.23315295777E+03  0.12508966180E+03 0.  0.
        -24    2    1    2    0    0 -0.28522095444E+01  0.63122826574E+02  0.16864258483E+03  0.19765533440E+03  0.81453566312E+02 0.  0.
        -13    1    3    3    0    0 -0.23769349521E+02  0.43435119000E+02  0.10066676196E+02  0.50526522826E+02  0.00000000000E+00 0.  1.
         14    1    3    3    0    0 -0.14830351551E+02  0.64380531209E+02 -0.13059616033E+03  0.14635624079E+03  0.00000000000E+00 0. -1.
         13    1    5    5    0    0 -0.83501040386E+01  0.38160258192E+02  0.14909481335E+02  0.41811746872E+02  0.00000000000E+00 0. -1.
        -14    1    5    5    0    0  0.54978944942E+01  0.24962568382E+02  0.15373310349E+03  0.15584358753E+03  0.00000000000E+00 0.  1.
          5    1    4    4  501    0 -0.36917854906E+02 -0.11105866267E+03 -0.46604093850E+02  0.12604113823E+03  0.41800000000E+01 0.  1.
         -5    1    4    4    0  501  0.78369765522E+02 -0.59879814119E+02 -0.41569907363E+02  0.10711181954E+03  0.41800000000E+01 0.  1.
</event>
<event>
11    1  0.8974665E-009  0.1729125E+03  0.7561462E-02  0.1075525E+00
         22   -1    0    0    0    0  0.00000000000E+00  0.00000000000E+00  0.13892731646E+04  0.13892731646E+04  0.00000000000E+00 0. -1.
         22   -1    0    0    0    0 -0.00000000000E+00 -0.00000000000E+00 -0.13458007820E+03  0.13458007820E+03  0.00000000000E+00 0.  1.
        -24    2    1    2    0    0 -0.95752602014E+01 -0.11974681791E+03 -0.54086850696E+02  0.15486614032E+03  0.81407296927E+02 0.  0.
         25    2    1    2    0    0 -0.48068860690E+02  0.11725940999E+03  0.26028530797E+03  0.31536627792E+03  0.12508822129E+03 0.  0.
         24    2    1    2    0    0  0.57644120892E+02  0.24874079198E+01  0.10484946291E+04  0.10536208246E+04  0.86294975202E+02 0.  0.
        -11    1    5    5    0    0  0.74740604164E+02  0.11534965607E+02  0.60555053785E+03  0.61025459214E+03  0.00000000000E+00 0.  1.
         12    1    5    5    0    0 -0.17096483272E+02 -0.90475576875E+01  0.44294409130E+03  0.44336623243E+03  0.00000000000E+00 0. -1.
         11    1    3    3    0    0 -0.32526750686E+02 -0.13312379046E+02 -0.21555506394E+02  0.41229222670E+02  0.00000000000E+00 0. -1.
        -12    1    3    3    0    0  0.22951490485E+02 -0.10643443886E+03 -0.32531344302E+02  0.11363691765E+03  0.00000000000E+00 0.  1.
          5    1    4    4  501    0  0.67945907958E+01  0.40363441202E+02  0.19779339141E+03  0.20202740392E+03  0.41800000000E+01 0.  1.
         -5    1    4    4    0  501 -0.54863451486E+02  0.76895968785E+02  0.62491916564E+02  0.11333887400E+03  0.41800000000E+01 0.  1.
</event>
<event>
11    1  0.8974665E-009  0.1851459E+03  0.7561462E-02  0.1065555E+00
         22   -1    0    0    0    0  0.00000000000E+00  0.00000000000E+00  0.68534605395E+03  0.68534605395E+03  0.00000000000E+00 0.  1.
         22   -1    0    0    0    0 -0.00000000000E+00 -0.00000000000E+00 -0.18060011134E+03  0.18060011134E+03  0.00000000000E+00 0.  1.
         24    2    1    2    0    0 -0.11109319589E+03  0.55855295149E+02 -0.67112593005E+02  0.16212465509E+03  0.79490826395E+02 0.  0.
         25    2    1    2    0    0  0.20422152956E+03 -0.46575622393E+02  0.21110308625E+03  0.32262595233E+03  0.12508904970E+03 0.  0.
        -24    2    1    2    0    0 -0.93128333670E+02 -0.92796727557E+01  0.36075544936E+03  0.38119555788E+03  0.80040991007E+02 0.  0.
        -13    1    3    3    0    0 -0.10340320620E+02  0.99240126118E+00 -0.43855843422E+02  0.45069303224E+02  0.00000000000E+00 0.  1.
         14    1    3    3    0    0 -0.10075287527E+03  0.54862893888E+02 -0.23256749583E+02  0.11705535187E+03  0.00000000000E+00 0. -1.
         13    1    5    5    0    0 -0.47489524159E+02 -0.25762026841E+02  0.81669408856E+02  0.97922567750E+02  0.00000000000E+00 0. -1.
        -14    1    5    5    0    0 -0.45638809511E+02  0.16482354085E+02  0.27908604051E+03  0.28327299013E+03  0.00000000000E+00 0.  1.
          5    1    4    4  501    0  0.60139980159E+02 -0.65440276098E+02  0.38465403507E+02  0.96934548105E+02  0.41800000000E+01 0.  1.
         -5    1    4    4    0  501  0.14408154940E+03  0.18864653705E+02  0.17263768274E+03  0.22569140422E+03  0.41800000000E+01 0.  1.
</event>
<event>
11    1  0.8974665E-009  0.1413119E+03  0.7561462E-02  0.1106102E+00
         22   -1    0    0    0    0  0.00000000000E+00  0.00000000000E+00  0.10834577666E+03  0.10834577666E+03  0.00000000000E+00 0. -1.
         22   -1    0    0    0    0 -0.00000000000E+00 -0.00000000000E+00 -0.11385224207E+04  0.11385224207E+04  0.00000000000E+00 0. -1.
        -24    2    1    2    0    0 -0.36490088532E+02 -0.44350256159E+02 -0.98696967970E+03  0.99183916590E+03  0.79607227017E+02 0.  0.
         25    2    1    2    0    0  0.49065934079E+02 -0.32785570577E+02 -0.39893427121E+02  0.14395080830E+03  0.12509192683E+03 0.  0.
         24    2    1    2    0    0 -0.12575845547E+02  0.77135826736E+02 -0.33135371864E+01  0.11107822312E+03  0.78862566946E+02 0.  0.
        -11    1    5    5    0    0 -0.22664060822E+02 -0.12464059967E+01 -0.20062794554E+02  0.30294040770E+02  0.00000000000E+00 0.  1.
         12    1    5    5    0    0  0.10088215275E+02  0.78382232732E+02  0.16749257368E+02  0.80784182350E+02  0.00000000000E+00 0. -1.
         13    1    3    3    0    0 -0.41857247542E+02 -0.22985264259E+02 -0.92201306923E+03  0.92324885669E+03  0.00000000000E+00 0. -1.
        -14    1    3    3    0    0  0.53671590097E+01 -0.21364991899E+02 -0.64956610467E+02  0.68590309214E+02  0.00000000000E+00 0.  1.
          5    1    4    4  501    0  0.58697116238E+02  0.54023398693E+01 -0.71872718413E+02  0.93046745149E+02  0.41800000000E+01 0.  1.
         -5    1    4    4    0  501 -0.96311821592E+01 -0.38187910446E+02  0.31979291292E+02  0.50904063154E+02  0.41800000000E+01 0.  1.
</event>
<event>
11    1  0.8974665E-009  0.1509857E+03  0.7561462E-02  0.1095876E+00
         22   -1    0    0    0    0  0.00000000000E+00  0.00000000000E+00  0.96804554916E+03  0.96804554916E+03  0.00000000000E+00 0. -1.
         22   -1    0    0    0    0 -0.00000000000E+00 -0.00000000000E+00 -0.26626864380E+04  0.26626864380E+04  0.00000000000E+00 0.  1.
         24    2    1    2    0    0 -0.17466298012E+02 -0.23922578214E+02 -0.26157427849E+04  0.26171354888E+04  0.80065528273E+02 0.  0.
         25    2    1    2    0    0  0.73418309909E+02 -0.40193375360E+02  0.92298974560E+02  0.17655654653E+03  0.12508939909E+03 0.  0.
        -24    2    1    2    0    0 -0.55952011897E+02  0.64115953574E+02  0.82880292150E+03  0.83703995181E+03  0.80499162087E+02 0.  0.
        -11    1    3    3    0    0  0.45765127710E+01  0.22072170133E+02 -0.15586261207E+04  0.15587891163E+04  0.00000000000E+00 0.  1.
         12    1    3    3    0    0 -0.22042810783E+02 -0.45994748348E+02 -0.10571166642E+04  0.10583463725E+04  0.00000000000E+00 0. -1.
         11    1    5    5    0    0  0.83624833917E+01  0.30893303962E+02  0.46529460511E+03  0.46639403609E+03  0.00000000000E+00 0. -1.
        -12    1    5    5    0    0 -0.64314495289E+02  0.33222649612E+02  0.36350831639E+03  0.37064591572E+03  0.00000000000E+00 0.  1.
          5    1    4    4  501    0 -0.36198500970E+01 -0.68101106158E+02  0.45743883742E+02  0.82224322889E+02  0.41800000000E+01 0. -1.
         -5    1    4    4    0  501  0.77038160006E+02  0.27907730799E+02  0.46555090818E+02  0.94332223638E+02  0.41800000000E+01 0. -1.
</event>
<event>
11    1  0.8974665E-009  0.2689855E+03  0.7561462E-02  0.1014245E+00
         22   -1    0    0    0    0  0.00000000000E+00  0.00000000000E+00  0.63279075822E+03  0.63279075822E+03  0.00000000000E+00 0. -1.
         22   -1    0    0    0    0 -0.00000000000E+00 -0.00000000000E+00 -0.32746224105E+03  0.32746224105E+03  0.00000000000E+00 0. -1.
        -24    2    1    2    0    0 -0.98904557775E+00 -0.18737036433E+02 -0.20033183841E+03  0.21587189683E+03  0.78203424559E+02 0.  0.
         25    2    1    2    0    0 -0.22568221935E+03 -0.61169519785E+02  0.13457781912E+03  0.29737680513E+03  0.12509036952E+03 0.  0.
         24    2    1    2    0    0  0.22667126493E+03  0.79906556217E+02  0.37108253647E+03  0.44700429732E+03  0.65921717795E+02 0.  0.
        -11    1    5    5    0    0  0.10449594422E+03  0.35246599066E+02  0.11245240104E+03  0.15750323046E+03  0.00000000000E+00 0.  1.
         12    1    5    5    0    0  0.12217532071E+03  0.44659957152E+02  0.25863013543E+03  0.28950106686E+03  0.00000000000E+00 0. -1.
         13    1    3    3    0    0  0.25427956103E+02 -0.88782901173E+01 -0.17766258247E+03  0.17969251013E+03  0.00000000000E+00 0. -1.
        -14    1    3    3    0    0 -0.26417001680E+02 -0.98587463153E+01 -0.22669255937E+02  0.36179386692E+02  0.00000000000E+00 0.  1.
          5    1    4    4  501    0 -0.20412920361E+03 -0.24985139640E+02  0.64609486622E+02  0.21560344879E+03  0.41800000000E+01 0.  1.
         -5    1    4    4    0  501 -0.21553015740E+02 -0.36184380144E+02  0.69968332495E+02  0.81773356333E+02  0.41800000000E+01 0.  1.
</event>
<event>
11    1  0.8974665E-009  0.1525434E+03  0.7561462E-02  0.1094308E+00
         22   -1    0    0    0    0  0.00000000000E+00  0.00000000000E+00  0.15297763449E+04  0.15297763449E+04  0.00000000000E+00 0. -1.
         22   -1    0    0    0    0 -0.00000000000E+00 -0.00000000000E+00 -0.58766173375E+03  0.58766173375E+03  0.00000000000E+00 0. -1.
         24    2    1    2    0    0  0.25717474147E+02  0.84232384475E+02 -0.56924024228E+03  0.58219953656E+03  0.84648472330E+02 0.  0.
         25    2    1    2    0    0  0.34423423850E+02 -0.37901206804E+02  0.50275456803E+03  0.52060736308E+03  0.12509355391E+03 0.  0.
        -24    2    1    2    0    0 -0.60140897997E+02 -0.46331177671E+02  0.10086002854E+04  0.10146311790E+04  0.80239566995E+02 0.  0.
        -11    1    3    3    0    0  0.42148244429E+01 -0.14343304055E+02 -0.29083709703E+02  0.32701028828E+02  0.00000000000E+00 0.  1.
         12    1    3    3    0    0  0.21502649704E+02  0.98575688530E+02 -0.54015653257E+03  0.54949850773E+03  0.00000000000E+00 0. -1.
         11    1    5    5    0    0 -0.48643011780E+02 -0.36659214458E+02  0.98345174360E+03  0.98533617238E+03  0.00000000000E+00 0. -1.
        -12    1    5    5    0    0 -0.11497886216E+02 -0.96719632129E+01  0.25148541756E+02  0.29295006610E+02  0.00000000000E+00 0.  1.
          5    1    4    4  501    0  0.22958015246E+02  0.45309377706E+02  0.19949851933E+03  0.20590566235E+03  0.41800000000E+01 0.  1.
         -5    1    4    4    0  501  0.11465408603E+02 -0.83210584510E+02  0.30325604870E+03  0.31470170073E+03  0.41800000000E+01 0.  1.
</event>
<event>
11    1  0.8974665E-009  0.1374767E+03  0.7561462E-02  0.1110409E+00
         22   -1    0    0    0    0  0.00000000000E+00  0.00000000000E+00  0.93810525219E+02  0.93810525219E+02  0.00000000000E+00 0.  1.
         22   -1    0    0    0    0 -0.00000000000E+00 -0.00000000000E+00 -0.12589993670E+04  0.12589993670E+04  0.00000000000E+00 0.  1.
        -24    2    1    2    0    0  0.58338180901E+02  0.11455130983E+02 -0.10420687716E+04  0.10468596628E+04  0.80456607026E+02 0.  0.
         25    2    1    2    0    0 -0.32273095053E+02 -0.14549834363E+02 -0.16708819069E+03  0.21170388997E+03  0.12508726239E+03 0.  0.
         24    2    1    2    0    0 -0.26065085848E+02  0.30947033800E+01  0.43968120442E+02  0.94246339459E+02  0.79121495163E+02 0.  0.
        -11    1    5    5    0    0  0.14829786622E+02  0.30110160809E+02  0.24289102508E+02  0.41430723574E+02  0.00000000000E+00 0.  1.
         12    1    5    5    0    0 -0.40894872470E+02 -0.27015457429E+02  0.19679017934E+02  0.52815615885E+02  0.00000000000E+00 0. -1.
         13    1    3    3    0    0 -0.57179614724E+01 -0.50500784069E+01 -0.95444892256E+01  0.12218659906E+02  0.00000000000E+00 0. -1.
        -14    1    3    3    0    0  0.64056142373E+02  0.16505209390E+02 -0.10325242823E+04  0.10346410029E+04  0.00000000000E+00 0.  1.
          5    1    4    4  501    0  0.23867399648E+02 -0.51096633633E+02 -0.44560983729E+02  0.71997725002E+02  0.41800000000E+01 0.  1.
         -5    1    4    4    0  501 -0.56140494700E+02  0.36546799270E+02 -0.12252720697E+03  0.13970616496E+03  0.41800000000E+01 0.  1.
</event>
<event>
11    1  0.8974665E-009  0.1694273E+03  0.7561462E-02  0.1078531E+00
         22   -1    0    0    0    0  0.00000000000E+00  0.00000000000E+00  0.32428185908E+03  0.32428185908E+03  0.00000000000E+00 0.  1.
         22   -1    0    0    0    0 -0.00000000000E+00 -0.00000000000E+00 -0.83951204555E+03  0.83951204555E+03  0.00000000000E+00 0. -1.
        -24    2    1    2    0    0  0.70875195275E+02  0.18856032270E+01 -0.74565796028E+03  0.75319826895E+03  0.79214833332E+02 0.  0.
         25    2    1    2    0    0  0.73086499560E+01 -0.99185689579E+02  0.31108867949E+02  0.16280005146E+03  0.12507948557E+03 0.  0.
         24    2    1    2    0    0 -0.78183845231E+02  0.97300086352E+02  0.19931890586E+03  0.24779558421E+03  0.78067950306E+02 0.  0.
        -11    1    5    5    0    0 -0.53544732650E+02  0.97939024979E+02  0.11631177461E+03  0.16120645124E+03  0.00000000000E+00 0.  1.
         12    1    5    5    0    0 -0.24639112582E+02 -0.63893862745E+00  0.83007131249E+02  0.86589132976E+02  0.00000000000E+00 0. -1.
         13    1    3    3    0    0  0.75343472396E+02  0.98152485242E+00 -0.74474732720E+03  0.74854938621E+03  0.00000000000E+00 0. -1.
        -14    1    3    3    0    0 -0.44682771205E+01  0.90407837461E+00 -0.91063307748E+00  0.46488827405E+01  0.00000000000E+00 0.  1.
          5    1    4    4  501    0 -0.52527523565E+02 -0.14487961959E+02  0.70975593497E+00  0.54653617694E+02  0.41800000000E+01 0.  1.
         -5    1    4    4    0  501  0.59836173521E+02 -0.84697727620E+02  0.30399112014E+02  0.10814643377E+03  0.41800000000E+01 0.  1.
</event>
<event>
11    1  0.8974665E-009  0.1461091E+03  0.7561462E-02  0.1100922E+00
         22   -1    0    0    0    0  0.00000000000E+00  0.00000000000E+00  0.84768016389E+02  0.84768016389E+02  0.00000000000E+00 0. -1.
         22   -1    0    0    0    0 -0.00000000000E+00 -0.00000000000E+00 -0.99155477040E+03  0.99155477040E+03  0.00000000000E+00 0.  1.
         24    2    1    2    0    0 -0.74829613757E+01 -0.25024174196E+02 -0.77591583237E+03  0.78045606020E+03  0.79900431637E+02 0.  0.
         25    2    1    2    0    0 -0.46983813215E+02 -0.41776069442E+02 -0.76104879667E+02  0.15934422100E+03  0.12508360954E+03 0.  0.
        -24    2    1    2    0    0  0.54466774591E+02  0.66800243638E+02 -0.54766041983E+02  0.13652250559E+03  0.90610005488E+02 0.  0.
        -13    1    3    3    0    0 -0.29059151554E+02  0.19212905814E+02 -0.32634996868E+03  0.32820400988E+03  0.00000000000E+00 0.  1.
         14    1    3    3    0    0  0.21576190178E+02 -0.44237080011E+02 -0.44956586368E+03  0.45225205032E+03  0.00000000000E+00 0. -1.
         13    1    5    5    0    0  0.16232446127E+02  0.34823974988E+02  0.22537173046E+02  0.44543526018E+02  0.00000000000E+00 0. -1.
        -14    1    5    5    0    0  0.38234328464E+02  0.31976268651E+02 -0.77303215029E+02  0.91978979576E+02  0.00000000000E+00 0.  1.
          5    1    4    4  501    0  0.29824218974E+02 -0.53786449743E+02 -0.40329550027E+02  0.73664178668E+02  0.41800000000E+01 0.  1.
         -5    1    4    4    0  501 -0.76808032190E+02  0.12010380301E+02 -0.35775329639E+02  0.85680042336E+02  0.41800000000E+01 0.  1.
</event>
<event>
11    1  0.8974665E-009  0.1341292E+03  0.7561462E-02  0.1114297E+00
         22   -1    0    0    0    0  0.00000000000E+00  0.00000000000E+00  0.22471445378E+04  0.22471445378E+04  0.00000000000E+00 0.  1.
         22   -1    0    0    0    0 -0.00000000000E+00 -0.00000000000E+00 -0.11230794240E+04  0.11230794240E+04  0.00000000000E+00 0.  1.
        -24    2    1    2    0    0 -0.12616628147E+02  0.45621880945E+01 -0.11112064917E+04  0.11143765184E+04  0.82916612721E+02 0.  0.
         25    2    1    2    0    0  0.25459160172E+02  0.42168935655E+02  0.49161120443E+03  0.50966628277E+03  0.12510697623E+03 0.  0.
         24    2    1    2    0    0 -0.12842532026E+02 -0.46731123750E+02  0.17436604011E+04  0.17461811607E+04  0.80301452003E+02 0.  0.
        -11    1    5    5    0    0  0.22772927621E+02 -0.10738014527E+02  0.11752967372E+04  0.11755663876E+04  0.00000000000E+00 0.  1.
         12    1    5    5    0    0 -0.35615459646E+02 -0.35993109222E+02  0.56836366383E+03  0.57061477306E+03  0.00000000000E+00 0. -1.
         13    1    3    3    0    0 -0.64378765396E+01 -0.38975596522E+02 -0.58786779636E+03  0.58919359244E+03  0.00000000000E+00 0. -1.
        -14    1    3    3    0    0 -0.61787516073E+01  0.43537784616E+02 -0.52333869531E+03  0.52518292592E+03  0.00000000000E+00 0.  1.
          5    1    4    4  501    0 -0.35461435488E+01 -0.43066040439E+02  0.18872036167E+03  0.19364944173E+03  0.41800000000E+01 0.  1.
         -5    1    4    4    0  501  0.29005303721E+02  0.85234976094E+02  0.30289084276E+03  0.31601684104E+03  0.41800000000E+01 0.  1.
</event>
<event>
11    1  0.8974665E-009  0.2674615E+03  0.7561462E-02  0.1014988E+00
         22   -1    0    0    0    0  0.00000000000E+00  0.00000000000E+00  0.12858881475E+04  0.12858881475E+04  0.00000000000E+00 0. -1.
         22   -1    0    0    0    0 -0.00000000000E+00 -0.00000000000E+00 -0.78940263119E+03  0.78940263119E+03  0.00000000000E+00 0.  1.
         24    2    1    2    0    0  0.28755714954E+02 -0.31431308930E+02 -0.60732547385E+03  0.61410817613E+03  0.80435082378E+02 0.  0.
         25    2    1    2    0    0  0.20977658541E+03  0.31322447433E+02 -0.73748167457E+02  0.25704986971E+03  0.12509409186E+03 0.  0.
        -24    2    1    2    0    0 -0.23853230036E+03  0.10886149644E+00  0.11775591576E+04  0.12041327328E+04  0.79952476259E+02 0.  0.
        -13    1    3    3    0    0  0.53978279242E+02 -0.54628159047E+01 -0.39698289630E+03  0.40067307988E+03  0.00000000000E+00 0.  1.
         14    1    3    3    0    0 -0.25222564288E+02 -0.25968493025E+02 -0.21034257755E+03  0.21343509624E+03  0.00000000000E+00 0. -1.
         13    1    5    5    0    0 -0.19019540099E+03  0.26510942528E+02  0.80891053781E+03  0.83139243370E+03  0.00000000000E+00 0. -1.
        -14    1    5    5    0    0 -0.48336899369E+02 -0.26402081032E+02  0.36864861980E+03  0.37274029914E+03  0.00000000000E+00 0.  1.
          5    1    4    4  501    0  0.34823267183E+02  0.17300951111E+02  0.33350503967E+02  0.51397581281E+02  0.41800000000E+01 0. -1.
         -5    1    4    4    0  501  0.17495331822E+03  0.14021496322E+02 -0.10709867142E+03  0.20565228843E+03  0.41800000000E+01 0. -1.
</event>
<event>
11    1  0.8974665E-009  0.2582460E+03  0.7561462E-02  0.1019596E+00
         22   -1    0    0    0    0  0.00000000000E+00  0.00000000000E+00  0.92270203424E+02  0.92270203424E+02  0.00000000000E+00 0. -1.
         22   -1    0    0    0    0 -0.00000000000E+00 -0.00000000000E+00 -0.26050614526E+04  0.26050614526E+04  0.00000000000E+00 0.  1.
        -24    2    1    2    0    0 -0.21523999880E+00 -0.30526814709E+03 -0.11574351279E+04  0.11997568063E+04  0.81065596715E+02 0.  0.
         25    2    1    2    0    0 -0.21982770019E+03  0.93790895020E+02 -0.92901063337E+03  0.96738310771E+03  0.12509344673E+03 0.  0.
         24    2    1    2    0    0  0.22004294019E+03  0.21147725207E+03 -0.42634548788E+03  0.53019174200E+03  0.78684716327E+02 0.  0.
        -13    1    5    5    0    0  0.16351086791E+03  0.16150706874E+03 -0.37176235093E+03  0.43706702318E+03  0.00000000000E+00 0.  1.
         14    1    5    5    0    0  0.56532072274E+02  0.49970183326E+02 -0.54583136953E+02  0.93124718829E+02  0.00000000000E+00 0. -1.
         13    1    3    3    0    0 -0.24333674593E+02 -0.26316950444E+03 -0.10308875366E+04  0.10642271510E+04  0.00000000000E+00 0. -1.
        -14    1    3    3    0    0  0.24118434594E+02 -0.42098642647E+02 -0.12654759130E+03  0.13552965529E+03  0.00000000000E+00 0.  1.
          5    1    4    4  501    0 -0.18525346541E+03  0.34832979688E+02 -0.52997955027E+03  0.56251931435E+03  0.41800000000E+01 0. -1.
         -5    1    4    4    0  501 -0.34574234779E+02  0.58957915332E+02 -0.39903108310E+03  0.40486379336E+03  0.41800000000E+01 0. -1.
</event>
<event>
11    1  0.8974665E-009  0.4876904E+03  0.7561462E-02  0.9421456E-01
         22   -1    0    0    0    0  0.00000000000E+00  0.00000000000E+00  0.22469821190E+04  0.22469821190E+04  0.00000000000E+00 0. -1.
         22   -1    0    0    0    0 -0.00000000000E+00 -0.00000000000E+00 -0.63211182936E+03  0.63211182936E+03  0.00000000000E+00 0. -1.
        -24    2    1    2    0    0 -0.33052188543E+02  0.17297162648E+02 -0.51882280111E+03  0.52643495242E+03  0.81024818281E+02 0.  0.
         25    2    1    2    0    0  0.22136118331E+03 -0.42955401057E+03  0.14118494527E+04  0.14974923673E+04  0.12508833507E+03 0.  0.
         24    2    1    2    0    0 -0.18830899477E+03  0.41225684792E+03  0.72184363810E+03  0.85516662869E+03  0.69539476438E+02 0.  0.
        -11    1    5    5    0    0 -0.60747519859E+02  0.15164325412E+03  0.32282171482E+03  0.36180077010E+03  0.00000000000E+00 0.  1.
         12    1    5    5    0    0 -0.12756147491E+03  0.26061359380E+03  0.39902192329E+03  0.49336585859E+03  0.00000000000E+00 0. -1.
         13    1    3    3    0    0 -0.16000715927E+02  0.49680143082E+02 -0.32934345924E+03  0.33345352550E+03  0.00000000000E+00 0. -1.
        -14    1    3    3    0    0 -0.17051472616E+02 -0.32382980433E+02 -0.18947934187E+03  0.19298142692E+03  0.00000000000E+00 0.  1.
          5    1    4    4  501    0  0.46063634694E+02 -0.13467111913E+03  0.27042177170E+03  0.30561998589E+03  0.41800000000E+01 0. -1.
         -5    1    4    4    0  501  0.17529754862E+03 -0.29488289144E+03  0.11414276810E+04  0.11918723814E+04  0.41800000000E+01 0. -1.
</event>
<event>
11    1  0.8974665E-009  0.1502343E+03  0.7561462E-02  0.1096640E+00
         22   -1    0    0    0    0  0.00000000000E+00  0.00000000000E+00  0.49877918121E+03  0.49877918121E+03  0.00000000000E+00 0. -1.
         22   -1    0    0    0    0 -0.00000000000E+00 -0.00000000000E+00 -0.10894592728E+03  0.10894592728E+03  0.00000000000E+00 0.  1.
         24    2    1    2    0    0  0.35822994536E+02 -0.18766729292E+02  0.22270943474E+01  0.90113134961E+02  0.80498074992E+02 0.  0.
         25    2    1    2    0    0 -0.60040538195E+02  0.93765903932E+02  0.71248182118E+02  0.18199524720E+03  0.12509618532E+03 0.  0.
        -24    2    1    2    0    0  0.24217543659E+02 -0.74999174640E+02  0.31635797747E+03  0.33561672633E+03  0.79654575930E+02 0.  0.
        -13    1    3    3    0    0  0.47110426150E+02 -0.26259667398E+02 -0.25193053595E+02  0.59528584170E+02  0.00000000000E+00 0.  1.
         14    1    3    3    0    0 -0.11287431614E+02  0.74929381062E+01  0.27420147942E+02  0.30584550791E+02  0.00000000000E+00 0. -1.
         13    1    5    5    0    0  0.50074824824E+02 -0.69255103200E+02  0.23517827651E+03  0.25022505699E+03  0.00000000000E+00 0. -1.
        -14    1    5    5    0    0 -0.25857281164E+02 -0.57440714409E+01  0.81179700958E+02  0.85391669345E+02  0.00000000000E+00 0.  1.
          5    1    4    4  501    0 -0.51251973689E+01  0.53563781041E+01 -0.33327015710E+02  0.34396523234E+02  0.41800000000E+01 0. -1.
         -5    1    4    4    0  501 -0.54915340826E+02  0.88409525828E+02  0.10457519783E+03  0.14759872396E+03  0.41800000000E+01 0. -1.
</event>
<event>
11    1  0.8974665E-009  0.1558917E+03  0.7561462E-02  0.1091006E+00
         22   -1    0    0    0    0  0.00000000000E+00  0.00000000000E+00  0.28038159132E+04  0.28038159132E+04  0.00000000000E+00 0. -1.
         22   -1    0    0    0    0 -0.00000000000E+00 -0.00000000000E+00 -0.76968799870E+02  0.76968799870E+02  0.00000000000E+00 0. -1.
        -24    2    1    2    0    0 -0.10633005589E+02 -0.93716996805E+02 -0.34738631053E+01  0.12664168777E+03  0.84439996798E+02 0.  0.
         25    2    1    2    0    0 -0.35285285000E+02  0.84943785892E+02  0.54169033733E+03  0.56350334727E+03  0.12508837965E+03 0.  0.
         24    2    1    2    0    0  0.45918290589E+02  0.87732109131E+01  0.21886306391E+04  0.21906396780E+04  0.81318299907E+02 0.  0.
        -11    1    5    5    0    0  0.17311461489E+02 -0.36170627647E+02  0.83844657305E+03  0.83940494212E+03  0.00000000000E+00 0.  1.
         12    1    5    5    0    0  0.28606829100E+02  0.44943838560E+02  0.13501840660E+04  0.13512347359E+04  0.00000000000E+00 0. -1.
         11    1    3    3    0    0  0.14485370532E+02 -0.86767997253E+02 -0.26490838176E+02  0.91870973729E+02  0.00000000000E+00 0. -1.
        -12    1    3    3    0    0 -0.25118376121E+02 -0.69489995528E+01  0.23016975071E+02  0.34770714044E+02  0.00000000000E+00 0.  1.
          5    1    4    4  501    0 -0.33145611402E+02  0.10170902229E+02  0.41389738972E+03  0.41536803009E+03  0.41800000000E+01 0.  1.
         -5    1    4    4    0  501 -0.21396735980E+01  0.74772883663E+02  0.12779294762E+03  0.14813531718E+03  0.41800000000E+01 0.  1.
</event>
<event>
11    1  0.8974665E-009  0.1681440E+03  0.7561462E-02  0.1079658E+00
         22   -1    0    0    0    0  0.00000000000E+00  0.00000000000E+00  0.33440886820E+04  0.33440886820E+04  0.00000000000E+00 0.  1.
         22   -1    0    0    0    0 -0.00000000000E+00 -0.00000000000E+00 -0.20880358796E+03  0.20880358796E+03  0.00000000000E+00 0.  1.
         24    2    1    2    0    0 -0.13497953392E+02 -0.12756421186E+03 -0.14797346998E+03  0.21143217892E+03  0.79703171647E+02 0.  0.
         25    2    1    2    0    0 -0.40207957152E+02  0.32337205411E+02  0.13804320726E+03  0.19330080652E+03  0.12508756957E+03 0.  0.
        -24    2    1    2    0    0  0.53705910544E+02  0.95227006452E+02  0.31452153568E+04  0.31481592845E+04  0.81084725823E+02 0.  0.
        -13    1    3    3    0    0  0.17075163047E+01 -0.63966835363E+02 -0.12792715800E+03  0.14303855911E+03  0.00000000000E+00 0.  1.
         14    1    3    3    0    0 -0.15205469696E+02 -0.63597376500E+02 -0.20046311977E+02  0.68393619807E+02  0.00000000000E+00 0. -1.
         13    1    5    5    0    0  0.10938324585E+02 -0.12542720514E+02  0.21155327240E+03  0.21220686569E+03  0.00000000000E+00 0. -1.
        -14    1    5    5    0    0  0.42767585959E+02  0.10776972697E+03  0.29336620844E+04  0.29359524189E+04  0.00000000000E+00 0.  1.
          5    1    4    4  501    0 -0.39738445397E+02 -0.43337780101E+02  0.69279575072E+02  0.90963944224E+02  0.41800000000E+01 0. -1.
         -5    1    4    4    0  501 -0.46951175569E+00  0.75674985512E+02  0.68763632189E+02  0.10233686230E+03  0.41800000000E+01 0. -1.
</event>
<event>
11    1  0.8974665E-009  0.1759494E+03  0.7561462E-02  0.1072967E+00
         22   -1    0    0    0    0  0.00000000000E+00  0.00000000000E+00  0.31493345290E+03  0.31493345290E+03  0.00000000000E+00 0.  1.
         22   -1    0    0    0    0 -0.00000000000E+00 -0.00000000000E+00 -0.16048520711E+04  0.16048520711E+04  0.00000000000E+00 0. -1.
        -24    2    1    2    0    0 -0.12327202404E+03 -0.67431276110E+00 -0.15268288195E+04  0.15339545233E+04  0.81325203054E+02 0.  0.
         25    2    1    2    0    0  0.14360530508E+03  0.42066240902E+02  0.94335526247E+02  0.21665263162E+03  0.12508844472E+03 0.  0.
         24    2    1    2    0    0 -0.20333281035E+02 -0.41391928141E+02  0.14257467512E+03  0.16917836910E+03  0.78530558082E+02 0.  0.
        -11    1    5    5    0    0 -0.43982541605E+02 -0.51185595471E+01  0.95211587822E+02  0.10500433359E+03  0.00000000000E+00 0.  1.
         12    1    5    5    0    0  0.23649260570E+02 -0.36273368594E+02  0.47363087294E+02  0.64174035502E+02  0.00000000000E+00 0. -1.
         13    1    3    3    0    0 -0.89933393007E+02 -0.17684147708E+02 -0.66184055405E+03  0.66815691513E+03  0.00000000000E+00 0. -1.
        -14    1    3    3    0    0 -0.33338631036E+02  0.17009834947E+02 -0.86498826549E+03  0.86579760813E+03  0.00000000000E+00 0.  1.
          5    1    4    4  501    0 -0.50586063982E+00  0.39099615281E+02  0.54209809281E+02  0.66971722632E+02  0.41800000000E+01 0. -1.
         -5    1    4    4    0  501  0.14411116572E+03  0.29666256215E+01  0.40125716967E+02  0.14968090898E+03  0.41800000000E+01 0. -1.
</event>
<event>
11    1  0.8974665E-009  0.1278938E+03  0.7561462E-02  0.1121884E+00
         22   -1    0    0    0    0  0.00000000000E+00  0.00000000000E+00  0.98403558968E+02  0.98403558968E+02  0.00000000000E+00 0.  1.
         22   -1    0    0    0    0 -0.00000000000E+00 -0.00000000000E+00 -0.39868351759E+03  0.39868351759E+03  0.00000000000E+00 0.  1.
         24    2    1    2    0    0  0.27762896750E+02  0.92400023590E+00 -0.19071917946E+03  0.20863463564E+03  0.79893513906E+02 0.  0.
         25    2    1    2    0    0 -0.22588454786E+02  0.16531999054E+02 -0.15068868338E+03  0.19783500352E+03  0.12509222213E+03 0.  0.
        -24    2    1    2    0    0 -0.51744419640E+01 -0.17455999290E+02  0.41127904210E+02  0.90617437401E+02  0.78667202160E+02 0.  0.
        -11    1    3    3    0    0  0.47898463063E+02 -0.11627970081E+02 -0.17043316570E+03  0.17741740732E+03  0.00000000000E+00 0.  1.
         12    1    3    3    0    0 -0.20135566312E+02  0.12551970317E+02 -0.20286013757E+02  0.31217228315E+02  0.00000000000E+00 0. -1.
         11    1    5    5    0    0 -0.30563857859E+02 -0.20502556506E+01 -0.93705275327E+01  0.32033728189E+02  0.00000000000E+00 0. -1.
        -12    1    5    5    0    0  0.25389415895E+02 -0.15405743639E+02  0.50498431742E+02  0.58583709212E+02  0.00000000000E+00 0.  1.
          5    1    4    4  501    0 -0.10075684303E+02 -0.21243113508E+02 -0.15569034481E+03  0.15751109534E+03  0.41800000000E+01 0.  1.
         -5    1    4    4    0  501 -0.12512770483E+02  0.37775112562E+02  0.50016614334E+01  0.40323908185E+02  0.41800000000E+01 0.  1.
</event>
<event>
11    1  0.8974665E-009  0.1955681E+03  0.7561462E-02  0.1057703E+00
         22   -1    0    0    0    0  0.00000000000E+00  0.00000000000E+00  0.10049673946E+04  0.10049673946E+04  0.00000000000E+00 0. -1.
         22   -1    0    0    0    0 -0.00000000000E+00 -0.00000000000E+00 -0.98773909605E+03  0.98773909605E+03  0.00000000000E+00 0.  1.
        -24    2    1    2    0    0 -0.20117241151E+01  0.14646140308E+03 -0.91812581084E+03  0.93337441766E+03  0.82327452172E+02 0.  0.
         25    2    1    2    0    0  0.13325347501E+03 -0.50214774156E+02  0.12055523490E+03  0.22463050738E+03  0.12508912038E+03 0.  0.
         24    2    1    2    0    0 -0.13124175089E+03 -0.96246628922E+02  0.81479887445E+03  0.83470156558E+03  0.79634709931E+02 0.  0.
        -11    1    5    5    0    0  0.10921062349E+02 -0.74690018185E+01  0.47345781027E+02  0.49159725102E+02  0.00000000000E+00 0.  1.
         12    1    5    5    0    0 -0.14216281324E+03 -0.88777627104E+02  0.76745309342E+03  0.78554184048E+03  0.00000000000E+00 0. -1.
         11    1    3    3    0    0 -0.11868368620E+00  0.29995044966E+02 -0.57040326491E+02  0.64446222965E+02  0.00000000000E+00 0. -1.
        -12    1    3    3    0    0 -0.18930404289E+01  0.11646635811E+03 -0.86108548435E+03  0.86892819469E+03  0.00000000000E+00 0.  1.
          5    1    4    4  501    0 -0.74066200258E+01 -0.13216510995E+02 -0.17870959947E+02  0.23798693084E+02  0.41800000000E+01 0. -1.
         -5    1    4    4    0  501  0.14066009503E+03 -0.36998263161E+02  0.13842619485E+03  0.20083181429E+03  0.41800000000E+01 0. -1.
</event>
<event>
11    1  0.8974665E-009  0.1315076E+03  0.7561462E-02  0.1117430E+00
         22   -1    0    0    0    0  0.00000000000E+00  0.00000000000E+00  0.31148599348E+03  0.31148599348E+03  0.00000000000E+00 0.  1.
         22   -1    0    0    0    0 -0.00000000000E+00 -0.00000000000E+00 -0.17232286065E+03  0.17232286065E+03  0.00000000000E+00 0.  1.
        -24    2    1    2    0    0  0.31855158265E+02  0.27820965178E+02 -0.11285794147E+03  0.14454914745E+03  0.79804660666E+02 0.  0.
         25    2    1    2    0    0 -0.12972576658E+02 -0.26355780639E+02  0.88495151695E+02  0.15602073748E+03  0.12509262061E+03 0.  0.
         24    2    1    2    0    0 -0.18882581607E+02 -0.14651845388E+01  0.16352592261E+03  0.18323896920E+03  0.80480393985E+02 0.  0.
        -13    1    5    5    0    0 -0.41851958161E+02 -0.21714791691E+02  0.66669589195E+02  0.81657533048E+02  0.00000000000E+00 0.  1.
         14    1    5    5    0    0  0.22969376554E+02  0.20249607152E+02  0.96856333410E+02  0.10158143615E+03  0.00000000000E+00 0. -1.
         11    1    3    3    0    0 -0.43367523787E+01  0.86862126139E+01  0.10662978303E+02  0.14420707925E+02  0.00000000000E+00 0. -1.
        -12    1    3    3    0    0  0.36191910643E+02  0.19134752564E+02 -0.12352091977E+03  0.13012843952E+03  0.00000000000E+00 0.  1.
          5    1    4    4  501    0 -0.28807213865E+02 -0.80020027412E+01 -0.25428890557E+02  0.39471362955E+02  0.41800000000E+01 0. -1.
         -5    1    4    4    0  501  0.15834637207E+02 -0.18353777898E+02  0.11392404225E+03  0.11654937452E+03  0.41800000000E+01 0. -1.
</event>
<event>
11    1  0.8974665E-009  0.1284528E+03  0.7561462E-02  0.1121185E+00
         22   -1    0    0    0    0  0.00000000000E+00  0.00000000000E+00  0.22840599934E+03  0.22840599934E+03  0.00000000000E+00 0. -1.
         22   -1    0    0    0    0 -0.00000000000E+00 -0.00000000000E+00 -0.98700980018E+03  0.98700980018E+03  0.00000000000E+00 0.  1.
        -24    2    1    2    0    0  0.14102221214E+02  0.10125921702E+02 -0.68070802871E+03  0.68579244196E+03  0.81525739236E+02 0.  0.
         25    2    1    2    0    0 -0.41504534260E+02 -0.90842728419E+00 -0.28045584783E+03  0.30988126690E+03  0.12508982926E+03 0.  0.
         24    2    1    2    0    0  0.27402313045E+02 -0.92174944176E+01  0.20256007570E+03  0.21974209067E+03  0.80125858376E+02 0.  0.
        -11    1    5    5    0    0  0.85454379961E+01 -0.11449446373E+02 -0.18907011538E+01  0.14411421985E+02  0.00000000000E+00 0.  1.
         12    1    5    5    0    0  0.18856875049E+02  0.22319519550E+01  0.20445077685E+03  0.20533066868E+03  0.00000000000E+00 0. -1.
         11    1    3    3    0    0  0.23766956085E+01  0.20012546982E+02 -0.38983586797E+02  0.43884744027E+02  0.00000000000E+00 0. -1.
        -12    1    3    3    0    0  0.11725525606E+02 -0.98866252806E+01 -0.64172444191E+03  0.64190769793E+03  0.00000000000E+00 0.  1.
          5    1    4    4  501    0 -0.46483094661E+02 -0.57901301093E+02 -0.15339178989E+03  0.17046921236E+03  0.41800000000E+01 0.  1.
         -5    1    4    4    0  501  0.49785604011E+01  0.56992873809E+02 -0.12706405794E+03  0.13941205453E+03  0.41800000000E+01 0.  1.
</event>
<event>
11    1  0.8974665E-009  0.1647765E+03  0.7561462E-02  0.1082669E+00
         22   -1    0    0    0    0  0.00000000000E+00  0.00000000000E+00  0.20172836737E+04  0.20172836737E+04  0.00000000000E+00 0.  1.
         22   -1    0    0    0    0 -0.00000000000E+00 -0.00000000000E+00 -0.35728896323E+02  0.35728896323E+02  0.00000000000E+00 0.  1.
        -24    2    1    2    0    0  0.20980589314E+02  0.77742639881E+02  0.19301770453E+03  0.22377111701E+03  0.79583763189E+02 0.  0.
         25    2    1    2    0    0 -0.11817887118E+03 -0.27810335710E+02  0.42889419002E+03  0.46295690955E+03  0.12505684111E+03 0.  0.
         24    2    1    2    0    0  0.97198281864E+02 -0.49932304170E+02  0.13596428828E+04  0.13662845434E+04  0.78510788184E+02 0.  0.
        -11    1    5    5    0    0  0.86874221987E+02 -0.67795827482E+02  0.12389304650E+04  0.12438215715E+04  0.00000000000E+00 0.  1.
         12    1    5    5    0    0  0.10324059878E+02  0.17863523312E+02  0.12071241780E+03  0.12246297191E+03  0.00000000000E+00 0. -1.
         11    1    3    3    0    0 -0.24810850465E+02  0.95986016381E+01  0.78342858273E+02  0.82736418200E+02  0.00000000000E+00 0. -1.
        -12    1    3    3    0    0  0.45791439779E+02  0.68144038242E+02  0.11467484626E+03  0.14103469881E+03  0.00000000000E+00 0.  1.
          5    1    4    4  501    0 -0.10546996177E+03  0.31930181945E+02  0.31347922330E+03  0.33231031461E+03  0.41800000000E+01 0.  1.
         -5    1    4    4    0  501 -0.12708909408E+02 -0.59740517656E+02  0.11541496672E+03  0.13064659494E+03  0.41800000000E+01 0.  1.
</event>
<event>
11    1  0.8974665E-009  0.1305329E+03  0.7561462E-02  0.1118616E+00
         22   -1    0    0    0    0  0.00000000000E+00  0.00000000000E+00  0.12915392246E+03  0.12915392246E+03  0.00000000000E+00 0. -1.
         22   -1    0    0    0    0 -0.00000000000E+00 -0.00000000000E+00 -0.23079544508E+04  0.23079544508E+04  0.00000000000E+00 0. -1.
         24    2    1    2    0    0 -0.14468112098E+02  0.31934646757E+02 -0.19196561704E+04  0.19217023693E+04  0.81431171944E+02 0.  0.
         25    2    1    2    0    0  0.22219472952E+02 -0.63599176323E+02 -0.35691400289E+03  0.38415322027E+03  0.12509009144E+03 0.  0.
        -24    2    1    2    0    0 -0.77513608543E+01  0.31664529566E+02  0.97769644922E+02  0.13125278369E+03  0.81275234427E+02 0.  0.
        -11    1    3    3    0    0  0.27231409546E+02  0.19538442253E+02 -0.39301416186E+03  0.39444065690E+03  0.00000000000E+00 0.  1.
         12    1    3    3    0    0 -0.41699521644E+02  0.12396204504E+02 -0.15266420086E+04  0.15272617124E+04  0.00000000000E+00 0. -1.
         11    1    5    5    0    0  0.47330771728E+01  0.39386847796E+02  0.10686030314E+03  0.11398618419E+03  0.00000000000E+00 0. -1.
        -12    1    5    5    0    0 -0.12484438027E+02 -0.77223182305E+01 -0.90906582154E+01  0.17266599506E+02  0.00000000000E+00 0.  1.
          5    1    4    4  501    0  0.24517878710E+02 -0.10091583155E+03 -0.27599279327E+03  0.29491460759E+03  0.41800000000E+01 0.  1.
         -5    1    4    4    0  501 -0.22984057576E+01  0.37316655224E+02 -0.80921209616E+02  0.89238612673E+02  0.41800000000E+01 0.  1.
</event>
<event>
11    1  0.8974665E-009  0.1684239E+03  0.7561462E-02  0.1079411E+00
         22   -1    0    0    0    0  0.00000000000E+00  0.00000000000E+00  0.13251416022E+04  0.13251416022E+04  0.00000000000E+00 0. -1.
         22   -1    0    0    0    0 -0.00000000000E+00 -0.00000000000E+00 -0.60751958301E+03  0.60751958301E+03  0.00000000000E+00 0. -1.
         24    2    1    2    0    0 -0.15797516228E+02  0.44499965553E+02 -0.52230827423E+03  0.53058021556E+03  0.80496107754E+02 0.  0.
         25    2    1    2    0    0  0.11433283488E+03 -0.95910882283E+02  0.45450863682E+02  0.19995909821E+03  0.12508783105E+03 0.  0.
        -24    2    1    2    0    0 -0.98535318650E+02  0.51410916730E+02  0.11944794297E+04  0.12021218714E+04  0.77224311940E+02 0.  0.
        -13    1    3    3    0    0  0.15968128009E+02  0.32208277845E+02 -0.89736149871E+02  0.96669182615E+02  0.00000000000E+00 0.  1.
         14    1    3    3    0    0 -0.31765644237E+02  0.12291687708E+02 -0.43257212436E+03  0.43391103294E+03  0.00000000000E+00 0. -1.
         13    1    5    5    0    0 -0.95664466229E+02  0.68655273831E+02  0.10551933546E+04  0.10617430256E+04  0.00000000000E+00 0. -1.
        -14    1    5    5    0    0 -0.28708524213E+01 -0.17244357101E+02  0.13928607511E+03  0.14037884586E+03  0.00000000000E+00 0.  1.
          5    1    4    4  501    0  0.53523299021E+02 -0.66351763223E+02  0.85872355615E+02  0.12107367129E+03  0.41800000000E+01 0. -1.
         -5    1    4    4    0  501  0.60809535858E+02 -0.29559119060E+02 -0.40421491933E+02  0.78885426923E+02  0.41800000000E+01 0. -1.
</event>
<event>
11    1  0.8974665E-009  0.1602178E+03  0.7561462E-02  0.1086873E+00
         22   -1    0    0    0    0  0.00000000000E+00  0.00000000000E+00  0.50702636230E+03  0.50702636230E+03  0.00000000000E+00 0.  1.
         22   -1    0    0    0    0 -0.00000000000E+00 -0.00000000000E+00 -0.26993752571E+03  0.26993752571E+03  0.00000000000E+00 0. -1.
         24    2    1    2    0    0  0.87286863372E+02 -0.21515227806E+02 -0.13371245606E+03  0.18287247866E+03  0.86495207957E+02 0.  0.
         25    2    1    2    0    0  0.10758190876E+02 -0.23699513110E+02 -0.61555333199E+02  0.14182520517E+03  0.12509166313E+03 0.  0.
        -24    2    1    2    0    0 -0.98045054249E+02  0.45214740916E+02  0.43235662585E+03  0.45226620417E+03  0.77170344456E+02 0.  0.
        -11    1    3    3    0    0  0.98419205243E+02  0.18960738996E+01 -0.99699364491E+02  0.14010673908E+03  0.00000000000E+00 0.  1.
         12    1    3    3    0    0 -0.11132341871E+02 -0.23411301706E+02 -0.34013091571E+02  0.42765739574E+02  0.00000000000E+00 0. -1.
         11    1    5    5    0    0  0.10115369553E+01 -0.85377445325E+01  0.42826229228E+01  0.96050584492E+01  0.00000000000E+00 0. -1.
        -12    1    5    5    0    0 -0.99056591204E+02  0.53752485448E+02  0.42807400292E+03  0.44266114572E+03  0.00000000000E+00 0.  1.
          5    1    4    4  501    0 -0.30920898899E+02  0.24661675929E+02 -0.66680280383E+02  0.77640404689E+02  0.41800000000E+01 0.  1.
         -5    1    4    4    0  501  0.41679089776E+02 -0.48361189039E+02  0.51249471837E+01  0.64184800486E+02  0.41800000000E+01 0.  1.
</event>
<event>
11    1  0.8974665E-009  0.1353882E+03  0.7561462E-02  0.1112820E+00
         22   -1    0    0    0    0  0.00000000000E+00  0.00000000000E+00  0.29201202887E+02  0.29201202887E+02  0.00000000000E+00 0. -1.
         22   -1    0    0    0    0 -0.00000000000E+00 -0.00000000000E+00 -0.16034900529E+04  0.16034900529E+04  0.00000000000E+00 0.  1.
         24    2    1    2    0    0  0.10626149428E+02 -0.50813437069E+02 -0.11195076524E+04  0.11236742082E+04  0.81556250571E+02 0.  0.
         25    2    1    2    0    0 -0.46369608793E+02  0.40270727493E+02 -0.24832466440E+03  0.28476207543E+03  0.12510966605E+03 0.  0.
        -24    2    1    2    0    0  0.35743459365E+02  0.10542709576E+02 -0.20645653320E+03  0.22425497212E+03  0.79229090670E+02 0.  0.
        -11    1    3    3    0    0  0.25763361510E+02 -0.14914354230E+01 -0.76468096622E+03  0.76511630180E+03  0.00000000000E+00 0.  1.
         12    1    3    3    0    0 -0.15137212082E+02 -0.49322001646E+02 -0.35482668617E+03  0.35855790641E+03  0.00000000000E+00 0. -1.
         13    1    5    5    0    0  0.56944084384E+01 -0.23925966704E+02 -0.18391292751E+02  0.30710223367E+02  0.00000000000E+00 0. -1.
        -14    1    5    5    0    0  0.30049050927E+02  0.34468676280E+02 -0.18806524045E+03  0.19354474876E+03  0.00000000000E+00 0.  1.
          5    1    4    4  501    0  0.40955819075E+02  0.13197260289E+02 -0.48473236679E+02  0.64951319227E+02  0.41800000000E+01 0.  1.
         -5    1    4    4    0  501 -0.87325427868E+02  0.27073467204E+02 -0.19985142772E+03  0.21981075620E+03  0.41800000000E+01 0.  1.
</event>
<event>
11    1  0.8974665E-009  0.1801755E+03  0.7561462E-02  0.1069501E+00
         22   -1    0    0    0    0  0.00000000000E+00  0.00000000000E+00  0.14089947601E+04  0.14089947601E+04  0.00000000000E+00 0.  1.
         22   -1    0    0    0    0 -0.00000000000E+00 -0.00000000000E+00 -0.21868462385E+03  0.21868462385E+03  0.00000000000E+00 0. -1.
         24    2    1    2    0    0 -0.99845819406E+01 -0.41278683568E+02 -0.17701483595E+03  0.19830135671E+03  0.78648295179E+02 0.  0.
         25    2    1    2    0    0 -0.10964660997E+03  0.88096612348E+02  0.32010355517E+03  0.37134538439E+03  0.12509083216E+03 0.  0.
        -24    2    1    2    0    0  0.11963119191E+03 -0.46817928779E+02  0.10472214171E+04  0.10580326429E+04  0.79100167727E+02 0.  0.
        -13    1    3    3    0    0 -0.14913314206E+02 -0.14772800759E+02 -0.18488441398E+01  0.21072750355E+02  0.00000000000E+00 0.  1.
         14    1    3    3    0    0  0.49287322652E+01 -0.26505882810E+02 -0.17516599181E+03  0.17722860636E+03  0.00000000000E+00 0. -1.
         13    1    5    5    0    0 -0.31458557946E+00 -0.33598297117E+01  0.32335826396E+00  0.33899823517E+01  0.00000000000E+00 0. -1.
        -14    1    5    5    0    0  0.11994577749E+03 -0.43458099068E+02  0.10468980588E+04  0.10546426605E+04  0.00000000000E+00 0.  1.
          5    1    4    4  501    0 -0.77887421830E+02 -0.15702974409E+02  0.13170194729E+03  0.15386978002E+03  0.41800000000E+01 0. -1.
         -5    1    4    4    0  501 -0.31759188137E+02  0.10379958676E+03  0.18840160788E+03  0.21747560436E+03  0.41800000000E+01 0. -1.
</event>
<event>
11    1  0.8974665E-009  0.1368352E+03  0.7561462E-02  0.1111145E+00
         22   -1    0    0    0    0  0.00000000000E+00  0.00000000000E+00  0.49655250870E+02  0.49655250870E+02  0.00000000000E+00 0. -1.
         22   -1    0    0    0    0 -0.00000000000E+00 -0.00000000000E+00 -0.10664968469E+04  0.10664968469E+04  0.00000000000E+00 0.  1.
        -24    2    1    2    0    0 -0.85701977952E+01  0.37116369050E+02 -0.75567523513E+03  0.76083908532E+03  0.79874774659E+02 0.  0.
         25    2    1    2    0    0 -0.40126320634E+02 -0.55818395115E+02 -0.17814361241E+03  0.22826866010E+03  0.12508245161E+03 0.  0.
         24    2    1    2    0    0  0.48696518429E+02  0.18702026065E+02 -0.83022748504E+02  0.12704435236E+03  0.80785976579E+02 0.  0.
        -11    1    5    5    0    0  0.29299606503E+02 -0.30646135298E+02 -0.44786615333E+02  0.61672469246E+02  0.00000000000E+00 0.  1.
         12    1    5    5    0    0  0.19396911926E+02  0.49348161363E+02 -0.38236133172E+02  0.65371883116E+02  0.00000000000E+00 0. -1.
         13    1    3    3    0    0 -0.66281418816E+01 -0.64258580619E+01 -0.89998583513E+01  0.12892686569E+02  0.00000000000E+00 0. -1.
        -14    1    3    3    0    0 -0.19420559136E+01  0.43542227112E+02 -0.74667537678E+03  0.74794639875E+03  0.00000000000E+00 0.  1.
          5    1    4    4  501    0  0.13728929360E+02 -0.48996947114E+01 -0.14697860391E+03  0.14775883363E+03  0.41800000000E+01 0. -1.
         -5    1    4    4    0  501 -0.53855249994E+02 -0.50918700404E+02 -0.31165008503E+02  0.80509826467E+02  0.41800000000E+01 0. -1.
</event>
<event>
11    1  0.8974665E-009  0.1310003E+03  0.7561462E-02  0.1118046E+00
         22   -1    0    0    0    0  0.00000000000E+00  0.00000000000E+00  0.18176036860E+03  0.18176036860E+03  0.00000000000E+00 0.  1.
         22   -1    0    0    0    0 -0.00000000000E+00 -0.00000000000E+00 -0.25550797427E+04  0.25550797427E+04  0.00000000000E+00 0.  1.
         24    2    1    2    0    0 -0.41689943855E+01 -0.76805699380E+00 -0.16902033977E+04  0.16921683991E+04  0.81414955235E+02 0.  0.
         25    2    1    2    0    0 -0.31555930755E+02  0.16310782219E+02 -0.84744903399E+03  0.85736721912E+03  0.12508742875E+03 0.  0.
        -24    2    1    2    0    0  0.35724925141E+02 -0.15542725225E+02  0.16433305761E+03  0.18730449303E+03  0.80992423739E+02 0.  0.
        -11    1    3    3    0    0 -0.71284757663E+00 -0.11215486625E+02 -0.16597458719E+04  0.16597839180E+04  0.00000000000E+00 0.  1.
         12    1    3    3    0    0 -0.34561468089E+01  0.10447429631E+02 -0.30457525818E+02  0.32384481092E+02  0.00000000000E+00 0. -1.
         13    1    5    5    0    0  0.27034972828E+02  0.20994462792E+02  0.23425573934E+02  0.41477882515E+02  0.00000000000E+00 0. -1.
        -14    1    5    5    0    0  0.86899523126E+01 -0.36537188018E+02  0.14090748368E+03  0.14582661052E+03  0.00000000000E+00 0.  1.
          5    1    4    4  501    0 -0.67670486224E+02  0.20162855820E+02 -0.28193758771E+03  0.29067526765E+03  0.41800000000E+01 0. -1.
         -5    1    4    4    0  501  0.36114555469E+02 -0.38520736005E+01 -0.56551144628E+03  0.56669195147E+03  0.41800000000E+01 0. -1.
</event>
<event>
11    1  0.8974665E-009  0.1876433E+03  0.7561462E-02  0.1063623E+00
         22   -1    0    0    0    0  0.00000000000E+00  0.00000000000E+00  0.87784372407E+03  0.87784372407E+03  0.00000000000E+00 0. -1.
         22   -1    0    0    0    0 -0.00000000000E+00 -0.00000000000E+00 -0.22124166367E+03  0.22124166367E+03  0.00000000000E+00 0. -1.
         24    2    1    2    0    0  0.12850946262E+03  0.71217770711E+01 -0.14065014892E+03  0.20663112982E+03  0.79677837120E+02 0.  0.
         25    2    1    2    0    0 -0.89797734804E+02  0.13460837413E+03  0.26584265506E+03  0.33541155024E+03  0.12508214590E+03 0.  0.
        -24    2    1    2    0    0 -0.38711727812E+02 -0.14173015120E+03  0.53140955426E+03  0.55704270769E+03  0.79463389048E+02 0.  0.
        -11    1    3    3    0    0 -0.90089531507E+01  0.53199757095E+01 -0.24411079825E+02  0.26558693429E+02  0.00000000000E+00 0.  1.
         12    1    3    3    0    0  0.13751841577E+03  0.18018013616E+01 -0.11623906910E+03  0.18007243639E+03  0.00000000000E+00 0. -1.
         11    1    5    5    0    0 -0.35453123960E+02 -0.15209073244E+03  0.49791916975E+03  0.52183523693E+03  0.00000000000E+00 0. -1.
        -12    1    5    5    0    0 -0.32586038522E+01  0.10360581242E+02  0.33490384510E+02  0.35207470761E+02  0.00000000000E+00 0.  1.
          5    1    4    4  501    0 -0.49553559085E+02  0.14846777969E+03  0.23616692437E+03  0.28335582823E+03  0.41800000000E+01 0.  1.
         -5    1    4    4    0  501 -0.40244175719E+02 -0.13859405568E+02  0.29675730691E+02  0.52055722010E+02  0.41800000000E+01 0.  1.
</event>
<event>
11    1  0.8974665E-009  0.1550448E+03  0.7561462E-02  0.1091833E+00
         22   -1    0    0    0    0  0.00000000000E+00  0.00000000000E+00  0.22549521653E+03  0.22549521653E+03  0.00000000000E+00 0. -1.
         22   -1    0    0    0    0 -0.00000000000E+00 -0.00000000000E+00 -0.34798559341E+03  0.34798559341E+03  0.00000000000E+00 0. -1.
         24    2    1    2    0    0  0.74509746819E+02 -0.10476301288E+02 -0.16880399219E+03  0.20152151119E+03  0.80341000955E+02 0.  0.
         25    2    1    2    0    0 -0.61388996805E+02  0.10052953150E+03 -0.86041634560E+02  0.19215851302E+03  0.12508771169E+03 0.  0.
        -24    2    1    2    0    0 -0.13120750014E+02 -0.90053230214E+02  0.13235524987E+03  0.17980078573E+03  0.80800198194E+02 0.  0.
        -13    1    3    3    0    0 -0.13840192865E+02 -0.15673317866E+02 -0.24180594900E+02  0.31967248884E+02  0.00000000000E+00 0.  1.
         14    1    3    3    0    0  0.88349939684E+02  0.51970165775E+01 -0.14462339729E+03  0.16955426231E+03  0.00000000000E+00 0. -1.
         11    1    5    5    0    0 -0.42990477744E+02 -0.58810463572E+02  0.55336794784E+02  0.91482307903E+02  0.00000000000E+00 0. -1.
        -12    1    5    5    0    0  0.29869727730E+02 -0.31242766642E+02  0.77018455081E+02  0.88318477824E+02  0.00000000000E+00 0.  1.
          5    1    4    4  501    0  0.75576111438E+00  0.82830310337E+02 -0.95757769605E+02  0.12668249415E+03  0.41800000000E+01 0. -1.
         -5    1    4    4    0  501 -0.62144757920E+02  0.17699221165E+02  0.97161350449E+01  0.65476018869E+02  0.41800000000E+01 0. -1.
</event>
<event>
11    1  0.8974665E-009  0.1256951E+03  0.7561462E-02  0.1124674E+00
         22   -1    0    0    0    0  0.00000000000E+00  0.00000000000E+00  0.21366928005E+02  0.21366928005E+02  0.00000000000E+00 0. -1.
         22   -1    0    0    0    0 -0.00000000000E+00 -0.00000000000E+00 -0.17851303883E+04  0.17851303883E+04  0.00000000000E+00 0. -1.
        -24    2    1    2    0    0  0.90824052198E+01  0.35132625068E+02 -0.68377807066E+03  0.68947713770E+03  0.80681361339E+02 0.  0.
         25    2    1    2    0    0 -0.44399094270E+01 -0.18401086931E+02 -0.94122006466E+03  0.94968482726E+03  0.12509095979E+03 0.  0.
         24    2    1    2    0    0 -0.46424957928E+01 -0.16731538137E+02 -0.13876532498E+03  0.16733535135E+03  0.91890191305E+02 0.  0.
        -11    1    5    5    0    0  0.24901974288E+01 -0.22924124437E+02 -0.15050850552E+03  0.15226466037E+03  0.00000000000E+00 0.  1.
         12    1    5    5    0    0 -0.71326932217E+01  0.61925862993E+01  0.11743180532E+02  0.15070690982E+02  0.00000000000E+00 0. -1.
         11    1    3    3    0    0  0.42350149778E+02  0.26940662795E+02 -0.50162484493E+03  0.50412976460E+03  0.00000000000E+00 0. -1.
        -12    1    3    3    0    0 -0.33267744558E+02  0.81919622738E+01 -0.18215322573E+03  0.18534737310E+03  0.00000000000E+00 0.  1.
          5    1    4    4  501    0 -0.43770327360E+02 -0.47830199200E+02 -0.32101918760E+03  0.32752764879E+03  0.41800000000E+01 0.  1.
         -5    1    4    4    0  501  0.39330417933E+02  0.29429112269E+02 -0.62020087705E+03  0.62215717847E+03  0.41800000000E+01 0.  1.
</event>
<event>
11    1  0.8974665E-009  0.1957682E+03  0.7561462E-02  0.1057557E+00
         22   -1    0    0    0    0  0.00000000000E+00  0.00000000000E+00  0.13894348392E+04  0.13894348392E+04  0.00000000000E+00 0.  1.
         22   -1    0    0    0    0 -0.00000000000E+00 -0.00000000000E+00 -0.77617522025E+03  0.77617522025E+03  0.00000000000E+00 0. -1.
        -24    2    1    2    0    0 -0.15730386138E+02  0.15217372318E+03 -0.71155309924E+03  0.73222000959E+03  0.80212482371E+02 0.  0.
         25    2    1    2    0    0 -0.36417741967E+02 -0.11971410333E+03  0.97835345848E+02  0.20218084990E+03  0.12509045807E+03 0.  0.
         24    2    1    2    0    0  0.52148128105E+02 -0.32459619849E+02  0.12269773724E+04  0.12312092000E+04  0.81422156878E+02 0.  0.
        -13    1    5    5    0    0  0.54216799166E+02 -0.89280118222E+01  0.11321935986E+04  0.11335261424E+04  0.00000000000E+00 0.  1.
         14    1    5    5    0    0 -0.20686710603E+01 -0.23531608027E+02  0.94783773778E+02  0.97683057630E+02  0.00000000000E+00 0. -1.
         11    1    3    3    0    0 -0.16626239941E+02  0.13255909749E+03 -0.69099569381E+03  0.70379215330E+03  0.00000000000E+00 0. -1.
        -12    1    3    3    0    0  0.89585380277E+00  0.19614625695E+02 -0.20557405429E+02  0.28427856288E+02  0.00000000000E+00 0.  1.
          5    1    4    4  501    0  0.32384424247E+02 -0.91625988079E+02  0.30851153833E+02  0.10204576776E+03  0.41800000000E+01 0.  1.
         -5    1    4    4    0  501 -0.68802166214E+02 -0.28088115253E+02  0.66984192015E+02  0.10013508213E+03  0.41800000000E+01 0.  1.
</event>
<event>
11    1  0.8974665E-009  0.1322896E+03  0.7561462E-02  0.1116487E+00
         22   -1    0    0    0    0  0.00000000000E+00  0.00000000000E+00  0.23246623618E+03  0.23246623618E+03  0.00000000000E+00 0. -1.
         22   -1    0    0    0    0 -0.00000000000E+00 -0.00000000000E+00 -0.38545820419E+03  0.38545820419E+03  0.00000000000E+00 0.  1.
         24    2    1    2    0    0 -0.28480969055E+02 -0.37095560691E+02 -0.30720939505E+03  0.32198047088E+03  0.84300444819E+02 0.  0.
         25    2    1    2    0    0  0.65398756356E+01  0.64606831845E+01  0.90635185390E+01  0.12575356189E+03  0.12508917043E+03 0.  0.
        -24    2    1    2    0    0  0.21941093419E+02  0.30634877507E+02  0.14515390851E+03  0.17019040760E+03  0.80468691955E+02 0.  0.
        -13    1    3    3    0    0  0.95420756291E+01 -0.38205499443E+02 -0.25124407344E+03  0.25431141507E+03  0.00000000000E+00 0.  1.
         14    1    3    3    0    0 -0.38023044684E+02  0.11099387515E+01 -0.55965321615E+02  0.67669055812E+02  0.00000000000E+00 0. -1.
         13    1    5    5    0    0  0.14730988175E+02  0.29683843781E+02  0.15468885204E+03  0.15819852572E+03  0.00000000000E+00 0. -1.
        -14    1    5    5    0    0  0.72101052440E+01  0.95103372590E+00 -0.95349435368E+01  0.11991881880E+02  0.00000000000E+00 0.  1.
          5    1    4    4  501    0  0.21511928145E+02  0.93030608359E+01  0.64160609572E+02  0.68435124125E+02  0.41800000000E+01 0.  1.
         -5    1    4    4    0  501 -0.14972052509E+02 -0.28423776514E+01 -0.55097091033E+02  0.57318437761E+02  0.41800000000E+01 0.  1.
</event>
<event>
11    1  0.8974665E-009  0.1454236E+03  0.7561462E-02  0.1101649E+00
         22   -1    0    0    0    0  0.00000000000E+00  0.00000000000E+00  0.47732372212E+03  0.47732372212E+03  0.00000000000E+00 0. -1.
         22   -1    0    0    0    0 -0.00000000000E+00 -0.00000000000E+00 -0.58603542560E+03  0.58603542560E+03  0.00000000000E+00 0.  1.
        -24    2    1    2    0    0 -0.47056002587E+02 -0.55806585337E+02 -0.53731504807E+03  0.54873917756E+03  0.84134307891E+02 0.  0.
         25    2    1    2    0    0  0.97509241949E+02  0.89734217832E+02  0.24939367209E+03  0.30887576246E+03  0.12508697312E+03 0.  0.
         24    2    1    2    0    0 -0.50453239362E+02 -0.33927632495E+02  0.17920967250E+03  0.20574420769E+03  0.80733875614E+02 0.  0.
        -13    1    5    5    0    0 -0.15100557226E+02 -0.34014927142E+02  0.19202646600E+02  0.41878201173E+02  0.00000000000E+00 0.  1.
         14    1    5    5    0    0 -0.35352682136E+02  0.87294647290E-01  0.16000702590E+03  0.16386600652E+03  0.00000000000E+00 0. -1.
         13    1    3    3    0    0 -0.15994105785E+02 -0.52995717230E+02 -0.14533818922E+03  0.15552346032E+03  0.00000000000E+00 0. -1.
        -14    1    3    3    0    0 -0.31061896802E+02 -0.28108681069E+01 -0.39197685885E+03  0.39321571724E+03  0.00000000000E+00 0.  1.
          5    1    4    4  501    0  0.31003971468E+00  0.59038681119E+02  0.28773546928E+02  0.65810724017E+02  0.41800000000E+01 0.  1.
         -5    1    4    4    0  501  0.97199202234E+02  0.30695536713E+02  0.22062012516E+03  0.24306503844E+03  0.41800000000E+01 0.  1.
</event>
<event>
11    1  0.8974665E-009  0.1594976E+03  0.7561462E-02  0.1087551E+00
         22   -1    0    0    0    0  0.00000000000E+00  0.00000000000E+00  0.46576705039E+02  0.46576705039E+02  0.00000000000E+00 0. -1.
         22   -1    0    0    0    0 -0.00000000000E+00 -0.00000000000E+00 -0.13912044442E+04  0.13912044442E+04  0.00000000000E+00 0.  1.
        -24    2    1    2    0    0 -0.20130723390E+02 -0.34665162983E+02 -0.76509476177E+03  0.77020272929E+03  0.78964106888E+02 0.  0.
         25    2    1    2    0    0  0.10223964557E+03  0.74032942332E+02 -0.46112692717E+03  0.49418574376E+03  0.12509070591E+03 0.  0.
         24    2    1    2    0    0 -0.82108922184E+02 -0.39367779349E+02 -0.11840605021E+03  0.17339267617E+03  0.88052996930E+02 0.  0.
        -11    1    5    5    0    0  0.33603694811E+01  0.17762545355E+02 -0.40667750178E+02  0.44504673968E+02  0.00000000000E+00 0.  1.
         12    1    5    5    0    0 -0.85469291665E+02 -0.57130324703E+02 -0.77738300033E+02  0.12888800220E+03  0.00000000000E+00 0. -1.
         13    1    3    3    0    0  0.26035742518E+01 -0.17976684065E+01  0.80205786034E+00  0.32639711083E+01  0.00000000000E+00 0. -1.
        -14    1    3    3    0    0 -0.22734297642E+02 -0.32867494577E+02 -0.76589681963E+03  0.76693875818E+03  0.00000000000E+00 0.  1.
          5    1    4    4  501    0 -0.24320410187E+02  0.13561693727E+02 -0.15354272701E+03  0.15610330972E+03  0.41800000000E+01 0.  1.
         -5    1    4    4    0  501  0.12656005576E+03  0.60471248605E+02 -0.30758420016E+03  0.33808243404E+03  0.41800000000E+01 0.  1.
</event>
<event>
11    1  0.8974665E-009  0.1597656E+03  0.7561462E-02  0.1087298E+00
         22   -1    0    0    0    0  0.00000000000E+00  0.00000000000E+00  0.17911542700E+04  0.17911542700E+04  0.00000000000E+00 0. -1.
         22   -1    0    0    0    0 -0.00000000000E+00 -0.00000000000E+00 -0.12364343093E+04  0.12364343093E+04  0.00000000000E+00 0. -1.
         24    2    1    2    0    0  0.42198217559E+02 -0.78763579409E+02 -0.97455833450E+03  0.98203305639E+03  0.81489787639E+02 0.  0.
         25    2    1    2    0    0 -0.13789193627E+03  0.10349062064E+03 -0.21146739597E+03  0.30015097324E+03  0.12509057730E+03 0.  0.
        -24    2    1    2    0    0  0.95693718707E+02 -0.24727041233E+02  0.17407456912E+04  0.17454045496E+04  0.80453503062E+02 0.  0.
        -11    1    3    3    0    0  0.54206511396E+02 -0.20736010052E+02 -0.36296520710E+03  0.36757593712E+03  0.00000000000E+00 0.  1.
         12    1    3    3    0    0 -0.12008293837E+02 -0.58027569358E+02 -0.61159312740E+03  0.61445711926E+03  0.00000000000E+00 0. -1.
         11    1    5    5    0    0  0.98518519732E+02 -0.32694671572E+01  0.11350157688E+04  0.11392881039E+04  0.00000000000E+00 0. -1.
        -12    1    5    5    0    0 -0.28248010258E+01 -0.21457574076E+02  0.60572992233E+03  0.60611644574E+03  0.00000000000E+00 0.  1.
          5    1    4    4  501    0  0.23152695693E+02  0.20246771113E+02 -0.23159179853E+02  0.38727239378E+02  0.41800000000E+01 0. -1.
         -5    1    4    4    0  501 -0.16104463196E+03  0.83243849529E+02 -0.18830821612E+03  0.26142373386E+03  0.41800000000E+01 0. -1.
</event>
<event>
11    1  0.8974665E-009  0.2703310E+03  0.7561462E-02  0.1013593E+00
         22   -1    0    0    0    0  0.00000000000E+00  0.00000000000E+00  0.33389815120E+03  0.33389815120E+03  0.00000000000E+00 0.  1.
         22   -1    0    0    0    0 -0.00000000000E+00 -0.00000000000E+00 -0.16238030623E+04  0.16238030623E+04  0.00000000000E+00 0.  1.
        -24    2    1    2    0    0  0.42906856942E+02 -0.85309703335E+02 -0.14036933635E+04  0.14092187909E+04  0.80148598992E+02 0.  0.
         25    2    1    2    0    0  0.14739969002E+02  0.27551565775E+03  0.13784748015E+03  0.33281028024E+03  0.12503843609E+03 0.  0.
         24    2    1    2    0    0 -0.57646825945E+02 -0.19020595441E+03 -0.24059027702E+02  0.21567214235E+03  0.80213306490E+02 0.  0.
        -13    1    5    5    0    0 -0.64131177766E+02 -0.19086203925E+03 -0.11685473700E+02  0.20168707516E+03  0.00000000000E+00 0.  1.
         14    1    5    5    0    0  0.64843518213E+01  0.65608484160E+00 -0.12373554002E+02  0.13985067197E+02  0.00000000000E+00 0. -1.
         11    1    3    3    0    0  0.11617511189E+02 -0.30484989540E+02 -0.13243100904E+03  0.13639015107E+03  0.00000000000E+00 0. -1.
        -12    1    3    3    0    0  0.31289345754E+02 -0.54824713795E+02 -0.12712623545E+04  0.12728286398E+04  0.00000000000E+00 0.  1.
          5    1    4    4  501    0 -0.44759760818E+02  0.82600442747E+02  0.78065530591E+02  0.12222098346E+03  0.41800000000E+01 0. -1.
         -5    1    4    4    0  501  0.59499729821E+02  0.19291521500E+03  0.59781949560E+02  0.21058929679E+03  0.41800000000E+01 0. -1.
</event>
<event>
11    1  0.8974665E-009  0.1631776E+03  0.7561462E-02  0.1084126E+00
         22   -1    0    0    0    0  0.00000000000E+00  0.00000000000E+00  0.13428375936E+04  0.13428375936E+04  0.00000000000E+00 0. -1.
         22   -1    0    0    0    0 -0.00000000000E+00 -0.00000000000E+00 -0.37029132932E+03  0.37029132932E+03  0.00000000000E+00 0. -1.
        -24    2    1    2    0    0  0.90194472358E+02  0.51260457783E+02 -0.32752819670E+03  0.35289361632E+03  0.80600914565E+02 0.  0.
         25    2    1    2    0    0 -0.11120433302E+03 -0.62480892681E+02  0.25168199631E+03  0.30864755088E+03  0.12509683357E+03 0.  0.
         24    2    1    2    0    0  0.21009860660E+02  0.11220434898E+02  0.10483924646E+04  0.10515877557E+04  0.78375605691E+02 0.  0.
        -13    1    5    5    0    0  0.17021858886E+02 -0.82076537075E+01  0.58085227799E+02  0.61081936346E+02  0.00000000000E+00 0.  1.
         14    1    5    5    0    0  0.39880017737E+01  0.19428088606E+02  0.99030723684E+03  0.99050581933E+03  0.00000000000E+00 0. -1.
         11    1    3    3    0    0  0.45530862888E+02 -0.15692198599E+02 -0.15900643183E+03  0.16613954959E+03  0.00000000000E+00 0. -1.
        -12    1    3    3    0    0  0.44663609470E+02  0.66952656381E+02 -0.16852176487E+03  0.18675406673E+03  0.00000000000E+00 0.  1.
          5    1    4    4  501    0 -0.10643032709E+03 -0.77578658779E+01  0.22133468962E+03  0.24575214391E+03  0.41800000000E+01 0. -1.
         -5    1    4    4    0  501 -0.47740059247E+01 -0.54723026803E+02  0.30347306690E+02  0.62895406974E+02  0.41800000000E+01 0. -1.
</event>
<event>
11    1  0.8974665E-009  0.1508501E+03  0.7561462E-02  0.1096013E+00
         22   -1    0    0    0    0  0.00000000000E+00  0.00000000000E+00  0.44624047020E+03  0.44624047020E+03  0.00000000000E+00 0. -1.
         22   -1    0    0    0    0 -0.00000000000E+00 -0.00000000000E+00 -0.44506515297E+03  0.44506515297E+03  0.00000000000E+00 0.  1.
         24    2    1    2    0    0  0.13763624303E+02 -0.77501689391E+02 -0.37326417280E+03  0.39164602352E+03  0.88682105505E+02 0.  0.
         25    2    1    2    0    0  0.32883011101E+02 -0.75826541218E+01  0.29092964891E+02  0.13278177089E+03  0.12508320836E+03 0.  0.
        -24    2    1    2    0    0 -0.46646635405E+02  0.85084343513E+02  0.34534652513E+03  0.36687782875E+03  0.76940657033E+02 0.  0.
        -11    1    3    3    0    0  0.36383381314E+02 -0.84244373450E+02 -0.32803305032E+03  0.34062669742E+03  0.00000000000E+00 0.  1.
         12    1    3    3    0    0 -0.22619757011E+02  0.67426840591E+01 -0.45231122473E+02  0.51019326100E+02  0.00000000000E+00 0. -1.
         11    1    5    5    0    0 -0.65624024379E+02  0.75692855265E+02  0.30876607340E+03  0.32461116585E+03  0.00000000000E+00 0. -1.
        -12    1    5    5    0    0  0.18977388975E+02  0.93914882475E+01  0.36580451734E+02  0.42266662902E+02  0.00000000000E+00 0.  1.
          5    1    4    4  501    0  0.78035876175E+02 -0.13395341006E+02  0.35029716353E+02  0.86680946919E+02  0.41800000000E+01 0.  1.
         -5    1    4    4    0  501 -0.45152865073E+02  0.58126868844E+01 -0.59367514624E+01  0.46100823974E+02  0.41800000000E+01 0.  1.
</event>
<event>
11    1  0.8974665E-009  0.1438192E+03  0.7561462E-02  0.1103367E+00
         22   -1    0    0    0    0  0.00000000000E+00  0.00000000000E+00  0.18902822540E+04  0.18902822540E+04  0.00000000000E+00 0. -1.
         22   -1    0    0    0    0 -0.00000000000E+00 -0.00000000000E+00 -0.13383272229E+04  0.13383272229E+04  0.00000000000E+00 0.  1.
         24    2    1    2    0    0  0.60487099682E+01 -0.56273047728E+02 -0.12084399047E+04  0.12124127670E+04  0.80090395369E+02 0.  0.
         25    2    1    2    0    0  0.39822103647E+02  0.13634911859E+01 -0.92183533858E+02  0.16041818796E+03  0.12509409285E+03 0.  0.
        -24    2    1    2    0    0 -0.45870813616E+02  0.54909556542E+02  0.18525784696E+04  0.18557785220E+04  0.82144662876E+02 0.  0.
        -11    1    3    3    0    0 -0.32923869775E+02 -0.25805763931E+02 -0.78106761800E+03  0.78218702529E+03  0.00000000000E+00 0.  1.
         12    1    3    3    0    0  0.38972579743E+02 -0.30467283797E+02 -0.42737228672E+03  0.43022574168E+03  0.00000000000E+00 0. -1.
         13    1    5    5    0    0 -0.83732306749E+00  0.25896841315E+02  0.13684436448E+04  0.13686889188E+04  0.00000000000E+00 0. -1.
        -14    1    5    5    0    0 -0.45033490548E+02  0.29012715228E+02  0.48413482488E+03  0.48708960323E+03  0.00000000000E+00 0.  1.
          5    1    4    4  501    0 -0.43804874807E+02  0.13390752432E+02 -0.24709805362E+02  0.52213275980E+02  0.41800000000E+01 0. -1.
         -5    1    4    4    0  501  0.83626978454E+02 -0.12027261246E+02 -0.67473728495E+02  0.10820491198E+03  0.41800000000E+01 0. -1.
</event>
<event>
11    1  0.8974665E-009  0.1859411E+03  0.7561462E-02  0.1064936E+00
         22   -1    0    0    0    0  0.00000000000E+00  0.00000000000E+00  0.89037438289E+03  0.89037438289E+03  0.00000000000E+00 0. -1.
         22   -1    0    0    0    0 -0.00000000000E+00 -0.00000000000E+00 -0.69127882391E+02  0.69127882391E+02  0.00000000000E+00 0. -1.
        -24    2    1    2    0    0  0.14561402664E+03 -0.56999023613E+02  0.12782411431E+03  0.21746285301E+03  0.80614854669E+02 0.  0.
         25    2    1    2    0    0 -0.90858227322E+02  0.37568309828E+02  0.34300051778E+03  0.37810621728E+03  0.12509340899E+03 0.  0.
         24    2    1    2    0    0 -0.54755799316E+02  0.19430713786E+02  0.35042186842E+03  0.36393319499E+03  0.79222057270E+02 0.  0.
        -11    1    5    5    0    0 -0.65654843011E+01 -0.12352660475E+02  0.22963060718E+03  0.23005631823E+03  0.00000000000E+00 0.  1.
         12    1    5    5    0    0 -0.48190315015E+02  0.31783374261E+02  0.12079126124E+03  0.13387687676E+03  0.00000000000E+00 0. -1.
         11    1    3    3    0    0  0.77736313071E+02 -0.68777530526E+02  0.96724723289E+02  0.14187654905E+03  0.00000000000E+00 0. -1.
        -12    1    3    3    0    0  0.67877713567E+02  0.11778506913E+02  0.31099391017E+02  0.75586303957E+02  0.00000000000E+00 0.  1.
          5    1    4    4  501    0 -0.67771493509E+01 -0.40552322359E+02  0.61671496880E+02  0.74237904937E+02  0.41800000000E+01 0.  1.
         -5    1    4    4    0  501 -0.84081077971E+02  0.78120632187E+02  0.28132902090E+03  0.30386831234E+03  0.41800000000E+01 0.  1.
</event>
<event>
11    1  0.8974665E-009  0.1344372E+03  0.7561462E-02  0.1113934E+00
         22   -1    0    0    0    0  0.00000000000E+00  0.00000000000E+00  0.62015012114E+03  0.62015012114E+03  0.00000000000E+00 0. -1.
         22   -1    0    0    0    0 -0.00000000000E+00 -0.00000000000E+00 -0.74903247230E+03  0.74903247230E+03  0.00000000000E+00 0. -1.
         24    2    1    2    0    0 -0.20155802173E+02 -0.47826948643E+02 -0.72339862388E+03  0.72967362406E+03  0.80152075678E+02 0.  0.
         25    2    1    2    0    0  0.27221106199E+02 -0.16578060686E+02  0.27468035989E+03  0.30348899025E+03  0.12506177025E+03 0.  0.
        -24    2    1    2    0    0 -0.70653040256E+01  0.64405009329E+02  0.31983591284E+03  0.33601997912E+03  0.80103005457E+02 0.  0.
        -11    1    3    3    0    0  0.25386919554E+02 -0.22300317174E+02 -0.14328688350E+03  0.14721729115E+03  0.00000000000E+00 0.  1.
         12    1    3    3    0    0 -0.45542721727E+02 -0.25526631469E+02 -0.58011174039E+03  0.58245633291E+03  0.00000000000E+00 0. -1.
         13    1    5    5    0    0 -0.30935292908E+02  0.12774255069E+02  0.20667329364E+03  0.20936576665E+03  0.00000000000E+00 0. -1.
        -14    1    5    5    0    0  0.23869988883E+02  0.51630754260E+02  0.11316261919E+03  0.12665421247E+03  0.00000000000E+00 0.  1.
          5    1    4    4  501    0  0.64586574343E+02  0.10337486466E+02  0.80138879789E+02  0.10352778210E+03  0.41800000000E+01 0.  1.
         -5    1    4    4    0  501 -0.37365468144E+02 -0.26915547152E+02  0.19454148010E+03  0.19996120816E+03  0.41800000000E+01 0.  1.
</event>
<event>
11    1  0.8974665E-009  0.1374906E+03  0.7561462E-02  0.1110393E+00
         22   -1    0    0    0    0  0.00000000000E+00  0.00000000000E+00  0.32902749131E+03  0.32902749131E+03  0.00000000000E+00 0.  1.
         22   -1    0    0    0    0 -0.00000000000E+00 -0.00000000000E+00 -0.34357603201E+03  0.34357603201E+03  0.00000000000E+00 0. -1.
        -24    2    1    2    0    0  0.25106456191E+02  0.49117353050E+02 -0.26551281752E+03  0.28308358851E+03  0.81218306452E+02 0.  0.
         25    2    1    2    0    0 -0.26604833692E+02 -0.71844817122E+02  0.25298238859E+02  0.14884363886E+03  0.12507970665E+03 0.  0.
         24    2    1    2    0    0  0.14983775010E+01  0.22727464072E+02  0.22566603796E+03  0.24067629595E+03  0.80505502832E+02 0.  0.
        -11    1    5    5    0    0  0.32049235606E+02  0.12006765493E+02  0.18763103660E+03  0.19072682511E+03  0.00000000000E+00 0.  1.
         12    1    5    5    0    0 -0.30550858104E+02  0.10720698579E+02  0.38035001356E+02  0.49949470839E+02  0.00000000000E+00 0. -1.
         11    1    3    3    0    0 -0.11802840797E+02  0.45997342218E+02 -0.21650862225E+03  0.22165524142E+03  0.00000000000E+00 0. -1.
        -12    1    3    3    0    0  0.36909296988E+02  0.31200108315E+01 -0.49004195275E+02  0.61428347091E+02  0.00000000000E+00 0.  1.
          5    1    4    4  501    0  0.43030556588E+02 -0.60709496201E+02  0.23607115969E+02  0.78179537308E+02  0.41800000000E+01 0.  1.
         -5    1    4    4    0  501 -0.69635390280E+02 -0.11135320921E+02  0.16911228892E+01  0.70664101551E+02  0.41800000000E+01 0.  1.
</event>
<event>
11    1  0.8974665E-009  0.1491900E+03  0.7561462E-02  0.1097709E+00
         22   -1    0    0    0    0  0.00000000000E+00  0.00000000000E+00  0.11117446255E+04  0.11117446255E+04  0.00000000000E+00 0. -1.
         22   -1    0    0    0    0 -0.00000000000E+00 -0.00000000000E+00 -0.24528144253E+03  0.24528144253E+03  0.00000000000E+00 0.  1.
         24    2    1    2    0    0 -0.62021753921E+02 -0.53663109363E+02 -0.21869335117E+03  0.24707144015E+03  0.80567285086E+02 0.  0.
         25    2    1    2    0    0  0.37507961080E+02  0.42984987325E+02  0.49011516640E+03  0.50903215343E+03  0.12508517342E+03 0.  0.
        -24    2    1    2    0    0  0.24513792842E+02  0.10678122038E+02  0.59504136779E+03  0.60092247450E+03  0.79489890283E+02 0.  0.
        -11    1    3    3    0    0 -0.37068975873E+02 -0.59407713088E+02 -0.81240342171E+02  0.10725380433E+03  0.00000000000E+00 0.  1.
         12    1    3    3    0    0 -0.24952778049E+02  0.57446037258E+01 -0.13745300900E+03  0.13981763582E+03  0.00000000000E+00 0. -1.
         13    1    5    5    0    0  0.51351732550E+02  0.19662985338E+02  0.42489178638E+03  0.42843513344E+03  0.00000000000E+00 0. -1.
        -14    1    5    5    0    0 -0.26837939708E+02 -0.89848633000E+01  0.17014958140E+03  0.17248734107E+03  0.00000000000E+00 0.  1.
          5    1    4    4  501    0  0.14933154061E+02  0.53816728634E+02  0.77404191643E+02  0.95541198732E+02  0.41800000000E+01 0. -1.
         -5    1    4    4    0  501  0.22574807018E+02 -0.10831741309E+02  0.41271097475E+03  0.41349095469E+03  0.41800000000E+01 0. -1.
</event>
<event>
11    1  0.8974665E-009  0.1329157E+03  0.7561462E-02  0.1115738E+00
         22   -1    0    0    0    0  0.00000000000E+00  0.00000000000E+00  0.36251430215E+03  0.36251430215E+03  0.00000000000E+00 0. -1.
         22   -1    0    0    0    0 -0.00000000000E+00 -0.00000000000E+00 -0.23178243594E+04  0.23178243594E+04  0.00000000000E+00 0. -1.
        -24    2    1    2    0    0 -0.34111695355E+02 -0.25854494680E+02 -0.22006040448E+04  0.22025967481E+04  0.83319927914E+02 0.  0.
         25    2    1    2    0    0  0.67548337192E+02 -0.31341296061E+01 -0.61869146748E+02  0.15507517082E+03  0.12509163305E+03 0.  0.
         24    2    1    2    0    0 -0.33436641836E+02  0.28988624286E+02  0.30716313428E+03  0.32266674259E+03  0.88353190984E+02 0.  0.
        -13    1    5    5    0    0  0.30173695851E+02  0.14343611730E+02  0.11202244520E+03  0.11689832911E+03  0.00000000000E+00 0.  1.
         14    1    5    5    0    0 -0.63610337687E+02  0.14645012556E+02  0.19514068908E+03  0.20576841348E+03  0.00000000000E+00 0. -1.
         13    1    3    3    0    0 -0.33332376573E+02 -0.41946387449E+02 -0.21021966733E+04  0.21028793118E+04  0.00000000000E+00 0. -1.
        -14    1    3    3    0    0 -0.77931878281E+00  0.16091892769E+02 -0.98407371511E+02  0.99717436381E+02  0.00000000000E+00 0.  1.
          5    1    4    4  501    0 -0.16630232092E+02 -0.44407719288E+02 -0.13408088591E+02  0.49455630533E+02  0.41800000000E+01 0. -1.
         -5    1    4    4    0  501  0.84178569284E+02  0.41273589682E+02 -0.48461058157E+02  0.10561954028E+03  0.41800000000E+01 0. -1.
</event>
<event>
11    1  0.8974665E-009  0.1372907E+03  0.7561462E-02  0.1110622E+00
         22   -1    0    0    0    0  0.00000000000E+00  0.00000000000E+00  0.12803661739E+04  0.12803661739E+04  0.00000000000E+00 0. -1.
         22   -1    0    0    0    0 -0.00000000000E+00 -0.00000000000E+00 -0.17159361449E+03  0.17159361449E+03  0.00000000000E+00 0. -1.
         24    2    1    2    0    0  0.26466606429E+02 -0.48909727374E+02 -0.91261770544E+02  0.13416076177E+03  0.81103369527E+02 0.  0.
         25    2    1    2    0    0  0.14207924704E+02  0.87059145990E+02  0.48841163595E+02  0.16068074425E+03  0.12510668362E+03 0.  0.
        -24    2    1    2    0    0 -0.40674531133E+02 -0.38149418616E+02  0.11511931664E+04  0.11571182824E+04  0.10279697213E+03 0.  0.
        -13    1    3    3    0    0 -0.14293173831E+02  0.90798302411E+01  0.19662170816E+01  0.17047115445E+02  0.00000000000E+00 0.  1.
         14    1    3    3    0    0  0.40759780260E+02 -0.57989557615E+02 -0.93227987626E+02  0.11711364633E+03  0.00000000000E+00 0. -1.
         13    1    5    5    0    0  0.10512369479E+02 -0.48982776162E+02  0.28676775873E+03  0.29111092340E+03  0.00000000000E+00 0. -1.
        -14    1    5    5    0    0 -0.51186900612E+02  0.10833357545E+02  0.86442540764E+03  0.86600735897E+03  0.00000000000E+00 0.  1.
          5    1    4    4  501    0 -0.24687611399E+02  0.10294254408E+03  0.52618098393E+02  0.11829109103E+03  0.41800000000E+01 0. -1.
         -5    1    4    4    0  501  0.38895536103E+02 -0.15883398092E+02 -0.37769347978E+01  0.42389653221E+02  0.41800000000E+01 0. -1.
</event>
<event>
11    1  0.8974665E-009  0.1326607E+03  0.7561462E-02  0.1116042E+00
         22   -1    0    0    0    0  0.00000000000E+00  0.00000000000E+00  0.50687681013E+02  0.50687681013E+02  0.00000000000E+00 0. -1.
         22   -1    0    0    0    0 -0.00000000000E+00 -0.00000000000E+00 -0.17304126886E+04  0.17304126886E+04  0.00000000000E+00 0.  1.
         24    2    1    2    0    0  0.23915754360E+02  0.25451072509E+02 -0.88015033035E+03  0.88464491218E+03  0.81928604450E+02 0.  0.
         25    2    1    2    0    0 -0.40268560021E+02 -0.64427683357E+02 -0.79197733265E+03  0.80538673872E+03  0.12508884910E+03 0.  0.
        -24    2    1    2    0    0  0.16352805661E+02  0.38976610848E+02 -0.75973445802E+01  0.91068718706E+02  0.80306920224E+02 0.  0.
        -13    1    3    3    0    0  0.45368686259E+02  0.15721524157E+02 -0.79032439918E+03  0.79178162390E+03  0.00000000000E+00 0.  1.
         14    1    3    3    0    0 -0.21452931898E+02  0.97295483519E+01 -0.89825931178E+02  0.92863288280E+02  0.00000000000E+00 0. -1.
         13    1    5    5    0    0 -0.86713159435E+01  0.33714301134E+02  0.29759416930E+02  0.45798130062E+02  0.00000000000E+00 0. -1.
        -14    1    5    5    0    0  0.25024121604E+02  0.52623097138E+01 -0.37356761511E+02  0.45270588644E+02  0.00000000000E+00 0.  1.
          5    1    4    4  501    0 -0.32714338694E+02 -0.63627414285E+02 -0.79337404951E+03  0.79660437523E+03  0.41800000000E+01 0.  1.
         -5    1    4    4    0  501 -0.75542213271E+01 -0.80026907183E+00  0.13967168616E+01  0.87823634881E+01  0.41800000000E+01 0.  1.
</event>
<event>
11    1  0.8974665E-009  0.1381410E+03  0.7561462E-02  0.1109652E+00
         22   -1    0    0    0    0  0.00000000000E+00  0.00000000000E+00  0.31344310658E+03  0.31344310658E+03  0.00000000000E+00 0. -1.
         22   -1    0    0    0    0 -0.00000000000E+00 -0.00000000000E+00 -0.12495067027E+03  0.12495067027E+03  0.00000000000E+00 0. -1.
        -24    2    1    2    0    0 -0.40731174949E+02  0.41237139662E+02 -0.51116441521E+02  0.10999311438E+03  0.78269178590E+02 0.  0.
         25    2    1    2    0    0  0.28402906999E+02 -0.58896473803E+02  0.14235981735E+03  0.20047195205E+03  0.12508863342E+03 0.  0.
         24    2    1    2    0    0  0.12328267951E+02  0.17659334140E+02  0.97249060485E+02  0.12792871042E+03  0.80277873108E+02 0.  0.
        -13    1    5    5    0    0  0.11907370291E+02  0.22845502357E+02 -0.44095117114E+01  0.26137066376E+02  0.00000000000E+00 0.  1.
         14    1    5    5    0    0  0.42089765979E+00 -0.51861682167E+01  0.10165857220E+03  0.10179164404E+03  0.00000000000E+00 0. -1.
         11    1    3    3    0    0 -0.34620615232E+02  0.64119166001E+02 -0.32127815883E+02  0.79636995179E+02  0.00000000000E+00 0. -1.
        -12    1    3    3    0    0 -0.61105597177E+01 -0.22882026339E+02 -0.18988625637E+02  0.30356119202E+02  0.00000000000E+00 0.  1.
          5    1    4    4  501    0 -0.48386302487E+02 -0.23855164086E+02  0.74568872431E+02  0.92131928545E+02  0.41800000000E+01 0. -1.
         -5    1    4    4    0  501  0.76789209486E+02 -0.35041309717E+02  0.67790944922E+02  0.10834002351E+03  0.41800000000E+01 0. -1.
</event>
<event>
11    1  0.8974665E-009  0.2456526E+03  0.7561462E-02  0.1026241E+00
         22   -1    0    0    0    0  0.00000000000E+00  0.00000000000E+00  0.89248452431E+02  0.89248452431E+02  0.00000000000E+00 0.  1.
         22   -1    0    0    0    0 -0.00000000000E+00 -0.00000000000E+00 -0.30140479924E+04  0.30140479924E+04  0.00000000000E+00 0. -1.
        -24    2    1    2    0    0  0.46208415658E+02 -0.23488318898E+02 -0.23676329556E+04  0.23694310685E+04  0.76360048636E+02 0.  0.
         25    2    1    2    0    0 -0.22482216507E+03 -0.50622320957E+02 -0.26384025417E+03  0.37197664371E+03  0.12508924197E+03 0.  0.
         24    2    1    2    0    0  0.17861374941E+03  0.74110639855E+02 -0.29332633018E+03  0.36188873263E+03  0.86763243416E+02 0.  0.
        -13    1    5    5    0    0  0.17616604785E+03  0.44846639302E+02 -0.24082117980E+03  0.30172924636E+03  0.00000000000E+00 0.  1.
         14    1    5    5    0    0  0.24477015650E+01  0.29264000553E+02 -0.52505150379E+02  0.60159486265E+02  0.00000000000E+00 0. -1.
         11    1    3    3    0    0  0.43094694530E+02 -0.34510618028E+02 -0.23105940002E+04  0.23112535061E+04  0.00000000000E+00 0. -1.
        -12    1    3    3    0    0  0.31137211277E+01  0.11022299131E+02 -0.57038955385E+02  0.58177562417E+02  0.00000000000E+00 0.  1.
          5    1    4    4  501    0 -0.18723591969E+03 -0.41108299615E+02 -0.12772975988E+03  0.23038998649E+03  0.41800000000E+01 0. -1.
         -5    1    4    4    0  501 -0.37586245382E+02 -0.95140213425E+01 -0.13611049429E+03  0.14158665721E+03  0.41800000000E+01 0. -1.
</event>
<event>
11    1  0.8974665E-009  0.2156340E+03  0.7561462E-02  0.1043987E+00
         22   -1    0    0    0    0  0.00000000000E+00  0.00000000000E+00  0.42755086017E+03  0.42755086017E+03  0.00000000000E+00 0. -1.
         22   -1    0    0    0    0 -0.00000000000E+00 -0.00000000000E+00 -0.10216282769E+04  0.10216282769E+04  0.00000000000E+00 0. -1.
        -24    2    1    2    0    0 -0.64342677029E+02 -0.15984388575E+03 -0.85508498065E+03  0.87569042426E+03  0.77287431778E+02 0.  0.
         25    2    1    2    0    0  0.67793712694E+02  0.19612715948E+03 -0.52390965653E+02  0.24789971298E+03  0.12509038432E+03 0.  0.
         24    2    1    2    0    0 -0.34510356653E+01 -0.36283273726E+02  0.31339852957E+03  0.32558899983E+03  0.80381421180E+02 0.  0.
        -11    1    5    5    0    0  0.10479991649E+02  0.84329511727E+01  0.61492819476E+01  0.14790488799E+02  0.00000000000E+00 0.  1.
         12    1    5    5    0    0 -0.13931027315E+02 -0.44716224899E+02  0.30724924763E+03  0.31079851103E+03  0.00000000000E+00 0. -1.
         11    1    3    3    0    0 -0.73315183505E+02 -0.15921384428E+03 -0.74952545979E+03  0.76974838695E+03  0.00000000000E+00 0. -1.
        -12    1    3    3    0    0  0.89725064764E+01 -0.63004146582E+00 -0.10555952086E+03  0.10594203731E+03  0.00000000000E+00 0.  1.
          5    1    4    4  501    0 -0.15568290128E+02  0.74863860077E+02 -0.64591882828E+02  0.10018259794E+03  0.41800000000E+01 0. -1.
         -5    1    4    4    0  501  0.83362002822E+02  0.12126329940E+03  0.12200917175E+02  0.14771711504E+03  0.41800000000E+01 0. -1.
</event>
<event>
11    1  0.8974665E-009  0.6357692E+03  0.7561462E-02  0.9132709E-01
         22   -1    0    0    0    0  0.00000000000E+00  0.00000000000E+00  0.17271687111E+04  0.17271687111E+04  0.00000000000E+00 0. -1.
         22   -1    0    0    0    0 -0.00000000000E+00 -0.00000000000E+00 -0.13396511810E+04  0.13396511810E+04  0.00000000000E+00 0. -1.
        -24    2    1    2    0    0  0.27768150660E+03 -0.56354607986E+03 -0.11340471229E+04  0.12989400314E+04  0.80567517609E+02 0.  0.
         25    2    1    2    0    0 -0.13017477105E+03  0.57649694060E+03  0.67943036919E+03  0.90915788708E+03  0.12509293954E+03 0.  0.
         24    2    1    2    0    0 -0.14750673555E+03 -0.12950860745E+02  0.84213428379E+03  0.85872197367E+03  0.79292586670E+02 0.  0.
        -13    1    5    5    0    0 -0.18693559175E+02  0.26595827429E+02  0.13451012217E+03  0.13838265845E+03  0.00000000000E+00 0.  1.
         14    1    5    5    0    0 -0.12881317638E+03 -0.39546688174E+02  0.70762416161E+03  0.72033931522E+03  0.00000000000E+00 0. -1.
         13    1    3    3    0    0  0.13439111732E+03 -0.35476162653E+03 -0.64781319254E+03  0.75071879988E+03  0.00000000000E+00 0. -1.
        -14    1    3    3    0    0  0.14329038928E+03 -0.20878445333E+03 -0.48623393037E+03  0.54822123149E+03  0.00000000000E+00 0.  1.
          5    1    4    4  501    0 -0.64361102144E+02  0.11024675633E+03  0.19879975553E+03  0.23629539554E+03  0.41800000000E+01 0. -1.
         -5    1    4    4    0  501 -0.65813668906E+02  0.46625018427E+03  0.48063061365E+03  0.67286249155E+03  0.41800000000E+01 0. -1.
</event>
<event>
11    1  0.8974665E-009  0.1273912E+03  0.7561462E-02  0.1122517E+00
         22   -1    0    0    0    0  0.00000000000E+00  0.00000000000E+00  0.82907067539E+03  0.82907067539E+03  0.00000000000E+00 0. -1.
         22   -1    0    0    0    0 -0.00000000000E+00 -0.00000000000E+00 -0.67208648644E+03  0.67208648644E+03  0.00000000000E+00 0. -1.
        -24    2    1    2    0    0 -0.32359699743E+01 -0.63992855558E+01 -0.48575275782E+03  0.49264573606E+03  0.81808661963E+02 0.  0.
         25    2    1    2    0    0 -0.62413487188E+01  0.28495972233E+02 -0.15791049644E+03  0.20355468740E+03  0.12509121075E+03 0.  0.
         24    2    1    2    0    0  0.94773186931E+01 -0.22096686677E+02  0.80064744322E+03  0.80495673837E+03  0.79630014295E+02 0.  0.
        -11    1    5    5    0    0  0.27505654263E+02 -0.14005970343E+01  0.98635070305E+02  0.10240800644E+03  0.00000000000E+00 0.  1.
         12    1    5    5    0    0 -0.18028335570E+02 -0.20696089643E+02  0.70201237291E+03  0.70254873193E+03  0.00000000000E+00 0. -1.
         13    1    3    3    0    0 -0.23777331729E+01 -0.41216538221E+02 -0.35278352528E+03  0.35519103642E+03  0.00000000000E+00 0. -1.
        -14    1    3    3    0    0 -0.85823680139E+00  0.34817252665E+02 -0.13296923254E+03  0.13745469965E+03  0.00000000000E+00 0.  1.
          5    1    4    4  501    0  0.41549167424E+02 -0.17554577507E+02 -0.18185841833E+02  0.48812844091E+02  0.41800000000E+01 0. -1.
         -5    1    4    4    0  501 -0.47790516143E+02  0.46050549740E+02 -0.13972465461E+03  0.15474184331E+03  0.41800000000E+01 0. -1.
</event>
<event>
11    1  0.8974665E-009  0.1394460E+03  0.7561462E-02  0.1108179E+00
         22   -1    0    0    0    0  0.00000000000E+00  0.00000000000E+00  0.11916870089E+03  0.11916870089E+03  0.00000000000E+00 0.  1.
         22   -1    0    0    0    0 -0.00000000000E+00 -0.00000000000E+00 -0.82132114458E+03  0.82132114458E+03  0.00000000000E+00 0.  1.
         24    2    1    2    0    0 -0.38349064374E+02  0.46744451929E+02 -0.44896817134E+03  0.46003937030E+03  0.80050664105E+02 0.  0.
         25    2    1    2    0    0  0.30518415328E+02 -0.58201984214E+02 -0.33900490770E+03  0.36726689139E+03  0.12506717167E+03 0.  0.
        -24    2    1    2    0    0  0.78306490467E+01  0.11457532285E+02  0.85820635351E+02  0.11318358378E+03  0.72475844767E+02 0.  0.
        -13    1    3    3    0    0 -0.62581500480E+02  0.27158567818E+02 -0.33583583444E+03  0.34269482007E+03  0.00000000000E+00 0.  1.
         14    1    3    3    0    0  0.24232436106E+02  0.19585884111E+02 -0.11313233691E+03  0.11734455023E+03  0.00000000000E+00 0. -1.
         13    1    5    5    0    0  0.17235446200E+02 -0.22417534108E+02  0.10683090520E+02  0.30228047642E+02  0.00000000000E+00 0. -1.
        -14    1    5    5    0    0 -0.94047971533E+01  0.33875066393E+02  0.75137544832E+02  0.82955536138E+02  0.00000000000E+00 0.  1.
          5    1    4    4  501    0  0.56820434542E+02  0.88768516456E+01 -0.81473833797E+02  0.99813918219E+02  0.41800000000E+01 0.  1.
         -5    1    4    4    0  501 -0.26302019214E+02 -0.67078835860E+02 -0.25753107390E+03  0.26745297317E+03  0.41800000000E+01 0.  1.
</event>
<event>
11    1  0.8974665E-009  0.1558460E+03  0.7561462E-02  0.1091051E+00
         22   -1    0    0    0    0  0.00000000000E+00  0.00000000000E+00  0.68678908343E+03  0.68678908343E+03  0.00000000000E+00 0. -1.
         22   -1    0    0    0    0 -0.00000000000E+00 -0.00000000000E+00 -0.11511955015E+03  0.11511955015E+03  0.00000000000E+00 0.  1.
         24    2    1    2    0    0  0.90262365351E+02 -0.11560468977E+02 -0.27691052755E+02  0.12169861323E+03  0.75913233483E+02 0.  0.
         25    2    1    2    0    0 -0.98693433812E+02  0.18430842360E+02  0.13818906423E+03  0.21171224617E+03  0.12508304392E+03 0.  0.
        -24    2    1    2    0    0  0.84310684614E+01 -0.68703733825E+01  0.46117152180E+03  0.46849777419E+03  0.81808966189E+02 0.  0.
        -13    1    3    3    0    0  0.94660846026E+02 -0.84425114934E+01 -0.15934755029E+01  0.95049939163E+02  0.00000000000E+00 0.  1.
         14    1    3    3    0    0 -0.43984806751E+01 -0.31179574836E+01 -0.26097577252E+02  0.26648674067E+02  0.00000000000E+00 0. -1.
         11    1    5    5    0    0  0.26597947241E+02 -0.22089487489E+02  0.41646822671E+03  0.41790092141E+03  0.00000000000E+00 0. -1.
        -12    1    5    5    0    0 -0.18166878780E+02  0.15219114107E+02  0.44703295093E+02  0.50596852777E+02  0.00000000000E+00 0.  1.
          5    1    4    4  501    0 -0.63150663436E+02  0.13347139130E+02  0.15783311216E+03  0.17057231929E+03  0.41800000000E+01 0. -1.
         -5    1    4    4    0  501 -0.35542770376E+02  0.50837032291E+01 -0.19644047924E+02  0.41139926876E+02  0.41800000000E+01 0. -1.
</event>
<event>
11    1  0.9439344E-009  0.1665804E+03  0.7561462E-02  0.1081046E+00
         22   -1    0    0    0    0  0.00000000000E+00  0.00000000000E+00  0.70052457428E+03  0.70052457428E+03  0.00000000000E+00 0.  1.
         22   -1    0    0    0    0 -0.00000000000E+00 -0.00000000000E+00 -0.43468271610E+03  0.43468271610E+03  0.00000000000E+00 0. -1.
         24    2    1    2    0    0  0.71384592629E+02 -0.30960913368E+02 -0.27014046723E+03  0.29264124315E+03  0.81293830834E+02 0.  0.
         25    2    1    2    0    0 -0.10096520579E+03 -0.75469436446E+02 -0.91996389983E+02  0.19999618636E+03  0.12508209373E+03 0.  0.
        -24    2    1    2    0    0  0.29580613164E+02  0.10643034981E+03  0.62797871539E+03  0.64256986087E+03  0.79601049519E+02 0.  0.
        -11    1    3    3    0    0 -0.97256861925E+01  0.99651841766E+01 -0.10140838405E+02  0.17225866339E+02  0.00000000000E+00 0.  1.
         12    1    3    3    0    0  0.81110278821E+02 -0.40926097544E+02 -0.25999962883E+03  0.27541537681E+03  0.00000000000E+00 0. -1.
         11    1    5    5    0    0 -0.96719480301E+00 -0.95288341312E+01  0.13824131344E+02  0.16817870053E+02  0.00000000000E+00 0. -1.
        -12    1    5    5    0    0  0.30547807967E+02  0.11595918394E+03  0.61415458405E+03  0.62575199082E+03  0.00000000000E+00 0.  1.
          5    1    4    4  501    0 -0.61008944566E+02 -0.63931146987E+02  0.10705506619E+02  0.89114326256E+02  0.41800000000E+01 0. -1.
         -5    1    4    4    0  501 -0.39956261228E+02 -0.11538289458E+02 -0.10270189660E+03  0.11088186011E+03  0.41800000000E+01 0. -1.
</event>
<event>
11    1  0.8974665E-009  0.2078954E+03  0.7561462E-02  0.1049077E+00
         22   -1    0    0    0    0  0.00000000000E+00  0.00000000000E+00  0.29534749694E+04  0.29534749694E+04  0.00000000000E+00 0. -1.
         22   -1    0    0    0    0 -0.00000000000E+00 -0.00000000000E+00 -0.60818909209E+03  0.60818909209E+03  0.00000000000E+00 0.  1.
        -24    2    1    2    0    0 -0.50481798465E+01  0.16274047896E+03 -0.52447707299E+03  0.55784536882E+03  0.98006672256E+02 0.  0.
         25    2    1    2    0    0  0.11598662226E+03 -0.21758611451E+03  0.22922566922E+03  0.35915079778E+03  0.12509306276E+03 0.  0.
         24    2    1    2    0    0 -0.11093844241E+03  0.54845635548E+02  0.26405372811E+04  0.26446678949E+04  0.80720255730E+02 0.  0.
        -13    1    5    5    0    0 -0.24735959596E+02 -0.16196787668E+00  0.14950142846E+03  0.15153405902E+03  0.00000000000E+00 0.  1.
         14    1    5    5    0    0 -0.86202482816E+02  0.55007603425E+02  0.24910358526E+04  0.24931338359E+04  0.00000000000E+00 0. -1.
         13    1    3    3    0    0  0.27510837194E+02  0.11079876217E+03 -0.22669237642E+03  0.25381616455E+03  0.00000000000E+00 0. -1.
        -14    1    3    3    0    0 -0.32559017041E+02  0.51941716786E+02 -0.29778469657E+03  0.30402920427E+03  0.00000000000E+00 0.  1.
          5    1    4    4  501    0  0.56216555795E+02 -0.18732879844E+03  0.21473095922E+03  0.29048104433E+03  0.41800000000E+01 0.  1.
         -5    1    4    4    0  501  0.59770066463E+02 -0.30257316069E+02  0.14494709998E+02  0.68669753448E+02  0.41800000000E+01 0.  1.
</event>
<event>
11    1  0.8974665E-009  0.1488967E+03  0.7561462E-02  0.1098011E+00
         22   -1    0    0    0    0  0.00000000000E+00  0.00000000000E+00  0.32451238080E+03  0.32451238080E+03  0.00000000000E+00 0.  1.
         22   -1    0    0    0    0 -0.00000000000E+00 -0.00000000000E+00 -0.31197414893E+04  0.31197414893E+04  0.00000000000E+00 0. -1.
         24    2    1    2    0    0 -0.63605261287E+02 -0.48787247594E+02 -0.29620250807E+04  0.29641893393E+04  0.80000222517E+02 0.  0.
         25    2    1    2    0    0  0.12916460959E+03  0.14438552220E+02 -0.89262677108E+02  0.20126516462E+03  0.12509145776E+03 0.  0.
        -24    2    1    2    0    0 -0.65559348301E+02  0.34348695374E+02  0.25605864936E+03  0.27879936615E+03  0.81763033409E+02 0.  0.
        -13    1    3    3    0    0  0.19077114709E+02 -0.12827753240E+02 -0.55345650177E+03  0.55393373874E+03  0.00000000000E+00 0.  1.
         14    1    3    3    0    0 -0.82682375995E+02 -0.35959494355E+02 -0.24085685789E+04  0.24102556006E+04  0.00000000000E+00 0. -1.
         13    1    5    5    0    0  0.54095389078E+01 -0.20055747525E+02  0.52831695415E+02  0.56768689966E+02  0.00000000000E+00 0. -1.
        -14    1    5    5    0    0 -0.70968887209E+02  0.54404442899E+02  0.20322695394E+03  0.22203067618E+03  0.00000000000E+00 0.  1.
          5    1    4    4  501    0 -0.22322764670E+02 -0.99899370426E+01 -0.24898612272E+01  0.24935446127E+02  0.41800000000E+01 0.  1.
         -5    1    4    4    0  501  0.15148737426E+03  0.24428489263E+02 -0.86772815881E+02  0.17632971849E+03  0.41800000000E+01 0.  1.
</event>
<event>
11    1  0.8974665E-009  0.1303769E+03  0.7561462E-02  0.1118807E+00
         22   -1    0    0    0    0  0.00000000000E+00  0.00000000000E+00  0.11402208875E+03  0.11402208875E+03  0.00000000000E+00 0.  1.
         22   -1    0    0    0    0 -0.00000000000E+00 -0.00000000000E+00 -0.42475531408E+03  0.42475531408E+03  0.00000000000E+00 0.  1.
         24    2    1    2    0    0  0.15716291178E+02  0.13284077106E+02 -0.20462372571E+03  0.22063180604E+03  0.79900289106E+02 0.  0.
         25    2    1    2    0    0 -0.46236742004E+02  0.56178595451E+01 -0.16233132089E+03  0.21016216936E+03  0.12508910037E+03 0.  0.
        -24    2    1    2    0    0  0.30520450826E+02 -0.18901936651E+02  0.56221821275E+02  0.10798342742E+03  0.84916113209E+02 0.  0.
        -13    1    3    3    0    0  0.81888949553E+01  0.17728867741E+01 -0.20657092350E+03  0.20674077383E+03  0.00000000000E+00 0.  1.
         14    1    3    3    0    0  0.75273962225E+01  0.11511190332E+02  0.19471977843E+01  0.13891032214E+02  0.00000000000E+00 0. -1.
         11    1    5    5    0    0  0.17509323997E+02 -0.88539500513E+01 -0.21170437274E+02  0.28864446517E+02  0.00000000000E+00 0. -1.
        -12    1    5    5    0    0  0.13011126830E+02 -0.10047986600E+02  0.77392258549E+02  0.79118980905E+02  0.00000000000E+00 0.  1.
          5    1    4    4  501    0  0.33129000057E+02 -0.27069559421E+02 -0.81719550866E+02  0.92335524506E+02  0.41800000000E+01 0.  1.
         -5    1    4    4    0  501 -0.79365742061E+02  0.32687418966E+02 -0.80611770024E+02  0.11782664486E+03  0.41800000000E+01 0.  1.
</event>
<event>
11    1  0.8974665E-009  0.1965296E+03  0.7561462E-02  0.1057005E+00
         22   -1    0    0    0    0  0.00000000000E+00  0.00000000000E+00  0.81870243707E+03  0.81870243707E+03  0.00000000000E+00 0. -1.
         22   -1    0    0    0    0 -0.00000000000E+00 -0.00000000000E+00 -0.41305536718E+03  0.41305536718E+03  0.00000000000E+00 0.  1.
        -24    2    1    2    0    0  0.86603291610E+02  0.10195009409E+03 -0.18272069847E+03  0.24056126448E+03  0.81172141268E+02 0.  0.
         25    2    1    2    0    0 -0.12626402071E+03 -0.14545005529E+03 -0.13134732590E+03  0.26457159993E+03  0.12509072691E+03 0.  0.
         24    2    1    2    0    0  0.39660729099E+02  0.43499961206E+02  0.71971509425E+03  0.72662493985E+03  0.80800781277E+02 0.  0.
        -13    1    5    5    0    0 -0.95171900256E+01  0.48616887928E+02  0.30927790214E+03  0.31322036883E+03  0.00000000000E+00 0.  1.
         14    1    5    5    0    0  0.49177919125E+02 -0.51169267226E+01  0.41043719211E+03  0.41340457102E+03  0.00000000000E+00 0. -1.
         11    1    3    3    0    0  0.57962269113E+02  0.76107563268E+02 -0.62425237744E+02  0.11423176500E+03  0.00000000000E+00 0. -1.
        -12    1    3    3    0    0  0.28641022496E+02  0.25842530820E+02 -0.12029546072E+03  0.12632949948E+03  0.00000000000E+00 0.  1.
          5    1    4    4  501    0  0.19484190914E+02 -0.27701650865E+01  0.29456937761E+01  0.20333642615E+02  0.41800000000E+01 0.  1.
         -5    1    4    4    0  501 -0.14574821162E+03 -0.14267989021E+03 -0.13429301967E+03  0.24423795732E+03  0.41800000000E+01 0.  1.
</event>
<event>
11    1  0.8974665E-009  0.1613004E+03  0.7561462E-02  0.1085861E+00
         22   -1    0    0    0    0  0.00000000000E+00  0.00000000000E+00  0.39390984101E+03  0.39390984101E+03  0.00000000000E+00 0. -1.
         22   -1    0    0    0    0 -0.00000000000E+00 -0.00000000000E+00 -0.91482729436E+03  0.91482729436E+03  0.00000000000E+00 0. -1.
        -24    2    1    2    0    0  0.35255898881E+02  0.57651099014E+02 -0.51609306638E+03  0.52633017086E+03  0.78133014623E+02 0.  0.
         25    2    1    2    0    0  0.14963567372E+02  0.33157634836E+02 -0.37109363236E+03  0.39330145550E+03  0.12510880793E+03 0.  0.
         24    2    1    2    0    0 -0.50219466252E+02 -0.90808733850E+02  0.36626924540E+03  0.38910550901E+03  0.80509105579E+02 0.  0.
        -11    1    5    5    0    0  0.12812264415E+02 -0.44377319520E+02  0.80536206454E+02  0.92841699453E+02  0.00000000000E+00 0.  1.
         12    1    5    5    0    0 -0.63031730668E+02 -0.46431414330E+02  0.28573303894E+03  0.29626380955E+03  0.00000000000E+00 0. -1.
         11    1    3    3    0    0  0.50837293391E+02  0.38236544705E+02 -0.46673343195E+03  0.47104836296E+03  0.00000000000E+00 0. -1.
        -12    1    3    3    0    0 -0.15581394510E+02  0.19414554309E+02 -0.49359634432E+02  0.55281807904E+02  0.00000000000E+00 0.  1.
          5    1    4    4  501    0 -0.48520602846E+02 -0.10436532180E+02 -0.19103053589E+03  0.19741658528E+03  0.41800000000E+01 0. -1.
         -5    1    4    4    0  501  0.63484170218E+02  0.43594167016E+02 -0.18006309648E+03  0.19588487022E+03  0.41800000000E+01 0. -1.
</event>
<event>
11    1  0.8974665E-009  0.2068443E+03  0.7561462E-02  0.1049786E+00
         22   -1    0    0    0    0  0.00000000000E+00  0.00000000000E+00  0.70202069788E+03  0.70202069788E+03  0.00000000000E+00 0. -1.
         22   -1    0    0    0    0 -0.00000000000E+00 -0.00000000000E+00 -0.29138233477E+03  0.29138233477E+03  0.00000000000E+00 0.  1.
        -24    2    1    2    0    0 -0.36911367266E+02 -0.51273011949E+02 -0.20359338780E+03  0.22795995724E+03  0.80771924347E+02 0.  0.
         25    2    1    2    0    0 -0.26687679161E+02  0.19498002184E+03  0.17271716275E+03  0.29018853879E+03  0.12509487840E+03 0.  0.
         24    2    1    2    0    0  0.63599046427E+02 -0.14370700989E+03  0.44151458816E+03  0.47525453662E+03  0.78963280243E+02 0.  0.
        -13    1    5    5    0    0  0.65503415789E+02 -0.55753161930E+02  0.18366302016E+03  0.20280832705E+03  0.00000000000E+00 0.  1.
         14    1    5    5    0    0 -0.19043693618E+01 -0.87953847959E+02  0.25785156799E+03  0.27244620957E+03  0.00000000000E+00 0. -1.
         13    1    3    3    0    0 -0.55099239955E+02 -0.32839278046E+02 -0.84522321511E+02  0.10610545349E+03  0.00000000000E+00 0. -1.
        -14    1    3    3    0    0  0.18187872689E+02 -0.18433733903E+02 -0.11907106628E+03  0.12185450375E+03  0.00000000000E+00 0.  1.
          5    1    4    4  501    0 -0.55065177685E+02  0.85536122840E+02  0.13867603129E+03  0.17203812414E+03  0.41800000000E+01 0. -1.
         -5    1    4    4    0  501  0.28377498523E+02  0.10944389900E+03  0.34041131456E+02  0.11815041465E+03  0.41800000000E+01 0. -1.
</event>
<event>
11    1  0.8974665E-009  0.1466627E+03  0.7561462E-02  0.1100338E+00
         22   -1    0    0    0    0  0.00000000000E+00  0.00000000000E+00  0.40734794376E+03  0.40734794376E+03  0.00000000000E+00 0. -1.
         22   -1    0    0    0    0 -0.00000000000E+00 -0.00000000000E+00 -0.21825784608E+03  0.21825784608E+03  0.00000000000E+00 0. -1.
        -24    2    1    2    0    0 -0.79130858650E+02 -0.28189062217E+02 -0.14049957805E+03  0.18222892148E+03  0.80068298174E+02 0.  0.
         25    2    1    2    0    0  0.20973934461E+02  0.55546258257E+02  0.53088219335E+02  0.14829255588E+03  0.12508809041E+03 0.  0.
         24    2    1    2    0    0  0.58156924189E+02 -0.27357196040E+02  0.27650145639E+03  0.29508431249E+03  0.80567065755E+02 0.  0.
        -11    1    5    5    0    0  0.23940184222E+02 -0.54351074482E+02  0.15338313328E+03  0.16447965617E+03  0.00000000000E+00 0.  1.
         12    1    5    5    0    0  0.34216739967E+02  0.26993878442E+02  0.12311832311E+03  0.13060465632E+03  0.00000000000E+00 0. -1.
         13    1    3    3    0    0 -0.73430601385E+02 -0.52357480177E+02 -0.11947764116E+03  0.14969390665E+03  0.00000000000E+00 0. -1.
        -14    1    3    3    0    0 -0.57002572651E+01  0.24168417959E+02 -0.21021936882E+02  0.32535014827E+02  0.00000000000E+00 0.  1.
          5    1    4    4  501    0  0.18909698209E+02  0.17477381436E+02 -0.39919549545E+02  0.47687297932E+02  0.41800000000E+01 0.  1.
         -5    1    4    4    0  501  0.20642362514E+01  0.38068876821E+02  0.93007768880E+02  0.10060525794E+03  0.41800000000E+01 0.  1.
</event>
<event>
11    1  0.8974665E-009  0.1323092E+03  0.7561462E-02  0.1116464E+00
         22   -1    0    0    0    0  0.00000000000E+00  0.00000000000E+00  0.42504358980E+03  0.42504358980E+03  0.00000000000E+00 0. -1.
         22   -1    0    0    0    0 -0.00000000000E+00 -0.00000000000E+00 -0.62053081543E+03  0.62053081543E+03  0.00000000000E+00 0.  1.
        -24    2    1    2    0    0  0.36208485234E+02  0.20265233025E+02 -0.53389148528E+03  0.54136102191E+03  0.79434903653E+02 0.  0.
         25    2    1    2    0    0 -0.62893334145E+02 -0.34252887369E+02 -0.11400233440E+02  0.14459431753E+03  0.12509484228E+03 0.  0.
         24    2    1    2    0    0  0.26684848911E+02  0.13987654343E+02  0.34980449309E+03  0.35961906579E+03  0.77813581456E+02 0.  0.
        -13    1    5    5    0    0 -0.13765811505E+02  0.30407329396E+02  0.86435350900E+02  0.92656209358E+02  0.00000000000E+00 0.  1.
         14    1    5    5    0    0  0.40450660416E+02 -0.16419675053E+02  0.26336914219E+03  0.26696285643E+03  0.00000000000E+00 0. -1.
         13    1    3    3    0    0 -0.23984435510E+02  0.11745695299E+02 -0.11368099053E+03  0.11677577708E+03  0.00000000000E+00 0. -1.
        -14    1    3    3    0    0  0.60192920744E+02  0.85195377265E+01 -0.42021049475E+03  0.42458524483E+03  0.00000000000E+00 0.  1.
          5    1    4    4  501    0 -0.12950640242E+02  0.39487586128E+02  0.24564066030E+02  0.48454662117E+02  0.41800000000E+01 0. -1.
         -5    1    4    4    0  501 -0.49942693904E+02 -0.73740473497E+02 -0.35964299470E+02  0.96139655410E+02  0.41800000000E+01 0. -1.
</event>
<event>
11    1  0.8974665E-009  0.1371612E+03  0.7561462E-02  0.1110770E+00
         22   -1    0    0    0    0  0.00000000000E+00  0.00000000000E+00  0.18730683559E+03  0.18730683559E+03  0.00000000000E+00 0.  1.
         22   -1    0    0    0    0 -0.00000000000E+00 -0.00000000000E+00 -0.29059979365E+03  0.29059979365E+03  0.00000000000E+00 0.  1.
         24    2    1    2    0    0  0.10964788787E+01 -0.90904344289E+01 -0.18844336313E+03  0.20457932760E+03  0.79107281027E+02 0.  0.
         25    2    1    2    0    0 -0.47383235487E+02  0.38744368604E+02 -0.75647937552E+01  0.13946613848E+03  0.12508909055E+03 0.  0.
        -24    2    1    2    0    0  0.46286756609E+02 -0.29653934175E+02  0.92715198826E+02  0.13386116316E+03  0.79378103155E+02 0.  0.
        -13    1    3    3    0    0  0.10523739735E+02  0.33964021725E+02 -0.83139009647E+02  0.90423441622E+02  0.00000000000E+00 0.  1.
         14    1    3    3    0    0 -0.94272608561E+01 -0.43054456154E+02 -0.10530435348E+03  0.11415588598E+03  0.00000000000E+00 0. -1.
         11    1    5    5    0    0  0.12112392436E+02 -0.45673711680E+01 -0.13979630979E+02  0.19052585447E+02  0.00000000000E+00 0. -1.
        -12    1    5    5    0    0  0.34174364172E+02 -0.25086563007E+02  0.10669482980E+03  0.11480857772E+03  0.00000000000E+00 0.  1.
          5    1    4    4  501    0 -0.28181933655E+02 -0.31387213691E+01 -0.61833565228E+02  0.68153761049E+02  0.41800000000E+01 0. -1.
         -5    1    4    4    0  501 -0.19201301833E+02  0.41883089973E+02  0.54268771473E+02  0.71312377431E+02  0.41800000000E+01 0. -1.
</event>
<event>
11    1  0.8974665E-009  0.1435496E+03  0.7561462E-02  0.1103658E+00
         22   -1    0    0    0    0  0.00000000000E+00  0.00000000000E+00  0.82498463035E+03  0.82498463035E+03  0.00000000000E+00 0.  1.
         22   -1    0    0    0    0 -0.00000000000E+00 -0.00000000000E+00 -0.26018345727E+03  0.26018345727E+03  0.00000000000E+00 0. -1.
         24    2    1    2    0    0 -0.70336373040E+01  0.64508207768E+02 -0.15793437465E+03  0.18946742525E+03  0.82120993731E+02 0.  0.
         25    2    1    2    0    0  0.32382709086E+02 -0.93344745121E+02 -0.83156791581E+01  0.15962381650E+03  0.12509488793E+03 0.  0.
        -24    2    1    2    0    0 -0.25349071782E+02  0.28836537353E+02  0.73105122688E+03  0.73607684587E+03  0.76805633756E+02 0.  0.
        -11    1    3    3    0    0 -0.72929802822E+01  0.19691665238E+02  0.40600869415E+01  0.21387696165E+02  0.00000000000E+00 0.  1.
         12    1    3    3    0    0  0.25934297826E+00  0.44816542530E+02 -0.16199446159E+03  0.16807972908E+03  0.00000000000E+00 0. -1.
         11    1    5    5    0    0  0.21667422906E+02 -0.26119899383E+01  0.93142209201E+02  0.95664888239E+02  0.00000000000E+00 0. -1.
        -12    1    5    5    0    0 -0.47016494688E+02  0.31448527292E+02  0.63790901768E+03  0.64041195763E+03  0.00000000000E+00 0.  1.
          5    1    4    4  501    0  0.61777078137E+02 -0.13438943614E+02 -0.32234400686E+02  0.71088266094E+02  0.41800000000E+01 0. -1.
         -5    1    4    4    0  501 -0.29394369051E+02 -0.79905801507E+02  0.23918721528E+02  0.88535550407E+02  0.41800000000E+01 0. -1.
</event>
<event>
11    1  0.8974665E-009  0.2469719E+03  0.7561462E-02  0.1025525E+00
         22   -1    0    0    0    0  0.00000000000E+00  0.00000000000E+00  0.21530160963E+04  0.21530160963E+04  0.00000000000E+00 0.  1.
         22   -1    0    0    0    0 -0.00000000000E+00 -0.00000000000E+00 -0.65901829311E+03  0.65901829311E+03  0.00000000000E+00 0.  1.
        -24    2    1    2    0    0  0.15612372663E+03 -0.10420118755E+03 -0.56175164093E+03  0.59773145070E+03  0.80532450389E+02 0.  0.
         25    2    1    2    0    0 -0.13514775310E+03  0.30766789139E+03  0.37336865335E+03  0.51766391457E+03  0.12508929045E+03 0.  0.
         24    2    1    2    0    0 -0.20975973527E+02 -0.20346670383E+03  0.16823807907E+04  0.16966390241E+04  0.79625134650E+02 0.  0.
        -11    1    5    5    0    0 -0.90210646752E+01 -0.16330758091E+03  0.15260739834E+04  0.15348135224E+04  0.00000000000E+00 0.  1.
         12    1    5    5    0    0 -0.11954908852E+02 -0.40159122920E+02  0.15630680732E+03  0.16182550174E+03  0.00000000000E+00 0. -1.
         13    1    3    3    0    0 -0.38821351609E+01 -0.14393209842E+02 -0.15583712318E+02  0.21565888633E+02  0.00000000000E+00 0. -1.
        -14    1    3    3    0    0  0.16000586179E+03 -0.89807977709E+02 -0.54616792861E+03  0.57616556207E+03  0.00000000000E+00 0.  1.
          5    1    4    4  501    0 -0.13350051810E+03  0.30194855257E+03  0.38295196757E+03  0.50563326492E+03  0.41800000000E+01 0. -1.
         -5    1    4    4    0  501 -0.16472349987E+01  0.57193388148E+01 -0.95833142141E+01  0.12030649648E+02  0.41800000000E+01 0. -1.
</event>
<event>
11    1  0.8974665E-009  0.1262723E+03  0.7561462E-02  0.1123936E+00
         22   -1    0    0    0    0  0.00000000000E+00  0.00000000000E+00  0.13921013061E+03  0.13921013061E+03  0.00000000000E+00 0.  1.
         22   -1    0    0    0    0 -0.00000000000E+00 -0.00000000000E+00 -0.78888573125E+03  0.78888573125E+03  0.00000000000E+00 0. -1.
         24    2    1    2    0    0 -0.11752215839E+02  0.12579054498E+01 -0.70556207128E+03  0.71011670404E+03  0.79424177779E+02 0.  0.
         25    2    1    2    0    0  0.11012518868E+02 -0.17673345629E+02  0.24830895693E+02  0.12922329674E+03  0.12509382207E+03 0.  0.
        -24    2    1    2    0    0  0.73969697085E+00  0.16415440179E+02  0.31055574954E+02  0.88755861084E+02  0.81505461861E+02 0.  0.
        -13    1    3    3    0    0 -0.36047913870E+02 -0.10769256279E+02 -0.18172273361E+03  0.18557634786E+03  0.00000000000E+00 0.  1.
         14    1    3    3    0    0  0.24295698032E+02  0.12027161729E+02 -0.52383933767E+03  0.52454035618E+03  0.00000000000E+00 0. -1.
         13    1    5    5    0    0  0.63102040606E+01 -0.27790456533E+02 -0.78993678628E+01  0.29572422326E+02  0.00000000000E+00 0. -1.
        -14    1    5    5    0    0 -0.55705070898E+01  0.44205896712E+02  0.38954942816E+02  0.59183438758E+02  0.00000000000E+00 0.  1.
          5    1    4    4  501    0  0.29317429194E+02  0.11656526757E+02 -0.42691825450E+02  0.53248949575E+02  0.41800000000E+01 0. -1.
         -5    1    4    4    0  501 -0.18304910326E+02 -0.29329872386E+02  0.67522721142E+02  0.75974347162E+02  0.41800000000E+01 0. -1.
</event>
<event>
11    1  0.8974665E-009  0.1500151E+03  0.7561462E-02  0.1096863E+00
         22   -1    0    0    0    0  0.00000000000E+00  0.00000000000E+00  0.25805941843E+04  0.25805941843E+04  0.00000000000E+00 0.  1.
         22   -1    0    0    0    0 -0.00000000000E+00 -0.00000000000E+00 -0.12321458392E+03  0.12321458392E+03  0.00000000000E+00 0. -1.
        -24    2    1    2    0    0 -0.56374685923E+02  0.14407029341E+02 -0.91461135921E+02  0.13516251473E+03  0.80734740340E+02 0.  0.
         25    2    1    2    0    0  0.12718373416E+03  0.59306818939E-01  0.99419495881E+03  0.10100727055E+04  0.12509016170E+03 0.  0.
         24    2    1    2    0    0 -0.70809048238E+02 -0.14466336159E+02  0.15546457775E+04  0.15585735480E+04  0.83694771358E+02 0.  0.
        -11    1    5    5    0    0 -0.52612885384E+02  0.30326599073E+02  0.99049411538E+03  0.99235397461E+03  0.00000000000E+00 0.  1.
         12    1    5    5    0    0 -0.18196162854E+02 -0.44792935233E+02  0.56415166211E+03  0.56621957336E+03  0.00000000000E+00 0. -1.
         13    1    3    3    0    0 -0.44019935038E+01  0.30624955840E+02 -0.70197007289E+02  0.76713006064E+02  0.00000000000E+00 0. -1.
        -14    1    3    3    0    0 -0.51972692419E+02 -0.16217926500E+02 -0.21264128632E+02  0.58449508669E+02  0.00000000000E+00 0.  1.
          5    1    4    4  501    0 -0.14879600669E+02 -0.11965449674E+02  0.33754679992E+03  0.33811224325E+03  0.41800000000E+01 0.  1.
         -5    1    4    4    0  501  0.14206333483E+03  0.12024756492E+02  0.65664815890E+03  0.67196046227E+03  0.41800000000E+01 0.  1.
</event>
<event>
11    1  0.8974665E-009  0.1683163E+03  0.7561462E-02  0.1079506E+00
         22   -1    0    0    0    0  0.00000000000E+00  0.00000000000E+00  0.12671964723E+04  0.12671964723E+04  0.00000000000E+00 0.  1.
         22   -1    0    0    0    0 -0.00000000000E+00 -0.00000000000E+00 -0.15520845633E+04  0.15520845633E+04  0.00000000000E+00 0. -1.
         24    2    1    2    0    0  0.10784827614E+03  0.35475751780E+02 -0.15140341638E+04  0.15205776150E+04  0.83468883361E+02 0.  0.
         25    2    1    2    0    0 -0.78136026986E+02  0.37311656008E+02  0.15006825919E+03  0.21368444343E+03  0.12507262115E+03 0.  0.
        -24    2    1    2    0    0 -0.29712249154E+02 -0.72787407788E+02  0.10790778136E+04  0.10850189772E+04  0.81709416029E+02 0.  0.
        -11    1    3    3    0    0  0.73351706583E+01  0.25103057332E+02 -0.11669529804E+03  0.11958996948E+03  0.00000000000E+00 0.  1.
         12    1    3    3    0    0  0.10051310548E+03  0.10372694448E+02 -0.13973388657E+04  0.14009876455E+04  0.00000000000E+00 0. -1.
         13    1    5    5    0    0 -0.63883414057E+01 -0.12623981051E+02  0.23217021851E+02  0.27188341382E+02  0.00000000000E+00 0. -1.
        -14    1    5    5    0    0 -0.23323907748E+02 -0.60163426737E+02  0.10558607917E+04  0.10578306358E+04  0.00000000000E+00 0.  1.
          5    1    4    4  501    0 -0.22203032429E+02  0.17944268675E+02 -0.18972612403E+02  0.34531201090E+02  0.41800000000E+01 0. -1.
         -5    1    4    4    0  501 -0.55932994556E+02  0.19367387333E+02  0.16904087160E+03  0.17915324234E+03  0.41800000000E+01 0. -1.
</event>
<event>
11    1  0.8974665E-009  0.1283454E+03  0.7561462E-02  0.1121319E+00
         22   -1    0    0    0    0  0.00000000000E+00  0.00000000000E+00  0.18403135081E+04  0.18403135081E+04  0.00000000000E+00 0. -1.
         22   -1    0    0    0    0 -0.00000000000E+00 -0.00000000000E+00 -0.33630788271E+03  0.33630788271E+03  0.00000000000E+00 0. -1.
        -24    2    1    2    0    0 -0.47767746879E+01 -0.21956568153E+02 -0.26203674056E+03  0.27473025463E+03  0.79426386953E+02 0.  0.
         25    2    1    2    0    0 -0.23494958252E+02  0.16166086282E+02 -0.51026101496E+01  0.12840562600E+03  0.12509441534E+03 0.  0.
         24    2    1    2    0    0  0.28271732940E+02  0.57904818705E+01  0.17711449761E+04  0.17734855102E+04  0.86391596069E+02 0.  0.
        -11    1    5    5    0    0 -0.55168274906E+01  0.11930608899E+02  0.42204732957E+02  0.44204233940E+02  0.00000000000E+00 0.  1.
         12    1    5    5    0    0  0.33788560431E+02 -0.61401270285E+01  0.17289402431E+04  0.17292812762E+04  0.00000000000E+00 0. -1.
         13    1    3    3    0    0 -0.97268953936E+01  0.19790826553E+02 -0.19037125405E+03  0.19164421118E+03  0.00000000000E+00 0. -1.
        -14    1    3    3    0    0  0.49501207057E+01 -0.41747394706E+02 -0.71665486507E+02  0.83086043449E+02  0.00000000000E+00 0.  1.
          5    1    4    4  501    0 -0.32250840261E+02  0.56849999624E+02  0.31637632999E+02  0.72735489113E+02  0.41800000000E+01 0. -1.
         -5    1    4    4    0  501  0.87558820084E+01 -0.40683913341E+02 -0.36740243148E+02  0.55670136888E+02  0.41800000000E+01 0. -1.
</event>
<event>
11    1  0.8974665E-009  0.1530757E+03  0.7561462E-02  0.1093777E+00
         22   -1    0    0    0    0  0.00000000000E+00  0.00000000000E+00  0.14209157675E+04  0.14209157675E+04  0.00000000000E+00 0. -1.
         22   -1    0    0    0    0 -0.00000000000E+00 -0.00000000000E+00 -0.79979846831E+02  0.79979846831E+02  0.00000000000E+00 0. -1.
         24    2    1    2    0    0  0.52696739328E+02  0.51185926858E+02  0.44433344398E+02  0.11802731399E+03  0.80988760389E+02 0.  0.
         25    2    1    2    0    0 -0.63770597972E+02 -0.10842426807E+03  0.15133813908E+03  0.23318253308E+03  0.12509336641E+03 0.  0.
        -24    2    1    2    0    0  0.11073858643E+02  0.57238341209E+02  0.11451644372E+04  0.11496857673E+04  0.83527942583E+02 0.  0.
        -13    1    3    3    0    0  0.31214509010E+02  0.47781166287E+02  0.66097540368E+02  0.87328519209E+02  0.00000000000E+00 0.  1.
         14    1    3    3    0    0  0.21482230318E+02  0.34047605703E+01 -0.21664195971E+02  0.30698794781E+02  0.00000000000E+00 0. -1.
         13    1    5    5    0    0 -0.11491247612E+02  0.44109487996E+02  0.10504721008E+04  0.10514605700E+04  0.00000000000E+00 0. -1.
        -14    1    5    5    0    0  0.22565106255E+02  0.13128853213E+02  0.94692336461E+02  0.98225197335E+02  0.00000000000E+00 0.  1.
          5    1    4    4  501    0  0.20468555848E+02 -0.46055889384E+02  0.10881637688E+03  0.11999409570E+03  0.41800000000E+01 0.  1.
         -5    1    4    4    0  501 -0.84239153819E+02 -0.62368378683E+02  0.42521762204E+02  0.11318843738E+03  0.41800000000E+01 0.  1.
</event>
<event>
11    1  0.8974665E-009  0.2170054E+03  0.7561462E-02  0.1043110E+00
         22   -1    0    0    0    0  0.00000000000E+00  0.00000000000E+00  0.59265991530E+03  0.59265991530E+03  0.00000000000E+00 0. -1.
         22   -1    0    0    0    0 -0.00000000000E+00 -0.00000000000E+00 -0.70485826497E+03  0.70485826497E+03  0.00000000000E+00 0.  1.
         24    2    1    2    0    0  0.63806571959E+02 -0.88390988496E+02 -0.53034235499E+03  0.54787064179E+03  0.83755484400E+02 0.  0.
         25    2    1    2    0    0 -0.22011974068E+03  0.14604231647E+03 -0.45504347121E+00  0.29228058494E+03  0.12508666930E+03 0.  0.
        -24    2    1    2    0    0  0.15631316872E+03 -0.57651327969E+02  0.41859904878E+03  0.45736695354E+03  0.78752042597E+02 0.  0.
        -11    1    3    3    0    0  0.16620852283E+02 -0.71776089928E+02 -0.42394997748E+03  0.43030412875E+03  0.00000000000E+00 0.  1.
         12    1    3    3    0    0  0.47185719676E+02 -0.16614898569E+02 -0.10639237751E+03  0.11756651304E+03  0.00000000000E+00 0. -1.
         13    1    5    5    0    0  0.41794547999E+02 -0.38108108972E+01  0.20369583935E+03  0.20797428084E+03  0.00000000000E+00 0. -1.
        -14    1    5    5    0    0  0.11451862072E+03 -0.53840517072E+02  0.21490320943E+03  0.24939267269E+03  0.00000000000E+00 0.  1.
          5    1    4    4  501    0 -0.21394008637E+03  0.10155613353E+03 -0.29414737012E+02  0.23867699505E+03  0.41800000000E+01 0. -1.
         -5    1    4    4    0  501 -0.61796543087E+01  0.44486182933E+02  0.28959693541E+02  0.53603589892E+02  0.41800000000E+01 0. -1.
</event>
<event>
11    1  0.8974665E-009  0.1317462E+03  0.7561462E-02  0.1117142E+00
         22   -1    0    0    0    0  0.00000000000E+00  0.00000000000E+00  0.14657536662E+04  0.14657536662E+04  0.00000000000E+00 0. -1.
         22   -1    0    0    0    0 -0.00000000000E+00 -0.00000000000E+00 -0.90572178500E+02  0.90572178500E+02  0.00000000000E+00 0. -1.
         24    2    1    2    0    0  0.13597787049E+02 -0.99411538123E+01 -0.51502938486E+02  0.98957534306E+02  0.82802865720E+02 0.  0.
         25    2    1    2    0    0  0.27655670320E+02 -0.30143016004E+01  0.29085570463E+03  0.31783746618E+03  0.12509872851E+03 0.  0.
        -24    2    1    2    0    0 -0.41253457368E+02  0.12955455413E+02  0.11358287215E+04  0.11395308442E+04  0.80956584946E+02 0.  0.
        -11    1    3    3    0    0  0.14827112994E+02  0.31495079619E+02 -0.26861273289E+01  0.34914160451E+02  0.00000000000E+00 0.  1.
         12    1    3    3    0    0 -0.12293259451E+01 -0.41436233431E+02 -0.48816811157E+02  0.64043373855E+02  0.00000000000E+00 0. -1.
         11    1    5    5    0    0 -0.19765013659E+02  0.47224779107E+02  0.60337572785E+03  0.60554364375E+03  0.00000000000E+00 0. -1.
        -12    1    5    5    0    0 -0.21488443709E+02 -0.34269323694E+02  0.53245299366E+03  0.53398720043E+03  0.00000000000E+00 0.  1.
          5    1    4    4  501    0 -0.47584979166E+02 -0.11494871265E+02  0.15034903483E+03  0.15817321828E+03  0.41800000000E+01 0.  1.
         -5    1    4    4    0  501  0.75240649486E+02  0.84805696643E+01  0.14050666980E+03  0.15966424789E+03  0.41800000000E+01 0.  1.
</event>
<event>
11    1  0.8974665E-009  0.1538481E+03  0.7561462E-02  0.1093010E+00
         22   -1    0    0    0    0  0.00000000000E+00  0.00000000000E+00  0.53034684987E+03  0.53034684987E+03  0.00000000000E+00 0.  1.
         22   -1    0    0    0    0 -0.00000000000E+00 -0.00000000000E+00 -0.32374461664E+03  0.32374461664E+03  0.00000000000E+00 0. -1.
         24    2    1    2    0    0  0.88159468875E+01  0.92671531692E+02 -0.26316989238E+03  0.28806182309E+03  0.71101954699E+02 0.  0.
         25    2    1    2    0    0 -0.29744206307E+02 -0.54531527147E+02  0.70572403328E+02  0.15647960742E+03  0.12508796171E+03 0.  0.
        -24    2    1    2    0    0  0.20928259419E+02 -0.38140004545E+02  0.39919972228E+03  0.40955003600E+03  0.80487028336E+02 0.  0.
        -11    1    3    3    0    0 -0.10044394957E+02 -0.11852419827E+01 -0.86781083657E+02  0.87368479152E+02  0.00000000000E+00 0.  1.
         12    1    3    3    0    0  0.18860341844E+02  0.93856773675E+02 -0.17638880872E+03  0.20069334394E+03  0.00000000000E+00 0. -1.
         11    1    5    5    0    0 -0.10128424865E+02  0.12177569528E+02  0.18803585458E+02  0.24585626206E+02  0.00000000000E+00 0. -1.
        -12    1    5    5    0    0  0.31056684285E+02 -0.50317574072E+02  0.38039613683E+03  0.38496440980E+03  0.00000000000E+00 0.  1.
          5    1    4    4  501    0  0.29147267955E+02  0.40253005399E+01  0.66946478655E+02  0.73246635950E+02  0.41800000000E+01 0.  1.
         -5    1    4    4    0  501 -0.58891474262E+02 -0.58556827687E+02  0.36259246736E+01  0.83232971467E+02  0.41800000000E+01 0.  1.
</event>
<event>
11    1  0.8974665E-009  0.1322760E+03  0.7561462E-02  0.1116504E+00
         22   -1    0    0    0    0  0.00000000000E+00  0.00000000000E+00  0.96170401319E+03  0.96170401319E+03  0.00000000000E+00 0. -1.
         22   -1    0    0    0    0 -0.00000000000E+00 -0.00000000000E+00 -0.13822559948E+03  0.13822559948E+03  0.00000000000E+00 0. -1.
        -24    2    1    2    0    0 -0.52567999917E+01 -0.43311684257E+02 -0.10881966674E+03  0.14199964727E+03  0.80116440354E+02 0.  0.
         25    2    1    2    0    0  0.50076327035E+01  0.26757674672E+02  0.42866692173E+03  0.44737215304E+03  0.12508182918E+03 0.  0.
         24    2    1    2    0    0  0.24916728815E+00  0.16554009585E+02  0.50363115874E+03  0.51055781236E+03  0.82163485793E+02 0.  0.
        -13    1    5    5    0    0 -0.13079700504E+02  0.41074104057E+02  0.15716188168E+03  0.16296630830E+03  0.00000000000E+00 0.  1.
         14    1    5    5    0    0  0.13328867792E+02 -0.24520094472E+02  0.34646927706E+03  0.34759150406E+03  0.00000000000E+00 0. -1.
         11    1    3    3    0    0  0.47841799471E+01 -0.18800710410E+02 -0.11346152183E+03  0.11510808845E+03  0.00000000000E+00 0. -1.
        -12    1    3    3    0    0 -0.10040979939E+02 -0.24510973848E+02  0.46418550898E+01  0.26891558820E+02  0.00000000000E+00 0.  1.
          5    1    4    4  501    0 -0.50459941004E+02  0.25674549214E+02  0.10897819855E+03  0.12287842887E+03  0.41800000000E+01 0.  1.
         -5    1    4    4    0  501  0.55467573708E+02  0.10831254586E+01  0.31968872318E+03  0.32449372416E+03  0.41800000000E+01 0.  1.
</event>
<event>
11    1  0.8974665E-009  0.1594747E+03  0.7561462E-02  0.1087572E+00
         22   -1    0    0    0    0  0.00000000000E+00  0.00000000000E+00  0.10337214871E+03  0.10337214871E+03  0.00000000000E+00 0.  1.
         22   -1    0    0    0    0 -0.00000000000E+00 -0.00000000000E+00 -0.15467550141E+04  0.15467550141E+04  0.00000000000E+00 0. -1.
        -24    2    1    2    0    0 -0.29840569587E+01  0.19473296003E+01 -0.88566394832E+03  0.88753094286E+03  0.57426897017E+02 0.  0.
         25    2    1    2    0    0  0.38138783105E+02  0.90577426013E+02 -0.60250261833E+03  0.62314882752E+03  0.12508484831E+03 0.  0.
         24    2    1    2    0    0 -0.35154726147E+02 -0.92524755613E+02  0.44783701245E+02  0.13944739244E+03  0.87426026950E+02 0.  0.
        -13    1    5    5    0    0  0.56277970613E+01 -0.90029598904E+02  0.38625606885E+02  0.98127153662E+02  0.00000000000E+00 0.  1.
         14    1    5    5    0    0 -0.40782523208E+02 -0.24951567097E+01  0.61580943600E+01  0.41320238774E+02  0.00000000000E+00 0. -1.
         11    1    3    3    0    0 -0.13403094134E+02 -0.21267834280E+02 -0.65221132250E+03  0.65269562041E+03  0.00000000000E+00 0. -1.
        -12    1    3    3    0    0  0.10419037176E+02  0.23215163880E+02 -0.23345262582E+03  0.23483532245E+03  0.00000000000E+00 0.  1.
          5    1    4    4  501    0  0.43523009275E+02  0.62154130815E+02 -0.58317954488E+03  0.58810988963E+03  0.41800000000E+01 0. -1.
         -5    1    4    4    0  501 -0.53842261691E+01  0.28423295199E+02 -0.19323073443E+02  0.35038937893E+02  0.41800000000E+01 0. -1.
</event>
<event>
11    1  0.8974665E-009  0.1519078E+03  0.7561462E-02  0.1094945E+00
         22   -1    0    0    0    0  0.00000000000E+00  0.00000000000E+00  0.98243266197E+03  0.98243266197E+03  0.00000000000E+00 0. -1.
         22   -1    0    0    0    0 -0.00000000000E+00 -0.00000000000E+00 -0.27480253376E+03  0.27480253376E+03  0.00000000000E+00 0.  1.
        -24    2    1    2    0    0  0.64988819894E+02 -0.21326671519E+02 -0.12459135202E+03  0.16337259467E+03  0.80555732650E+02 0.  0.
         25    2    1    2    0    0 -0.14627595773E+03  0.43571179643E+02 -0.50588190466E+02  0.20371889766E+03  0.12508845168E+03 0.  0.
         24    2    1    2    0    0  0.81287137832E+02 -0.22244508124E+02  0.88280967070E+03  0.89014370340E+03  0.76814589218E+02 0.  0.
        -13    1    5    5    0    0  0.25772176909E+02 -0.10568299212E+02  0.69734923710E+02  0.75092300775E+02  0.00000000000E+00 0.  1.
         14    1    5    5    0    0  0.55514960923E+02 -0.11676208911E+02  0.81307474699E+03  0.81505140263E+03  0.00000000000E+00 0. -1.
         13    1    3    3    0    0 -0.16246668284E+02 -0.93258464019E+01 -0.71098030998E+01  0.20036839610E+02  0.00000000000E+00 0. -1.
        -14    1    3    3    0    0  0.81235488178E+02 -0.12000825117E+02 -0.11748154892E+03  0.14333575506E+03  0.00000000000E+00 0.  1.
          5    1    4    4  501    0  0.20017977964E+02  0.36471913355E+01 -0.22033970263E+02  0.30281837659E+02  0.41800000000E+01 0.  1.
         -5    1    4    4    0  501 -0.16629393569E+03  0.39923988307E+02 -0.28554220203E+02  0.17343706000E+03  0.41800000000E+01 0.  1.
</event>
<event>
11    1  0.8974665E-009  0.1384219E+03  0.7561462E-02  0.1109333E+00
         22   -1    0    0    0    0  0.00000000000E+00  0.00000000000E+00  0.32667435669E+03  0.32667435669E+03  0.00000000000E+00 0. -1.
         22   -1    0    0    0    0 -0.00000000000E+00 -0.00000000000E+00 -0.49991205820E+03  0.49991205820E+03  0.00000000000E+00 0.  1.
         24    2    1    2    0    0 -0.24998332817E+02 -0.55216250774E+02 -0.45287513010E+03  0.46399927275E+03  0.80781747060E+02 0.  0.
         25    2    1    2    0    0 -0.83138441525E+01  0.31396384914E+02  0.11074200158E+03  0.17019609856E+03  0.12509223821E+03 0.  0.
        -24    2    1    2    0    0  0.33312176969E+02  0.23819865860E+02  0.16889542701E+03  0.19239104359E+03  0.82532183083E+02 0.  0.
        -13    1    3    3    0    0 -0.35333088907E+02 -0.26580521111E+02 -0.40404000968E+03  0.40645206445E+03  0.00000000000E+00 0.  1.
         14    1    3    3    0    0  0.10334756090E+02 -0.28635729662E+02 -0.48835120417E+02  0.57547208298E+02  0.00000000000E+00 0. -1.
         11    1    5    5    0    0  0.32743089865E+02  0.24434849535E+02  0.17831436058E+03  0.18293491464E+03  0.00000000000E+00 0. -1.
        -12    1    5    5    0    0  0.56908710440E+00 -0.61498367525E+00 -0.94189335711E+01  0.94561289474E+01  0.00000000000E+00 0.  1.
          5    1    4    4  501    0  0.19375071734E+02 -0.24351012161E+02 -0.11107462826E+02  0.33304854427E+02  0.41800000000E+01 0. -1.
         -5    1    4    4    0  501 -0.27688915886E+02  0.55747397075E+02  0.12184946441E+03  0.13689124413E+03  0.41800000000E+01 0. -1.
</event>
<event>
11    1  0.8974665E-009  0.1330240E+03  0.7561462E-02  0.1115608E+00
         22   -1    0    0    0    0  0.00000000000E+00  0.00000000000E+00  0.51752371745E+03  0.51752371745E+03  0.00000000000E+00 0. -1.
         22   -1    0    0    0    0 -0.00000000000E+00 -0.00000000000E+00 -0.20621418561E+03  0.20621418561E+03  0.00000000000E+00 0.  1.
         24    2    1    2    0    0  0.43603788666E+02 -0.50593804281E+01 -0.14782356379E+03  0.17347574821E+03  0.79467864515E+02 0.  0.
         25    2    1    2    0    0 -0.86256121694E+01  0.38627894268E+02  0.67576592642E+02  0.14758169247E+03  0.12508894706E+03 0.  0.
        -24    2    1    2    0    0 -0.34978176497E+02 -0.33568513840E+02  0.39155650298E+03  0.40268046238E+03  0.80527894547E+02 0.  0.
        -11    1    3    3    0    0  0.17925193288E+02  0.14322924510E+02 -0.13791710435E+03  0.13981268323E+03  0.00000000000E+00 0.  1.
         12    1    3    3    0    0  0.25678595378E+02 -0.19382304938E+02 -0.99064594413E+01  0.33663064981E+02  0.00000000000E+00 0. -1.
         11    1    5    5    0    0 -0.20087540225E+02 -0.45784363183E+02  0.37158997941E+03  0.37493843492E+03  0.00000000000E+00 0. -1.
        -12    1    5    5    0    0 -0.14890636272E+02  0.12215849343E+02  0.19966523574E+02  0.27742027456E+02  0.00000000000E+00 0.  1.
          5    1    4    4  501    0 -0.18873144106E+02 -0.32557358461E+02 -0.12495431580E+02  0.39872112671E+02  0.41800000000E+01 0.  1.
         -5    1    4    4    0  501  0.10247531937E+02  0.71185252730E+02  0.80072024222E+02  0.10770957980E+03  0.41800000000E+01 0.  1.
</event>
<event>
11    1  0.8974665E-009  0.1310472E+03  0.7561462E-02  0.1117989E+00
         22   -1    0    0    0    0  0.00000000000E+00  0.00000000000E+00  0.13522086181E+03  0.13522086181E+03  0.00000000000E+00 0. -1.
         22   -1    0    0    0    0 -0.00000000000E+00 -0.00000000000E+00 -0.79694862868E+03  0.79694862868E+03  0.00000000000E+00 0.  1.
        -24    2    1    2    0    0  0.74750231468E+01  0.37864789969E+02 -0.69753087789E+03  0.70342297524E+03  0.82249244320E+02 0.  0.
         25    2    1    2    0    0  0.34251200522E+01 -0.50738104205E+02 -0.71460201051E+01  0.13522069659E+03  0.12508990574E+03 0.  0.
         24    2    1    2    0    0 -0.10900143199E+02  0.12873314236E+02  0.42949131123E+02  0.93525818674E+02  0.81350571929E+02 0.  0.
        -13    1    5    5    0    0 -0.28610230705E+02  0.36960124924E+02  0.43173399884E+02  0.63628127373E+02  0.00000000000E+00 0.  1.
         14    1    5    5    0    0  0.17710087507E+02 -0.24086810689E+02 -0.22426876068E+00  0.29897691301E+02  0.00000000000E+00 0. -1.
         13    1    3    3    0    0  0.21654793566E+02  0.54102300472E+02 -0.31903000092E+03  0.32430869629E+03  0.00000000000E+00 0. -1.
        -14    1    3    3    0    0 -0.14179770419E+02 -0.16237510503E+02 -0.37850087697E+03  0.37911427895E+03  0.00000000000E+00 0.  1.
          5    1    4    4  501    0 -0.23088499313E+02 -0.79617730226E+02 -0.31612442120E+02  0.88819370993E+02  0.41800000000E+01 0.  1.
         -5    1    4    4    0  501  0.26513619365E+02  0.28879626021E+02  0.24466422014E+02  0.46401325597E+02  0.41800000000E+01 0.  1.
</event>
<event>
11    1  0.8974665E-009  0.2534808E+03  0.7561462E-02  0.1022061E+00
         22   -1    0    0    0    0  0.00000000000E+00  0.00000000000E+00  0.52817369137E+03  0.52817369137E+03  0.00000000000E+00 0. -1.
         22   -1    0    0    0    0 -0.00000000000E+00 -0.00000000000E+00 -0.85172023122E+03  0.85172023122E+03  0.00000000000E+00 0. -1.
         24    2    1    2    0    0  0.81277568610E+02  0.20003072575E+03 -0.70528805730E+03  0.74200737385E+03  0.80779729348E+02 0.  0.
         25    2    1    2    0    0 -0.97974516713E+02 -0.24555156391E+03  0.54552795697E+02  0.29750195037E+03  0.12504729702E+03 0.  0.
        -24    2    1    2    0    0  0.16696948103E+02  0.45520838165E+02  0.32718872174E+03  0.34038459837E+03  0.80363426923E+02 0.  0.
        -13    1    3    3    0    0  0.99285033240E+01  0.75194658353E+02 -0.14592694109E+03  0.16446119286E+03  0.00000000000E+00 0.  1.
         14    1    3    3    0    0  0.71349065286E+02  0.12483606740E+03 -0.55936111621E+03  0.57754618098E+03  0.00000000000E+00 0. -1.
         13    1    5    5    0    0  0.96580539694E+01  0.43106260981E+02  0.32961157110E+03  0.33255858964E+03  0.00000000000E+00 0. -1.
        -14    1    5    5    0    0  0.70388941334E+01  0.24145771847E+01 -0.24228493547E+01  0.78260087271E+01  0.00000000000E+00 0.  1.
          5    1    4    4  501    0 -0.28650038702E+02 -0.17773521214E+03 -0.10931689128E+02  0.18040954681E+03  0.41800000000E+01 0. -1.
         -5    1    4    4    0  501 -0.69324478011E+02 -0.67816351770E+02  0.65484484825E+02  0.11709240356E+03  0.41800000000E+01 0. -1.
</event>
<event>
11    1  0.8974665E-009  0.1294416E+03  0.7561462E-02  0.1119957E+00
         22   -1    0    0    0    0  0.00000000000E+00  0.00000000000E+00  0.18552975487E+04  0.18552975487E+04  0.00000000000E+00 0. -1.
         22   -1    0    0    0    0 -0.00000000000E+00 -0.00000000000E+00 -0.21510096781E+04  0.21510096781E+04  0.00000000000E+00 0.  1.
        -24    2    1    2    0    0  0.32353459486E+02 -0.60902721946E+01 -0.20638805923E+04  0.20657078855E+04  0.80387381221E+02 0.  0.
         25    2    1    2    0    0 -0.52951931452E+02  0.20101896493E+02 -0.29965768131E+02  0.14054401448E+03  0.12508668777E+03 0.  0.
         24    2    1    2    0    0  0.20598471966E+02 -0.14011624298E+02  0.17981342310E+04  0.18000553268E+04  0.79321146467E+02 0.  0.
        -13    1    5    5    0    0 -0.11130524954E+02  0.21917176811E+01  0.14609689568E+04  0.14610129996E+04  0.00000000000E+00 0.  1.
         14    1    5    5    0    0  0.31728996921E+02 -0.16203341979E+02  0.33716527418E+03  0.33904232722E+03  0.00000000000E+00 0. -1.
         13    1    3    3    0    0 -0.24215230605E+02  0.87344428468E+01 -0.42055412234E+03  0.42134123665E+03  0.00000000000E+00 0. -1.
        -14    1    3    3    0    0  0.56568690091E+02 -0.14824715041E+02 -0.16433264700E+04  0.16443666489E+04  0.00000000000E+00 0.  1.
          5    1    4    4  501    0  0.13941541667E+02 -0.30646047463E+02  0.23176348182E+02  0.41087252576E+02  0.41800000000E+01 0. -1.
         -5    1    4    4    0  501 -0.66893473119E+02  0.50747943956E+02 -0.53142116313E+02  0.99456761901E+02  0.41800000000E+01 0. -1.
</event>
<event>
11    1  0.8974665E-009  0.1454889E+03  0.7561462E-02  0.1101579E+00
         22   -1    0    0    0    0  0.00000000000E+00  0.00000000000E+00  0.98465132224E+03  0.98465132224E+03  0.00000000000E+00 0. -1.
         22   -1    0    0    0    0 -0.00000000000E+00 -0.00000000000E+00 -0.15225641788E+03  0.15225641788E+03  0.00000000000E+00 0. -1.
        -24    2    1    2    0    0  0.96563729109E-01 -0.41213977918E+01 -0.71149758100E+02  0.10940037313E+03  0.83000953717E+02 0.  0.
         25    2    1    2    0    0 -0.53613969635E+02 -0.47628830411E+02  0.30283293770E+02  0.14733636290E+03  0.12509181717E+03 0.  0.
         24    2    1    2    0    0  0.53517405906E+02  0.51750228202E+02  0.87326136869E+03  0.88017100410E+03  0.81076380916E+02 0.  0.
        -13    1    5    5    0    0  0.34282767907E+01  0.27029347017E+01  0.52013079470E+03  0.52014911567E+03  0.00000000000E+00 0.  1.
         14    1    5    5    0    0  0.50089129116E+02  0.49047293501E+02  0.35313057399E+03  0.36002188842E+03  0.00000000000E+00 0. -1.
         11    1    3    3    0    0 -0.13067592749E+02  0.25417739715E+02 -0.71562002592E+02  0.77058054007E+02  0.00000000000E+00 0. -1.
        -12    1    3    3    0    0  0.13164156479E+02 -0.29539137507E+02  0.41224449142E+00  0.32342319118E+02  0.00000000000E+00 0.  1.
          5    1    4    4  501    0 -0.72734185170E+02  0.18052910685E+02  0.22515083241E+02  0.78361793304E+02  0.41800000000E+01 0. -1.
         -5    1    4    4    0  501  0.19120215534E+02 -0.65681741096E+02  0.77682105292E+01  0.68974569591E+02  0.41800000000E+01 0. -1.
</event>
<event>
11    1  0.8974665E-009  0.1307750E+03  0.7561462E-02  0.1118320E+00
         22   -1    0    0    0    0  0.00000000000E+00  0.00000000000E+00  0.14013568200E+04  0.14013568200E+04  0.00000000000E+00 0. -1.
         22   -1    0    0    0    0 -0.00000000000E+00 -0.00000000000E+00 -0.39048279867E+03  0.39048279867E+03  0.00000000000E+00 0.  1.
        -24    2    1    2    0    0  0.37239312764E+02  0.21107852951E+02 -0.36803482508E+03  0.37868375076E+03  0.78226867163E+02 0.  0.
         25    2    1    2    0    0 -0.36005514718E+02  0.19174176793E+02  0.26751596184E+03  0.29812182552E+03  0.12509111424E+03 0.  0.
         24    2    1    2    0    0 -0.12337980461E+01 -0.40282029744E+02  0.11113928846E+04  0.11150340424E+04  0.80514642678E+02 0.  0.
        -11    1    5    5    0    0  0.67181601617E+01  0.25581624780E+01  0.78997291450E+01  0.10680992079E+02  0.00000000000E+00 0.  1.
         12    1    5    5    0    0 -0.79519582079E+01 -0.42840192222E+02  0.11034931555E+04  0.11043530504E+04  0.00000000000E+00 0. -1.
         13    1    3    3    0    0 -0.72067490001E+01  0.28020277027E+02 -0.52371741212E+02  0.59832035176E+02  0.00000000000E+00 0. -1.
        -14    1    3    3    0    0  0.44446061764E+02 -0.69124240752E+01 -0.31566308387E+03  0.31885171558E+03  0.00000000000E+00 0.  1.
          5    1    4    4  501    0 -0.48921229740E+02  0.61886146991E+02  0.21515665885E+03  0.22920087730E+03  0.41800000000E+01 0.  1.
         -5    1    4    4    0  501  0.12915715023E+02 -0.42711970199E+02  0.52359302992E+02  0.68920948213E+02  0.41800000000E+01 0.  1.
</event>
<event>
11    1  0.8974665E-009  0.1440991E+03  0.7561462E-02  0.1103066E+00
         22   -1    0    0    0    0  0.00000000000E+00  0.00000000000E+00  0.20310416248E+04  0.20310416248E+04  0.00000000000E+00 0.  1.
         22   -1    0    0    0    0 -0.00000000000E+00 -0.00000000000E+00 -0.20190883293E+02  0.20190883293E+02  0.00000000000E+00 0.  1.
        -24    2    1    2    0    0 -0.19665976655E+01  0.43204374130E+02  0.20082531250E+03  0.22074501554E+03  0.80790285886E+02 0.  0.
         25    2    1    2    0    0 -0.59815525694E+01  0.39226101763E+02  0.56197301178E+03  0.57709203929E+03  0.12508832805E+03 0.  0.
         24    2    1    2    0    0  0.79481502349E+01 -0.82430475892E+02  0.12480524172E+04  0.12533954532E+04  0.80668269281E+02 0.  0.
        -13    1    5    5    0    0  0.20323294531E+02 -0.95473459177E+02  0.10461572632E+04  0.10507013072E+04  0.00000000000E+00 0.  1.
         14    1    5    5    0    0 -0.12375144296E+02  0.13042983285E+02  0.20189515400E+03  0.20269414599E+03  0.00000000000E+00 0. -1.
         11    1    3    3    0    0 -0.24427807589E+02 -0.15358576691E+02  0.59594358063E+02  0.66212469932E+02  0.00000000000E+00 0. -1.
        -12    1    3    3    0    0  0.22461209923E+02  0.58562950820E+02  0.14123095444E+03  0.15453254560E+03  0.00000000000E+00 0.  1.
          5    1    4    4  501    0 -0.45719986873E+01  0.65985068719E+01  0.53346167085E+03  0.53353844297E+03  0.41800000000E+01 0.  1.
         -5    1    4    4    0  501 -0.14095538821E+01  0.32627594891E+02  0.28511340928E+02  0.43553596316E+02  0.41800000000E+01 0.  1.
</event>
<event>
11    1  0.8974665E-009  0.1608180E+03  0.7561462E-02  0.1086310E+00
         22   -1    0    0    0    0  0.00000000000E+00  0.00000000000E+00  0.72685102344E+03  0.72685102344E+03  0.00000000000E+00 0.  1.
         22   -1    0    0    0    0 -0.00000000000E+00 -0.00000000000E+00 -0.35764505470E+03  0.35764505470E+03  0.00000000000E+00 0.  1.
        -24    2    1    2    0    0 -0.24284176169E+01  0.10654559487E+03 -0.27876181690E+03  0.30873623895E+03  0.79069929056E+02 0.  0.
         25    2    1    2    0    0 -0.21260269646E+02 -0.69359133979E+02  0.26309742164E+02  0.14697850767E+03  0.12509112939E+03 0.  0.
         24    2    1    2    0    0  0.23688687263E+02 -0.37186460894E+02  0.62165804348E+03  0.62878133152E+03  0.83446108727E+02 0.  0.
        -11    1    5    5    0    0 -0.22263299791E+02 -0.42453116391E+02  0.33623227716E+03  0.33963225084E+03  0.00000000000E+00 0.  1.
         12    1    5    5    0    0  0.45951987054E+02  0.52666554970E+01  0.28542576632E+03  0.28914908067E+03  0.00000000000E+00 0. -1.
         13    1    3    3    0    0 -0.32762893436E+02  0.14575662190E+02 -0.75177619749E+02  0.83291846093E+02  0.00000000000E+00 0. -1.
        -14    1    3    3    0    0  0.30334475819E+02  0.91969932682E+02 -0.20358419715E+03  0.22544439286E+03  0.00000000000E+00 0.  1.
          5    1    4    4  501    0 -0.68181366201E+01 -0.85223334079E+02  0.61606484193E+02  0.10546248126E+03  0.41800000000E+01 0.  1.
         -5    1    4    4    0  501 -0.14442133026E+02  0.15864200100E+02 -0.35296742029E+02  0.41516026412E+02  0.41800000000E+01 0.  1.
</event>
<event>
11    1  0.8974665E-009  0.1871907E+03  0.7561462E-02  0.1063970E+00
         22   -1    0    0    0    0  0.00000000000E+00  0.00000000000E+00  0.65119085908E+03  0.65119085908E+03  0.00000000000E+00 0. -1.
         22   -1    0    0    0    0 -0.00000000000E+00 -0.00000000000E+00 -0.66771153420E+03  0.66771153420E+03  0.00000000000E+00 0. -1.
        -24    2    1    2    0    0  0.14590249235E+02 -0.46569848002E+02 -0.56778805808E+03  0.57564881150E+03  0.81281296526E+02 0.  0.
         25    2    1    2    0    0 -0.11035796766E+03 -0.58668500861E+02  0.93690410868E+01  0.17706207605E+03  0.12506928410E+03 0.  0.
         24    2    1    2    0    0  0.95767718422E+02  0.10523834886E+03  0.54189834187E+03  0.56619150573E+03  0.81685018615E+02 0.  0.
        -13    1    5    5    0    0  0.47180886036E+01  0.59432673939E+02  0.24999603730E+03  0.25700685158E+03  0.00000000000E+00 0.  1.
         14    1    5    5    0    0  0.91049629818E+02  0.45805674925E+02  0.29190230457E+03  0.30918465415E+03  0.00000000000E+00 0. -1.
         13    1    3    3    0    0 -0.15409992607E+02  0.56082519407E+00 -0.36442483476E+03  0.36475093227E+03  0.00000000000E+00 0. -1.
        -14    1    3    3    0    0  0.30000241842E+02 -0.47130673197E+02 -0.20336322332E+03  0.21089787923E+03  0.00000000000E+00 0.  1.
          5    1    4    4  501    0 -0.72697274175E+02 -0.97950510461E+02  0.10192744834E+02  0.12247677584E+03  0.41800000000E+01 0. -1.
         -5    1    4    4    0  501 -0.37660693482E+02  0.39282009600E+02 -0.82370374685E+00  0.54585300216E+02  0.41800000000E+01 0. -1.
</event>
<event>
11    1  0.8974665E-009  0.1741432E+03  0.7561462E-02  0.1074481E+00
         22   -1    0    0    0    0  0.00000000000E+00  0.00000000000E+00  0.51247672895E+03  0.51247672895E+03  0.00000000000E+00 0. -1.
         22   -1    0    0    0    0 -0.00000000000E+00 -0.00000000000E+00 -0.13625678886E+04  0.13625678886E+04  0.00000000000E+00 0. -1.
         24    2    1    2    0    0 -0.10402855796E+03  0.47941526390E+02 -0.10134374584E+04  0.10230514061E+04  0.80363962859E+02 0.  0.
         25    2    1    2    0    0  0.15389841174E+03 -0.58260697743E+02 -0.30808391341E+03  0.37101002320E+03  0.12511478560E+03 0.  0.
        -24    2    1    2    0    0 -0.49869853782E+02  0.10319171353E+02  0.47143021216E+03  0.48098318828E+03  0.80652928412E+02 0.  0.
        -11    1    3    3    0    0 -0.19813170640E+02  0.46229190897E+02 -0.25208854448E+03  0.25705706386E+03  0.00000000000E+00 0.  1.
         12    1    3    3    0    0 -0.84215387323E+02  0.17123354926E+01 -0.76134891394E+03  0.76599434222E+03  0.00000000000E+00 0. -1.
         13    1    5    5    0    0 -0.22674880481E+02  0.50612762225E+00  0.42923286511E+03  0.42983166339E+03  0.00000000000E+00 0. -1.
        -14    1    5    5    0    0 -0.27194973301E+02  0.98130437304E+01  0.42197347055E+02  0.51151524890E+02  0.00000000000E+00 0.  1.
          5    1    4    4  501    0  0.32544454484E+02  0.15958007550E+02 -0.16581178460E+03  0.16977873788E+03  0.41800000000E+01 0. -1.
         -5    1    4    4    0  501  0.12135395726E+03 -0.74218705292E+02 -0.14227212881E+03  0.20123128532E+03  0.41800000000E+01 0. -1.
</event>
<event>
11    1  0.8974665E-009  0.1513202E+03  0.7561462E-02  0.1095537E+00
         22   -1    0    0    0    0  0.00000000000E+00  0.00000000000E+00  0.22854940414E+04  0.22854940414E+04  0.00000000000E+00 0.  1.
         22   -1    0    0    0    0 -0.00000000000E+00 -0.00000000000E+00 -0.20663087632E+03  0.20663087632E+03  0.00000000000E+00 0. -1.
         24    2    1    2    0    0  0.78824531621E+02 -0.21716636755E+02 -0.12352819368E+03  0.16650969347E+03  0.76035151658E+02 0.  0.
         25    2    1    2    0    0 -0.89242617525E+02  0.58920419832E+02  0.50811118381E+02  0.17223564026E+03  0.12508990914E+03 0.  0.
        -24    2    1    2    0    0  0.10418085904E+02 -0.37203783078E+02  0.21515802403E+04  0.21533795839E+04  0.79078720072E+02 0.  0.
        -11    1    3    3    0    0 -0.99052829084E+01  0.46299118359E+01 -0.41227720921E+02  0.42652968073E+02  0.00000000000E+00 0.  1.
         12    1    3    3    0    0  0.88729814530E+02 -0.26346548590E+02 -0.82300472758E+02  0.12385672539E+03  0.00000000000E+00 0. -1.
         11    1    5    5    0    0 -0.69208892380E+01  0.15826052420E+02  0.12246263297E+04  0.12247481415E+04  0.00000000000E+00 0. -1.
        -12    1    5    5    0    0  0.17338975142E+02 -0.53029835498E+02  0.92695391065E+03  0.92863144249E+03  0.00000000000E+00 0.  1.
          5    1    4    4  501    0 -0.30767055963E+02 -0.39347426761E+02  0.14221008113E+02  0.52101259074E+02  0.41800000000E+01 0. -1.
         -5    1    4    4    0  501 -0.58475561562E+02  0.98267846593E+02  0.36590110267E+02  0.12013438119E+03  0.41800000000E+01 0. -1.
</event>
<event>
11    1  0.8974665E-009  0.1771413E+03  0.7561462E-02  0.1071979E+00
         22   -1    0    0    0    0  0.00000000000E+00  0.00000000000E+00  0.73899618631E+03  0.73899618631E+03  0.00000000000E+00 0. -1.
         22   -1    0    0    0    0 -0.00000000000E+00 -0.00000000000E+00 -0.57559260309E+03  0.57559260309E+03  0.00000000000E+00 0. -1.
         24    2    1    2    0    0 -0.71568695055E+02 -0.11166311318E+03 -0.50667368131E+03  0.52997311716E+03  0.81009608221E+02 0.  0.
         25    2    1    2    0    0  0.47037009896E+02  0.48484832880E+02  0.42811893150E+02  0.14847073953E+03  0.12508973971E+03 0.  0.
        -24    2    1    2    0    0  0.24531685159E+02  0.63178280304E+02  0.62726537139E+03  0.63614493271E+03  0.81395519519E+02 0.  0.
        -11    1    3    3    0    0 -0.34635650294E+02 -0.89131984714E+02 -0.21766127127E+03  0.23774054762E+03  0.00000000000E+00 0.  1.
         12    1    3    3    0    0 -0.36933044761E+02 -0.22531128469E+02 -0.28901241004E+03  0.29223256955E+03  0.00000000000E+00 0. -1.
         11    1    5    5    0    0 -0.98126622620E+01  0.90200336878E+01  0.39398163225E+03  0.39420702162E+03  0.00000000000E+00 0. -1.
        -12    1    5    5    0    0  0.34344347421E+02  0.54158246616E+02  0.23328373914E+03  0.24193791109E+03  0.00000000000E+00 0.  1.
          5    1    4    4  501    0  0.62353868499E+02  0.38274546651E+02  0.78937582726E+02  0.10771053897E+03  0.41800000000E+01 0. -1.
         -5    1    4    4    0  501 -0.15316858603E+02  0.10210286229E+02 -0.36125689576E+02  0.40760200560E+02  0.41800000000E+01 0. -1.
</event>
<event>
11    1  0.8974665E-009  0.1875438E+03  0.7561462E-02  0.1063699E+00
         22   -1    0    0    0    0  0.00000000000E+00  0.00000000000E+00  0.22903333085E+04  0.22903333085E+04  0.00000000000E+00 0. -1.
         22   -1    0    0    0    0 -0.00000000000E+00 -0.00000000000E+00 -0.79087287456E+03  0.79087287456E+03  0.00000000000E+00 0.  1.
         24    2    1    2    0    0 -0.34291982226E+02 -0.63456715598E+02 -0.71214250566E+03  0.72302918566E+03  0.10208604282E+03 0.  0.
         25    2    1    2    0    0 -0.83496628782E+02  0.13819179191E+03  0.78018021820E+02  0.21863889396E+03  0.12508995105E+03 0.  0.
        -24    2    1    2    0    0  0.11778861101E+03 -0.74735076313E+02  0.21335849178E+04  0.21395381035E+04  0.77325326824E+02 0.  0.
        -11    1    3    3    0    0 -0.13597578737E+01 -0.49921835327E+02 -0.64586883853E+03  0.64779672364E+03  0.00000000000E+00 0.  1.
         12    1    3    3    0    0 -0.32932224353E+02 -0.13534880271E+02 -0.66273667138E+02  0.75232462014E+02  0.00000000000E+00 0. -1.
         11    1    5    5    0    0  0.75746335506E+02 -0.44017284367E+02  0.17784449293E+04  0.17806014139E+04  0.00000000000E+00 0. -1.
        -12    1    5    5    0    0  0.42042275502E+02 -0.30717791946E+02  0.35513998849E+03  0.35893668954E+03  0.00000000000E+00 0.  1.
          5    1    4    4  501    0  0.76836705357E+01  0.29053175037E+01 -0.24319739643E+02  0.26007725756E+02  0.41800000000E+01 0.  1.
         -5    1    4    4    0  501 -0.91180299317E+02  0.13528647441E+03  0.10233776146E+03  0.19263116820E+03  0.41800000000E+01 0.  1.
</event>
<event>
11    1  0.8974665E-009  0.1423416E+03  0.7561462E-02  0.1104971E+00
         22   -1    0    0    0    0  0.00000000000E+00  0.00000000000E+00  0.88587093476E+02  0.88587093476E+02  0.00000000000E+00 0.  1.
         22   -1    0    0    0    0 -0.00000000000E+00 -0.00000000000E+00 -0.33167002953E+03  0.33167002953E+03  0.00000000000E+00 0. -1.
         24    2    1    2    0    0 -0.30995501658E+02  0.53510084964E+02 -0.11326884137E+03  0.15204731750E+03  0.80402151829E+02 0.  0.
         25    2    1    2    0    0  0.24568682504E+02 -0.77383984525E+02 -0.10521367191E+03  0.18251087587E+03  0.12509357230E+03 0.  0.
        -24    2    1    2    0    0  0.64268191543E+01  0.23873899561E+02 -0.24600422773E+02  0.85698929633E+02  0.78280640358E+02 0.  0.
        -13    1    3    3    0    0 -0.18818659545E+02  0.57215321072E+02 -0.29046756460E+02  0.66868893914E+02  0.00000000000E+00 0.  1.
         14    1    3    3    0    0 -0.12176842114E+02 -0.37052361086E+01 -0.84222084911E+02  0.85178423590E+02  0.00000000000E+00 0. -1.
         13    1    5    5    0    0 -0.33048923414E+02  0.12369124967E+02  0.41434153891E+01  0.35530191139E+02  0.00000000000E+00 0. -1.
        -14    1    5    5    0    0  0.39475742569E+02  0.11504774594E+02 -0.28743838162E+02  0.50168738494E+02  0.00000000000E+00 0.  1.
          5    1    4    4  501    0  0.61440106512E+02 -0.88799840246E+02 -0.62695159741E+02  0.12493379755E+03  0.41800000000E+01 0. -1.
         -5    1    4    4    0  501 -0.36871424008E+02  0.11415855721E+02 -0.42518512167E+02  0.57577078313E+02  0.41800000000E+01 0. -1.
</event>
<event>
11    1  0.8974665E-009  0.1400586E+03  0.7561462E-02  0.1107493E+00
         22   -1    0    0    0    0  0.00000000000E+00  0.00000000000E+00  0.16450170416E+04  0.16450170416E+04  0.00000000000E+00 0. -1.
         22   -1    0    0    0    0 -0.00000000000E+00 -0.00000000000E+00 -0.26561833275E+04  0.26561833275E+04  0.00000000000E+00 0. -1.
        -24    2    1    2    0    0  0.31872373562E+02  0.22127150175E+02 -0.25627962534E+04  0.25643822196E+04  0.81400693675E+02 0.  0.
         25    2    1    2    0    0 -0.69038651418E+02  0.28663106541E+02 -0.32546844144E+02  0.14933177338E+03  0.12511104033E+03 0.  0.
         24    2    1    2    0    0  0.37166277856E+02 -0.50790256716E+02  0.15841768116E+04  0.15874863761E+04  0.80844552621E+02 0.  0.
        -13    1    5    5    0    0 -0.11675781031E+01  0.13763796617E+02  0.64807419769E+02  0.66263164677E+02  0.00000000000E+00 0.  1.
         14    1    5    5    0    0  0.38333855959E+02 -0.64554053332E+02  0.15193693918E+04  0.15212232114E+04  0.00000000000E+00 0. -1.
         11    1    3    3    0    0  0.94635444681E+01  0.33776250697E+02 -0.23220349079E+04  0.23222998315E+04  0.00000000000E+00 0. -1.
        -12    1    3    3    0    0  0.22408829094E+02 -0.11649100522E+02 -0.24076134545E+03  0.24208238809E+03  0.00000000000E+00 0.  1.
          5    1    4    4  501    0 -0.50328289949E+02  0.29723291005E+02 -0.79408291902E+02  0.98689209239E+02  0.41800000000E+01 0.  1.
         -5    1    4    4    0  501 -0.18710361469E+02 -0.10601844635E+01  0.46861447757E+02  0.50642564146E+02  0.41800000000E+01 0.  1.
</event>
<event>
11    1  0.8974665E-009  0.1569735E+03  0.7561462E-02  0.1089959E+00
         22   -1    0    0    0    0  0.00000000000E+00  0.00000000000E+00  0.68189501983E+03  0.68189501983E+03  0.00000000000E+00 0.  1.
         22   -1    0    0    0    0 -0.00000000000E+00 -0.00000000000E+00 -0.18858542781E+03  0.18858542781E+03  0.00000000000E+00 0. -1.
         24    2    1    2    0    0  0.83863523517E+02 -0.44197051536E+02 -0.14238951122E+03  0.18800571424E+03  0.78005805820E+02 0.  0.
         25    2    1    2    0    0 -0.99174243113E+02  0.16303486095E+02  0.42490265362E+03  0.45419191326E+03  0.12508674935E+03 0.  0.
        -24    2    1    2    0    0  0.15310719596E+02  0.27893565441E+02  0.21079644962E+03  0.22828282013E+03  0.81642107208E+02 0.  0.
        -11    1    3    3    0    0 -0.81738677472E+00 -0.23635181167E+02 -0.33076352796E+01  0.23879496667E+02  0.00000000000E+00 0.  1.
         12    1    3    3    0    0  0.84680910292E+02 -0.20561870369E+02 -0.13908187594E+03  0.16412621757E+03  0.00000000000E+00 0. -1.
         13    1    5    5    0    0  0.32994072621E+02  0.13221800999E+02  0.31420678215E+02  0.47441372970E+02  0.00000000000E+00 0. -1.
        -14    1    5    5    0    0 -0.17683353025E+02  0.14671764441E+02  0.17937577140E+03  0.18084144717E+03  0.00000000000E+00 0.  1.
          5    1    4    4  501    0 -0.72738154021E+02 -0.38059740643E+02  0.13525852899E+03  0.15827736721E+03  0.41800000000E+01 0. -1.
         -5    1    4    4    0  501 -0.26436089092E+02  0.54363226738E+02  0.28964412463E+03  0.29591454605E+03  0.41800000000E+01 0. -1.
</event>
<event>
11    1  0.8974665E-009  0.1414655E+03  0.7561462E-02  0.1105933E+00
         22   -1    0    0    0    0  0.00000000000E+00  0.00000000000E+00  0.12858253021E+03  0.12858253021E+03  0.00000000000E+00 0.  1.
         22   -1    0    0    0    0 -0.00000000000E+00 -0.00000000000E+00 -0.12309188827E+04  0.12309188827E+04  0.00000000000E+00 0.  1.
        -24    2    1    2    0    0  0.65872895312E+02 -0.75507317751E+01 -0.98221711084E+03  0.98773863823E+03  0.80504116306E+02 0.  0.
         25    2    1    2    0    0 -0.62432645393E+02  0.18438733131E+02 -0.20835679911E+03  0.25159024570E+03  0.12508906390E+03 0.  0.
         24    2    1    2    0    0 -0.34402499190E+01 -0.10888001356E+02  0.88237557455E+02  0.12017252898E+03  0.80778625158E+02 0.  0.
        -13    1    5    5    0    0 -0.22081556303E+01 -0.39764368310E+02  0.81176888995E+02  0.90419954906E+02  0.00000000000E+00 0.  1.
         14    1    5    5    0    0 -0.12320942887E+01  0.28876366954E+02  0.70606684609E+01  0.29752574072E+02  0.00000000000E+00 0. -1.
         11    1    3    3    0    0  0.43056279499E+02  0.34359049149E+02 -0.44232403015E+03  0.44574088337E+03  0.00000000000E+00 0. -1.
        -12    1    3    3    0    0  0.22816615813E+02 -0.41909780924E+02 -0.53989308069E+03  0.54199775486E+03  0.00000000000E+00 0.  1.
          5    1    4    4  501    0 -0.47994623028E+02  0.18317271665E+02 -0.22402507893E+03  0.22987760802E+03  0.41800000000E+01 0.  1.
         -5    1    4    4    0  501 -0.14438022365E+02  0.12146146589E+00  0.15668279819E+02  0.21712637684E+02  0.41800000000E+01 0.  1.
</event>
<event>
11    1  0.8974665E-009  0.1856289E+03  0.7561462E-02  0.1065179E+00
         22   -1    0    0    0    0  0.00000000000E+00  0.00000000000E+00  0.36060873801E+03  0.36060873801E+03  0.00000000000E+00 0.  1.
         22   -1    0    0    0    0 -0.00000000000E+00 -0.00000000000E+00 -0.54943749664E+03  0.54943749664E+03  0.00000000000E+00 0.  1.
        -24    2    1    2    0    0  0.97434682190E+01  0.17468204619E+03 -0.40881220819E+03  0.45175379586E+03  0.79657504870E+02 0.  0.
         25    2    1    2    0    0  0.50115563062E+02 -0.44640486912E+02 -0.43420410207E+02  0.14844618356E+03  0.12508634880E+03 0.  0.
         24    2    1    2    0    0 -0.59859031281E+02 -0.13004155927E+03  0.26340385976E+03  0.30984625523E+03  0.78289193234E+02 0.  0.
        -11    1    5    5    0    0 -0.30587019766E+01 -0.38560978002E+02  0.14379747656E+03  0.14890943203E+03  0.00000000000E+00 0.  1.
         12    1    5    5    0    0 -0.56800329304E+02 -0.91480581271E+02  0.11960638320E+03  0.16093682320E+03  0.00000000000E+00 0. -1.
         11    1    3    3    0    0  0.14873908129E+02 -0.64923811218E+00 -0.53059272308E+02  0.55108447910E+02  0.00000000000E+00 0. -1.
        -12    1    3    3    0    0 -0.51304399102E+01  0.17533128430E+03 -0.35575293588E+03  0.39664534795E+03  0.00000000000E+00 0.  1.
          5    1    4    4  501    0 -0.23767972260E+02  0.23145172112E+01  0.26803597811E+02  0.36141095043E+02  0.41800000000E+01 0. -1.
         -5    1    4    4    0  501  0.73883535322E+02 -0.46955004124E+02 -0.70224008018E+02  0.11230508851E+03  0.41800000000E+01 0. -1.
</event>
<event>
11    1  0.8974665E-009  0.5375647E+03  0.7561462E-02  0.9313289E-01
         22   -1    0    0    0    0  0.00000000000E+00  0.00000000000E+00  0.73625838531E+03  0.73625838531E+03  0.00000000000E+00 0.  1.
         22   -1    0    0    0    0 -0.00000000000E+00 -0.00000000000E+00 -0.11883629305E+04  0.11883629305E+04  0.00000000000E+00 0. -1.
         24    2    1    2    0    0  0.24446769580E+03  0.49475883110E+03 -0.82222815421E+03  0.99341660498E+03  0.79162227291E+02 0.  0.
         25    2    1    2    0    0 -0.11642905979E+03 -0.44281826907E+03 -0.53927322731E+02  0.47769997548E+03  0.12508143367E+03 0.  0.
        -24    2    1    2    0    0 -0.12803863601E+03 -0.51940562033E+02  0.42405093172E+03  0.45350473537E+03  0.82192688334E+02 0.  0.
        -11    1    3    3    0    0  0.95662999868E+02  0.21161405440E+03 -0.27893477542E+03  0.36295526791E+03  0.00000000000E+00 0.  1.
         12    1    3    3    0    0  0.14880469593E+03  0.28314477670E+03 -0.54329337879E+03  0.63046133707E+03  0.00000000000E+00 0. -1.
         11    1    5    5    0    0 -0.39425004835E+02 -0.56825815858E+02  0.14439258709E+03  0.16010222847E+03  0.00000000000E+00 0. -1.
        -12    1    5    5    0    0 -0.88613631175E+02  0.48852538256E+01  0.27965834464E+03  0.29340250691E+03  0.00000000000E+00 0.  1.
          5    1    4    4  501    0 -0.12337740902E+03 -0.25287072590E+03 -0.52369458484E+01  0.28144357707E+03  0.41800000000E+01 0. -1.
         -5    1    4    4    0  501  0.69483492357E+01 -0.18994754318E+03 -0.48690376883E+02  0.19625639841E+03  0.41800000000E+01 0. -1.
</event>
<event>
11    1  0.8974665E-009  0.1702902E+03  0.7561462E-02  0.1077779E+00
         22   -1    0    0    0    0  0.00000000000E+00  0.00000000000E+00  0.27599198949E+04  0.27599198949E+04  0.00000000000E+00 0. -1.
         22   -1    0    0    0    0 -0.00000000000E+00 -0.00000000000E+00 -0.11964461326E+03  0.11964461326E+03  0.00000000000E+00 0. -1.
        -24    2    1    2    0    0  0.27092706733E+02  0.77947348727E+02 -0.15156904619E+01  0.11363756662E+03  0.78111428729E+02 0.  0.
         25    2    1    2    0    0  0.47797187381E+02 -0.16422326458E+03  0.12653800841E+03  0.24680591898E+03  0.12508973707E+03 0.  0.
         24    2    1    2    0    0 -0.74889894114E+02  0.86275915850E+02  0.25152529637E+04  0.25191210226E+04  0.80132546702E+02 0.  0.
        -11    1    5    5    0    0  0.24289790988E+01  0.51026995765E+02  0.12312787474E+04  0.12323380251E+04  0.00000000000E+00 0.  1.
         12    1    5    5    0    0 -0.77318873213E+02  0.35248920085E+02  0.12839742163E+04  0.12867829975E+04  0.00000000000E+00 0. -1.
         11    1    3    3    0    0  0.19401180976E+02  0.21853614562E+02 -0.36748619300E+02  0.46951542181E+02  0.00000000000E+00 0. -1.
        -12    1    3    3    0    0  0.76915257571E+01  0.56093734164E+02  0.35232928838E+02  0.66686024439E+02  0.00000000000E+00 0.  1.
          5    1    4    4  501    0  0.55453319819E+02 -0.11243473550E+03  0.14445586193E+03  0.19131546950E+03  0.41800000000E+01 0. -1.
         -5    1    4    4    0  501 -0.76561324379E+01 -0.51788529077E+02 -0.17917853520E+02  0.55490449472E+02  0.41800000000E+01 0. -1.
</event>
<event>
11    1  0.8974665E-009  0.2635136E+03  0.7561462E-02  0.1016937E+00
         22   -1    0    0    0    0  0.00000000000E+00  0.00000000000E+00  0.17780450661E+04  0.17780450661E+04  0.00000000000E+00 0.  1.
         22   -1    0    0    0    0 -0.00000000000E+00 -0.00000000000E+00 -0.10016426254E+04  0.10016426254E+04  0.00000000000E+00 0.  1.
        -24    2    1    2    0    0  0.27101470868E+02 -0.73392184368E+02 -0.49987894401E+03  0.51238228860E+03  0.80843976606E+02 0.  0.
         25    2    1    2    0    0  0.17872494622E+03 -0.35764047188E+02 -0.46172308461E+03  0.51190325056E+03  0.12504022390E+03 0.  0.
         24    2    1    2    0    0 -0.20582641709E+03  0.10915623156E+03  0.17380044693E+04  0.17554021524E+04  0.80607595690E+02 0.  0.
        -13    1    5    5    0    0 -0.20482765068E+03  0.11151323727E+03  0.17371027610E+04  0.17526880986E+04  0.00000000000E+00 0.  1.
         14    1    5    5    0    0 -0.99876640792E+00 -0.23570057135E+01  0.90170827216E+00  0.27140538091E+01  0.00000000000E+00 0. -1.
         13    1    3    3    0    0  0.45947665670E+02 -0.80184840921E+02 -0.40469021474E+03  0.41510837934E+03  0.00000000000E+00 0. -1.
        -14    1    3    3    0    0 -0.18846194802E+02  0.67926565526E+01 -0.95188729276E+02  0.97273909260E+02  0.00000000000E+00 0.  1.
          5    1    4    4  501    0  0.12936511650E+03 -0.70412603311E+02 -0.23595910072E+03  0.27818597680E+03  0.41800000000E+01 0. -1.
         -5    1    4    4    0  501  0.49359829721E+02  0.34648556123E+02 -0.22576398389E+03  0.23371727376E+03  0.41800000000E+01 0. -1.
</event>
<event>
11    1  0.8974665E-009  0.1972552E+03  0.7561462E-02  0.1056482E+00
         22   -1    0    0    0    0  0.00000000000E+00  0.00000000000E+00  0.22163516553E+03  0.22163516553E+03  0.00000000000E+00 0.  1.
         22   -1    0    0    0    0 -0.00000000000E+00 -0.00000000000E+00 -0.11977494081E+04  0.11977494081E+04  0.00000000000E+00 0. -1.
        -24    2    1    2    0    0 -0.33668372261E+02  0.71663448830E+02 -0.46163003945E+03  0.47524917611E+03  0.80562254684E+02 0.  0.
         25    2    1    2    0    0 -0.11845879392E+03 -0.42513655815E+02 -0.68018372862E+03  0.70294850636E+03  0.12508717411E+03 0.  0.
         24    2    1    2    0    0  0.15212716618E+03 -0.29149793015E+02  0.16569952550E+03  0.24118689116E+03  0.81990234728E+02 0.  0.
        -13    1    5    5    0    0  0.14900587518E+03 -0.31474680652E+02  0.17447194473E+03  0.23158986562E+03  0.00000000000E+00 0.  1.
         14    1    5    5    0    0  0.31212909988E+01  0.23248876372E+01 -0.87724192267E+01  0.95970255347E+01  0.00000000000E+00 0. -1.
         13    1    3    3    0    0  0.13442355657E+02  0.46217134647E+02 -0.11746329043E+03  0.12694229027E+03  0.00000000000E+00 0. -1.
        -14    1    3    3    0    0 -0.47110727918E+02  0.25446314183E+02 -0.34416674902E+03  0.34830688583E+03  0.00000000000E+00 0.  1.
          5    1    4    4  501    0 -0.63038517022E+02 -0.25548936118E+02 -0.60035247131E+03  0.60420788225E+03  0.41800000000E+01 0.  1.
         -5    1    4    4    0  501 -0.55420276897E+02 -0.16964719697E+02 -0.79831257308E+02  0.98740624107E+02  0.41800000000E+01 0.  1.
</event>
<event>
11    1  0.8974665E-009  0.1413965E+03  0.7561462E-02  0.1106009E+00
         22   -1    0    0    0    0  0.00000000000E+00  0.00000000000E+00  0.86459880920E+02  0.86459880920E+02  0.00000000000E+00 0.  1.
         22   -1    0    0    0    0 -0.00000000000E+00 -0.00000000000E+00 -0.15876438370E+04  0.15876438370E+04  0.00000000000E+00 0.  1.
         24    2    1    2    0    0 -0.28265486081E+01  0.70497124564E+00 -0.10895332722E+04  0.10924837510E+04  0.80184216696E+02 0.  0.
         25    2    1    2    0    0 -0.17636130034E+02 -0.63386875539E+02 -0.44998001282E+03  0.47165463721E+03  0.12508859178E+03 0.  0.
        -24    2    1    2    0    0  0.20462678642E+02  0.62681904294E+02  0.38329328924E+02  0.10996532972E+03  0.79218015263E+02 0.  0.
        -11    1    3    3    0    0 -0.26655686378E+02  0.22055465734E+02 -0.86399165434E+03  0.86468407407E+03  0.00000000000E+00 0.  1.
         12    1    3    3    0    0  0.23829137770E+02 -0.21350494488E+02 -0.22554161790E+03  0.22779967697E+03  0.00000000000E+00 0. -1.
         13    1    5    5    0    0  0.23287044363E+02  0.31224418490E+02 -0.19885728249E+02  0.43734345006E+02  0.00000000000E+00 0. -1.
        -14    1    5    5    0    0 -0.28243657207E+01  0.31457485804E+02  0.58215057173E+02  0.66230984716E+02  0.00000000000E+00 0.  1.
          5    1    4    4  501    0 -0.10550065348E+02 -0.99261640897E+02 -0.37568163293E+03  0.38873942295E+03  0.41800000000E+01 0. -1.
         -5    1    4    4    0  501 -0.70860646860E+01  0.35874765358E+02 -0.74298379886E+02  0.82915214261E+02  0.41800000000E+01 0. -1.
</event>
<event>
11    1  0.8974665E-009  0.2571782E+03  0.7561462E-02  0.1020143E+00
         22   -1    0    0    0    0  0.00000000000E+00  0.00000000000E+00  0.10976680894E+04  0.10976680894E+04  0.00000000000E+00 0.  1.
         22   -1    0    0    0    0 -0.00000000000E+00 -0.00000000000E+00 -0.52506785165E+03  0.52506785165E+03  0.00000000000E+00 0. -1.
        -24    2    1    2    0    0  0.61596377579E+02  0.19109167692E+03 -0.29131793333E+03  0.36270936587E+03  0.79886188351E+02 0.  0.
         25    2    1    2    0    0 -0.11300647912E+03 -0.32113073463E+03 -0.18190033856E+02  0.36314455079E+03  0.12509066469E+03 0.  0.
         24    2    1    2    0    0  0.51410101543E+02  0.13003905770E+03  0.88210820489E+03  0.89688202435E+03  0.82032465483E+02 0.  0.
        -13    1    5    5    0    0  0.26784734642E+01  0.10480658790E+03  0.50181768258E+03  0.51265249598E+03  0.00000000000E+00 0.  1.
         14    1    5    5    0    0  0.48731628079E+02  0.25232469799E+02  0.38029052232E+03  0.38422952837E+03  0.00000000000E+00 0. -1.
         13    1    3    3    0    0  0.61600401925E+02  0.11076061468E+03 -0.22626119061E+03  0.25933887032E+03  0.00000000000E+00 0. -1.
        -14    1    3    3    0    0 -0.40243462034E-02  0.80331062241E+02 -0.65056742722E+02  0.10337049555E+03  0.00000000000E+00 0.  1.
          5    1    4    4  501    0 -0.88061891241E+02 -0.23407480320E+03 -0.68670180133E+02  0.25938191190E+03  0.41800000000E+01 0.  1.
         -5    1    4    4    0  501 -0.24944587881E+02 -0.87055931425E+02  0.50480146277E+02  0.10376263889E+03  0.41800000000E+01 0.  1.
</event>
<event>
11    1  0.8974665E-009  0.2000221E+03  0.7561462E-02  0.1054508E+00
         22   -1    0    0    0    0  0.00000000000E+00  0.00000000000E+00  0.18203643765E+04  0.18203643765E+04  0.00000000000E+00 0. -1.
         22   -1    0    0    0    0 -0.00000000000E+00 -0.00000000000E+00 -0.45379737108E+03  0.45379737108E+03  0.00000000000E+00 0.  1.
         24    2    1    2    0    0 -0.88160628756E+02  0.12573993023E+03 -0.38075428396E+03  0.41826993166E+03  0.79956766140E+02 0.  0.
         25    2    1    2    0    0  0.87318306135E+02 -0.16935415826E+03  0.19235535447E+03  0.29825112726E+03  0.12509130671E+03 0.  0.
        -24    2    1    2    0    0  0.84232262048E+00  0.43614228024E+02  0.15549659349E+04  0.15576406886E+04  0.80140787490E+02 0.  0.
        -11    1    3    3    0    0 -0.79791884146E+02  0.66924430529E+02 -0.30313384027E+03  0.32052417895E+03  0.00000000000E+00 0.  1.
         12    1    3    3    0    0 -0.83687446100E+01  0.58815499705E+02 -0.77620443698E+02  0.97745752705E+02  0.00000000000E+00 0. -1.
         13    1    5    5    0    0 -0.29885115832E+02  0.51280377846E+02  0.10644764802E+04  0.10661299049E+04  0.00000000000E+00 0. -1.
        -14    1    5    5    0    0  0.30727438452E+02 -0.76661498227E+01  0.49048945469E+03  0.49151078369E+03  0.00000000000E+00 0.  1.
          5    1    4    4  501    0  0.53832921889E+02 -0.14692583698E+03  0.73983314133E+02  0.17313632843E+03  0.41800000000E+01 0. -1.
         -5    1    4    4    0  501  0.33485384247E+02 -0.22428321275E+02  0.11837204033E+03  0.12511479883E+03  0.41800000000E+01 0. -1.
</event>
<event>
11    1  0.8974665E-009  0.1504817E+03  0.7561462E-02  0.1096388E+00
         22   -1    0    0    0    0  0.00000000000E+00  0.00000000000E+00  0.30085431331E+03  0.30085431331E+03  0.00000000000E+00 0.  1.
         22   -1    0    0    0    0 -0.00000000000E+00 -0.00000000000E+00 -0.67265722372E+03  0.67265722372E+03  0.00000000000E+00 0. -1.
         24    2    1    2    0    0  0.54927959985E+02  0.44659303370E+02 -0.47988918903E+03  0.49179456816E+03  0.80973633732E+02 0.  0.
         25    2    1    2    0    0 -0.27951910115E+02 -0.12192768617E+03 -0.12872645289E+03  0.21878060849E+03  0.12508710982E+03 0.  0.
        -24    2    1    2    0    0 -0.26976049870E+02  0.77268382798E+02  0.23681273150E+03  0.26293636038E+03  0.79731734977E+02 0.  0.
        -11    1    3    3    0    0  0.19778146218E+02  0.60397801291E+02 -0.21753288479E+03  0.22662662119E+03  0.00000000000E+00 0.  1.
         12    1    3    3    0    0  0.35149813767E+02 -0.15738497921E+02 -0.26235630424E+03  0.26516794697E+03  0.00000000000E+00 0. -1.
         13    1    5    5    0    0 -0.73293034701E+01 -0.12497224257E+02  0.84333892057E+01  0.16763691627E+02  0.00000000000E+00 0. -1.
        -14    1    5    5    0    0 -0.19646746400E+02  0.89765607054E+02  0.22837934229E+03  0.24617266875E+03  0.00000000000E+00 0.  1.
          5    1    4    4  501    0 -0.56662010977E+02 -0.11378811373E+02 -0.68059762771E+02  0.89384923475E+02  0.41800000000E+01 0. -1.
         -5    1    4    4    0  501  0.28710100862E+02 -0.11054887479E+03 -0.60666690114E+02  0.12939568501E+03  0.41800000000E+01 0. -1.
</event>
<event>
11    1  0.8974665E-009  0.1411611E+03  0.7561462E-02  0.1106269E+00
         22   -1    0    0    0    0  0.00000000000E+00  0.00000000000E+00  0.64338050342E+02  0.64338050342E+02  0.00000000000E+00 0.  1.
         22   -1    0    0    0    0 -0.00000000000E+00 -0.00000000000E+00 -0.11914890562E+04  0.11914890562E+04  0.00000000000E+00 0.  1.
        -24    2    1    2    0    0 -0.39366100992E+00  0.32728495205E+02 -0.49251088728E+03  0.49989537428E+03  0.79101844269E+02 0.  0.
         25    2    1    2    0    0  0.65689190452E+02 -0.33462714194E+02 -0.63212495709E+03  0.64858664952E+03  0.12509139688E+03 0.  0.
         24    2    1    2    0    0 -0.65295529442E+02  0.73421898823E+00 -0.25151615179E+01  0.10734508278E+03  0.85162171860E+02 0.  0.
        -13    1    5    5    0    0 -0.36074630266E+02  0.41993816948E+02  0.73054426491E+01  0.55841105854E+02  0.00000000000E+00 0.  1.
         14    1    5    5    0    0 -0.29220899176E+02 -0.41259597960E+02 -0.98206041670E+01  0.51503976921E+02  0.00000000000E+00 0. -1.
         11    1    3    3    0    0 -0.52831320237E+01 -0.25310979491E+02 -0.11153598053E+03  0.11449380822E+03  0.00000000000E+00 0. -1.
        -12    1    3    3    0    0  0.48894710138E+01  0.58039474697E+02 -0.38097490675E+03  0.38540156606E+03  0.00000000000E+00 0.  1.
          5    1    4    4  501    0 -0.21677567851E+02 -0.38047356379E+01 -0.21614027678E+02  0.31129271653E+02  0.41800000000E+01 0.  1.
         -5    1    4    4    0  501  0.87366758303E+02 -0.29657978556E+02 -0.61051092941E+03  0.61745737787E+03  0.41800000000E+01 0.  1.
</event>
<event>
11    1  0.8974665E-009  0.1416148E+03  0.7561462E-02  0.1105768E+00
         22   -1    0    0    0    0  0.00000000000E+00  0.00000000000E+00  0.23839326024E+04  0.23839326024E+04  0.00000000000E+00 0. -1.
         22   -1    0    0    0    0 -0.00000000000E+00 -0.00000000000E+00 -0.24061245159E+03  0.24061245159E+03  0.00000000000E+00 0.  1.
         24    2    1    2    0    0  0.69777085644E+02  0.40848919222E+01 -0.14158708608E+03  0.17749760866E+03  0.81073855920E+02 0.  0.
         25    2    1    2    0    0 -0.50354557872E+02 -0.37211728671E+02 -0.19249574779E+02  0.14120473729E+03  0.12509171617E+03 0.  0.
        -24    2    1    2    0    0 -0.19422527772E+02  0.33126836749E+02  0.23041568116E+04  0.23058427080E+04  0.79355904526E+02 0.  0.
        -13    1    3    3    0    0  0.77462433513E+02 -0.18893823438E+02 -0.12452033387E+03  0.14786047043E+03  0.00000000000E+00 0.  1.
         14    1    3    3    0    0 -0.76853478690E+01  0.22978715360E+02 -0.17066752211E+02  0.29637138231E+02  0.00000000000E+00 0. -1.
         11    1    5    5    0    0 -0.20216975600E+02 -0.23620196152E+02  0.91114517701E+03  0.91167547590E+03  0.00000000000E+00 0. -1.
        -12    1    5    5    0    0  0.79444782854E+00  0.56747032901E+02  0.13930116346E+04  0.13941672321E+04  0.00000000000E+00 0.  1.
          5    1    4    4  501    0 -0.62658278074E+02 -0.68096045152E+02 -0.40955725998E+02  0.10128166205E+03  0.41800000000E+01 0.  1.
         -5    1    4    4    0  501  0.12303720202E+02  0.30884316481E+02  0.21706151219E+02  0.39923075233E+02  0.41800000000E+01 0.  1.
</event>
<event>
11    1  0.8974665E-009  0.1354656E+03  0.7561462E-02  0.1112730E+00
         22   -1    0    0    0    0  0.00000000000E+00  0.00000000000E+00  0.57341082766E+03  0.57341082766E+03  0.00000000000E+00 0.  1.
         22   -1    0    0    0    0 -0.00000000000E+00 -0.00000000000E+00 -0.20353751533E+04  0.20353751533E+04  0.00000000000E+00 0.  1.
        -24    2    1    2    0    0 -0.41261269467E+02 -0.62851537865E+01 -0.17383792779E+04  0.17407744246E+04  0.81185515663E+02 0.  0.
         25    2    1    2    0    0  0.60685085098E+02 -0.41798056333E+02 -0.27365341452E+03  0.30977974641E+03  0.12509013926E+03 0.  0.
         24    2    1    2    0    0 -0.19423815631E+02  0.48083210119E+02  0.55006836675E+03  0.55823180999E+03  0.79738735152E+02 0.  0.
        -11    1    5    5    0    0 -0.86464392548E+01  0.67092199531E+02  0.48247070992E+03  0.48719001434E+03  0.00000000000E+00 0.  1.
         12    1    5    5    0    0 -0.10777376376E+02 -0.19008989412E+02  0.67597656830E+02  0.71041795648E+02  0.00000000000E+00 0. -1.
         13    1    3    3    0    0  0.77489697480E+01 -0.42663115833E+01 -0.22244762062E+02  0.23939034773E+02  0.00000000000E+00 0. -1.
        -14    1    3    3    0    0 -0.49010239215E+02 -0.20188422032E+01 -0.17161345158E+04  0.17168353898E+04  0.00000000000E+00 0.  1.
          5    1    4    4  501    0  0.80275300835E+02 -0.14432333220E+02 -0.84148042231E+02  0.11726372661E+03  0.41800000000E+01 0.  1.
         -5    1    4    4    0  501 -0.19590215737E+02 -0.27365723113E+02 -0.18950537229E+03  0.19251601980E+03  0.41800000000E+01 0.  1.
</event>
<event>
11    1  0.8974665E-009  0.1655842E+03  0.7561462E-02  0.1081940E+00
         22   -1    0    0    0    0  0.00000000000E+00  0.00000000000E+00  0.13791467683E+03  0.13791467683E+03  0.00000000000E+00 0.  1.
         22   -1    0    0    0    0 -0.00000000000E+00 -0.00000000000E+00 -0.81955642026E+03  0.81955642026E+03  0.00000000000E+00 0. -1.
         24    2    1    2    0    0  0.81154388646E+02 -0.60791068897E+02 -0.45199682462E+03  0.47012683905E+03  0.80227965655E+02 0.  0.
         25    2    1    2    0    0 -0.64599895806E+02  0.12179492383E+03 -0.30710353875E+03  0.35911950003E+03  0.12508829595E+03 0.  0.
        -24    2    1    2    0    0 -0.16554492840E+02 -0.61003854929E+02  0.77458619939E+02  0.12822475800E+03  0.80288412694E+02 0.  0.
        -13    1    3    3    0    0  0.77676321160E+01  0.12070292736E+02 -0.13867612845E+02  0.19958425826E+02  0.00000000000E+00 0.  1.
         14    1    3    3    0    0  0.73386756530E+02 -0.72861361633E+02 -0.43812921177E+03  0.45016841322E+03  0.00000000000E+00 0. -1.
         13    1    5    5    0    0  0.65211396343E+01  0.17472257688E+01 -0.13642827291E+02  0.15221852598E+02  0.00000000000E+00 0. -1.
        -14    1    5    5    0    0 -0.23075632475E+02 -0.62751080698E+02  0.91101447230E+02  0.11300290541E+03  0.00000000000E+00 0.  1.
          5    1    4    4  501    0  0.21342175400E+02  0.14945128739E+02 -0.14212590028E+03  0.14455479672E+03  0.41800000000E+01 0.  1.
         -5    1    4    4    0  501 -0.85942071205E+02  0.10684979509E+03 -0.16497763847E+03  0.21456470332E+03  0.41800000000E+01 0.  1.
</event>
<event>
11    1  0.8974665E-009  0.1931546E+03  0.7561462E-02  0.1059473E+00
         22   -1    0    0    0    0  0.00000000000E+00  0.00000000000E+00  0.76500834578E+03  0.76500834578E+03  0.00000000000E+00 0. -1.
         22   -1    0    0    0    0 -0.00000000000E+00 -0.00000000000E+00 -0.13568992630E+04  0.13568992630E+04  0.00000000000E+00 0. -1.
         24    2    1    2    0    0 -0.42556024482E+02 -0.49237267610E+02 -0.13094835173E+04  0.13133750479E+04  0.77276197626E+02 0.  0.
         25    2    1    2    0    0  0.16260644957E+03 -0.25281768656E+02  0.34962191483E+03  0.40615689148E+03  0.12509161402E+03 0.  0.
        -24    2    1    2    0    0 -0.12005042509E+03  0.74519036266E+02  0.36797068519E+03  0.40237566943E+03  0.80861380508E+02 0.  0.
        -11    1    3    3    0    0 -0.31389909949E+02  0.70899071652E+01 -0.21592103753E+03  0.21830594971E+03  0.00000000000E+00 0.  1.
         12    1    3    3    0    0 -0.11166114533E+02 -0.56327174775E+02 -0.10935624797E+04  0.10950690982E+04  0.00000000000E+00 0. -1.
         11    1    5    5    0    0 -0.37788806156E+02 -0.11526438582E+02  0.13630236058E+03  0.14191260041E+03  0.00000000000E+00 0. -1.
        -12    1    5    5    0    0 -0.82261618932E+02  0.86045474848E+02  0.23166832461E+03  0.26046306901E+03  0.00000000000E+00 0.  1.
          5    1    4    4  501    0  0.11720279622E+03 -0.47131746300E+02  0.32735843181E+03  0.35091154473E+03  0.41800000000E+01 0.  1.
         -5    1    4    4    0  501  0.45403653354E+02  0.21849977644E+02  0.22263483023E+02  0.55245346747E+02  0.41800000000E+01 0.  1.
</event>
<event>
11    1  0.8974665E-009  0.1939086E+03  0.7561462E-02  0.1058917E+00
         22   -1    0    0    0    0  0.00000000000E+00  0.00000000000E+00  0.18019215549E+04  0.18019215549E+04  0.00000000000E+00 0.  1.
         22   -1    0    0    0    0 -0.00000000000E+00 -0.00000000000E+00 -0.19951605734E+03  0.19951605734E+03  0.00000000000E+00 0. -1.
         24    2    1    2    0    0  0.12457096124E+03  0.79974079584E+02 -0.13744620311E+03  0.21697599430E+03  0.79204454198E+02 0.  0.
         25    2    1    2    0    0 -0.10809112829E+03 -0.10818861935E+03  0.44701124702E+03  0.48872880516E+03  0.12509324787E+03 0.  0.
        -24    2    1    2    0    0 -0.16479832942E+02  0.28214539762E+02  0.12928404536E+04  0.12957328127E+04  0.80121397690E+02 0.  0.
        -13    1    3    3    0    0  0.30661810484E+02  0.62197478249E+02 -0.38113150017E+02  0.79128282724E+02  0.00000000000E+00 0.  1.
         14    1    3    3    0    0  0.93909150753E+02  0.17776601335E+02 -0.99333053092E+02  0.13784771158E+03  0.00000000000E+00 0. -1.
         11    1    5    5    0    0 -0.24933540197E+02  0.70018711367E+01  0.12430071287E+03  0.12696997616E+03  0.00000000000E+00 0. -1.
        -12    1    5    5    0    0  0.84537072549E+01  0.21212668626E+02  0.11685397407E+04  0.11687628366E+04  0.00000000000E+00 0.  1.
          5    1    4    4  501    0 -0.98009028094E+02 -0.13511638133E+03  0.40016992769E+03  0.43360771386E+03  0.41800000000E+01 0.  1.
         -5    1    4    4    0  501 -0.10082100200E+02  0.26927761984E+02  0.46841319326E+02  0.55121091300E+02  0.41800000000E+01 0.  1.
</event>
<event>
11    1  0.8974665E-009  0.2060104E+03  0.7561462E-02  0.1050353E+00
         22   -1    0    0    0    0  0.00000000000E+00  0.00000000000E+00  0.63170265111E+03  0.63170265111E+03  0.00000000000E+00 0. -1.
         22   -1    0    0    0    0 -0.00000000000E+00 -0.00000000000E+00 -0.25337712387E+03  0.25337712387E+03  0.00000000000E+00 0.  1.
        -24    2    1    2    0    0  0.25004055835E+02  0.63496280476E+02 -0.14696442653E+03  0.18319523442E+03  0.85469121948E+02 0.  0.
         25    2    1    2    0    0 -0.14315866753E+03 -0.15775691862E+03  0.14873274141E+03  0.28835891331E+03  0.12509110701E+03 0.  0.
         24    2    1    2    0    0  0.11815461170E+03  0.94260638148E+02  0.37655721236E+03  0.41352562726E+03  0.79765469007E+02 0.  0.
        -11    1    5    5    0    0  0.62892973367E+02  0.52743605406E+01  0.18088627304E+03  0.19158076301E+03  0.00000000000E+00 0.  1.
         12    1    5    5    0    0  0.55261638328E+02  0.88986277607E+02  0.19567093932E+03  0.22194486425E+03  0.00000000000E+00 0. -1.
         11    1    3    3    0    0  0.34012606904E+02  0.13145232599E+02 -0.11248321664E+02  0.38159917567E+02  0.00000000000E+00 0. -1.
        -12    1    3    3    0    0 -0.90085510683E+01  0.50351047877E+02 -0.13571610487E+03  0.14503531685E+03  0.00000000000E+00 0.  1.
          5    1    4    4  501    0 -0.47079359726E+02 -0.47884801891E+02 -0.15043262163E+02  0.68943400705E+02  0.41800000000E+01 0. -1.
         -5    1    4    4    0  501 -0.96079307805E+02 -0.10987211673E+03  0.16377600358E+03  0.21941551260E+03  0.41800000000E+01 0. -1.
</event>
<event>
11    1  0.8974665E-009  0.2075818E+03  0.7561462E-02  0.1049288E+00
         22   -1    0    0    0    0  0.00000000000E+00  0.00000000000E+00  0.43916335882E+03  0.43916335882E+03  0.00000000000E+00 0.  1.
         22   -1    0    0    0    0 -0.00000000000E+00 -0.00000000000E+00 -0.74528402645E+03  0.74528402645E+03  0.00000000000E+00 0. -1.
         24    2    1    2    0    0 -0.13010046429E+03 -0.11131128565E+03 -0.67111595488E+03  0.69713621370E+03  0.79283935493E+02 0.  0.
         25    2    1    2    0    0  0.10807732882E+03  0.32871148747E+02  0.94985235101E+02  0.19347056131E+03  0.12508973492E+03 0.  0.
        -24    2    1    2    0    0  0.22023135474E+02  0.78440136906E+02  0.27001005214E+03  0.29384061026E+03  0.82456063486E+02 0.  0.
        -11    1    3    3    0    0 -0.64243295466E+02 -0.79612461929E+02 -0.25686374464E+03  0.27648567489E+03  0.00000000000E+00 0.  1.
         12    1    3    3    0    0 -0.65857168823E+02 -0.31698823724E+02 -0.41425221024E+03  0.42065053881E+03  0.00000000000E+00 0. -1.
         11    1    5    5    0    0 -0.83509975863E+01  0.18592555631E+02  0.57303058270E+01  0.21172120594E+02  0.00000000000E+00 0. -1.
        -12    1    5    5    0    0  0.30374133060E+02  0.59847581275E+02  0.26427974632E+03  0.27266848967E+03  0.00000000000E+00 0.  1.
          5    1    4    4  501    0  0.76011832010E+02 -0.20795590892E+02 -0.90934569423E+00  0.78921191804E+02  0.41800000000E+01 0. -1.
         -5    1    4    4    0  501  0.32065496806E+02  0.53666739640E+02  0.95894580796E+02  0.11454936951E+03  0.41800000000E+01 0. -1.
</event>
<event>
11    1  0.8974665E-009  0.1523945E+03  0.7561462E-02  0.1094457E+00
         22   -1    0    0    0    0  0.00000000000E+00  0.00000000000E+00  0.76332980978E+03  0.76332980978E+03  0.00000000000E+00 0. -1.
         22   -1    0    0    0    0 -0.00000000000E+00 -0.00000000000E+00 -0.33507547300E+03  0.33507547300E+03  0.00000000000E+00 0.  1.
        -24    2    1    2    0    0 -0.76311826808E+02  0.29517180321E+02 -0.21271429045E+03  0.24206238668E+03  0.81560228269E+02 0.  0.
         25    2    1    2    0    0  0.11782142469E+03 -0.16543139423E+00 -0.35809162802E+02  0.17554717483E+03  0.12511034715E+03 0.  0.
         24    2    1    2    0    0 -0.41509597887E+02 -0.29351748927E+02  0.67677779004E+03  0.68079572127E+03  0.53572988808E+02 0.  0.
        -13    1    5    5    0    0  0.10734203928E+02 -0.12300902693E+02  0.91640828150E+02  0.93083708161E+02  0.00000000000E+00 0.  1.
         14    1    5    5    0    0 -0.52243801815E+02 -0.17050846233E+02  0.58513696189E+03  0.58771201311E+03  0.00000000000E+00 0. -1.
         11    1    3    3    0    0  0.95842803162E+01 -0.13719908452E+02 -0.53537372411E+02  0.56092286116E+02  0.00000000000E+00 0. -1.
        -12    1    3    3    0    0 -0.85896107124E+02  0.43237088773E+02 -0.15917691804E+03  0.18597010056E+03  0.00000000000E+00 0.  1.
          5    1    4    4  501    0  0.14106539508E+03 -0.55952725774E+00 -0.11411505524E+02  0.14158903071E+03  0.41800000000E+01 0.  1.
         -5    1    4    4    0  501 -0.23243970387E+02  0.39409586351E+00 -0.24397657278E+02  0.33958144112E+02  0.41800000000E+01 0.  1.
</event>
<event>
11    1  0.8974665E-009  0.1507361E+03  0.7561462E-02  0.1096129E+00
         22   -1    0    0    0    0  0.00000000000E+00  0.00000000000E+00  0.38490327649E+02  0.38490327649E+02  0.00000000000E+00 0.  1.
         22   -1    0    0    0    0 -0.00000000000E+00 -0.00000000000E+00 -0.21399982624E+04  0.21399982624E+04  0.00000000000E+00 0. -1.
        -24    2    1    2    0    0 -0.34416281136E+02  0.30589232131E+02 -0.14075962207E+04  0.14110624816E+04  0.87464421723E+02 0.  0.
         25    2    1    2    0    0 -0.43271357766E+02  0.24129687186E+02 -0.54852181115E+03  0.56477719043E+03  0.12506976183E+03 0.  0.
         24    2    1    2    0    0  0.77687638902E+02 -0.54718919317E+02 -0.14538990300E+03  0.20264891806E+03  0.10439746513E+03 0.  0.
        -11    1    5    5    0    0  0.34084553399E+02 -0.82637728319E+02 -0.92511246340E+02  0.12864323387E+03  0.00000000000E+00 0.  1.
         12    1    5    5    0    0  0.43603085503E+02  0.27918809002E+02 -0.52878656657E+02  0.74005684183E+02  0.00000000000E+00 0. -1.
         11    1    3    3    0    0 -0.40919264273E+02  0.26939586082E+02 -0.13982402213E+04  0.13990982252E+04  0.00000000000E+00 0. -1.
        -12    1    3    3    0    0  0.65029831375E+01  0.36496460498E+01 -0.93559993853E+01  0.11964256369E+02  0.00000000000E+00 0.  1.
          5    1    4    4  501    0  0.33725177246E+02  0.12127055831E+01 -0.33300510872E+03  0.33473681164E+03  0.41800000000E+01 0. -1.
         -5    1    4    4    0  501 -0.76996535012E+02  0.22916981603E+02 -0.21551670243E+03  0.23004037879E+03  0.41800000000E+01 0. -1.
</event>
<event>
11    1  0.8974665E-009  0.2670672E+03  0.7561462E-02  0.1015181E+00
         22   -1    0    0    0    0  0.00000000000E+00  0.00000000000E+00  0.31144826681E+03  0.31144826681E+03  0.00000000000E+00 0.  1.
         22   -1    0    0    0    0 -0.00000000000E+00 -0.00000000000E+00 -0.14708689349E+04  0.14708689349E+04  0.00000000000E+00 0. -1.
         24    2    1    2    0    0 -0.31601348482E+02  0.23223682280E+03 -0.13172075549E+04  0.13402310169E+04  0.79062311392E+02 0.  0.
         25    2    1    2    0    0  0.34925439705E+02 -0.25535170817E+03  0.28527826296E+02  0.28789840106E+03  0.12508945301E+03 0.  0.
        -24    2    1    2    0    0 -0.33240912230E+01  0.23114885373E+02  0.12925906050E+03  0.15418778369E+03  0.80750358574E+02 0.  0.
        -11    1    3    3    0    0 -0.88527700107E+01  0.16097064976E+03 -0.69026885865E+03  0.70884484822E+03  0.00000000000E+00 0.  1.
         12    1    3    3    0    0 -0.22748578471E+02  0.71266173035E+02 -0.62693869620E+03  0.63138616871E+03  0.00000000000E+00 0. -1.
         13    1    5    5    0    0  0.83257203583E+01 -0.10949031014E+02 -0.54168120854E+01  0.14783123919E+02  0.00000000000E+00 0. -1.
        -14    1    5    5    0    0 -0.11649811581E+02  0.34063916387E+02  0.13467587258E+03  0.13940465977E+03  0.00000000000E+00 0.  1.
          5    1    4    4  501    0  0.10970398984E+02 -0.17655516452E+01  0.30938026868E+02  0.33137603006E+02  0.41800000000E+01 0.  1.
         -5    1    4    4    0  501  0.23955040722E+02 -0.25358615653E+03 -0.24102005720E+01  0.25476079805E+03  0.41800000000E+01 0.  1.
</event>
<event>
11    1  0.8974665E-009  0.1363325E+03  0.7561462E-02  0.1111724E+00
         22   -1    0    0    0    0  0.00000000000E+00  0.00000000000E+00  0.50945456089E+03  0.50945456089E+03  0.00000000000E+00 0. -1.
         22   -1    0    0    0    0 -0.00000000000E+00 -0.00000000000E+00 -0.11137207366E+03  0.11137207366E+03  0.00000000000E+00 0.  1.
        -24    2    1    2    0    0  0.35099132725E+02 -0.39002786988E+02 -0.52999635971E+02  0.11056532017E+03  0.81624518985E+02 0.  0.
         25    2    1    2    0    0 -0.57486260554E+02  0.40132999995E+02  0.21681103427E+03  0.25994442830E+03  0.12509497745E+03 0.  0.
         24    2    1    2    0    0  0.22387127829E+02 -0.11302130062E+01  0.23427108893E+03  0.25031688608E+03  0.85282703247E+02 0.  0.
        -13    1    5    5    0    0 -0.78401022411E+01  0.24220361891E+02  0.18709732095E+03  0.18882134582E+03  0.00000000000E+00 0.  1.
         14    1    5    5    0    0  0.30227230070E+02 -0.25350574898E+02  0.47173767985E+02  0.61495540255E+02  0.00000000000E+00 0. -1.
         11    1    3    3    0    0  0.70997044482E+01  0.22773221586E+02  0.99107901167E+00  0.23874833240E+02  0.00000000000E+00 0. -1.
        -12    1    3    3    0    0  0.27999428277E+02 -0.61776008574E+02 -0.53990714982E+02  0.86690486926E+02  0.00000000000E+00 0.  1.
          5    1    4    4  501    0 -0.19394048050E+02  0.60455104376E+02  0.20549022884E+03  0.21511544643E+03  0.41800000000E+01 0. -1.
         -5    1    4    4    0  501 -0.38092212504E+02 -0.20322104382E+02  0.11320805434E+02  0.44828981871E+02  0.41800000000E+01 0. -1.
</event>
<event>
11    1  0.8974665E-009  0.1433037E+03  0.7561462E-02  0.1103924E+00
         22   -1    0    0    0    0  0.00000000000E+00  0.00000000000E+00  0.65401184552E+03  0.65401184552E+03  0.00000000000E+00 0.  1.
         22   -1    0    0    0    0 -0.00000000000E+00 -0.00000000000E+00 -0.13200701814E+03  0.13200701814E+03  0.00000000000E+00 0.  1.
        -24    2    1    2    0    0 -0.69453208663E+02  0.27170651774E+02 -0.63002286355E+02  0.12508307843E+03  0.78195242259E+02 0.  0.
         25    2    1    2    0    0  0.24232035521E+02 -0.60384683632E+02  0.11771484556E+03  0.18367634925E+03  0.12508682923E+03 0.  0.
         24    2    1    2    0    0  0.45221173143E+02  0.33214031858E+02  0.46729226818E+03  0.47725943598E+03  0.79160463105E+02 0.  0.
        -13    1    5    5    0    0  0.66142188728E+02  0.26798701922E+02  0.40489989529E+03  0.41114095486E+03  0.00000000000E+00 0.  1.
         14    1    5    5    0    0 -0.20921015585E+02  0.64153299367E+01  0.62392372888E+02  0.66118481122E+02  0.00000000000E+00 0. -1.
         11    1    3    3    0    0 -0.51418857801E+02 -0.15655632416E+02 -0.10135243504E+02  0.54696626265E+02  0.00000000000E+00 0. -1.
        -12    1    3    3    0    0 -0.18034350863E+02  0.42826284190E+02 -0.52867042850E+02  0.70386452164E+02  0.00000000000E+00 0.  1.
          5    1    4    4  501    0  0.17935072665E+02  0.14987260744E+02  0.10402372376E+03  0.10669907367E+03  0.41800000000E+01 0. -1.
         -5    1    4    4    0  501  0.62969628554E+01 -0.75371944376E+02  0.13691121793E+02  0.76977275583E+02  0.41800000000E+01 0. -1.
</event>
<event>
11    1  0.8974665E-009  0.1545236E+03  0.7561462E-02  0.1092344E+00
         22   -1    0    0    0    0  0.00000000000E+00  0.00000000000E+00  0.55928735817E+03  0.55928735817E+03  0.00000000000E+00 0. -1.
         22   -1    0    0    0    0 -0.00000000000E+00 -0.00000000000E+00 -0.15514411656E+03  0.15514411656E+03  0.00000000000E+00 0. -1.
        -24    2    1    2    0    0 -0.29412714109E+02  0.94912830469E+02 -0.90437977120E+02  0.15566967639E+03  0.78615948139E+02 0.  0.
         25    2    1    2    0    0 -0.30677696417E+00 -0.45181636227E+02  0.15449456308E+03  0.20385650947E+03  0.12508969610E+03 0.  0.
         24    2    1    2    0    0  0.29719491073E+02 -0.49731194242E+02  0.34008665566E+03  0.35490528887E+03  0.83321011020E+02 0.  0.
        -11    1    5    5    0    0  0.14210422990E+01 -0.27455557058E+00 -0.49695617962E+01  0.51760299867E+01  0.00000000000E+00 0.  1.
         12    1    5    5    0    0  0.28298448774E+02 -0.49456638671E+02  0.34505621746E+03  0.34972925888E+03  0.00000000000E+00 0. -1.
         13    1    3    3    0    0 -0.29468136070E+02  0.76661908521E+02 -0.10429724099E+03  0.13275290483E+03  0.00000000000E+00 0. -1.
        -14    1    3    3    0    0  0.55421960583E-01  0.18250921948E+02  0.13859263873E+02  0.22916771558E+02  0.00000000000E+00 0.  1.
          5    1    4    4  501    0  0.29453605819E+02 -0.27821517383E+02 -0.46278330601E+01  0.40993181922E+02  0.41800000000E+01 0.  1.
         -5    1    4    4    0  501 -0.29760382783E+02 -0.17360118844E+02  0.15912239614E+03  0.16286332755E+03  0.41800000000E+01 0.  1.
</event>
<event>
11    1  0.8974665E-009  0.2293073E+03  0.7561462E-02  0.1035539E+00
         22   -1    0    0    0    0  0.00000000000E+00  0.00000000000E+00  0.29301932995E+03  0.29301932995E+03  0.00000000000E+00 0.  1.
         22   -1    0    0    0    0 -0.00000000000E+00 -0.00000000000E+00 -0.97982001314E+03  0.97982001314E+03  0.00000000000E+00 0. -1.
        -24    2    1    2    0    0 -0.16168243490E+03 -0.12172615284E+03 -0.77570576763E+03  0.80597492286E+03  0.83172545378E+02 0.  0.
         25    2    1    2    0    0  0.25076969132E+02  0.18292867232E+03 -0.70186974598E+02  0.23380615190E+03  0.12508937496E+03 0.  0.
         24    2    1    2    0    0  0.13660546576E+03 -0.61202519472E+02  0.15909205903E+03  0.23305826834E+03  0.81234669488E+02 0.  0.
        -11    1    5    5    0    0  0.12862597536E+03 -0.62991978753E+02  0.16813472971E+03  0.22086629046E+03  0.00000000000E+00 0.  1.
         12    1    5    5    0    0  0.79794904037E+01  0.17894592810E+01 -0.90426706799E+01  0.12191977881E+02  0.00000000000E+00 0. -1.
         11    1    3    3    0    0 -0.14148153536E+03 -0.11666559333E+03 -0.75365755030E+03  0.77564656167E+03  0.00000000000E+00 0. -1.
        -12    1    3    3    0    0 -0.20200899537E+02 -0.50605595177E+01 -0.22048217329E+02  0.30328361185E+02  0.00000000000E+00 0.  1.
          5    1    4    4  501    0  0.25780650666E+02  0.50669605137E+02  0.33121133426E+02  0.65928239116E+02  0.41800000000E+01 0. -1.
         -5    1    4    4    0  501 -0.70368153345E+00  0.13225906718E+03 -0.10330810802E+03  0.16787791279E+03  0.41800000000E+01 0. -1.
</event>
<event>
11    1  0.8974665E-009  0.1424199E+03  0.7561462E-02  0.1104886E+00
         22   -1    0    0    0    0  0.00000000000E+00  0.00000000000E+00  0.55048956123E+03  0.55048956123E+03  0.00000000000E+00 0. -1.
         22   -1    0    0    0    0 -0.00000000000E+00 -0.00000000000E+00 -0.12047833776E+04  0.12047833776E+04  0.00000000000E+00 0.  1.
        -24    2    1    2    0    0  0.22689154371E+01  0.68232839466E+02 -0.11672080962E+04  0.11719104236E+04  0.79614273954E+02 0.  0.
         25    2    1    2    0    0  0.13230037349E+02 -0.56932525878E+02  0.12317446702E+03  0.18502700544E+03  0.12508675799E+03 0.  0.
         24    2    1    2    0    0 -0.15498952786E+02 -0.11300313588E+02  0.38973981279E+03  0.39833550987E+03  0.80038379110E+02 0.  0.
        -13    1    5    5    0    0  0.22666601882E+02 -0.31128627508E+02  0.15684205437E+03  0.16149983378E+03  0.00000000000E+00 0.  1.
         14    1    5    5    0    0 -0.38165554668E+02  0.19828313920E+02  0.23289775841E+03  0.23683567609E+03  0.00000000000E+00 0. -1.
         11    1    3    3    0    0 -0.47209783022E+00  0.81007626300E+02 -0.72542531459E+03  0.72993448024E+03  0.00000000000E+00 0. -1.
        -12    1    3    3    0    0  0.27410132673E+01 -0.12774786834E+02 -0.44178278163E+03  0.44197594332E+03  0.00000000000E+00 0.  1.
          5    1    4    4  501    0 -0.29858069250E+02 -0.68703573517E+02  0.28494823253E+02  0.80256542821E+02  0.41800000000E+01 0.  1.
         -5    1    4    4    0  501  0.43088106599E+02  0.11771047639E+02  0.94679643768E+02  0.10477046262E+03  0.41800000000E+01 0.  1.
</event>
<event>
11    1  0.8974665E-009  0.1930102E+03  0.7561462E-02  0.1059580E+00
         22   -1    0    0    0    0  0.00000000000E+00  0.00000000000E+00  0.44484592712E+03  0.44484592712E+03  0.00000000000E+00 0.  1.
         22   -1    0    0    0    0 -0.00000000000E+00 -0.00000000000E+00 -0.10605383893E+04  0.10605383893E+04  0.00000000000E+00 0.  1.
         24    2    1    2    0    0  0.13423846073E+03 -0.58353232113E+02 -0.98322486328E+03  0.99723548886E+03  0.79513674445E+02 0.  0.
         25    2    1    2    0    0 -0.14876761058E+03  0.62332592282E+02  0.97170696660E+02  0.22606511871E+03  0.12508452979E+03 0.  0.
        -24    2    1    2    0    0  0.14529149845E+02 -0.39793601687E+01  0.27036170446E+03  0.28208370884E+03  0.79049579709E+02 0.  0.
        -11    1    3    3    0    0  0.13490753938E+03 -0.71897098265E+02 -0.89097676707E+03  0.90399603782E+03  0.00000000000E+00 0.  1.
         12    1    3    3    0    0 -0.66907865054E+00  0.13543866152E+02 -0.92248096207E+02  0.93239451041E+02  0.00000000000E+00 0. -1.
         11    1    5    5    0    0  0.38626263723E+02 -0.39182638850E+01  0.68084948055E+02  0.78376662297E+02  0.00000000000E+00 0. -1.
        -12    1    5    5    0    0 -0.24097113878E+02 -0.61096283631E-01  0.20227675640E+03  0.20370704654E+03  0.00000000000E+00 0.  1.
          5    1    4    4  501    0  0.68252976595E+00 -0.25381097076E+01 -0.23032791908E+02  0.23556097955E+02  0.41800000000E+01 0.  1.
         -5    1    4    4    0  501 -0.14945014034E+03  0.64870701989E+02  0.12020348857E+03  0.20250902076E+03  0.41800000000E+01 0.  1.
</event>
<event>
11    1  0.8974665E-009  0.1492790E+03  0.7561462E-02  0.1097618E+00
         22   -1    0    0    0    0  0.00000000000E+00  0.00000000000E+00  0.75712651906E+02  0.75712651906E+02  0.00000000000E+00 0.  1.
         22   -1    0    0    0    0 -0.00000000000E+00 -0.00000000000E+00 -0.87822239856E+03  0.87822239856E+03  0.00000000000E+00 0.  1.
        -24    2    1    2    0    0 -0.64431537922E+02  0.32153491230E+02 -0.46919789916E+03  0.48165186695E+03  0.81587880734E+02 0.  0.
         25    2    1    2    0    0  0.79841844209E+02  0.50277978487E+02 -0.32064936579E+03  0.35688425852E+03  0.12509101880E+03 0.  0.
         24    2    1    2    0    0 -0.15410306287E+02 -0.82431469717E+02 -0.12662481699E+02  0.11539892500E+03  0.78256940322E+02 0.  0.
        -13    1    5    5    0    0  0.22718291766E+02 -0.67572314924E+02  0.35625141926E+01  0.71378078094E+02  0.00000000000E+00 0.  1.
         14    1    5    5    0    0 -0.38128598052E+02 -0.14859154793E+02 -0.16224995892E+02  0.44020846906E+02  0.00000000000E+00 0. -1.
         11    1    3    3    0    0 -0.55164477570E+01  0.47512383981E+02 -0.19600932521E+03  0.20176103042E+03  0.00000000000E+00 0. -1.
        -12    1    3    3    0    0 -0.58915090165E+02 -0.15358892751E+02 -0.27318857395E+03  0.27989083653E+03  0.00000000000E+00 0.  1.
          5    1    4    4  501    0  0.10362403445E+03  0.65895905615E+02 -0.28946631293E+03  0.31446530749E+03  0.41800000000E+01 0. -1.
         -5    1    4    4    0  501 -0.23782190239E+02 -0.15617927128E+02 -0.31183052861E+02  0.42418951025E+02  0.41800000000E+01 0. -1.
</event>
<event>
11    1  0.1473285E-008  0.1655532E+03  0.7561462E-02  0.1081968E+00
         22   -1    0    0    0    0  0.00000000000E+00  0.00000000000E+00  0.95625788685E+03  0.95625788685E+03  0.00000000000E+00 0.  1.
         22   -1    0    0    0    0 -0.00000000000E+00 -0.00000000000E+00 -0.97219954835E+03  0.97219954835E+03  0.00000000000E+00 0. -1.
        -24    2    1    2    0    0  0.18016577524E+02 -0.11062842677E+03 -0.90331677644E+03  0.91382457844E+03  0.80814080988E+02 0.  0.
         25    2    1    2    0    0  0.62467984839E+02  0.26045292865E+02  0.29681351597E+02  0.14529343726E+03  0.12509433987E+03 0.  0.
         24    2    1    2    0    0 -0.80484562363E+02  0.84583133905E+02  0.85769376335E+03  0.86933941950E+03  0.80500703608E+02 0.  0.
        -11    1    5    5    0    0 -0.94573894451E+02  0.84796348405E+02  0.74245662396E+03  0.75324397155E+03  0.00000000000E+00 0.  1.
         12    1    5    5    0    0  0.14089332088E+02 -0.21321450011E+00  0.11523713939E+03  0.11609544795E+03  0.00000000000E+00 0. -1.
         13    1    3    3    0    0 -0.18055945084E+02 -0.84906751997E+02 -0.72077607478E+03  0.72598438252E+03  0.00000000000E+00 0. -1.
        -14    1    3    3    0    0  0.36072522608E+02 -0.25721674772E+02 -0.18254070166E+03  0.18784019592E+03  0.00000000000E+00 0.  1.
          5    1    4    4  501    0  0.51780106063E+02  0.75160897018E+02  0.24469776746E+02  0.94586374274E+02  0.41800000000E+01 0.  1.
         -5    1    4    4    0  501  0.10687878776E+02 -0.49115604153E+02  0.52115748518E+01  0.50707062984E+02  0.41800000000E+01 0.  1.
</event>
<event>
11    1  0.8974665E-009  0.1432894E+03  0.7561462E-02  0.1103940E+00
         22   -1    0    0    0    0  0.00000000000E+00  0.00000000000E+00  0.10666712596E+04  0.10666712596E+04  0.00000000000E+00 0. -1.
         22   -1    0    0    0    0 -0.00000000000E+00 -0.00000000000E+00 -0.12605229808E+03  0.12605229808E+03  0.00000000000E+00 0. -1.
         24    2    1    2    0    0  0.48312468446E+02  0.50789073701E+02 -0.72895831760E+02  0.12900571048E+03  0.80093984997E+02 0.  0.
         25    2    1    2    0    0 -0.49763578783E+01 -0.86093756670E+02  0.23757572645E+03  0.28200401173E+03  0.12508851971E+03 0.  0.
        -24    2    1    2    0    0 -0.43336110568E+02  0.35304682969E+02  0.77593906683E+03  0.78171383546E+03  0.76620140982E+02 0.  0.
        -11    1    3    3    0    0  0.31893669088E+02  0.78860592691E+01  0.99056642467E+01  0.34314985690E+02  0.00000000000E+00 0.  1.
         12    1    3    3    0    0  0.16418799358E+02  0.42903014431E+02 -0.82801496007E+02  0.94690724787E+02  0.00000000000E+00 0. -1.
         13    1    5    5    0    0 -0.77707482912E+01  0.25294156654E+02  0.64817079291E+03  0.64871068718E+03  0.00000000000E+00 0. -1.
        -14    1    5    5    0    0 -0.35565362276E+02  0.10010526315E+02  0.12776827392E+03  0.13300314828E+03  0.00000000000E+00 0.  1.
          5    1    4    4  501    0  0.51597870913E+02 -0.61224793884E+02  0.82621481851E+02  0.11512861214E+03  0.41800000000E+01 0. -1.
         -5    1    4    4    0  501 -0.56574228791E+02 -0.24868962785E+02  0.15495424459E+03  0.16687539960E+03  0.41800000000E+01 0. -1.
</event>
<event>
11    1  0.8974665E-009  0.1509579E+03  0.7561462E-02  0.1095904E+00
         22   -1    0    0    0    0  0.00000000000E+00  0.00000000000E+00  0.65423886707E+03  0.65423886707E+03  0.00000000000E+00 0. -1.
         22   -1    0    0    0    0 -0.00000000000E+00 -0.00000000000E+00 -0.11057250911E+03  0.11057250911E+03  0.00000000000E+00 0. -1.
        -24    2    1    2    0    0  0.59083537139E+01  0.73183861967E+02 -0.18481291644E+01  0.10651707673E+03  0.77147169474E+02 0.  0.
         25    2    1    2    0    0 -0.27583185830E+01  0.20813044615E+02  0.32974448070E+02  0.13106064498E+03  0.12509511297E+03 0.  0.
         24    2    1    2    0    0 -0.31500351309E+01 -0.93996906583E+02  0.51254003906E+03  0.52723365446E+03  0.80204074643E+02 0.  0.
        -13    1    5    5    0    0 -0.93315411057E+00  0.39139760757E+01  0.19254766561E+03  0.19258970252E+03  0.00000000000E+00 0.  1.
         14    1    5    5    0    0 -0.22168810204E+01 -0.97910882658E+02  0.31999237345E+03  0.33464395194E+03  0.00000000000E+00 0. -1.
         11    1    3    3    0    0 -0.18560483397E+02  0.10570518242E+02 -0.27276036574E+02  0.34644040916E+02  0.00000000000E+00 0. -1.
        -12    1    3    3    0    0  0.24468837111E+02  0.62613343725E+02  0.25427907409E+02  0.71873035814E+02  0.00000000000E+00 0.  1.
          5    1    4    4  501    0  0.43784244725E+02 -0.24919266829E+02  0.41128856615E+02  0.65169664659E+02  0.41800000000E+01 0.  1.
         -5    1    4    4    0  501 -0.46542563308E+02  0.45732311444E+02 -0.81544085451E+01  0.65890980323E+02  0.41800000000E+01 0.  1.
</event>
<event>
11    1  0.8974665E-009  0.1386158E+03  0.7561462E-02  0.1109114E+00
         22   -1    0    0    0    0  0.00000000000E+00  0.00000000000E+00  0.97347060404E+03  0.97347060404E+03  0.00000000000E+00 0. -1.
         22   -1    0    0    0    0 -0.00000000000E+00 -0.00000000000E+00 -0.13134925180E+04  0.13134925180E+04  0.00000000000E+00 0. -1.
        -24    2    1    2    0    0  0.43424524850E+02 -0.16476473289E+02 -0.12209490430E+04  0.12246214782E+04  0.82607722664E+02 0.  0.
         25    2    1    2    0    0  0.17592372657E+02  0.17536293222E+02 -0.41764105193E+02  0.13419324610E+03  0.12508626487E+03 0.  0.
         24    2    1    2    0    0 -0.61016897506E+02 -0.10598199333E+01  0.92269123424E+03  0.92814839768E+03  0.79850794374E+02 0.  0.
        -11    1    5    5    0    0 -0.64595170533E+02 -0.76428127386E+01  0.38871892362E+03  0.39412352153E+03  0.00000000000E+00 0.  1.
         12    1    5    5    0    0  0.35782730265E+01  0.65829928053E+01  0.53397231062E+03  0.53402487615E+03  0.00000000000E+00 0. -1.
         11    1    3    3    0    0  0.29768708876E+02 -0.28324953097E+02 -0.11670080118E+04  0.11677312100E+04  0.00000000000E+00 0. -1.
        -12    1    3    3    0    0  0.13655815974E+02  0.11848479808E+02 -0.53941031137E+02  0.56890268269E+02  0.00000000000E+00 0.  1.
          5    1    4    4  501    0  0.35125413187E+02  0.68067217633E+01  0.37619637951E+02  0.52084889097E+02  0.41800000000E+01 0. -1.
         -5    1    4    4    0  501 -0.17533040530E+02  0.10729571459E+02 -0.79383743144E+02  0.82108357001E+02  0.41800000000E+01 0. -1.
</event>
<event>
11    1  0.8974665E-009  0.1317992E+03  0.7561462E-02  0.1117078E+00
         22   -1    0    0    0    0  0.00000000000E+00  0.00000000000E+00  0.85106203186E+03  0.85106203186E+03  0.00000000000E+00 0.  1.
         22   -1    0    0    0    0 -0.00000000000E+00 -0.00000000000E+00 -0.39881933005E+03  0.39881933005E+03  0.00000000000E+00 0.  1.
        -24    2    1    2    0    0  0.64578703936E+01 -0.61786680575E+01 -0.35364843336E+03  0.36289614948E+03  0.80910573221E+02 0.  0.
         25    2    1    2    0    0  0.35207737817E+02  0.93877650329E+00  0.73498877826E+02  0.14929548758E+03  0.12508633605E+03 0.  0.
         24    2    1    2    0    0 -0.41665608210E+02  0.52398915542E+01  0.73239225735E+03  0.73768972485E+03  0.77615927210E+02 0.  0.
        -13    1    5    5    0    0 -0.43982900629E+02  0.17895643496E+02  0.71197514460E+03  0.71355683455E+03  0.00000000000E+00 0.  1.
         14    1    5    5    0    0  0.23172924192E+01 -0.12655751942E+02  0.20417112751E+02  0.24132890304E+02  0.00000000000E+00 0. -1.
         11    1    3    3    0    0 -0.37107495738E+01  0.36594617774E+02 -0.18422951212E+03  0.18786550734E+03  0.00000000000E+00 0. -1.
        -12    1    3    3    0    0  0.10168619967E+02 -0.42773285831E+02 -0.16941892124E+03  0.17503064214E+03  0.00000000000E+00 0.  1.
          5    1    4    4  501    0  0.27116579967E+02 -0.56004678191E+02  0.93913132757E+01  0.63067440517E+02  0.41800000000E+01 0. -1.
         -5    1    4    4    0  501  0.80911578497E+01  0.56943454694E+02  0.64107564550E+02  0.86228047063E+02  0.41800000000E+01 0. -1.
</event>
<event>
11    1  0.8974665E-009  0.1416905E+03  0.7561462E-02  0.1105685E+00
         22   -1    0    0    0    0  0.00000000000E+00  0.00000000000E+00  0.22919787651E+03  0.22919787651E+03  0.00000000000E+00 0. -1.
         22   -1    0    0    0    0 -0.00000000000E+00 -0.00000000000E+00 -0.10408475720E+04  0.10408475720E+04  0.00000000000E+00 0. -1.
        -24    2    1    2    0    0 -0.12213490688E+02 -0.44651977007E+02 -0.78445101068E+03  0.78969055292E+03  0.78133301576E+02 0.  0.
         25    2    1    2    0    0 -0.54791869983E+02  0.47278250925E+02 -0.21876688212E+03  0.26218983386E+03  0.12508868152E+03 0.  0.
         24    2    1    2    0    0  0.67005360671E+02 -0.26262739183E+01  0.19156819730E+03  0.21816506173E+03  0.80006276419E+02 0.  0.
        -13    1    5    5    0    0  0.76972556448E+02 -0.20531942008E+02  0.12253677962E+03  0.14615607222E+03  0.00000000000E+00 0.  1.
         14    1    5    5    0    0 -0.99671957773E+01  0.17905668090E+02  0.69031417688E+02  0.72008989504E+02  0.00000000000E+00 0. -1.
         11    1    3    3    0    0  0.25634088489E+02 -0.39280680896E+02 -0.56423990879E+03  0.56618614700E+03  0.00000000000E+00 0. -1.
        -12    1    3    3    0    0 -0.37847579177E+02 -0.53712961108E+01 -0.22021110189E+03  0.22350440592E+03  0.00000000000E+00 0.  1.
          5    1    4    4  501    0 -0.28811143546E+02 -0.30659148803E+02 -0.19397256651E+02  0.46516570847E+02  0.41800000000E+01 0. -1.
         -5    1    4    4    0  501 -0.25980726437E+02  0.77937399728E+02 -0.19936962547E+03  0.21567326302E+03  0.41800000000E+01 0. -1.
</event>
<event>
11    1  0.8974665E-009  0.1830808E+03  0.7561462E-02  0.1067178E+00
         22   -1    0    0    0    0  0.00000000000E+00  0.00000000000E+00  0.30999625360E+03  0.30999625360E+03  0.00000000000E+00 0. -1.
         22   -1    0    0    0    0 -0.00000000000E+00 -0.00000000000E+00 -0.51437358698E+03  0.51437358698E+03  0.00000000000E+00 0. -1.
        -24    2    1    2    0    0 -0.74408804451E+02  0.94488340196E+02 -0.38867842008E+03  0.41449262997E+03  0.79173919010E+02 0.  0.
         25    2    1    2    0    0  0.64092147307E+02  0.72508490299E+02  0.15372469846E+02  0.15890028457E+03  0.12509077942E+03 0.  0.
         24    2    1    2    0    0  0.10316657144E+02 -0.16699683050E+03  0.16892861684E+03  0.25097692604E+03  0.80362709047E+02 0.  0.
        -11    1    5    5    0    0 -0.23138942203E+02 -0.10210293197E+03  0.62551765440E+02  0.12195549484E+03  0.00000000000E+00 0.  1.
         12    1    5    5    0    0  0.33455599346E+02 -0.64893898530E+02  0.10637685140E+03  0.12902143120E+03  0.00000000000E+00 0. -1.
         13    1    3    3    0    0 -0.53247301407E+02  0.96473778935E+02 -0.37045218731E+03  0.38649358108E+03  0.00000000000E+00 0. -1.
        -14    1    3    3    0    0 -0.21161503043E+02 -0.19854387381E+01 -0.18226232766E+02  0.27999048892E+02  0.00000000000E+00 0.  1.
          5    1    4    4  501    0  0.56610387239E+02 -0.18155573964E+02 -0.17447289986E+02  0.62098640381E+02  0.41800000000E+01 0.  1.
         -5    1    4    4    0  501  0.74817600683E+01  0.90664064263E+02  0.32819759832E+02  0.96801644190E+02  0.41800000000E+01 0.  1.
</event>
<event>
11    1  0.8974665E-009  0.2136239E+03  0.7561462E-02  0.1045287E+00
         22   -1    0    0    0    0  0.00000000000E+00  0.00000000000E+00  0.48390637279E+03  0.48390637279E+03  0.00000000000E+00 0.  1.
         22   -1    0    0    0    0 -0.00000000000E+00 -0.00000000000E+00 -0.38969079446E+03  0.38969079446E+03  0.00000000000E+00 0. -1.
         24    2    1    2    0    0 -0.11115274593E+03  0.98057530274E+02 -0.17229552265E+03  0.24128756054E+03  0.81016835136E+02 0.  0.
         25    2    1    2    0    0  0.20916873892E+03 -0.16973141563E+03 -0.33216054041E+02  0.29884986880E+03  0.12509045945E+03 0.  0.
        -24    2    1    2    0    0 -0.98015992991E+02  0.71673885353E+02  0.29972715502E+03  0.33345973791E+03  0.81331104900E+02 0.  0.
        -11    1    3    3    0    0 -0.31465504991E+02  0.25451049645E+02 -0.29989929917E+01  0.40581127281E+02  0.00000000000E+00 0.  1.
         12    1    3    3    0    0 -0.79687240940E+02  0.72606480629E+02 -0.16929652966E+03  0.20070643326E+03  0.00000000000E+00 0. -1.
         11    1    5    5    0    0 -0.52194151575E+01  0.15482405605E+02  0.13647578002E+03  0.13745030269E+03  0.00000000000E+00 0. -1.
        -12    1    5    5    0    0 -0.92796577834E+02  0.56191479748E+02  0.16325137501E+03  0.19600943522E+03  0.00000000000E+00 0.  1.
          5    1    4    4  501    0  0.76925758356E+02  0.57183647623E+01 -0.89861308187E+01  0.77772070445E+02  0.41800000000E+01 0.  1.
         -5    1    4    4    0  501  0.13224298057E+03 -0.17544978039E+03 -0.24229923222E+02  0.22107779836E+03  0.41800000000E+01 0.  1.
</event>
<event>
11    1  0.8974665E-009  0.1465477E+03  0.7561462E-02  0.1100459E+00
         22   -1    0    0    0    0  0.00000000000E+00  0.00000000000E+00  0.63732657184E+02  0.63732657184E+02  0.00000000000E+00 0. -1.
         22   -1    0    0    0    0 -0.00000000000E+00 -0.00000000000E+00 -0.11796784572E+04  0.11796784572E+04  0.00000000000E+00 0.  1.
         24    2    1    2    0    0 -0.18920136011E+02  0.34903014666E+01 -0.85929203382E+03  0.86327827460E+03  0.80600411030E+02 0.  0.
         25    2    1    2    0    0  0.90462887633E+02 -0.76853435968E+01 -0.21559729494E+03  0.26527887550E+03  0.12509232452E+03 0.  0.
        -24    2    1    2    0    0 -0.71542751622E+02  0.41950421302E+01 -0.41056471256E+02  0.11485396429E+03  0.79811249788E+02 0.  0.
        -11    1    3    3    0    0 -0.38182142940E+02 -0.31085021462E+01 -0.79311840151E+03  0.79404303261E+03  0.00000000000E+00 0.  1.
         12    1    3    3    0    0  0.19262006929E+02  0.65988036128E+01 -0.66173632309E+02  0.69235241987E+02  0.00000000000E+00 0. -1.
         11    1    5    5    0    0 -0.14427698231E+02 -0.28813836052E+02  0.73252133731E+01  0.33046246008E+02  0.00000000000E+00 0. -1.
        -12    1    5    5    0    0 -0.57115053392E+02  0.33008878182E+02 -0.48381684629E+02  0.81807718281E+02  0.00000000000E+00 0.  1.
          5    1    4    4  501    0  0.51999502502E+02  0.36974331856E+02 -0.30240641295E+02  0.70732017238E+02  0.41800000000E+01 0.  1.
         -5    1    4    4    0  501  0.38463385131E+02 -0.44659675453E+02 -0.18535665365E+03  0.19454685826E+03  0.41800000000E+01 0.  1.
</event>
<event>
11    1  0.8974665E-009  0.1598303E+03  0.7561462E-02  0.1087237E+00
         22   -1    0    0    0    0  0.00000000000E+00  0.00000000000E+00  0.85882234502E+03  0.85882234502E+03  0.00000000000E+00 0.  1.
         22   -1    0    0    0    0 -0.00000000000E+00 -0.00000000000E+00 -0.29626223981E+03  0.29626223981E+03  0.00000000000E+00 0.  1.
         24    2    1    2    0    0  0.10992384912E+03 -0.70436807663E+02 -0.24267571950E+03  0.28694077128E+03  0.79993155380E+02 0.  0.
         25    2    1    2    0    0 -0.51650747077E+02 -0.49275911873E+02  0.22287862706E+03  0.26537507187E+03  0.12511247423E+03 0.  0.
        -24    2    1    2    0    0 -0.58273102043E+02  0.11971271954E+03  0.58235719765E+03  0.60276874168E+03  0.80395028767E+02 0.  0.
        -13    1    3    3    0    0  0.84314521109E+02 -0.68123692467E+02 -0.23699414007E+03  0.26060698067E+03  0.00000000000E+00 0.  1.
         14    1    3    3    0    0  0.25609328011E+02 -0.23131151957E+01 -0.56815794297E+01  0.26333790610E+02  0.00000000000E+00 0. -1.
         13    1    5    5    0    0 -0.66571363685E+02  0.54538658241E+02  0.26295960542E+03  0.27668387338E+03  0.00000000000E+00 0. -1.
        -14    1    5    5    0    0  0.82982616419E+01  0.65174061295E+02  0.31939759223E+03  0.32608486830E+03  0.00000000000E+00 0.  1.
          5    1    4    4  501    0  0.39563267911E+02 -0.65898203154E+01  0.41461634730E+02  0.57837854854E+02  0.41800000000E+01 0. -1.
         -5    1    4    4    0  501 -0.91214014988E+02 -0.42686091558E+02  0.18141699233E+03  0.20753721702E+03  0.41800000000E+01 0. -1.
</event>
<event>
11    1  0.8974665E-009  0.1456725E+03  0.7561462E-02  0.1101384E+00
         22   -1    0    0    0    0  0.00000000000E+00  0.00000000000E+00  0.58601629104E+03  0.58601629104E+03  0.00000000000E+00 0.  1.
         22   -1    0    0    0    0 -0.00000000000E+00 -0.00000000000E+00 -0.56414288969E+03  0.56414288969E+03  0.00000000000E+00 0.  1.
        -24    2    1    2    0    0 -0.33417197881E+02  0.13532558932E+02 -0.52952275221E+03  0.53673745896E+03  0.79955709500E+02 0.  0.
         25    2    1    2    0    0  0.32041140152E+02  0.64347718790E+02  0.20666115757E+03  0.25204367061E+03  0.12509961739E+03 0.  0.
         24    2    1    2    0    0  0.13760577294E+01 -0.77880277722E+02  0.34473499599E+03  0.36137805116E+03  0.75396599433E+02 0.  0.
        -11    1    5    5    0    0 -0.31491110510E+02 -0.65848956189E+02  0.21776052169E+03  0.22966806456E+03  0.00000000000E+00 0.  1.
         12    1    5    5    0    0  0.32867168239E+02 -0.12031321533E+02  0.12697447430E+03  0.13170998660E+03  0.00000000000E+00 0. -1.
         11    1    3    3    0    0  0.23295464210E+02  0.22607899448E+01 -0.75418039176E+02  0.78966261511E+02  0.00000000000E+00 0. -1.
        -12    1    3    3    0    0 -0.56712662091E+02  0.11271768987E+02 -0.45410471303E+03  0.45777119745E+03  0.00000000000E+00 0.  1.
          5    1    4    4  501    0  0.18754047165E+02 -0.87516857090E+01 -0.97059007039E+01  0.23237538516E+02  0.41800000000E+01 0. -1.
         -5    1    4    4    0  501  0.13287092987E+02  0.73099404499E+02  0.21636705827E+03  0.22880613209E+03  0.41800000000E+01 0. -1.
</event>
<event>
11    1  0.8974665E-009  0.1934241E+03  0.7561462E-02  0.1059274E+00
         22   -1    0    0    0    0  0.00000000000E+00  0.00000000000E+00  0.41954001250E+03  0.41954001250E+03  0.00000000000E+00 0. -1.
         22   -1    0    0    0    0 -0.00000000000E+00 -0.00000000000E+00 -0.72332374874E+03  0.72332374874E+03  0.00000000000E+00 0. -1.
        -24    2    1    2    0    0  0.32978706519E+02 -0.21629410763E+02 -0.47791375166E+03  0.48754464651E+03  0.87993191918E+02 0.  0.
         25    2    1    2    0    0 -0.65139647524E+01  0.16551217374E+03 -0.17300403266E+03  0.27021148191E+03  0.12508852164E+03 0.  0.
         24    2    1    2    0    0 -0.26464741766E+02 -0.14388276298E+03  0.34713404808E+03  0.38510763282E+03  0.80020056760E+02 0.  0.
        -13    1    5    5    0    0 -0.27337862171E+02 -0.49773826766E+02  0.58550336491E+02  0.81565522386E+02  0.00000000000E+00 0.  1.
         14    1    5    5    0    0  0.87312040431E+00 -0.94108936209E+02  0.28858371159E+03  0.30354211043E+03  0.00000000000E+00 0. -1.
         11    1    3    3    0    0  0.88197063952E+01 -0.14998406132E+02 -0.44879448198E+03  0.44913163600E+03  0.00000000000E+00 0. -1.
        -12    1    3    3    0    0  0.24159000123E+02 -0.66310046311E+01 -0.29119269682E+02  0.38413010507E+02  0.00000000000E+00 0.  1.
          5    1    4    4  501    0 -0.45742322844E+02  0.99251308580E+02 -0.15718761011E+03  0.19149046850E+03  0.41800000000E+01 0. -1.
         -5    1    4    4    0  501  0.39228358092E+02  0.66260865159E+02 -0.15816422551E+02  0.78721013411E+02  0.41800000000E+01 0. -1.
</event>
<event>
11    1  0.8974665E-009  0.1653078E+03  0.7561462E-02  0.1082189E+00
         22   -1    0    0    0    0  0.00000000000E+00  0.00000000000E+00  0.24103684769E+03  0.24103684769E+03  0.00000000000E+00 0. -1.
         22   -1    0    0    0    0 -0.00000000000E+00 -0.00000000000E+00 -0.13066542771E+04  0.13066542771E+04  0.00000000000E+00 0. -1.
         24    2    1    2    0    0 -0.47391337030E+02 -0.68026818066E+02 -0.94507656733E+03  0.95187796934E+03  0.77642537266E+02 0.  0.
         25    2    1    2    0    0  0.13943117782E+03  0.11564065323E+03 -0.30061674804E+03  0.37260191937E+03  0.12509175469E+03 0.  0.
        -24    2    1    2    0    0 -0.92039840789E+02 -0.47613835166E+02  0.18007588596E+03  0.22321123608E+03  0.81593637096E+02 0.  0.
        -11    1    3    3    0    0 -0.54176949054E+02 -0.31246479028E+02 -0.34401136707E+03  0.34965026088E+03  0.00000000000E+00 0.  1.
         12    1    3    3    0    0  0.67856120244E+01 -0.36780339038E+02 -0.60106520026E+03  0.60222770846E+03  0.00000000000E+00 0. -1.
         11    1    5    5    0    0 -0.99282508884E+02 -0.48320198295E+02  0.12146831795E+03  0.16415361830E+03  0.00000000000E+00 0. -1.
        -12    1    5    5    0    0  0.72426680949E+01  0.70636312965E+00  0.58607568009E+02  0.59057617781E+02  0.00000000000E+00 0.  1.
          5    1    4    4  501    0  0.65388730005E+02  0.36347616001E+02 -0.23287572810E+03  0.24463322002E+03  0.41800000000E+01 0. -1.
         -5    1    4    4    0  501  0.74042447814E+02  0.79293037230E+02 -0.67741019940E+02  0.12796869935E+03  0.41800000000E+01 0. -1.
</event>
<event>
11    1  0.8974665E-009  0.1684228E+03  0.7561462E-02  0.1079412E+00
         22   -1    0    0    0    0  0.00000000000E+00  0.00000000000E+00  0.50517592577E+03  0.50517592577E+03  0.00000000000E+00 0. -1.
         22   -1    0    0    0    0 -0.00000000000E+00 -0.00000000000E+00 -0.30266661486E+03  0.30266661486E+03  0.00000000000E+00 0.  1.
        -24    2    1    2    0    0  0.12368969853E+03 -0.24542225829E+02 -0.21692568999E+03  0.26190606944E+03  0.75077106126E+02 0.  0.
         25    2    1    2    0    0 -0.37723606969E+02  0.11810834449E+03  0.12491202124E+03  0.21592421851E+03  0.12509038144E+03 0.  0.
         24    2    1    2    0    0 -0.85966091560E+02 -0.93566118657E+02  0.29452297966E+03  0.33001225268E+03  0.77585526436E+02 0.  0.
        -13    1    5    5    0    0 -0.89229328151E+02 -0.62446038323E+02  0.17219875269E+03  0.20374933407E+03  0.00000000000E+00 0.  1.
         14    1    5    5    0    0  0.32632365905E+01 -0.31120080334E+02  0.12232422697E+03  0.12626291861E+03  0.00000000000E+00 0. -1.
         11    1    3    3    0    0  0.30437783558E+02  0.42475825559E+01 -0.86948909169E+01  0.31939031819E+02  0.00000000000E+00 0. -1.
        -12    1    3    3    0    0  0.93251914971E+02 -0.28789808385E+02 -0.20823079907E+03  0.22996703762E+03  0.00000000000E+00 0.  1.
          5    1    4    4  501    0 -0.55245341745E+02  0.11068576341E+03  0.14314614632E+03  0.18923973582E+03  0.41800000000E+01 0. -1.
         -5    1    4    4    0  501  0.17521734777E+02  0.74225810713E+01 -0.18234125075E+02  0.26684482693E+02  0.41800000000E+01 0. -1.
</event>
<event>
11    1  0.8974665E-009  0.2382797E+03  0.7561462E-02  0.1030335E+00
         22   -1    0    0    0    0  0.00000000000E+00  0.00000000000E+00  0.20795579063E+03  0.20795579063E+03  0.00000000000E+00 0. -1.
         22   -1    0    0    0    0 -0.00000000000E+00 -0.00000000000E+00 -0.80887330608E+03  0.80887330608E+03  0.00000000000E+00 0.  1.
         24    2    1    2    0    0 -0.32516857982E+01  0.45460358216E+02 -0.38145658325E+03  0.39269494282E+03  0.81381666094E+02 0.  0.
         25    2    1    2    0    0  0.15050792025E+03 -0.17626295100E+03 -0.29737227767E+03  0.39724156190E+03  0.12509726224E+03 0.  0.
        -24    2    1    2    0    0 -0.14725623445E+03  0.13080259279E+03  0.77911345471E+02  0.22689259200E+03  0.81340971752E+02 0.  0.
        -11    1    3    3    0    0 -0.36578323976E+02 -0.40188086583E-01 -0.13504138755E+03  0.13990765437E+03  0.00000000000E+00 0.  1.
         12    1    3    3    0    0  0.33326638178E+02  0.45500546303E+02 -0.24641519570E+03  0.25278728844E+03  0.00000000000E+00 0. -1.
         13    1    5    5    0    0 -0.13200270541E+03  0.13233329141E+03  0.47529706847E+02  0.19286235321E+03  0.00000000000E+00 0. -1.
        -14    1    5    5    0    0 -0.15253529040E+02 -0.15306986280E+01  0.30381638624E+02  0.34030238787E+02  0.00000000000E+00 0.  1.
          5    1    4    4  501    0  0.88006816847E+01  0.18928271124E+02 -0.33697634951E+02  0.39858931836E+02  0.41800000000E+01 0. -1.
         -5    1    4    4    0  501  0.14170723857E+03 -0.19519122213E+03 -0.26367464272E+03  0.35738263006E+03  0.41800000000E+01 0. -1.
</event>
<event>
11    1  0.8974665E-009  0.1943510E+03  0.7561462E-02  0.1058592E+00
         22   -1    0    0    0    0  0.00000000000E+00  0.00000000000E+00  0.49276691218E+03  0.49276691218E+03  0.00000000000E+00 0.  1.
         22   -1    0    0    0    0 -0.00000000000E+00 -0.00000000000E+00 -0.60318331441E+03  0.60318331441E+03  0.00000000000E+00 0.  1.
         24    2    1    2    0    0 -0.10032463079E+03 -0.11934964191E+03 -0.54919635144E+03  0.57651015779E+03  0.80236905641E+02 0.  0.
         25    2    1    2    0    0  0.52706010032E+02  0.30478181578E+02  0.14626795285E+03  0.20186305876E+03  0.12509011718E+03 0.  0.
        -24    2    1    2    0    0  0.47618620755E+02  0.88871460332E+02  0.29251199636E+03  0.31757701004E+03  0.71597624183E+02 0.  0.
        -11    1    3    3    0    0  0.46783371380E+01  0.15525346560E+01 -0.91070601513E+02  0.91203901573E+02  0.00000000000E+00 0.  1.
         12    1    3    3    0    0 -0.10500296792E+03 -0.12090217657E+03 -0.45812574993E+03  0.48530625621E+03  0.00000000000E+00 0. -1.
         13    1    5    5    0    0 -0.12549961482E+02  0.40099244142E+02  0.66499989559E+02  0.78661931869E+02  0.00000000000E+00 0. -1.
        -14    1    5    5    0    0  0.60168582237E+02  0.48772216190E+02  0.22601200680E+03  0.23891507818E+03  0.00000000000E+00 0.  1.
          5    1    4    4  501    0 -0.29702587408E+01 -0.21587740860E+02  0.11860586592E+03  0.12066348588E+03  0.41800000000E+01 0.  1.
         -5    1    4    4    0  501  0.55676268773E+02  0.52065922438E+02  0.27662086927E+02  0.81199572886E+02  0.41800000000E+01 0.  1.
</event>
<event>
11    1  0.8974665E-009  0.1369542E+03  0.7561462E-02  0.1111008E+00
         22   -1    0    0    0    0  0.00000000000E+00  0.00000000000E+00  0.11939336812E+03  0.11939336812E+03  0.00000000000E+00 0. -1.
         22   -1    0    0    0    0 -0.00000000000E+00 -0.00000000000E+00 -0.14108531377E+04  0.14108531377E+04  0.00000000000E+00 0. -1.
        -24    2    1    2    0    0 -0.13528700315E+02 -0.54182426178E+02 -0.10981993887E+04  0.11025195208E+04  0.79928939416E+02 0.  0.
         25    2    1    2    0    0  0.39663610377E+02  0.46078121362E+02 -0.27682341969E+03  0.30979842445E+03  0.12508981912E+03 0.  0.
         24    2    1    2    0    0 -0.26134910062E+02  0.81043048156E+01  0.83563038860E+02  0.11792856051E+03  0.78585308048E+02 0.  0.
        -11    1    5    5    0    0 -0.31993071299E+02 -0.48676828337E+01 -0.80207398817E+00  0.32371195066E+02  0.00000000000E+00 0.  1.
         12    1    5    5    0    0  0.58581612366E+01  0.12971987649E+02  0.84365112848E+02  0.85557365449E+02  0.00000000000E+00 0. -1.
         11    1    3    3    0    0  0.59588739237E+01 -0.57236370410E+02 -0.10277765866E+04  0.10293863328E+04  0.00000000000E+00 0. -1.
        -12    1    3    3    0    0 -0.19487574239E+02  0.30539442323E+01 -0.70422802147E+02  0.73133188002E+02  0.00000000000E+00 0.  1.
          5    1    4    4  501    0 -0.16753568560E+02 -0.18124272969E+02 -0.17505387623E+03  0.17683467792E+03  0.41800000000E+01 0.  1.
         -5    1    4    4    0  501  0.56417178937E+02  0.64202394331E+02 -0.10176954346E+03  0.13296374654E+03  0.41800000000E+01 0.  1.
</event>
<event>
11    1  0.8974665E-009  0.1401874E+03  0.7561462E-02  0.1107349E+00
         22   -1    0    0    0    0  0.00000000000E+00  0.00000000000E+00  0.56361215649E+03  0.56361215649E+03  0.00000000000E+00 0.  1.
         22   -1    0    0    0    0 -0.00000000000E+00 -0.00000000000E+00 -0.15710670391E+04  0.15710670391E+04  0.00000000000E+00 0. -1.
        -24    2    1    2    0    0  0.62170085471E+02  0.77806714209E+01 -0.14803402800E+04  0.14838072705E+04  0.79693243469E+02 0.  0.
         25    2    1    2    0    0 -0.86572742325E+02 -0.17261668935E+02 -0.16675562878E+02  0.15400965546E+03  0.12509234449E+03 0.  0.
         24    2    1    2    0    0  0.24402656854E+02  0.94809975137E+01  0.48956096027E+03  0.49686226961E+03  0.80726712832E+02 0.  0.
        -11    1    5    5    0    0  0.45867214884E+02  0.12081405187E+02  0.16777787475E+03  0.17435359763E+03  0.00000000000E+00 0.  1.
         12    1    5    5    0    0 -0.21464558030E+02 -0.26004076731E+01  0.32178308552E+03  0.32250867198E+03  0.00000000000E+00 0. -1.
         11    1    3    3    0    0  0.64868178591E+02  0.26979553413E+02 -0.13682636240E+04  0.13700661012E+04  0.00000000000E+00 0. -1.
        -12    1    3    3    0    0 -0.26980931200E+01 -0.19198881992E+02 -0.11207665608E+03  0.11374116939E+03  0.00000000000E+00 0.  1.
          5    1    4    4  501    0 -0.59143958829E+02 -0.63812909908E+01  0.52015774765E+02  0.79131801225E+02  0.41800000000E+01 0.  1.
         -5    1    4    4    0  501 -0.27428783496E+02 -0.10880377944E+02 -0.68691337643E+02  0.74877854239E+02  0.41800000000E+01 0.  1.
</event>
<event>
11    1  0.8974665E-009  0.2080808E+03  0.7561462E-02  0.1048952E+00
         22   -1    0    0    0    0  0.00000000000E+00  0.00000000000E+00  0.73176019898E+03  0.73176019898E+03  0.00000000000E+00 0.  1.
         22   -1    0    0    0    0 -0.00000000000E+00 -0.00000000000E+00 -0.34596208985E+03  0.34596208985E+03  0.00000000000E+00 0.  1.
         24    2    1    2    0    0  0.16848278950E+03  0.40976425626E+02 -0.25365810367E+03  0.32332574799E+03  0.10065578939E+03 0.  0.
         25    2    1    2    0    0 -0.13537929321E+03 -0.85886138186E+01  0.10538906662E+03  0.21249315513E+03  0.12508064717E+03 0.  0.
        -24    2    1    2    0    0 -0.33103496288E+02 -0.32387811808E+02  0.53406714619E+03  0.54190338571E+03  0.79289034462E+02 0.  0.
        -11    1    3    3    0    0  0.69332666315E+02  0.48595280945E+02 -0.18207653421E+03  0.20079936319E+03  0.00000000000E+00 0.  1.
         12    1    3    3    0    0  0.99150123186E+02 -0.76188553190E+01 -0.71581569463E+02  0.12252638480E+03  0.00000000000E+00 0. -1.
         13    1    5    5    0    0 -0.44507960419E+02 -0.22585222602E+02  0.16158072653E+03  0.16911351810E+03  0.00000000000E+00 0. -1.
        -14    1    5    5    0    0  0.11404464131E+02 -0.98025892059E+01  0.37248641966E+03  0.37278986761E+03  0.00000000000E+00 0.  1.
          5    1    4    4  501    0  0.23997388351E+02  0.61238482662E+00  0.19203476350E+02  0.31024112667E+02  0.41800000000E+01 0. -1.
         -5    1    4    4    0  501 -0.15937668156E+03 -0.92009986452E+01  0.86185590271E+02  0.18146904246E+03  0.41800000000E+01 0. -1.
</event>
<event>
11    1  0.8974665E-009  0.2767856E+03  0.7561462E-02  0.1010525E+00
         22   -1    0    0    0    0  0.00000000000E+00  0.00000000000E+00  0.29082680506E+03  0.29082680506E+03  0.00000000000E+00 0.  1.
         22   -1    0    0    0    0 -0.00000000000E+00 -0.00000000000E+00 -0.11725868191E+04  0.11725868191E+04  0.00000000000E+00 0. -1.
        -24    2    1    2    0    0  0.15177938171E+03 -0.19644559456E+03 -0.88939932095E+03  0.92682149878E+03  0.79618378291E+02 0.  0.
         25    2    1    2    0    0 -0.26247687510E+03  0.90683486753E+02 -0.11363680924E+03  0.32508271870E+03  0.12509134601E+03 0.  0.
         24    2    1    2    0    0  0.11069749339E+03  0.10576210781E+03  0.12127611610E+03  0.21150940674E+03  0.81171265296E+02 0.  0.
        -13    1    5    5    0    0  0.10309636429E+03  0.11925239357E+03  0.10770685596E+03  0.19092082266E+03  0.00000000000E+00 0.  1.
         14    1    5    5    0    0  0.76011291019E+01 -0.13490285765E+02  0.13569260142E+02  0.20588584081E+02  0.00000000000E+00 0. -1.
         13    1    3    3    0    0  0.58442814703E+02 -0.43981880918E+02 -0.37973996141E+03  0.38672006249E+03  0.00000000000E+00 0. -1.
        -14    1    3    3    0    0  0.93336567008E+02 -0.15246371364E+03 -0.50965935954E+03  0.54010143629E+03  0.00000000000E+00 0.  1.
          5    1    4    4  501    0  0.34217105724E+00  0.34666511184E+02 -0.21325691794E+02  0.40916275602E+02  0.41800000000E+01 0. -1.
         -5    1    4    4    0  501 -0.26281904616E+03  0.56016975569E+02 -0.92311117441E+02  0.28416644309E+03  0.41800000000E+01 0. -1.
</event>
<event>
11    1  0.8974665E-009  0.1450686E+03  0.7561462E-02  0.1102027E+00
         22   -1    0    0    0    0  0.00000000000E+00  0.00000000000E+00  0.72070340986E+03  0.72070340986E+03  0.00000000000E+00 0. -1.
         22   -1    0    0    0    0 -0.00000000000E+00 -0.00000000000E+00 -0.42620829942E+03  0.42620829942E+03  0.00000000000E+00 0. -1.
        -24    2    1    2    0    0  0.24689757971E+02 -0.27890479068E+02 -0.38433875128E+03  0.39407969910E+03  0.78708770393E+02 0.  0.
         25    2    1    2    0    0 -0.91739504296E+02  0.38432421014E+01  0.15954843919E+03  0.22256391056E+03  0.12509229662E+03 0.  0.
         24    2    1    2    0    0  0.67049746325E+02  0.24047236967E+02  0.51928542252E+03  0.53026809962E+03  0.80330376183E+02 0.  0.
        -13    1    5    5    0    0 -0.59820865162E+01 -0.15909711999E+02  0.35343352593E+02  0.39218068125E+02  0.00000000000E+00 0.  1.
         14    1    5    5    0    0  0.73031832841E+02  0.39956948966E+02  0.48394206993E+03  0.49105003149E+03  0.00000000000E+00 0. -1.
         13    1    3    3    0    0  0.35644263660E+02 -0.33835901624E+02 -0.37573271029E+03  0.37893330726E+03  0.00000000000E+00 0. -1.
        -14    1    3    3    0    0 -0.10954505689E+02  0.59454225557E+01 -0.86060409919E+01  0.15146391841E+02  0.00000000000E+00 0.  1.
          5    1    4    4  501    0  0.21837144636E+02 -0.51433076179E+01 -0.40315150109E+01  0.23174123767E+02  0.41800000000E+01 0.  1.
         -5    1    4    4    0  501 -0.11357664893E+03  0.89865497193E+01  0.16357995420E+03  0.19938978679E+03  0.41800000000E+01 0.  1.
</event>
<event>
11    1  0.8974665E-009  0.1375738E+03  0.7561462E-02  0.1110298E+00
         22   -1    0    0    0    0  0.00000000000E+00  0.00000000000E+00  0.11578047839E+03  0.11578047839E+03  0.00000000000E+00 0.  1.
         22   -1    0    0    0    0 -0.00000000000E+00 -0.00000000000E+00 -0.22479517490E+04  0.22479517490E+04  0.00000000000E+00 0.  1.
        -24    2    1    2    0    0 -0.53173539478E+01 -0.59675383493E+02 -0.20234831867E+04  0.20259383807E+04  0.79703762465E+02 0.  0.
         25    2    1    2    0    0 -0.65832630956E+01  0.15033269200E+02 -0.18129227676E+03  0.22087252840E+03  0.12509374745E+03 0.  0.
         24    2    1    2    0    0  0.11900617043E+02  0.44642114293E+02  0.72604192856E+02  0.11692131833E+03  0.79149749237E+02 0.  0.
        -11    1    5    5    0    0  0.18890676659E+02  0.27630248138E+02  0.87224719552E+02  0.93426120425E+02  0.00000000000E+00 0.  1.
         12    1    5    5    0    0 -0.69900596158E+01  0.17011866155E+02 -0.14620526696E+02  0.23495197900E+02  0.00000000000E+00 0. -1.
         13    1    3    3    0    0  0.30412822511E+02 -0.80308698057E+00 -0.70903230910E+03  0.70968471878E+03  0.00000000000E+00 0. -1.
        -14    1    3    3    0    0 -0.35730176459E+02 -0.58872296512E+02 -0.13144508776E+04  0.13162536619E+04  0.00000000000E+00 0.  1.
          5    1    4    4  501    0 -0.55403195842E+02 -0.58747263808E+01 -0.36873499534E+02  0.66941421313E+02  0.41800000000E+01 0.  1.
         -5    1    4    4    0  501  0.48819932747E+02  0.20907995581E+02 -0.14441877723E+03  0.15393110708E+03  0.41800000000E+01 0.  1.
</event>
<event>
11    1  0.2247850E-008  0.1861564E+03  0.7561462E-02  0.1064769E+00
         22   -1    0    0    0    0  0.00000000000E+00  0.00000000000E+00  0.31954361749E+03  0.31954361749E+03  0.00000000000E+00 0. -1.
         22   -1    0    0    0    0 -0.00000000000E+00 -0.00000000000E+00 -0.14164549576E+04  0.14164549576E+04  0.00000000000E+00 0. -1.
         24    2    1    2    0    0  0.57340973434E+02  0.39163693310E+02 -0.72363599809E+03  0.73013049704E+03  0.67968396073E+02 0.  0.
         25    2    1    2    0    0  0.40145452272E+02 -0.13716184190E+03 -0.65482705859E+03  0.68181659604E+03  0.12510142189E+03 0.  0.
        -24    2    1    2    0    0 -0.97486425706E+02  0.97998148593E+02  0.28155171653E+03  0.32405148205E+03  0.81429439491E+02 0.  0.
        -11    1    3    3    0    0  0.17668272895E+02 -0.67949288915E+01 -0.45481076871E+02  0.49263244707E+02  0.00000000000E+00 0.  1.
         12    1    3    3    0    0  0.39672700539E+02  0.45958622202E+02 -0.67815492122E+03  0.68086725233E+03  0.00000000000E+00 0. -1.
         11    1    5    5    0    0 -0.19172779730E+02  0.47791208474E+02  0.39994621501E+02  0.65200957347E+02  0.00000000000E+00 0. -1.
        -12    1    5    5    0    0 -0.78313645975E+02  0.50206940119E+02  0.24155709503E+03  0.25885052470E+03  0.00000000000E+00 0.  1.
          5    1    4    4  501    0  0.81864773819E+02 -0.10073067274E+03 -0.52053106808E+03  0.53648725508E+03  0.41800000000E+01 0.  1.
         -5    1    4    4    0  501 -0.41719321547E+02 -0.36431169167E+02 -0.13429599051E+03  0.14532934096E+03  0.41800000000E+01 0.  1.
</event>
<event>
11    1  0.8974665E-009  0.1334700E+03  0.7561462E-02  0.1115078E+00
         22   -1    0    0    0    0  0.00000000000E+00  0.00000000000E+00  0.45664325020E+03  0.45664325020E+03  0.00000000000E+00 0.  1.
         22   -1    0    0    0    0 -0.00000000000E+00 -0.00000000000E+00 -0.23283371608E+03  0.23283371608E+03  0.00000000000E+00 0. -1.
        -24    2    1    2    0    0 -0.27930801444E+02  0.14883895390E+02 -0.16733809697E+03  0.18866241369E+03  0.81177630101E+02 0.  0.
         25    2    1    2    0    0 -0.26152832374E+01  0.24727507302E+02  0.36243809672E+02  0.13258866106E+03  0.12509136652E+03 0.  0.
         24    2    1    2    0    0  0.30546084681E+02 -0.39611402692E+02  0.35490382142E+03  0.36822589153E+03  0.84447961632E+02 0.  0.
        -13    1    5    5    0    0  0.14394801210E+02 -0.65021105626E+02  0.21320617628E+03  0.22336478703E+03  0.00000000000E+00 0.  1.
         14    1    5    5    0    0  0.16151283472E+02  0.25409702934E+02  0.14169764514E+03  0.14486110451E+03  0.00000000000E+00 0. -1.
         11    1    3    3    0    0 -0.23054285814E+02  0.20147767523E+02 -0.17529448152E+03  0.17794827305E+03  0.00000000000E+00 0. -1.
        -12    1    3    3    0    0 -0.48765156301E+01 -0.52638721330E+01  0.79563845472E+01  0.10714140637E+02  0.00000000000E+00 0.  1.
          5    1    4    4  501    0  0.92207289899E+01 -0.14447125037E+02 -0.41244039774E+02  0.44858493976E+02  0.41800000000E+01 0. -1.
         -5    1    4    4    0  501 -0.11836012227E+02  0.39174632338E+02  0.77487849446E+02  0.87730167081E+02  0.41800000000E+01 0. -1.
</event>
<event>
11    1  0.8974665E-009  0.1385490E+03  0.7561462E-02  0.1109190E+00
         22   -1    0    0    0    0  0.00000000000E+00  0.00000000000E+00  0.34343050961E+03  0.34343050961E+03  0.00000000000E+00 0. -1.
         22   -1    0    0    0    0 -0.00000000000E+00 -0.00000000000E+00 -0.32241286590E+03  0.32241286590E+03  0.00000000000E+00 0. -1.
         24    2    1    2    0    0 -0.10818255242E+02  0.19773876189E+02 -0.21767854192E+03  0.22813305310E+03  0.64441457772E+02 0.  0.
         25    2    1    2    0    0 -0.49602531151E+02 -0.21611427652E+02 -0.38867750739E+02  0.14173847043E+03  0.12510646286E+03 0.  0.
        -24    2    1    2    0    0  0.60420786393E+02  0.18375514625E+01  0.27756393638E+03  0.29597185198E+03  0.83087606547E+02 0.  0.
        -13    1    3    3    0    0  0.23617008803E+02 -0.40042500516E+01 -0.52011863884E+02  0.57262824834E+02  0.00000000000E+00 0.  1.
         14    1    3    3    0    0 -0.34435264045E+02  0.23778126241E+02 -0.16566667804E+03  0.17087022827E+03  0.00000000000E+00 0. -1.
         13    1    5    5    0    0  0.53607675092E+02  0.29123341992E+02  0.24706333358E+03  0.25448426803E+03  0.00000000000E+00 0. -1.
        -14    1    5    5    0    0  0.68131113015E+01 -0.27285790530E+02  0.30500602801E+02  0.41487583946E+02  0.00000000000E+00 0.  1.
          5    1    4    4  501    0 -0.80791056608E+02 -0.46750089225E+02 -0.39538343365E+02  0.10145697939E+03  0.41800000000E+01 0. -1.
         -5    1    4    4    0  501  0.31188525457E+02  0.25138661573E+02  0.67059262521E+00  0.40281491040E+02  0.41800000000E+01 0. -1.
</event>
<event>
11    1  0.8974665E-009  0.1414128E+03  0.7561462E-02  0.1105991E+00
         22   -1    0    0    0    0  0.00000000000E+00  0.00000000000E+00  0.12980122030E+04  0.12980122030E+04  0.00000000000E+00 0.  1.
         22   -1    0    0    0    0 -0.00000000000E+00 -0.00000000000E+00 -0.23050698611E+03  0.23050698611E+03  0.00000000000E+00 0.  1.
        -24    2    1    2    0    0 -0.26150307882E+02 -0.47063258858E+02 -0.14314048827E+03  0.17303898973E+03  0.80959889144E+02 0.  0.
         25    2    1    2    0    0  0.91232565702E+02  0.49195459149E+02  0.23756241909E+02  0.16417252808E+03  0.12507871802E+03 0.  0.
         24    2    1    2    0    0 -0.65082257820E+02 -0.21322002910E+01  0.11868894632E+04  0.11913076713E+04  0.79165163907E+02 0.  0.
        -13    1    5    5    0    0 -0.73908655644E+02  0.19392326603E+02  0.77375302999E+03  0.77751675424E+03  0.00000000000E+00 0.  1.
         14    1    5    5    0    0  0.88263978237E+01 -0.21524526894E+02  0.41313643321E+03  0.41379091702E+03  0.00000000000E+00 0. -1.
         13    1    3    3    0    0  0.11826699889E+02 -0.91607328604E+00  0.53199834096E+01  0.13000470915E+02  0.00000000000E+00 0. -1.
        -14    1    3    3    0    0 -0.37977007771E+02 -0.46147185572E+02 -0.14846047168E+03  0.16003851882E+03  0.00000000000E+00 0.  1.
          5    1    4    4  501    0  0.11292296333E+03  0.58876026306E+01  0.97171964519E+01  0.11357004807E+03  0.41800000000E+01 0. -1.
         -5    1    4    4    0  501 -0.21690397630E+02  0.43307856518E+02  0.14039045458E+02  0.50602480008E+02  0.41800000000E+01 0. -1.
</event>
<event>
11    1  0.8974665E-009  0.1268062E+03  0.7561462E-02  0.1123257E+00
         22   -1    0    0    0    0  0.00000000000E+00  0.00000000000E+00  0.11372030476E+03  0.11372030476E+03  0.00000000000E+00 0.  1.
         22   -1    0    0    0    0 -0.00000000000E+00 -0.00000000000E+00 -0.10395503554E+04  0.10395503554E+04  0.00000000000E+00 0.  1.
         24    2    1    2    0    0 -0.31630313953E+02  0.26433211530E+02 -0.74532207736E+03  0.74985293659E+03  0.71240691191E+02 0.  0.
         25    2    1    2    0    0  0.39131610392E+02 -0.62486478196E+01 -0.25813867726E+03  0.28957251169E+03  0.12508530807E+03 0.  0.
        -24    2    1    2    0    0 -0.75012964390E+01 -0.20184563710E+02  0.77630703965E+02  0.11384521189E+03  0.80439542595E+02 0.  0.
        -13    1    3    3    0    0 -0.45037805550E+02  0.12480400077E+02 -0.68297186537E+03  0.68456901274E+03  0.00000000000E+00 0.  1.
         14    1    3    3    0    0  0.13407491597E+02  0.13952811453E+02 -0.62350211984E+02  0.65283923846E+02  0.00000000000E+00 0. -1.
         11    1    5    5    0    0 -0.54134705729E+01 -0.11359750643E+01 -0.16697710161E+02  0.17590043422E+02  0.00000000000E+00 0. -1.
        -12    1    5    5    0    0 -0.20878258662E+01 -0.19048588646E+02  0.94328414125E+02  0.96255168472E+02  0.00000000000E+00 0.  1.
          5    1    4    4  501    0 -0.35926054763E+02 -0.33982058721E+02 -0.78469355159E+02  0.92845968274E+02  0.41800000000E+01 0.  1.
         -5    1    4    4    0  501  0.75057665156E+02  0.27733410902E+02 -0.17966932210E+03  0.19672654341E+03  0.41800000000E+01 0.  1.
</event>
<event>
11    1  0.8974665E-009  0.1728213E+03  0.7561462E-02  0.1075602E+00
         22   -1    0    0    0    0  0.00000000000E+00  0.00000000000E+00  0.72333699694E+03  0.72333699694E+03  0.00000000000E+00 0.  1.
         22   -1    0    0    0    0 -0.00000000000E+00 -0.00000000000E+00 -0.25923241331E+03  0.25923241331E+03  0.00000000000E+00 0. -1.
         24    2    1    2    0    0 -0.10690997881E+03  0.53227183289E+02 -0.16135913977E+03  0.21605269920E+03  0.79869394839E+02 0.  0.
         25    2    1    2    0    0  0.13173387039E+03  0.57437135738E+01  0.59969870003E+02  0.19138992418E+03  0.12508762895E+03 0.  0.
        -24    2    1    2    0    0 -0.24823891578E+02 -0.58970896863E+02  0.56549385340E+03  0.57512678687E+03  0.83028491942E+02 0.  0.
        -11    1    3    3    0    0 -0.92247926664E+00  0.21475429421E+02 -0.67900416292E+02  0.71221566744E+02  0.00000000000E+00 0.  1.
         12    1    3    3    0    0 -0.10598749954E+03  0.31751753867E+02 -0.93458723482E+02  0.14483113245E+03  0.00000000000E+00 0. -1.
         11    1    5    5    0    0  0.27372111055E+02 -0.15049969750E+02  0.27311158830E+03  0.27489211287E+03  0.00000000000E+00 0. -1.
        -12    1    5    5    0    0 -0.52196002632E+02 -0.43920927112E+02  0.29238226510E+03  0.30023467400E+03  0.00000000000E+00 0.  1.
          5    1    4    4  501    0  0.31360541208E+02 -0.34704610422E+02  0.68172799903E+02  0.82782223792E+02  0.41800000000E+01 0.  1.
         -5    1    4    4    0  501  0.10037332918E+03  0.40448323996E+02 -0.82029299003E+01  0.10860770039E+03  0.41800000000E+01 0.  1.
</event>
<event>
11    1  0.8974665E-009  0.1472674E+03  0.7561462E-02  0.1099704E+00
         22   -1    0    0    0    0  0.00000000000E+00  0.00000000000E+00  0.80276151260E+03  0.80276151260E+03  0.00000000000E+00 0.  1.
         22   -1    0    0    0    0 -0.00000000000E+00 -0.00000000000E+00 -0.28895820057E+04  0.28895820057E+04  0.00000000000E+00 0.  1.
         24    2    1    2    0    0 -0.76668396717E+02  0.11858532138E+02 -0.27899379007E+04  0.27920119531E+04  0.74555943929E+02 0.  0.
         25    2    1    2    0    0  0.75698962869E+02 -0.64446849893E+02 -0.28863113752E+02  0.16238342438E+03  0.12510622581E+03 0.  0.
        -24    2    1    2    0    0  0.96943384760E+00  0.52588317756E+02  0.73198052133E+03  0.73794814083E+03  0.77495186752E+02 0.  0.
        -11    1    3    3    0    0 -0.90920049831E+02  0.13519288556E+02 -0.22365961015E+04  0.22384841630E+04  0.00000000000E+00 0.  1.
         12    1    3    3    0    0  0.14251653114E+02 -0.16607564190E+01 -0.55334179918E+03  0.55352779013E+03  0.00000000000E+00 0. -1.
         11    1    5    5    0    0 -0.33214686114E+02  0.39457644469E+02  0.29844768911E+03  0.30287149786E+03  0.00000000000E+00 0. -1.
        -12    1    5    5    0    0  0.34184119962E+02  0.13130673287E+02  0.43353283222E+03  0.43507664297E+03  0.00000000000E+00 0.  1.
          5    1    4    4  501    0  0.39133542380E+02 -0.71702594590E+02 -0.69316416004E+02  0.10721443064E+03  0.41800000000E+01 0.  1.
         -5    1    4    4    0  501  0.36565420489E+02  0.72557446971E+01  0.40453302252E+02  0.55168993735E+02  0.41800000000E+01 0.  1.
</event>
<event>
11    1  0.8974665E-009  0.2008253E+03  0.7561462E-02  0.1053942E+00
         22   -1    0    0    0    0  0.00000000000E+00  0.00000000000E+00  0.10816499014E+04  0.10816499014E+04  0.00000000000E+00 0. -1.
         22   -1    0    0    0    0 -0.00000000000E+00 -0.00000000000E+00 -0.11459634779E+03  0.11459634779E+03  0.00000000000E+00 0.  1.
        -24    2    1    2    0    0 -0.19408330549E+02 -0.42537226893E+02 -0.41969274934E+01  0.93084411642E+02  0.80380311792E+02 0.  0.
         25    2    1    2    0    0  0.16752205813E+03 -0.73378797534E+01  0.13677229901E+03  0.24994329721E+03  0.12508999002E+03 0.  0.
         24    2    1    2    0    0 -0.14811372759E+03  0.49875106646E+02  0.83447818207E+03  0.85321854032E+03  0.84869538820E+02 0.  0.
        -13    1    5    5    0    0 -0.30124054232E+02  0.51369777427E+02  0.30344457008E+03  0.30923279223E+03  0.00000000000E+00 0.  1.
         14    1    5    5    0    0 -0.11798967335E+03 -0.14946707809E+01  0.53103361199E+03  0.54398574809E+03  0.00000000000E+00 0. -1.
         13    1    3    3    0    0  0.28821593870E+02 -0.31444580868E+02  0.43000351348E+01  0.42871158619E+02  0.00000000000E+00 0. -1.
        -14    1    3    3    0    0 -0.48229924418E+02 -0.11092646025E+02 -0.84969626282E+01  0.50213253023E+02  0.00000000000E+00 0.  1.
          5    1    4    4  501    0  0.17289424597E+02  0.75724872209E+01 -0.23027679436E+02  0.30066812033E+02  0.41800000000E+01 0. -1.
         -5    1    4    4    0  501  0.15023263354E+03 -0.14910366974E+02  0.15979997844E+03  0.21987648517E+03  0.41800000000E+01 0. -1.
</event>
<event>
11    1  0.8974665E-009  0.1494477E+03  0.7561462E-02  0.1097445E+00
         22   -1    0    0    0    0  0.00000000000E+00  0.00000000000E+00  0.37703149927E+03  0.37703149927E+03  0.00000000000E+00 0. -1.
         22   -1    0    0    0    0 -0.00000000000E+00 -0.00000000000E+00 -0.90272275621E+03  0.90272275621E+03  0.00000000000E+00 0.  1.
         24    2    1    2    0    0  0.11476527373E+02 -0.18565179812E+01 -0.73544661146E+03  0.73988405169E+03  0.80072056841E+02 0.  0.
         25    2    1    2    0    0  0.61436873142E+02 -0.36666537502E+02 -0.12117247389E+03  0.18827926951E+03  0.12508953012E+03 0.  0.
        -24    2    1    2    0    0 -0.72913400515E+02  0.38523055483E+02  0.33092782841E+03  0.35159093428E+03  0.85455062290E+02 0.  0.
        -13    1    3    3    0    0 -0.15665785611E+02 -0.34138674880E+02 -0.40973766881E+03  0.41145573663E+03  0.00000000000E+00 0.  1.
         14    1    3    3    0    0  0.27142312984E+02  0.32282156899E+02 -0.32570894266E+03  0.32842831506E+03  0.00000000000E+00 0. -1.
         13    1    5    5    0    0 -0.76449317826E+02  0.57087154856E+02  0.30452359348E+03  0.31912076152E+03  0.00000000000E+00 0. -1.
        -14    1    5    5    0    0  0.35359173117E+01 -0.18564099373E+02  0.26404234931E+02  0.32470172760E+02  0.00000000000E+00 0.  1.
          5    1    4    4  501    0  0.33936255699E+01  0.24685542316E+02  0.13962903007E+02  0.28867416827E+02  0.41800000000E+01 0.  1.
         -5    1    4    4    0  501  0.58043247572E+02 -0.61352079817E+02 -0.13513537690E+03  0.15941185269E+03  0.41800000000E+01 0.  1.
</event>
<event>
11    1  0.8974665E-009  0.3219289E+03  0.7561462E-02  0.9913150E-01
         22   -1    0    0    0    0  0.00000000000E+00  0.00000000000E+00  0.19934042363E+04  0.19934042363E+04  0.00000000000E+00 0. -1.
         22   -1    0    0    0    0 -0.00000000000E+00 -0.00000000000E+00 -0.56714311770E+03  0.56714311770E+03  0.00000000000E+00 0.  1.
        -24    2    1    2    0    0 -0.11792577928E+03  0.68901416741E+02 -0.49600067950E+03  0.52038583855E+03  0.78299758944E+02 0.  0.
         25    2    1    2    0    0  0.36715044888E+03  0.29344459815E+02  0.89946576240E+03  0.97997318023E+03  0.12509287273E+03 0.  0.
         24    2    1    2    0    0 -0.24922466960E+03 -0.98245876555E+02  0.10227960357E+04  0.10601883352E+04  0.78245685503E+02 0.  0.
        -13    1    5    5    0    0 -0.14332036770E+03 -0.36666119577E+02  0.42621203104E+03  0.45115610106E+03  0.00000000000E+00 0.  1.
         14    1    5    5    0    0 -0.10590430190E+03 -0.61579756979E+02  0.59658400462E+03  0.60903223412E+03  0.00000000000E+00 0. -1.
         11    1    3    3    0    0 -0.42180559825E+02 -0.13239408675E+02 -0.17487919574E+03  0.18038074917E+03  0.00000000000E+00 0. -1.
        -12    1    3    3    0    0 -0.75745219459E+02  0.82140825416E+02 -0.32112148376E+03  0.34000508937E+03  0.00000000000E+00 0.  1.
          5    1    4    4  501    0  0.29467834170E+03  0.15294714820E+02  0.56493116901E+03  0.63736484959E+03  0.41800000000E+01 0.  1.
         -5    1    4    4    0  501  0.72472107180E+02  0.14049744994E+02  0.33453459339E+03  0.34260833064E+03  0.41800000000E+01 0.  1.
</event>
<event>
11    1  0.8974665E-009  0.2797398E+03  0.7561462E-02  0.1009150E+00
         22   -1    0    0    0    0  0.00000000000E+00  0.00000000000E+00  0.38265192308E+03  0.38265192308E+03  0.00000000000E+00 0.  1.
         22   -1    0    0    0    0 -0.00000000000E+00 -0.00000000000E+00 -0.13498446492E+04  0.13498446492E+04  0.00000000000E+00 0. -1.
        -24    2    1    2    0    0 -0.10879346092E+03  0.22530983922E+03 -0.11642640752E+04  0.11935313049E+04  0.80034979857E+02 0.  0.
         25    2    1    2    0    0  0.12488230522E+03 -0.21770289242E+03 -0.44372734811E+02  0.28390348800E+03  0.12506842678E+03 0.  0.
         24    2    1    2    0    0 -0.16088844303E+02 -0.76069467946E+01  0.24144408395E+03  0.25506177940E+03  0.80277948944E+02 0.  0.
        -13    1    5    5    0    0  0.19598651167E+02  0.20774962978E+02  0.15206223062E+03  0.15472113041E+03  0.00000000000E+00 0.  1.
         14    1    5    5    0    0 -0.35687495470E+02 -0.28381909773E+02  0.89381853323E+02  0.10034064898E+03  0.00000000000E+00 0. -1.
         11    1    3    3    0    0 -0.48779369438E+02  0.44964740964E+02 -0.20008648519E+03  0.21079814128E+03  0.00000000000E+00 0. -1.
        -12    1    3    3    0    0 -0.60014091483E+02  0.18034509825E+03 -0.96417759005E+03  0.98273316358E+03  0.00000000000E+00 0.  1.
          5    1    4    4  501    0  0.37653715029E+02 -0.79957418261E+02  0.43553016294E+02  0.98617080766E+02  0.41800000000E+01 0.  1.
         -5    1    4    4    0  501  0.87228590195E+02 -0.13774547416E+03 -0.87925751105E+02  0.18528640724E+03  0.41800000000E+01 0.  1.
</event>
<event>
11    1  0.8974665E-009  0.1477716E+03  0.7561462E-02  0.1099178E+00
         22   -1    0    0    0    0  0.00000000000E+00  0.00000000000E+00  0.54867323168E+03  0.54867323168E+03  0.00000000000E+00 0.  1.
         22   -1    0    0    0    0 -0.00000000000E+00 -0.00000000000E+00 -0.14551485739E+04  0.14551485739E+04  0.00000000000E+00 0.  1.
         24    2    1    2    0    0 -0.13426642919E+02  0.26098354419E+02 -0.11976240640E+04  0.12006766247E+04  0.80371385660E+02 0.  0.
         25    2    1    2    0    0 -0.29370096009E+02 -0.91719863541E+02 -0.22506039019E+03  0.27490371498E+03  0.12507892455E+03 0.  0.
        -24    2    1    2    0    0  0.42796738929E+02  0.65621509122E+02  0.51620911194E+03  0.52824146592E+03  0.80183887045E+02 0.  0.
        -13    1    3    3    0    0 -0.20855520524E+02  0.53363122229E+02 -0.81066924710E+03  0.81269133363E+03  0.00000000000E+00 0.  1.
         14    1    3    3    0    0  0.74288776042E+01 -0.27264767810E+02 -0.38695481690E+03  0.38798529110E+03  0.00000000000E+00 0. -1.
         13    1    5    5    0    0 -0.84664125924E+01  0.29608815463E+02  0.57076275103E+02  0.64854169295E+02  0.00000000000E+00 0. -1.
        -14    1    5    5    0    0  0.51263151521E+02  0.36012693659E+02  0.45913283684E+03  0.46338729662E+03  0.00000000000E+00 0.  1.
          5    1    4    4  501    0 -0.24520958245E+02 -0.12028951459E+03 -0.14719097183E+03  0.19171202180E+03  0.41800000000E+01 0. -1.
         -5    1    4    4    0  501 -0.48491377643E+01  0.28569651049E+02 -0.77869418359E+02  0.83191693178E+02  0.41800000000E+01 0. -1.
</event>
<event>
11    1  0.8974665E-009  0.1571226E+03  0.7561462E-02  0.1089815E+00
         22   -1    0    0    0    0  0.00000000000E+00  0.00000000000E+00  0.42629764579E+03  0.42629764579E+03  0.00000000000E+00 0. -1.
         22   -1    0    0    0    0 -0.00000000000E+00 -0.00000000000E+00 -0.32161232958E+03  0.32161232958E+03  0.00000000000E+00 0.  1.
         24    2    1    2    0    0  0.24122613524E+02  0.77954617410E+02 -0.23932615398E+03  0.26423694542E+03  0.76715920688E+02 0.  0.
         25    2    1    2    0    0 -0.57843063124E+02  0.24765743858E+02  0.32421765150E+02  0.14372346651E+03  0.12508437931E+03 0.  0.
        -24    2    1    2    0    0  0.33720449600E+02 -0.10272036127E+03  0.31158970504E+03  0.33994956345E+03  0.82395509951E+02 0.  0.
        -11    1    3    3    0    0  0.37048465218E+02  0.65217286544E+02 -0.23338560270E+03  0.24514225010E+03  0.00000000000E+00 0.  1.
         12    1    3    3    0    0 -0.12925851694E+02  0.12737330867E+02 -0.59405512801E+01  0.19094695314E+02  0.00000000000E+00 0. -1.
         11    1    5    5    0    0  0.45159547817E+02 -0.10986987657E+03  0.29799162743E+03  0.32079554946E+03  0.00000000000E+00 0. -1.
        -12    1    5    5    0    0 -0.11439098217E+02  0.71495152994E+01  0.13598077610E+02  0.19154013985E+02  0.00000000000E+00 0.  1.
          5    1    4    4  501    0 -0.17259247008E+02 -0.49073135769E+02 -0.28973895821E+01  0.52267786714E+02  0.41800000000E+01 0.  1.
         -5    1    4    4    0  501 -0.40583816115E+02  0.73838879628E+02  0.35319154732E+02  0.91455679792E+02  0.41800000000E+01 0.  1.
</event>
<event>
11    1  0.8974665E-009  0.2091221E+03  0.7561462E-02  0.1048254E+00
         22   -1    0    0    0    0  0.00000000000E+00  0.00000000000E+00  0.63617779162E+03  0.63617779162E+03  0.00000000000E+00 0. -1.
         22   -1    0    0    0    0 -0.00000000000E+00 -0.00000000000E+00 -0.11235959526E+04  0.11235959526E+04  0.00000000000E+00 0.  1.
         24    2    1    2    0    0 -0.13174180054E+03  0.77694351533E+02 -0.72107364707E+03  0.74134116067E+03  0.79039216461E+02 0.  0.
         25    2    1    2    0    0  0.19557032822E+03 -0.12676679802E+03 -0.34154145651E+03  0.43199097118E+03  0.12509219923E+03 0.  0.
        -24    2    1    2    0    0 -0.63828527682E+02  0.49072446491E+02  0.57519694265E+03  0.58644161232E+03  0.81117543600E+02 0.  0.
        -13    1    3    3    0    0 -0.55143742972E+02  0.56893550687E+02 -0.21608910385E+03  0.23015692321E+03  0.00000000000E+00 0.  1.
         14    1    3    3    0    0 -0.76598057566E+02  0.20800800846E+02 -0.50498454322E+03  0.51118423746E+03  0.00000000000E+00 0. -1.
         11    1    5    5    0    0  0.54451695198E+01  0.91694684401E+01  0.29152355949E+03  0.29171855402E+03  0.00000000000E+00 0. -1.
        -12    1    5    5    0    0 -0.69273697202E+02  0.39902978051E+02  0.28367338316E+03  0.29472305830E+03  0.00000000000E+00 0.  1.
          5    1    4    4  501    0  0.11331341984E+03 -0.74111604620E+02 -0.29310340461E+03  0.32289245772E+03  0.41800000000E+01 0.  1.
         -5    1    4    4    0  501  0.82256908382E+02 -0.52655193404E+02 -0.48438051899E+02  0.10909851347E+03  0.41800000000E+01 0.  1.
</event>
<event>
11    1  0.8974665E-009  0.1305391E+03  0.7561462E-02  0.1118608E+00
         22   -1    0    0    0    0  0.00000000000E+00  0.00000000000E+00  0.85640121481E+02  0.85640121481E+02  0.00000000000E+00 0. -1.
         22   -1    0    0    0    0 -0.00000000000E+00 -0.00000000000E+00 -0.10142069801E+04  0.10142069801E+04  0.00000000000E+00 0.  1.
         24    2    1    2    0    0 -0.39924067874E+02  0.20478254501E+01 -0.80130648506E+03  0.80618540809E+03  0.79023442385E+02 0.  0.
         25    2    1    2    0    0  0.13612080886E+02  0.29969333755E+02 -0.15210504916E+03  0.19966475183E+03  0.12508643984E+03 0.  0.
        -24    2    1    2    0    0  0.26311986988E+02 -0.32017159206E+02  0.24844675645E+02  0.93996941611E+02  0.80627216133E+02 0.  0.
        -11    1    3    3    0    0 -0.21028291124E+02 -0.51794400097E+01 -0.75881146115E+03  0.75912044446E+03  0.00000000000E+00 0.  1.
         12    1    3    3    0    0 -0.18895776750E+02  0.72272654598E+01 -0.42495023908E+02  0.47064963635E+02  0.00000000000E+00 0. -1.
         11    1    5    5    0    0 -0.17610292499E+02 -0.17147071199E+02  0.38482127215E+02  0.45662003543E+02  0.00000000000E+00 0. -1.
        -12    1    5    5    0    0  0.43922279487E+02 -0.14870088007E+02 -0.13637451570E+02  0.48334938068E+02  0.00000000000E+00 0.  1.
          5    1    4    4  501    0 -0.15932080667E+02  0.72600971565E+02 -0.10950773560E+03  0.13241657307E+03  0.41800000000E+01 0. -1.
         -5    1    4    4    0  501  0.29544161553E+02 -0.42631637810E+02 -0.42597313555E+02  0.67248178758E+02  0.41800000000E+01 0. -1.
</event>
<event>
11    1  0.8974665E-009  0.1624558E+03  0.7561462E-02  0.1084790E+00
         22   -1    0    0    0    0  0.00000000000E+00  0.00000000000E+00  0.24249578757E+04  0.24249578757E+04  0.00000000000E+00 0.  1.
         22   -1    0    0    0    0 -0.00000000000E+00 -0.00000000000E+00 -0.10157710657E+03  0.10157710657E+03  0.00000000000E+00 0. -1.
         24    2    1    2    0    0 -0.34998123047E+02  0.36788271989E+02 -0.67568120265E+02  0.11620028597E+03  0.79742147010E+02 0.  0.
         25    2    1    2    0    0  0.12671315853E+03 -0.26841845759E+02  0.12611959907E+04  0.12739856772E+04  0.12508984575E+03 0.  0.
        -24    2    1    2    0    0 -0.91715035486E+02 -0.99464262300E+01  0.11297528987E+04  0.11363490191E+04  0.80230306028E+02 0.  0.
        -13    1    3    3    0    0 -0.12446095982E+02 -0.24692100627E+02 -0.11339058983E+02  0.29886107093E+02  0.00000000000E+00 0.  1.
         14    1    3    3    0    0 -0.22552027065E+02  0.61480372617E+02 -0.56229061282E+02  0.86314178873E+02  0.00000000000E+00 0. -1.
         11    1    5    5    0    0 -0.15239016444E+02 -0.23573424349E+02  0.10601593272E+03  0.10966910207E+03  0.00000000000E+00 0. -1.
        -12    1    5    5    0    0 -0.76476019042E+02  0.13626998119E+02  0.10237369660E+04  0.10266799171E+04  0.00000000000E+00 0.  1.
          5    1    4    4  501    0  0.63792185287E+02 -0.18765634738E+02  0.10782810181E+04  0.10803374558E+04  0.41800000000E+01 0.  1.
         -5    1    4    4    0  501  0.62920973246E+02 -0.80762110214E+01  0.18291497260E+03  0.19364822142E+03  0.41800000000E+01 0.  1.
</event>
<event>
11    1  0.8974665E-009  0.1347499E+03  0.7561462E-02  0.1113567E+00
         22   -1    0    0    0    0  0.00000000000E+00  0.00000000000E+00  0.56198275200E+03  0.56198275200E+03  0.00000000000E+00 0. -1.
         22   -1    0    0    0    0 -0.00000000000E+00 -0.00000000000E+00 -0.89781964206E+02  0.89781964206E+02  0.00000000000E+00 0. -1.
        -24    2    1    2    0    0  0.46564984241E+02 -0.44999879086E+01  0.16311521175E+01  0.93888152106E+02  0.81386588577E+02 0.  0.
         25    2    1    2    0    0 -0.49030858129E+02  0.52060494082E+02  0.99151439177E+02  0.17490808600E+03  0.12509000985E+03 0.  0.
         24    2    1    2    0    0  0.24658738882E+01 -0.47560506174E+02  0.37141819650E+03  0.38296847810E+03  0.80282602395E+02 0.  0.
        -13    1    5    5    0    0 -0.23731040960E+02 -0.41738296795E+02  0.10805855352E+03  0.11824507902E+03  0.00000000000E+00 0.  1.
         14    1    5    5    0    0  0.26196914848E+02 -0.58222093790E+01  0.26335964297E+03  0.26472339907E+03  0.00000000000E+00 0. -1.
         11    1    3    3    0    0  0.47430022811E+02  0.31217159270E+02 -0.67774615835E+01  0.57184369213E+02  0.00000000000E+00 0. -1.
        -12    1    3    3    0    0 -0.86503857018E+00 -0.35717147179E+02  0.84086137010E+01  0.36703782894E+02  0.00000000000E+00 0.  1.
          5    1    4    4  501    0  0.30415680251E+02  0.54210141112E+02  0.28592223913E+02  0.68548090220E+02  0.41800000000E+01 0. -1.
         -5    1    4    4    0  501 -0.79446538380E+02 -0.21496470296E+01  0.70559215264E+02  0.10635999578E+03  0.41800000000E+01 0. -1.
</event>
<event>
11    1  0.9970674E-009  0.1770059E+03  0.7561462E-02  0.1072091E+00
         22   -1    0    0    0    0  0.00000000000E+00  0.00000000000E+00  0.39526810698E+03  0.39526810698E+03  0.00000000000E+00 0.  1.
         22   -1    0    0    0    0 -0.00000000000E+00 -0.00000000000E+00 -0.99859685172E+03  0.99859685172E+03  0.00000000000E+00 0. -1.
        -24    2    1    2    0    0 -0.32130524033E+02 -0.49650962002E+02 -0.58567571378E+03  0.59421961710E+03  0.81137679469E+02 0.  0.
         25    2    1    2    0    0  0.14787110766E+03  0.29681175648E+01 -0.36971714889E+03  0.41738842400E+03  0.12509057557E+03 0.  0.
         24    2    1    2    0    0 -0.11574058363E+03  0.46682844437E+02  0.35206411793E+03  0.38225691761E+03  0.81215991397E+02 0.  0.
        -13    1    5    5    0    0 -0.94122860296E+02 -0.27803203403E+00  0.18808660382E+03  0.21032299129E+03  0.00000000000E+00 0.  1.
         14    1    5    5    0    0 -0.21617723333E+02  0.46960876471E+02  0.16397751412E+03  0.17193392631E+03  0.00000000000E+00 0. -1.
         11    1    3    3    0    0 -0.54149256994E+02 -0.10910993948E+02 -0.29138341438E+03  0.29657290166E+03  0.00000000000E+00 0. -1.
        -12    1    3    3    0    0  0.22018732961E+02 -0.38739968054E+02 -0.29429229940E+03  0.29764671544E+03  0.00000000000E+00 0.  1.
          5    1    4    4  501    0  0.43682584032E+02 -0.49213673053E+02 -0.71885039150E+02  0.97545297256E+02  0.41800000000E+01 0. -1.
         -5    1    4    4    0  501  0.10418852363E+03  0.52181790618E+02 -0.29783210974E+03  0.31984312674E+03  0.41800000000E+01 0. -1.
</event>
<event>
11    1  0.8974665E-009  0.1288303E+03  0.7561462E-02  0.1120715E+00
         22   -1    0    0    0    0  0.00000000000E+00  0.00000000000E+00  0.26171126015E+03  0.26171126015E+03  0.00000000000E+00 0.  1.
         22   -1    0    0    0    0 -0.00000000000E+00 -0.00000000000E+00 -0.11456619779E+04  0.11456619779E+04  0.00000000000E+00 0. -1.
        -24    2    1    2    0    0  0.19816222289E+02 -0.30743659904E+02 -0.61300404079E+03  0.61933906686E+03  0.80430531658E+02 0.  0.
         25    2    1    2    0    0  0.52496187447E+01  0.21844195359E+02 -0.51485281948E+03  0.53030714000E+03  0.12509000618E+03 0.  0.
         24    2    1    2    0    0 -0.25065841034E+02  0.88994645455E+01  0.24390614249E+03  0.25772703121E+03  0.78901960773E+02 0.  0.
        -11    1    5    5    0    0 -0.34479066184E+02 -0.75891449484E+01  0.23334575048E+03  0.23600135676E+03  0.00000000000E+00 0.  1.
         12    1    5    5    0    0  0.94132251502E+01  0.16488609494E+02  0.10560392015E+02  0.21725674449E+02  0.00000000000E+00 0. -1.
         13    1    3    3    0    0  0.32855902917E+02 -0.15491897595E+02 -0.57682721689E+03  0.57796984990E+03  0.00000000000E+00 0. -1.
        -14    1    3    3    0    0 -0.13039680628E+02 -0.15251762310E+02 -0.36176823907E+02  0.41369216967E+02  0.00000000000E+00 0.  1.
          5    1    4    4  501    0 -0.24578090605E+02  0.31335374905E+02 -0.48564013914E+03  0.48728821595E+03  0.41800000000E+01 0.  1.
         -5    1    4    4    0  501  0.29827709349E+02 -0.94911795463E+01 -0.29212680336E+02  0.43018924053E+02  0.41800000000E+01 0.  1.
</event>
<event>
11    1  0.8974665E-009  0.1926220E+03  0.7561462E-02  0.1059867E+00
         22   -1    0    0    0    0  0.00000000000E+00  0.00000000000E+00  0.21605158514E+03  0.21605158514E+03  0.00000000000E+00 0.  1.
         22   -1    0    0    0    0 -0.00000000000E+00 -0.00000000000E+00 -0.49943322666E+03  0.49943322666E+03  0.00000000000E+00 0.  1.
         24    2    1    2    0    0 -0.43376931946E+02  0.14015443263E+03 -0.36275621691E+03  0.39956143426E+03  0.80823533886E+02 0.  0.
         25    2    1    2    0    0  0.50274437091E+02 -0.13654580614E+03 -0.15295132449E+02  0.19249390069E+03  0.12509070520E+03 0.  0.
        -24    2    1    2    0    0 -0.68975051453E+01 -0.36086264932E+01  0.94669707836E+02  0.12342947684E+03  0.78815508690E+02 0.  0.
        -11    1    3    3    0    0 -0.65805283046E+02  0.12003647824E+03 -0.28496626292E+03  0.31614057378E+03  0.00000000000E+00 0.  1.
         12    1    3    3    0    0  0.22428351100E+02  0.20117954388E+02 -0.77789953994E+02  0.83420860486E+02  0.00000000000E+00 0. -1.
         11    1    5    5    0    0 -0.21616044345E+02  0.11774573418E+02 -0.17596904307E+01  0.24677732122E+02  0.00000000000E+00 0. -1.
        -12    1    5    5    0    0  0.14718539200E+02 -0.15383199911E+02  0.96429398267E+02  0.98751744723E+02  0.00000000000E+00 0.  1.
          5    1    4    4  501    0 -0.10170053026E+02 -0.59496921514E+02 -0.59598886473E+02  0.84928283375E+02  0.41800000000E+01 0. -1.
         -5    1    4    4    0  501  0.60444490117E+02 -0.77048884624E+02  0.44303754024E+02  0.10756561731E+03  0.41800000000E+01 0. -1.
</event>
<event>
11    1  0.8974665E-009  0.1459488E+03  0.7561462E-02  0.1101092E+00
         22   -1    0    0    0    0  0.00000000000E+00  0.00000000000E+00  0.94032524224E+03  0.94032524224E+03  0.00000000000E+00 0.  1.
         22   -1    0    0    0    0 -0.00000000000E+00 -0.00000000000E+00 -0.17842899441E+03  0.17842899441E+03  0.00000000000E+00 0. -1.
         24    2    1    2    0    0  0.37873772172E+02 -0.21300737561E+01 -0.89556114751E+02  0.12635629211E+03  0.80663839696E+02 0.  0.
         25    2    1    2    0    0  0.29157565867E+02 -0.35659910775E+02 -0.36261886804E+00  0.13329881070E+03  0.12508656426E+03 0.  0.
        -24    2    1    2    0    0 -0.67031338039E+02  0.37789984531E+02  0.85181498144E+03  0.85909913383E+03  0.80878154852E+02 0.  0.
        -11    1    3    3    0    0 -0.76554218988E+01 -0.27706390639E+02 -0.85727110558E+01  0.29995682048E+02  0.00000000000E+00 0.  1.
         12    1    3    3    0    0  0.45529194071E+02  0.25576316883E+02 -0.80983403695E+02  0.96360610065E+02  0.00000000000E+00 0. -1.
         13    1    5    5    0    0  0.13673307816E+01 -0.63632742319E+01  0.45724139611E+01  0.79541072314E+01  0.00000000000E+00 0. -1.
        -14    1    5    5    0    0 -0.68398668821E+02  0.44153258763E+02  0.84724256748E+03  0.85114502660E+03  0.00000000000E+00 0.  1.
          5    1    4    4  501    0  0.96568048911E+01 -0.73187454864E+02  0.31310722433E+02  0.80296271205E+02  0.41800000000E+01 0.  1.
         -5    1    4    4    0  501  0.19500760976E+02  0.37527544089E+02 -0.31673341301E+02  0.53002539498E+02  0.41800000000E+01 0.  1.
</event>
<event>
11    1  0.8974665E-009  0.2246327E+03  0.7561462E-02  0.1038354E+00
         22   -1    0    0    0    0  0.00000000000E+00  0.00000000000E+00  0.34961274794E+03  0.34961274794E+03  0.00000000000E+00 0. -1.
         22   -1    0    0    0    0 -0.00000000000E+00 -0.00000000000E+00 -0.33959072457E+03  0.33959072457E+03  0.00000000000E+00 0.  1.
        -24    2    1    2    0    0 -0.20755847153E+03  0.16849023049E+03 -0.48472764107E+02  0.28348564375E+03  0.80901325567E+02 0.  0.
         25    2    1    2    0    0  0.14512465890E+03  0.83215547181E+01 -0.39724816950E+01  0.19181839632E+03  0.12509237252E+03 0.  0.
         24    2    1    2    0    0  0.62433812625E+02 -0.17681178521E+03  0.62467269178E+02  0.21389943244E+03  0.81794982298E+02 0.  0.
        -13    1    5    5    0    0  0.43709953275E+01  0.89267575193E+01  0.22198718904E+01  0.10184322814E+02  0.00000000000E+00 0.  1.
         14    1    5    5    0    0  0.58062817298E+02 -0.18573854273E+03  0.60247397287E+02  0.20371510962E+03  0.00000000000E+00 0. -1.
         11    1    3    3    0    0 -0.10740952196E+03  0.77432661262E+02  0.16334878607E+02  0.13341458202E+03  0.00000000000E+00 0. -1.
        -12    1    3    3    0    0 -0.10014894957E+03  0.91057569233E+02 -0.64807642714E+02  0.15007106173E+03  0.00000000000E+00 0.  1.
          5    1    4    4  501    0  0.11194035462E+03 -0.49934514403E+02  0.10532512681E+02  0.12309551147E+03  0.41800000000E+01 0. -1.
         -5    1    4    4    0  501  0.33184304279E+02  0.58256069121E+02 -0.14504994376E+02  0.68722884847E+02  0.41800000000E+01 0. -1.
</event>
<event>
11    1  0.8974665E-009  0.1896247E+03  0.7561462E-02  0.1062113E+00
         22   -1    0    0    0    0  0.00000000000E+00  0.00000000000E+00  0.67148571364E+02  0.67148571364E+02  0.00000000000E+00 0. -1.
         22   -1    0    0    0    0 -0.00000000000E+00 -0.00000000000E+00 -0.26112573538E+04  0.26112573538E+04  0.00000000000E+00 0. -1.
         24    2    1    2    0    0 -0.37981447450E+02 -0.12638666849E+03 -0.18220372051E+04  0.18287361733E+04  0.83906105114E+02 0.  0.
         25    2    1    2    0    0  0.90821273359E+02  0.19108755972E+03 -0.68616197850E+03  0.72885645163E+03  0.12510198709E+03 0.  0.
        -24    2    1    2    0    0 -0.52839825909E+02 -0.64700891227E+02 -0.35909598825E+02  0.12081330021E+03  0.79549366386E+02 0.  0.
        -11    1    3    3    0    0 -0.63440212320E+02 -0.71607412471E+02 -0.10598110749E+04  0.10641201983E+04  0.00000000000E+00 0.  1.
         12    1    3    3    0    0  0.25458764870E+02 -0.54779256021E+02 -0.76222613022E+03  0.76461597498E+03  0.00000000000E+00 0. -1.
         13    1    5    5    0    0 -0.68684302421E+02 -0.50898934819E+02 -0.46463429273E+02  0.97298947705E+02  0.00000000000E+00 0. -1.
        -14    1    5    5    0    0  0.15844476512E+02 -0.13801956408E+02  0.10553830448E+02  0.23514352506E+02  0.00000000000E+00 0.  1.
          5    1    4    4  501    0 -0.19972258902E+02  0.47914198265E+02 -0.74109438735E+02  0.90577827478E+02  0.41800000000E+01 0. -1.
         -5    1    4    4    0  501  0.11079353226E+03  0.14317336145E+03 -0.61205253976E+03  0.63827862415E+03  0.41800000000E+01 0. -1.
</event>
<event>
11    1  0.8974665E-009  0.1959517E+03  0.7561462E-02  0.1057424E+00
         22   -1    0    0    0    0  0.00000000000E+00  0.00000000000E+00  0.14502400376E+04  0.14502400376E+04  0.00000000000E+00 0.  1.
         22   -1    0    0    0    0 -0.00000000000E+00 -0.00000000000E+00 -0.14189261104E+04  0.14189261104E+04  0.00000000000E+00 0.  1.
         24    2    1    2    0    0  0.40849106674E+02 -0.14573761207E+03 -0.13875971876E+04  0.13979447013E+04  0.76911195426E+02 0.  0.
         25    2    1    2    0    0 -0.43151456749E+02  0.11152728215E+03  0.28094875993E+03  0.32997599649E+03  0.12510623354E+03 0.  0.
        -24    2    1    2    0    0  0.23023500753E+01  0.34210329925E+02  0.11379623548E+04  0.11412454502E+04  0.79417939760E+02 0.  0.
        -13    1    3    3    0    0  0.34753431498E+02 -0.15135853096E+03 -0.13661846874E+04  0.13749828384E+04  0.00000000000E+00 0.  1.
         14    1    3    3    0    0  0.60956751753E+01  0.56209188870E+01 -0.21412500165E+02  0.22961862910E+02  0.00000000000E+00 0. -1.
         11    1    5    5    0    0  0.18476133252E+02 -0.12163044106E+02  0.11519588194E+03  0.11730046189E+03  0.00000000000E+00 0. -1.
        -12    1    5    5    0    0 -0.16173783177E+02  0.46373374031E+02  0.10227664728E+04  0.10239449883E+04  0.00000000000E+00 0.  1.
          5    1    4    4  501    0 -0.76818619139E+02  0.26431011445E+02  0.12625933967E+03  0.15019517924E+03  0.41800000000E+01 0. -1.
         -5    1    4    4    0  501  0.33667162390E+02  0.85096270705E+02  0.15468942025E+03  0.17978081725E+03  0.41800000000E+01 0. -1.
</event>
<event>
11    1  0.8974665E-009  0.1382652E+03  0.7561462E-02  0.1109511E+00
         22   -1    0    0    0    0  0.00000000000E+00  0.00000000000E+00  0.31048857517E+03  0.31048857517E+03  0.00000000000E+00 0.  1.
         22   -1    0    0    0    0 -0.00000000000E+00 -0.00000000000E+00 -0.38328834701E+03  0.38328834701E+03  0.00000000000E+00 0.  1.
        -24    2    1    2    0    0  0.42387912343E+02  0.40024576741E+02 -0.32471276672E+03  0.34004014233E+03  0.82402764940E+02 0.  0.
         25    2    1    2    0    0 -0.82066197754E+02 -0.14785141815E+02  0.11312594518E+03  0.18814699462E+03  0.12509336865E+03 0.  0.
         24    2    1    2    0    0  0.39678285411E+02 -0.25239434925E+02  0.13878704970E+03  0.16558978523E+03  0.77115085415E+02 0.  0.
        -13    1    5    5    0    0 -0.11948651786E+02 -0.32581185291E+02  0.78817435734E+02  0.86119057647E+02  0.00000000000E+00 0.  1.
         14    1    5    5    0    0  0.51626937197E+02  0.73417503651E+01  0.59969613969E+02  0.79470727582E+02  0.00000000000E+00 0. -1.
         11    1    3    3    0    0  0.34973044898E+02  0.26806607925E+02 -0.57719833986E+02  0.72617403791E+02  0.00000000000E+00 0. -1.
        -12    1    3    3    0    0  0.74148674444E+01  0.13217968816E+02 -0.26699293273E+03  0.26742273854E+03  0.00000000000E+00 0.  1.
          5    1    4    4  501    0  0.25795549804E+02 -0.22208312571E+02  0.40878482856E+01  0.34536972081E+02  0.41800000000E+01 0. -1.
         -5    1    4    4    0  501 -0.10786174756E+03  0.74231707562E+01  0.10903809689E+03  0.15361002254E+03  0.41800000000E+01 0. -1.
</event>
<event>
11    1  0.8974665E-009  0.1424661E+03  0.7561462E-02  0.1104835E+00
         22   -1    0    0    0    0  0.00000000000E+00  0.00000000000E+00  0.20277251836E+03  0.20277251836E+03  0.00000000000E+00 0. -1.
         22   -1    0    0    0    0 -0.00000000000E+00 -0.00000000000E+00 -0.20899765234E+04  0.20899765234E+04  0.00000000000E+00 0. -1.
         24    2    1    2    0    0  0.48442417212E+02 -0.47230395937E+02 -0.18937228453E+04  0.18966430468E+04  0.80568318913E+02 0.  0.
         25    2    1    2    0    0 -0.73718573288E+02  0.37631604003E+02 -0.15240465047E+03  0.21383513305E+03  0.12509085088E+03 0.  0.
        -24    2    1    2    0    0  0.25276156075E+02  0.95987919339E+01  0.15892349067E+03  0.18227086199E+03  0.85058629032E+02 0.  0.
        -13    1    3    3    0    0 -0.81816369163E+01 -0.28136741249E+02 -0.23159124284E+03  0.23343761298E+03  0.00000000000E+00 0.  1.
         14    1    3    3    0    0  0.56624054129E+02 -0.19093654688E+02 -0.16621316024E+04  0.16632054338E+04  0.00000000000E+00 0. -1.
         13    1    5    5    0    0  0.13979996264E+02  0.35615123126E+02  0.14630960544E+03  0.15122955378E+03  0.00000000000E+00 0. -1.
        -14    1    5    5    0    0  0.11296159811E+02 -0.26016331192E+02  0.12613885224E+02  0.31041308214E+02  0.00000000000E+00 0.  1.
          5    1    4    4  501    0 -0.97323826798E+02 -0.36860408439E+01 -0.12582589445E+03  0.15917016767E+03  0.41800000000E+01 0. -1.
         -5    1    4    4    0  501  0.23605253510E+02  0.41317644847E+02 -0.26578756020E+02  0.54664965385E+02  0.41800000000E+01 0. -1.
</event>
<event>
11    1  0.8974665E-009  0.1310848E+03  0.7561462E-02  0.1117943E+00
         22   -1    0    0    0    0  0.00000000000E+00  0.00000000000E+00  0.31680914834E+03  0.31680914834E+03  0.00000000000E+00 0. -1.
         22   -1    0    0    0    0 -0.00000000000E+00 -0.00000000000E+00 -0.24244760866E+03  0.24244760866E+03  0.00000000000E+00 0.  1.
         24    2    1    2    0    0 -0.27240661637E+02 -0.31787641640E+02 -0.17275295752E+03  0.19513655100E+03  0.80511995366E+02 0.  0.
         25    2    1    2    0    0 -0.11687674261E+02  0.31942396403E+02  0.35389929352E+02  0.13440755916E+03  0.12512404422E+03 0.  0.
        -24    2    1    2    0    0  0.38928335898E+02 -0.15475476227E+00  0.21172456785E+03  0.22971264683E+03  0.80157146903E+02 0.  0.
        -13    1    3    3    0    0 -0.26520849191E+02  0.88956393826E+01 -0.14037987624E+03  0.14313978306E+03  0.00000000000E+00 0.  1.
         14    1    3    3    0    0 -0.71981244559E+00 -0.40683281023E+02 -0.32373081282E+02  0.51996767942E+02  0.00000000000E+00 0. -1.
         13    1    5    5    0    0  0.63055941300E+02  0.28885369793E+01  0.17101582546E+03  0.18229319224E+03  0.00000000000E+00 0. -1.
        -14    1    5    5    0    0 -0.24127605403E+02 -0.30432917416E+01  0.40708742391E+02  0.47419454596E+02  0.00000000000E+00 0.  1.
          5    1    4    4  501    0 -0.56714390162E+02  0.46225015459E+02  0.45031612457E+02  0.86015072087E+02  0.41800000000E+01 0.  1.
         -5    1    4    4    0  501  0.45026715901E+02 -0.14282619057E+02 -0.96416831052E+01  0.48392487072E+02  0.41800000000E+01 0.  1.
</event>
<event>
11    1  0.8974665E-009  0.1494513E+03  0.7561462E-02  0.1097441E+00
         22   -1    0    0    0    0  0.00000000000E+00  0.00000000000E+00  0.22149621629E+03  0.22149621629E+03  0.00000000000E+00 0.  1.
         22   -1    0    0    0    0 -0.00000000000E+00 -0.00000000000E+00 -0.59378003357E+03  0.59378003357E+03  0.00000000000E+00 0.  1.
         24    2    1    2    0    0 -0.54428125061E+02  0.40160470252E+02 -0.24269370850E+03  0.26825189068E+03  0.92106224218E+02 0.  0.
         25    2    1    2    0    0  0.74973705844E+02 -0.73171905032E+02 -0.30729215868E+03  0.34792416207E+03  0.12509023748E+03 0.  0.
        -24    2    1    2    0    0 -0.20545580783E+02  0.33011434781E+02  0.17770204990E+03  0.19910019711E+03  0.80938212444E+02 0.  0.
        -11    1    3    3    0    0 -0.12617362861E+02 -0.76101744741E+01 -0.17435385097E+03  0.17497536383E+03  0.00000000000E+00 0.  1.
         12    1    3    3    0    0 -0.41810762200E+02  0.47770644726E+02 -0.68339857532E+02  0.93276526848E+02  0.00000000000E+00 0. -1.
         13    1    5    5    0    0 -0.27274284115E+02 -0.32616807881E+01  0.13132893772E+02  0.30446642416E+02  0.00000000000E+00 0. -1.
        -14    1    5    5    0    0  0.67287033323E+01  0.36273115569E+02  0.16456915613E+03  0.16865355469E+03  0.00000000000E+00 0.  1.
          5    1    4    4  501    0 -0.37564411759E+01 -0.30817252525E+02 -0.22231278435E+03  0.22450893165E+03  0.41800000000E+01 0.  1.
         -5    1    4    4    0  501  0.78730147020E+02 -0.42354652507E+02 -0.84979374326E+02  0.12341523042E+03  0.41800000000E+01 0.  1.
</event>
<event>
11    1  0.8974665E-009  0.2127876E+03  0.7561462E-02  0.1045832E+00
         22   -1    0    0    0    0  0.00000000000E+00  0.00000000000E+00  0.10547605278E+04  0.10547605278E+04  0.00000000000E+00 0.  1.
         22   -1    0    0    0    0 -0.00000000000E+00 -0.00000000000E+00 -0.20280695526E+03  0.20280695526E+03  0.00000000000E+00 0.  1.
         24    2    1    2    0    0 -0.45660149338E+02 -0.16848014804E+03 -0.11893982899E+03  0.22535042445E+03  0.78522107450E+02 0.  0.
         25    2    1    2    0    0  0.54720878399E+02  0.14647000829E+03  0.33206517043E+03  0.38776602647E+03  0.12508947204E+03 0.  0.
        -24    2    1    2    0    0 -0.90607290609E+01  0.22010139753E+02  0.63882823108E+03  0.64445103211E+03  0.81541896590E+02 0.  0.
        -11    1    3    3    0    0 -0.66181432337E+02 -0.12158156797E+03 -0.72649173090E+02  0.15633285645E+03  0.00000000000E+00 0.  1.
         12    1    3    3    0    0  0.20521282999E+02 -0.46898580073E+02 -0.46290655900E+02  0.69017567998E+02  0.00000000000E+00 0. -1.
         11    1    5    5    0    0  0.11358546481E+02 -0.10526558162E+02  0.24904864244E+02  0.29327073975E+02  0.00000000000E+00 0. -1.
        -12    1    5    5    0    0 -0.20419275542E+02  0.32536697915E+02  0.61392336683E+03  0.61512395813E+03  0.00000000000E+00 0.  1.
          5    1    4    4  501    0  0.22476499654E+02  0.86637940697E+02  0.29886443699E+03  0.31200761193E+03  0.41800000000E+01 0. -1.
         -5    1    4    4    0  501  0.32244378745E+02  0.59832067592E+02  0.33200733435E+02  0.75758414540E+02  0.41800000000E+01 0. -1.
</event>
<event>
11    1  0.8974665E-009  0.1436300E+03  0.7561462E-02  0.1103571E+00
         22   -1    0    0    0    0  0.00000000000E+00  0.00000000000E+00  0.16853899992E+03  0.16853899992E+03  0.00000000000E+00 0. -1.
         22   -1    0    0    0    0 -0.00000000000E+00 -0.00000000000E+00 -0.15275374700E+04  0.15275374700E+04  0.00000000000E+00 0.  1.
        -24    2    1    2    0    0 -0.57460660920E+02  0.38237069177E+02 -0.12869209426E+04  0.12912279072E+04  0.79625339345E+02 0.  0.
         25    2    1    2    0    0  0.54911587667E+02 -0.80424149202E+02 -0.19589157958E+03  0.25200087048E+03  0.12509037349E+03 0.  0.
         24    2    1    2    0    0  0.25490732523E+01  0.42187080024E+02  0.12381405217E+03  0.15284769223E+03  0.79033220910E+02 0.  0.
        -11    1    5    5    0    0  0.23222504129E+02  0.27060362382E+02  0.11228803593E+02  0.37384942696E+02  0.00000000000E+00 0.  1.
         12    1    5    5    0    0 -0.20673430877E+02  0.15126717642E+02  0.11258524858E+03  0.11546274953E+03  0.00000000000E+00 0. -1.
         13    1    3    3    0    0 -0.62933304052E+02  0.55958248898E+02 -0.92270573464E+03  0.92654077035E+03  0.00000000000E+00 0. -1.
        -14    1    3    3    0    0  0.54726431321E+01 -0.17721179721E+02 -0.36421520799E+03  0.36468713683E+03  0.00000000000E+00 0.  1.
          5    1    4    4  501    0 -0.73103255283E+01 -0.92870910926E+02 -0.98086714410E+02  0.13534002697E+03  0.41800000000E+01 0. -1.
         -5    1    4    4    0  501  0.62221913196E+02  0.12446761724E+02 -0.97804865172E+02  0.11666084352E+03  0.41800000000E+01 0. -1.
</event>
<event>
11    1  0.8974665E-009  0.1378595E+03  0.7561462E-02  0.1109972E+00
         22   -1    0    0    0    0  0.00000000000E+00  0.00000000000E+00  0.25444848970E+03  0.25444848970E+03  0.00000000000E+00 0.  1.
         22   -1    0    0    0    0 -0.00000000000E+00 -0.00000000000E+00 -0.38762377495E+03  0.38762377495E+03  0.00000000000E+00 0.  1.
        -24    2    1    2    0    0  0.20831239518E+02 -0.71274737903E+01 -0.20321048979E+03  0.21621515810E+03  0.70496453897E+02 0.  0.
         25    2    1    2    0    0 -0.75320907069E+02 -0.84593693479E+01 -0.13315328073E+03  0.19779339137E+03  0.12509048536E+03 0.  0.
         24    2    1    2    0    0  0.54489667551E+02  0.15586843138E+02  0.20318848526E+03  0.22806371518E+03  0.86691545683E+02 0.  0.
        -13    1    5    5    0    0  0.72316592421E+02  0.75791286890E+01  0.19253034569E+03  0.20580346631E+03  0.00000000000E+00 0.  1.
         14    1    5    5    0    0 -0.17826924870E+02  0.80077144492E+01  0.10658139562E+02  0.22260248874E+02  0.00000000000E+00 0. -1.
         13    1    3    3    0    0 -0.17976467440E+02  0.19699202217E+02 -0.74974168917E+02  0.79575988554E+02  0.00000000000E+00 0. -1.
        -14    1    3    3    0    0  0.38807706959E+02 -0.26826676007E+02 -0.12823632087E+03  0.13663916955E+03  0.00000000000E+00 0.  1.
          5    1    4    4  501    0 -0.72229763985E+02 -0.47122990094E+02 -0.36830648388E+02  0.93870570795E+02  0.41800000000E+01 0.  1.
         -5    1    4    4    0  501 -0.30911430842E+01  0.38663620746E+02 -0.96322632340E+02  0.10392282057E+03  0.41800000000E+01 0.  1.
</event>
<event>
11    1  0.8974665E-009  0.1432143E+03  0.7561462E-02  0.1104021E+00
         22   -1    0    0    0    0  0.00000000000E+00  0.00000000000E+00  0.19956016334E+04  0.19956016334E+04  0.00000000000E+00 0. -1.
         22   -1    0    0    0    0 -0.00000000000E+00 -0.00000000000E+00 -0.49472853016E+03  0.49472853016E+03  0.00000000000E+00 0. -1.
         24    2    1    2    0    0  0.44047140521E+02 -0.44601138061E+02 -0.38166146112E+03  0.39463356731E+03  0.78363061694E+02 0.  0.
         25    2    1    2    0    0 -0.10633877046E+03  0.74081669181E+02 -0.27933648022E+02  0.18227470772E+03  0.12509097718E+03 0.  0.
        -24    2    1    2    0    0  0.62291629943E+02 -0.29480531120E+02  0.19104682124E+04  0.19134218885E+04  0.80902311744E+02 0.  0.
        -11    1    3    3    0    0 -0.25786030950E+01  0.20246682026E+02 -0.83781926469E+02  0.86232178042E+02  0.00000000000E+00 0.  1.
         12    1    3    3    0    0  0.46625743616E+02 -0.64847820087E+02 -0.29787953466E+03  0.30840138927E+03  0.00000000000E+00 0. -1.
         11    1    5    5    0    0  0.50509588551E+02 -0.69949208383E+01  0.17662925482E+04  0.17670284415E+04  0.00000000000E+00 0. -1.
        -12    1    5    5    0    0  0.11782041392E+02 -0.22485610282E+02  0.14417566424E+03  0.14639344701E+03  0.00000000000E+00 0.  1.
          5    1    4    4  501    0  0.72669804938E+01 -0.95223729686E+01  0.27795656931E+02  0.30554141072E+02  0.41800000000E+01 0.  1.
         -5    1    4    4    0  501 -0.11360575096E+03  0.83604042150E+02 -0.55729304953E+02  0.15172056665E+03  0.41800000000E+01 0.  1.
</event>
<event>
11    1  0.8974665E-009  0.1434867E+03  0.7561462E-02  0.1103726E+00
         22   -1    0    0    0    0  0.00000000000E+00  0.00000000000E+00  0.22828819385E+03  0.22828819385E+03  0.00000000000E+00 0.  1.
         22   -1    0    0    0    0 -0.00000000000E+00 -0.00000000000E+00 -0.46979049467E+03  0.46979049467E+03  0.00000000000E+00 0.  1.
         24    2    1    2    0    0 -0.56572968329E+02 -0.36258954698E+02 -0.36074777419E+03  0.37569041031E+03  0.80555045027E+02 0.  0.
         25    2    1    2    0    0  0.21667362574E+02  0.95069380638E+02 -0.21148354456E+01  0.15862187349E+03  0.12509502183E+03 0.  0.
        -24    2    1    2    0    0  0.34905605755E+02 -0.58810425940E+02  0.12136030881E+03  0.16376640471E+03  0.86104838686E+02 0.  0.
        -11    1    3    3    0    0 -0.71035619800E+02 -0.47107724102E+02 -0.31909980284E+03  0.33028757337E+03  0.00000000000E+00 0.  1.
         12    1    3    3    0    0  0.14462651471E+02  0.10848769404E+02 -0.41647971351E+02  0.45402836947E+02  0.00000000000E+00 0. -1.
         11    1    5    5    0    0 -0.34560627753E+01 -0.79282115140E+01 -0.12680752775E+02  0.15349345219E+02  0.00000000000E+00 0. -1.
        -12    1    5    5    0    0  0.38361668530E+02 -0.50882214426E+02  0.13404106159E+03  0.14841705949E+03  0.00000000000E+00 0.  1.
          5    1    4    4  501    0  0.15541888756E+02  0.14015272299E+02 -0.56724778668E+02  0.60606526700E+02  0.41800000000E+01 0. -1.
         -5    1    4    4    0  501  0.61254738178E+01  0.81054108339E+02  0.54609943222E+02  0.98015346793E+02  0.41800000000E+01 0. -1.
</event>
<event>
11    1  0.8974665E-009  0.2253339E+03  0.7561462E-02  0.1037927E+00
         22   -1    0    0    0    0  0.00000000000E+00  0.00000000000E+00  0.39102646473E+03  0.39102646473E+03  0.00000000000E+00 0. -1.
         22   -1    0    0    0    0 -0.00000000000E+00 -0.00000000000E+00 -0.20696612441E+04  0.20696612441E+04  0.00000000000E+00 0.  1.
        -24    2    1    2    0    0 -0.15243414497E+03 -0.21741731113E+02 -0.18247961961E+04  0.18329370538E+04  0.77898746518E+02 0.  0.
         25    2    1    2    0    0  0.25551702368E+02  0.17469590467E+03 -0.14631140923E+03  0.26120080748E+03  0.12508910727E+03 0.  0.
         24    2    1    2    0    0  0.12688244260E+03 -0.15295417356E+03  0.29247282592E+03  0.36654984752E+03  0.96562432486E+02 0.  0.
        -11    1    5    5    0    0  0.13090830451E+01 -0.18412394759E+02  0.94345299278E+02  0.96134101520E+02  0.00000000000E+00 0.  1.
         12    1    5    5    0    0  0.12557335956E+03 -0.13454177880E+03  0.19812752664E+03  0.27041574600E+03  0.00000000000E+00 0. -1.
         13    1    3    3    0    0 -0.96980143681E+02  0.10266533564E+02 -0.76220520003E+03  0.76841871199E+03  0.00000000000E+00 0. -1.
        -14    1    3    3    0    0 -0.55454001287E+02 -0.32008264677E+02 -0.10625909960E+04  0.10645183418E+04  0.00000000000E+00 0.  1.
          5    1    4    4  501    0  0.58060477790E+02  0.15404516665E+03 -0.76981140292E+02  0.18178146443E+03  0.41800000000E+01 0.  1.
         -5    1    4    4    0  501 -0.32508775422E+02  0.20650738019E+02 -0.69330268937E+02  0.79419343053E+02  0.41800000000E+01 0.  1.
</event>
<event>
11    1  0.8974665E-009  0.1352429E+03  0.7561462E-02  0.1112990E+00
         22   -1    0    0    0    0  0.00000000000E+00  0.00000000000E+00  0.52116564179E+03  0.52116564179E+03  0.00000000000E+00 0. -1.
         22   -1    0    0    0    0 -0.00000000000E+00 -0.00000000000E+00 -0.40507214860E+03  0.40507214860E+03  0.00000000000E+00 0. -1.
         24    2    1    2    0    0 -0.24516766762E+02 -0.16240704683E+02 -0.29403096472E+03  0.30630470941E+03  0.80644494253E+02 0.  0.
         25    2    1    2    0    0  0.66007599783E+02 -0.13227556810E+02 -0.49327429362E+02  0.15037300497E+03  0.12508746479E+03 0.  0.
        -24    2    1    2    0    0 -0.41490833022E+02  0.29468261493E+02  0.45945188728E+03  0.46956007601E+03  0.82466724228E+02 0.  0.
        -13    1    3    3    0    0  0.19716965121E+02 -0.25195834856E+02 -0.60354931578E+02  0.68310369443E+02  0.00000000000E+00 0.  1.
         14    1    3    3    0    0 -0.44233731882E+02  0.89551301735E+01 -0.23367603314E+03  0.23799433997E+03  0.00000000000E+00 0. -1.
         13    1    5    5    0    0 -0.42919286211E+02  0.53974533035E+02  0.38609433976E+03  0.39220422555E+03  0.00000000000E+00 0. -1.
        -14    1    5    5    0    0  0.14284531890E+01 -0.24506271542E+02  0.73357547516E+02  0.77355850463E+02  0.00000000000E+00 0.  1.
          5    1    4    4  501    0 -0.19879291734E+02  0.22431640562E+02  0.18251284950E+02  0.35340437752E+02  0.41800000000E+01 0.  1.
         -5    1    4    4    0  501  0.85886891518E+02 -0.35659197372E+02 -0.67578714313E+02  0.11503256721E+03  0.41800000000E+01 0.  1.
</event>
<event>
11    1  0.8974665E-009  0.1575846E+03  0.7561462E-02  0.1089371E+00
         22   -1    0    0    0    0  0.00000000000E+00  0.00000000000E+00  0.60399363425E+03  0.60399363425E+03  0.00000000000E+00 0. -1.
         22   -1    0    0    0    0 -0.00000000000E+00 -0.00000000000E+00 -0.68525973587E+03  0.68525973587E+03  0.00000000000E+00 0. -1.
         24    2    1    2    0    0 -0.79768486321E+02 -0.43645445130E+01 -0.26944915149E+03  0.29372001180E+03  0.85361229104E+02 0.  0.
         25    2    1    2    0    0  0.12081382214E+03 -0.17002660981E+01 -0.38119362437E+03  0.41899315621E+03  0.12509122737E+03 0.  0.
        -24    2    1    2    0    0 -0.41045335823E+02  0.60648106111E+01  0.56937667424E+03  0.57654020211E+03  0.80543813921E+02 0.  0.
        -11    1    3    3    0    0 -0.46596934453E+02 -0.13032847174E+02 -0.43126982255E+02  0.64815630864E+02  0.00000000000E+00 0.  1.
         12    1    3    3    0    0 -0.33171551868E+02  0.86683026613E+01 -0.22632216923E+03  0.22890438093E+03  0.00000000000E+00 0. -1.
         11    1    5    5    0    0 -0.90216336985E+01  0.39796647997E+02  0.19065258887E+03  0.19497069705E+03  0.00000000000E+00 0. -1.
        -12    1    5    5    0    0 -0.32023702124E+02 -0.33731837386E+02  0.37872408537E+03  0.38156950505E+03  0.00000000000E+00 0.  1.
          5    1    4    4  501    0  0.16931962501E+02 -0.50412047836E+02 -0.17548425293E+03  0.18341281675E+03  0.41800000000E+01 0. -1.
         -5    1    4    4    0  501  0.10388185964E+03  0.48711781738E+02 -0.20570937144E+03  0.23558033946E+03  0.41800000000E+01 0. -1.
</event>
<event>
11    1  0.8974665E-009  0.2019420E+03  0.7561462E-02  0.1053159E+00
         22   -1    0    0    0    0  0.00000000000E+00  0.00000000000E+00  0.14321610521E+03  0.14321610521E+03  0.00000000000E+00 0. -1.
         22   -1    0    0    0    0 -0.00000000000E+00 -0.00000000000E+00 -0.36902381426E+04  0.36902381426E+04  0.00000000000E+00 0.  1.
        -24    2    1    2    0    0  0.56056945644E+02 -0.32040166326E+02 -0.21830948003E+04  0.21856426670E+04  0.83438643336E+02 0.  0.
         25    2    1    2    0    0 -0.18824505343E+03  0.11428080812E+03 -0.14281736992E+04  0.14504563800E+04  0.12508913597E+03 0.  0.
         24    2    1    2    0    0  0.13218810778E+03 -0.82240641799E+02  0.64246462158E+02  0.19735520078E+03  0.10287977631E+03 0.  0.
        -13    1    5    5    0    0  0.35876600995E+02 -0.55196504871E+02 -0.17554467967E+02  0.68131813380E+02  0.00000000000E+00 0.  1.
         14    1    5    5    0    0  0.96311506788E+02 -0.27044136928E+02  0.81800930125E+02  0.12922338740E+03  0.00000000000E+00 0. -1.
         11    1    3    3    0    0  0.62510902082E+02 -0.41902835884E+02 -0.11399989976E+04  0.11424802734E+04  0.00000000000E+00 0. -1.
        -12    1    3    3    0    0 -0.64539564380E+01  0.98626695578E+01 -0.10430958027E+04  0.10431623936E+04  0.00000000000E+00 0.  1.
          5    1    4    4  501    0 -0.61249417319E+02  0.75327246039E+02 -0.92270447801E+03  0.92780747532E+03  0.41800000000E+01 0.  1.
         -5    1    4    4    0  501 -0.12699563611E+03  0.38953562085E+02 -0.50546922121E+03  0.52264890469E+03  0.41800000000E+01 0.  1.
</event>
<event>
11    1  0.8974665E-009  0.1457752E+03  0.7561462E-02  0.1101276E+00
         22   -1    0    0    0    0  0.00000000000E+00  0.00000000000E+00  0.53092957721E+02  0.53092957721E+02  0.00000000000E+00 0.  1.
         22   -1    0    0    0    0 -0.00000000000E+00 -0.00000000000E+00 -0.11731860721E+04  0.11731860721E+04  0.00000000000E+00 0.  1.
         24    2    1    2    0    0 -0.68817075212E+02  0.52104515792E+01 -0.81918155897E+03  0.82563215823E+03  0.76466303107E+02 0.  0.
         25    2    1    2    0    0 -0.15382652915E+02  0.49310197256E+02 -0.17153982196E+03  0.21849801065E+03  0.12508936236E+03 0.  0.
        -24    2    1    2    0    0  0.84199728127E+02 -0.54520648835E+02 -0.12937173345E+03  0.18214886093E+03  0.79869060082E+02 0.  0.
        -13    1    3    3    0    0 -0.79789227960E+02  0.17852785577E+02 -0.75047637464E+03  0.75491710256E+03  0.00000000000E+00 0.  1.
         14    1    3    3    0    0  0.10972152748E+02 -0.12642333998E+02 -0.68705184329E+02  0.70715055670E+02  0.00000000000E+00 0. -1.
         11    1    5    5    0    0  0.49126095917E+01  0.19207474337E+02 -0.17168511724E+02  0.26226295931E+02  0.00000000000E+00 0. -1.
        -12    1    5    5    0    0  0.79287118536E+02 -0.73728123172E+02 -0.11220322172E+03  0.15592256500E+03  0.00000000000E+00 0.  1.
          5    1    4    4  501    0  0.27762675611E+01  0.84338083301E+02 -0.15283782044E+03  0.17463531061E+03  0.41800000000E+01 0.  1.
         -5    1    4    4    0  501 -0.18158920476E+02 -0.35027886045E+02 -0.18702001523E+02  0.43862700038E+02  0.41800000000E+01 0.  1.
</event>
<event>
11    1  0.8974665E-009  0.1344176E+03  0.7561462E-02  0.1113957E+00
         22   -1    0    0    0    0  0.00000000000E+00  0.00000000000E+00  0.10395512668E+04  0.10395512668E+04  0.00000000000E+00 0. -1.
         22   -1    0    0    0    0 -0.00000000000E+00 -0.00000000000E+00 -0.54800284241E+03  0.54800284241E+03  0.00000000000E+00 0.  1.
        -24    2    1    2    0    0 -0.49065338453E+02 -0.74929075654E+01 -0.51010429763E+03  0.52321569187E+03  0.10528397150E+03 0.  0.
         25    2    1    2    0    0  0.30333438250E+02  0.49280807755E+02  0.13571974300E+03  0.19343332185E+03  0.12509151000E+03 0.  0.
         24    2    1    2    0    0  0.18731900203E+02 -0.41787900190E+02  0.86593297905E+03  0.87090509553E+03  0.80861910261E+02 0.  0.
        -11    1    5    5    0    0  0.11903092089E+02 -0.15654188771E+02  0.40417987382E+02  0.44948314000E+02  0.00000000000E+00 0.  1.
         12    1    5    5    0    0  0.68288081137E+01 -0.26133711419E+02  0.82551499166E+03  0.82595678153E+03  0.00000000000E+00 0. -1.
         13    1    3    3    0    0 -0.20423739362E+02  0.37181185954E+02 -0.86945564733E+02  0.96742446450E+02  0.00000000000E+00 0. -1.
        -14    1    3    3    0    0 -0.28641599091E+02 -0.44674093519E+02 -0.42315873290E+03  0.42647324542E+03  0.00000000000E+00 0.  1.
          5    1    4    4  501    0  0.74241788175E+02  0.10335867629E+02  0.52899951301E+02  0.91839809008E+02  0.41800000000E+01 0. -1.
         -5    1    4    4    0  501 -0.43908349925E+02  0.38944940126E+02  0.82819791704E+02  0.10159351285E+03  0.41800000000E+01 0. -1.
</event>
<event>
11    1  0.8974665E-009  0.1522374E+03  0.7561462E-02  0.1094614E+00
         22   -1    0    0    0    0  0.00000000000E+00  0.00000000000E+00  0.26569168390E+03  0.26569168390E+03  0.00000000000E+00 0. -1.
         22   -1    0    0    0    0 -0.00000000000E+00 -0.00000000000E+00 -0.17833621275E+04  0.17833621275E+04  0.00000000000E+00 0. -1.
         24    2    1    2    0    0 -0.98684867576E+01  0.87308582002E+02 -0.17146111681E+04  0.17189213560E+04  0.84136764052E+02 0.  0.
         25    2    1    2    0    0 -0.62603605258E+02 -0.29438969258E+02  0.85702095113E+02  0.16666745895E+03  0.12508928197E+03 0.  0.
        -24    2    1    2    0    0  0.72472092015E+02 -0.57869612744E+02  0.11123862937E+03  0.16346499639E+03  0.75800238653E+02 0.  0.
        -13    1    3    3    0    0 -0.15862143375E+02 -0.95765354295E+01 -0.12689869441E+03  0.12824428356E+03  0.00000000000E+00 0.  1.
         14    1    3    3    0    0  0.59936566176E+01  0.96885117432E+02 -0.15877124736E+04  0.15906770725E+04  0.00000000000E+00 0. -1.
         11    1    5    5    0    0  0.57475620457E+02 -0.68428462438E+02  0.11407060704E+03  0.14490688324E+03  0.00000000000E+00 0. -1.
        -12    1    5    5    0    0  0.14996471559E+02  0.10558849694E+02 -0.28319776755E+01  0.18558113148E+02  0.00000000000E+00 0.  1.
          5    1    4    4  501    0  0.24839904788E+02  0.22353227917E+02  0.47036461937E+02  0.57849708900E+02  0.41800000000E+01 0.  1.
         -5    1    4    4    0  501 -0.87443510046E+02 -0.51792197175E+02  0.38665633176E+02  0.10881775005E+03  0.41800000000E+01 0.  1.
</event>
<event>
11    1  0.8974665E-009  0.1779872E+03  0.7561462E-02  0.1071283E+00
         22   -1    0    0    0    0  0.00000000000E+00  0.00000000000E+00  0.13280103263E+04  0.13280103263E+04  0.00000000000E+00 0.  1.
         22   -1    0    0    0    0 -0.00000000000E+00 -0.00000000000E+00 -0.77918522104E+03  0.77918522104E+03  0.00000000000E+00 0. -1.
         24    2    1    2    0    0 -0.61305299335E+02  0.11046540729E+03 -0.56571601420E+03  0.58504053083E+03  0.79226687838E+02 0.  0.
         25    2    1    2    0    0  0.11317284059E+03 -0.80500402755E+02 -0.15856388118E+03  0.24510696736E+03  0.12508602777E+03 0.  0.
        -24    2    1    2    0    0 -0.51867541256E+02 -0.29965004537E+02  0.12731050006E+04  0.12770480491E+04  0.80419113564E+02 0.  0.
        -11    1    3    3    0    0 -0.39954809332E+02  0.47706099384E+02 -0.12790384037E+03  0.14223800859E+03  0.00000000000E+00 0.  1.
         12    1    3    3    0    0 -0.21350490003E+02  0.62759307909E+02 -0.43781217382E+03  0.44280252224E+03  0.00000000000E+00 0. -1.
         13    1    5    5    0    0 -0.24578906898E+02 -0.21252619351E+02  0.14570161257E+03  0.14928079715E+03  0.00000000000E+00 0. -1.
        -14    1    5    5    0    0 -0.27288634358E+02 -0.87123851860E+01  0.11274033880E+04  0.11277672520E+04  0.00000000000E+00 0.  1.
          5    1    4    4  501    0  0.94695799620E+02 -0.11030692950E+03 -0.14965393025E+03  0.20868321543E+03  0.41800000000E+01 0. -1.
         -5    1    4    4    0  501  0.18477040970E+02  0.29806526744E+02 -0.89099509302E+01  0.36423751937E+02  0.41800000000E+01 0. -1.
</event>
<event>
11    1  0.8974665E-009  0.1300976E+03  0.7561462E-02  0.1119149E+00
         22   -1    0    0    0    0  0.00000000000E+00  0.00000000000E+00  0.18428319841E+03  0.18428319841E+03  0.00000000000E+00 0.  1.
         22   -1    0    0    0    0 -0.00000000000E+00 -0.00000000000E+00 -0.58946089545E+03  0.58946089545E+03  0.00000000000E+00 0. -1.
        -24    2    1    2    0    0 -0.20267817265E+02  0.82739870153E+01 -0.34351232270E+03  0.35340036036E+03  0.80074063077E+02 0.  0.
         25    2    1    2    0    0 -0.49243242493E+00 -0.37665014708E+02 -0.21009877404E+03  0.24740207621E+03  0.12508955447E+03 0.  0.
         24    2    1    2    0    0  0.20760249690E+02  0.29391027693E+02  0.14843339969E+03  0.17294165730E+03  0.81126581391E+02 0.  0.
        -13    1    5    5    0    0  0.20784655331E+02 -0.37600515163E+01  0.13585077249E+03  0.13748298902E+03  0.00000000000E+00 0.  1.
         14    1    5    5    0    0 -0.24405641062E-01  0.33151079209E+02  0.12582627201E+02  0.35458668272E+02  0.00000000000E+00 0. -1.
         11    1    3    3    0    0  0.29617104171E+02  0.14004062455E+02 -0.14093541508E+03  0.14469304700E+03  0.00000000000E+00 0. -1.
        -12    1    3    3    0    0 -0.49884921436E+02 -0.57300754399E+01 -0.20257690761E+03  0.20870731336E+03  0.00000000000E+00 0.  1.
          5    1    4    4  501    0  0.10901459994E+02 -0.14206412485E+01 -0.20882764922E+03  0.20915859898E+03  0.41800000000E+01 0. -1.
         -5    1    4    4    0  501 -0.11393892419E+02 -0.36244373460E+02 -0.12711248222E+01  0.38243477225E+02  0.41800000000E+01 0. -1.
</event>
<event>
11    1  0.8974665E-009  0.1326940E+03  0.7561462E-02  0.1116003E+00
         22   -1    0    0    0    0  0.00000000000E+00  0.00000000000E+00  0.54058196805E+03  0.54058196805E+03  0.00000000000E+00 0.  1.
         22   -1    0    0    0    0 -0.00000000000E+00 -0.00000000000E+00 -0.19390094252E+04  0.19390094252E+04  0.00000000000E+00 0.  1.
        -24    2    1    2    0    0 -0.20731794480E+01 -0.14442590986E+02 -0.17260685665E+04  0.17280106206E+04  0.80592320201E+02 0.  0.
         25    2    1    2    0    0  0.20808499378E+02  0.54183730249E+02 -0.18467533279E+03  0.23049017291E+03  0.12510743782E+03 0.  0.
         24    2    1    2    0    0 -0.18735319930E+02 -0.39741139263E+02  0.51231644222E+03  0.52109059968E+03  0.84480209204E+02 0.  0.
        -11    1    5    5    0    0  0.17060424583E+02 -0.39962263814E+02  0.41727854932E+03  0.41953477608E+03  0.00000000000E+00 0.  1.
         12    1    5    5    0    0 -0.35795744513E+02  0.22112455118E+00  0.95037892893E+02  0.10155582360E+03  0.00000000000E+00 0. -1.
         11    1    3    3    0    0  0.35912125942E+02 -0.12088886734E+02 -0.53805948635E+03  0.53939209563E+03  0.00000000000E+00 0. -1.
        -12    1    3    3    0    0 -0.37985305390E+02 -0.23537042519E+01 -0.11880090802E+04  0.11886185250E+04  0.00000000000E+00 0.  1.
          5    1    4    4  501    0 -0.49087538260E+02  0.53138133531E+01 -0.45866627947E+02  0.67520685601E+02  0.41800000000E+01 0.  1.
         -5    1    4    4    0  501  0.69896037638E+02  0.48869916896E+02 -0.13880870484E+03  0.16296948731E+03  0.41800000000E+01 0.  1.
</event>
<event>
11    1  0.8974665E-009  0.1420190E+03  0.7561462E-02  0.1105325E+00
         22   -1    0    0    0    0  0.00000000000E+00  0.00000000000E+00  0.29515462600E+03  0.29515462600E+03  0.00000000000E+00 0.  1.
         22   -1    0    0    0    0 -0.00000000000E+00 -0.00000000000E+00 -0.62186386236E+03  0.62186386236E+03  0.00000000000E+00 0.  1.
         24    2    1    2    0    0  0.65430482872E+01  0.31697898857E+02 -0.40800337117E+03  0.41689238208E+03  0.79277607675E+02 0.  0.
         25    2    1    2    0    0  0.31060079582E+02  0.25872877575E+02 -0.17711289969E+03  0.22056881471E+03  0.12508992145E+03 0.  0.
        -24    2    1    2    0    0 -0.37603127869E+02 -0.57570776432E+02  0.25840703450E+03  0.27955729157E+03  0.81545657570E+02 0.  0.
        -13    1    3    3    0    0  0.21152906954E+02  0.73260005227E+01 -0.36286395703E+03  0.36355380217E+03  0.00000000000E+00 0.  1.
         14    1    3    3    0    0 -0.14609858667E+02  0.24371898334E+02 -0.45139414136E+02  0.53338579914E+02  0.00000000000E+00 0. -1.
         13    1    5    5    0    0 -0.95175656625E+01  0.19609988405E+02  0.32047145584E+02  0.38757647522E+02  0.00000000000E+00 0. -1.
        -14    1    5    5    0    0 -0.28085562207E+02 -0.77180764837E+02  0.22635988892E+03  0.24079964405E+03  0.00000000000E+00 0.  1.
          5    1    4    4  501    0  0.50666007705E+02  0.63194533721E+02 -0.14924733491E+03  0.16986121631E+03  0.41800000000E+01 0. -1.
         -5    1    4    4    0  501 -0.19605928123E+02 -0.37321656146E+02 -0.27865564783E+02  0.50707598402E+02  0.41800000000E+01 0. -1.
</event>
<event>
11    1  0.8974665E-009  0.1605167E+03  0.7561462E-02  0.1086592E+00
         22   -1    0    0    0    0  0.00000000000E+00  0.00000000000E+00  0.10876510043E+04  0.10876510043E+04  0.00000000000E+00 0. -1.
         22   -1    0    0    0    0 -0.00000000000E+00 -0.00000000000E+00 -0.18663132323E+04  0.18663132323E+04  0.00000000000E+00 0. -1.
        -24    2    1    2    0    0 -0.23539995217E+02 -0.84628024206E+02 -0.18163977176E+04  0.18202751711E+04  0.79906170443E+02 0.  0.
         25    2    1    2    0    0 -0.38063289823E+02  0.15813429973E+03  0.19740719717E+03  0.28473117762E+03  0.12508785405E+03 0.  0.
         24    2    1    2    0    0  0.61603285040E+02 -0.73506275529E+02  0.84032829242E+03  0.84895788785E+03  0.73346567926E+02 0.  0.
        -11    1    5    5    0    0  0.46236266110E+02 -0.16774310113E+02  0.20087169841E+03  0.20680572769E+03  0.00000000000E+00 0.  1.
         12    1    5    5    0    0  0.15367018930E+02 -0.56731965415E+02  0.63945659401E+03  0.64215216016E+03  0.00000000000E+00 0. -1.
         13    1    3    3    0    0 -0.48259502194E+02 -0.28498094251E+02 -0.10059489605E+04  0.10075090233E+04  0.00000000000E+00 0. -1.
        -14    1    3    3    0    0  0.24719506977E+02 -0.56129929955E+02 -0.81044875715E+03  0.81276614781E+03  0.00000000000E+00 0.  1.
          5    1    4    4  501    0  0.97235095092E+01  0.39669487337E+02  0.13765058825E+03  0.14364320976E+03  0.41800000000E+01 0. -1.
         -5    1    4    4    0  501 -0.47786799332E+02  0.11846481240E+03  0.59756608916E+02  0.14108796786E+03  0.41800000000E+01 0. -1.
</event>
<event>
11    1  0.8974665E-009  0.1673451E+03  0.7561462E-02  0.1080365E+00
         22   -1    0    0    0    0  0.00000000000E+00  0.00000000000E+00  0.24233899684E+03  0.24233899684E+03  0.00000000000E+00 0. -1.
         22   -1    0    0    0    0 -0.00000000000E+00 -0.00000000000E+00 -0.62966883067E+03  0.62966883067E+03  0.00000000000E+00 0. -1.
        -24    2    1    2    0    0  0.10823716689E+03 -0.27222018875E+02 -0.53807460911E+03  0.55539076305E+03  0.80487838241E+02 0.  0.
         25    2    1    2    0    0 -0.10617742664E+03  0.10415167200E+02  0.43531557061E+02  0.17007535412E+03  0.12509399658E+03 0.  0.
         24    2    1    2    0    0 -0.20597402429E+01  0.16806851676E+02  0.10721321821E+03  0.14654171035E+03  0.98453470837E+02 0.  0.
        -13    1    5    5    0    0  0.41271807217E+02  0.13327290002E+01  0.15820589396E+02  0.44220236164E+02  0.00000000000E+00 0.  1.
         14    1    5    5    0    0 -0.43331547460E+02  0.15474122676E+02  0.91392628815E+02  0.10232147419E+03  0.00000000000E+00 0. -1.
         11    1    3    3    0    0  0.25603833357E+02  0.13601115507E+02 -0.27722700425E+03  0.27873887155E+03  0.00000000000E+00 0. -1.
        -12    1    3    3    0    0  0.82633333529E+02 -0.40823134383E+02 -0.26084760486E+03  0.27665189150E+03  0.00000000000E+00 0.  1.
          5    1    4    4  501    0 -0.10483342859E+03  0.93152168035E+01  0.80663612137E+02  0.13266842781E+03  0.41800000000E+01 0. -1.
         -5    1    4    4    0  501 -0.13439980514E+01  0.10999503961E+01 -0.37132055076E+02  0.37406926308E+02  0.41800000000E+01 0. -1.
</event>
<event>
11    1  0.8974665E-009  0.1321535E+03  0.7561462E-02  0.1116651E+00
         22   -1    0    0    0    0  0.00000000000E+00  0.00000000000E+00  0.14852478437E+03  0.14852478437E+03  0.00000000000E+00 0. -1.
         22   -1    0    0    0    0 -0.00000000000E+00 -0.00000000000E+00 -0.14766091771E+04  0.14766091771E+04  0.00000000000E+00 0.  1.
         24    2    1    2    0    0 -0.13292790244E+02 -0.16423201623E+02 -0.13478282706E+04  0.13503542452E+04  0.79806772213E+02 0.  0.
         25    2    1    2    0    0 -0.31331438789E+02  0.14416875143E+02 -0.69393710327E+02  0.14714965520E+03  0.12509208068E+03 0.  0.
        -24    2    1    2    0    0  0.44624229033E+02  0.20063264808E+01  0.89137588107E+02  0.12763006107E+03  0.79677949971E+02 0.  0.
        -13    1    3    3    0    0  0.33569971541E+02 -0.30679249953E+01 -0.58693831223E+03  0.58790555153E+03  0.00000000000E+00 0.  1.
         14    1    3    3    0    0 -0.46862761786E+02 -0.13355276628E+02 -0.76088995832E+03  0.76244869370E+03  0.00000000000E+00 0. -1.
         13    1    5    5    0    0  0.63778119950E+02  0.17996651215E+02  0.67680338114E+02  0.94721466451E+02  0.00000000000E+00 0. -1.
        -14    1    5    5    0    0 -0.19153890916E+02 -0.15990324734E+02  0.21457249993E+02  0.32908594616E+02  0.00000000000E+00 0.  1.
          5    1    4    4  501    0  0.39756700600E+01 -0.57871330072E+01 -0.97299549422E+02  0.97642058452E+02  0.41800000000E+01 0.  1.
         -5    1    4    4    0  501 -0.35307108849E+02  0.20204008150E+02  0.27905839096E+02  0.49507596753E+02  0.41800000000E+01 0.  1.
</event>
<event>
11    1  0.8974665E-009  0.1298187E+03  0.7561462E-02  0.1119492E+00
         22   -1    0    0    0    0  0.00000000000E+00  0.00000000000E+00  0.54577116498E+03  0.54577116498E+03  0.00000000000E+00 0.  1.
         22   -1    0    0    0    0 -0.00000000000E+00 -0.00000000000E+00 -0.42272575260E+03  0.42272575260E+03  0.00000000000E+00 0. -1.
         24    2    1    2    0    0 -0.22759840080E+02 -0.25867040231E+02 -0.38555638848E+03  0.39575538232E+03  0.82349741025E+02 0.  0.
         25    2    1    2    0    0  0.37101790716E+02  0.24622671577E+02  0.13129684167E+03  0.18673235928E+03  0.12508914638E+03 0.  0.
        -24    2    1    2    0    0 -0.14341950636E+02  0.12443686547E+01  0.37730495920E+03  0.38600917597E+03  0.80229743227E+02 0.  0.
        -13    1    3    3    0    0  0.59084777796E+01 -0.14443895118E+02 -0.91586625888E+01  0.18094676462E+02  0.00000000000E+00 0.  1.
         14    1    3    3    0    0 -0.28668317860E+02 -0.11423145114E+02 -0.37639772589E+03  0.37766070586E+03  0.00000000000E+00 0. -1.
         13    1    5    5    0    0 -0.32343073988E+02 -0.17378206845E+02  0.85411058964E+02  0.92968411310E+02  0.00000000000E+00 0. -1.
        -14    1    5    5    0    0  0.18001123352E+02  0.18622575500E+02  0.29189390023E+03  0.29304076466E+03  0.00000000000E+00 0.  1.
          5    1    4    4  501    0 -0.34254947878E+02  0.36575607513E+02  0.90590283508E+02  0.10361104374E+03  0.41800000000E+01 0.  1.
         -5    1    4    4    0  501  0.71356738595E+02 -0.11952935936E+02  0.40706558158E+02  0.83121315542E+02  0.41800000000E+01 0.  1.
</event>
<event>
11    1  0.8974665E-009  0.1342404E+03  0.7561462E-02  0.1114166E+00
         22   -1    0    0    0    0  0.00000000000E+00  0.00000000000E+00  0.10258511504E+04  0.10258511504E+04  0.00000000000E+00 0. -1.
         22   -1    0    0    0    0 -0.00000000000E+00 -0.00000000000E+00 -0.93931582646E+03  0.93931582646E+03  0.00000000000E+00 0. -1.
         24    2    1    2    0    0 -0.26467272537E+02 -0.40982343552E+02 -0.90855270787E+03  0.91344164184E+03  0.80793199427E+02 0.  0.
         25    2    1    2    0    0 -0.15687455086E+02  0.61402693689E+02  0.16577511496E+03  0.21712867331E+03  0.12508830878E+03 0.  0.
        -24    2    1    2    0    0  0.42154727624E+02 -0.20420350137E+02  0.82931291684E+03  0.83459666170E+03  0.81225992808E+02 0.  0.
        -11    1    3    3    0    0 -0.23090025420E+01 -0.87501834439E+01 -0.82731655035E+01  0.12261422042E+02  0.00000000000E+00 0.  1.
         12    1    3    3    0    0 -0.24158269995E+02 -0.32232160108E+02 -0.90027954237E+03  0.90118021980E+03  0.00000000000E+00 0. -1.
         11    1    5    5    0    0  0.56873904607E+02 -0.31177961994E+02  0.76514606241E+03  0.76789009836E+03  0.00000000000E+00 0. -1.
        -12    1    5    5    0    0 -0.14719176983E+02  0.10757611856E+02  0.64166854436E+02  0.66706563337E+02  0.00000000000E+00 0.  1.
          5    1    4    4  501    0 -0.61491559985E+02  0.36092519538E+02  0.42430473027E+02  0.83076466929E+02  0.41800000000E+01 0. -1.
         -5    1    4    4    0  501  0.45804104899E+02  0.25310174151E+02  0.12334464193E+03  0.13405220638E+03  0.41800000000E+01 0. -1.
</event>
<event>
11    1  0.8974665E-009  0.1431840E+03  0.7561462E-02  0.1104054E+00
         22   -1    0    0    0    0  0.00000000000E+00  0.00000000000E+00  0.25668216043E+03  0.25668216043E+03  0.00000000000E+00 0. -1.
         22   -1    0    0    0    0 -0.00000000000E+00 -0.00000000000E+00 -0.75307818860E+03  0.75307818860E+03  0.00000000000E+00 0.  1.
        -24    2    1    2    0    0  0.42630311860E+02  0.55207112773E+02 -0.67601407916E+03  0.68416265702E+03  0.78856434413E+02 0.  0.
         25    2    1    2    0    0 -0.14680598787E+02 -0.74191230095E+02  0.25541370780E+02  0.14838889855E+03  0.12508814887E+03 0.  0.
         24    2    1    2    0    0 -0.27949713072E+02  0.18984117322E+02  0.15407668020E+03  0.17720879346E+03  0.80757352162E+02 0.  0.
        -13    1    5    5    0    0 -0.12416088869E+02 -0.29863058579E+02  0.35474199715E+02  0.48003962085E+02  0.00000000000E+00 0.  1.
         14    1    5    5    0    0 -0.15533624204E+02  0.48847175901E+02  0.11860248048E+03  0.12920483138E+03  0.00000000000E+00 0. -1.
         11    1    3    3    0    0  0.36900328567E+02 -0.10866269597E+02 -0.21720698728E+03  0.22058691118E+03  0.00000000000E+00 0. -1.
        -12    1    3    3    0    0  0.57299832930E+01  0.66073382370E+02 -0.45880709188E+03  0.46357574584E+03  0.00000000000E+00 0.  1.
          5    1    4    4  501    0 -0.48798387093E+02 -0.57621685931E+02  0.60339429666E+02  0.96746371740E+02  0.41800000000E+01 0.  1.
         -5    1    4    4    0  501  0.34117788306E+02 -0.16569544164E+02 -0.34798058886E+02  0.51642526806E+02  0.41800000000E+01 0.  1.
</event>
<event>
11    1  0.8974665E-009  0.2231461E+03  0.7561462E-02  0.1039264E+00
         22   -1    0    0    0    0  0.00000000000E+00  0.00000000000E+00  0.93762977459E+03  0.93762977459E+03  0.00000000000E+00 0.  1.
         22   -1    0    0    0    0 -0.00000000000E+00 -0.00000000000E+00 -0.12407006457E+03  0.12407006457E+03  0.00000000000E+00 0.  1.
        -24    2    1    2    0    0  0.10249566512E+03  0.15514966104E+03  0.16132995197E+03  0.25953519504E+03  0.82185067808E+02 0.  0.
         25    2    1    2    0    0 -0.92632187495E+02  0.89991440545E+02  0.13727497774E+03  0.22621272482E+03  0.12509434770E+03 0.  0.
         24    2    1    2    0    0 -0.98634776281E+01 -0.24514110159E+03  0.51495478031E+03  0.57595191930E+03  0.79691528400E+02 0.  0.
        -11    1    5    5    0    0  0.23018236031E+02 -0.15956911187E+03  0.27085084385E+03  0.31520203088E+03  0.00000000000E+00 0.  1.
         12    1    5    5    0    0 -0.32881713659E+02 -0.85571989720E+02  0.24410393645E+03  0.26074988842E+03  0.00000000000E+00 0. -1.
         11    1    3    3    0    0 -0.10375198526E+02  0.12915438741E+02 -0.11086203001E+00  0.16567003130E+02  0.00000000000E+00 0. -1.
        -12    1    3    3    0    0  0.11287086365E+03  0.14223422230E+03  0.16144081400E+03  0.24296819191E+03  0.00000000000E+00 0.  1.
          5    1    4    4  501    0 -0.60539421810E+02  0.23729807930E+02 -0.56317437771E+01  0.65401179771E+02  0.41800000000E+01 0. -1.
         -5    1    4    4    0  501 -0.32092765685E+02  0.66261632615E+02  0.14290672152E+03  0.16081154505E+03  0.41800000000E+01 0. -1.
</event>
<event>
11    1  0.8974665E-009  0.1321830E+03  0.7561462E-02  0.1116615E+00
         22   -1    0    0    0    0  0.00000000000E+00  0.00000000000E+00  0.23922168519E+03  0.23922168519E+03  0.00000000000E+00 0. -1.
         22   -1    0    0    0    0 -0.00000000000E+00 -0.00000000000E+00 -0.39683245097E+03  0.39683245097E+03  0.00000000000E+00 0.  1.
        -24    2    1    2    0    0  0.35866482911E+02 -0.31469864079E+02 -0.23622889074E+03  0.25384139711E+03  0.79715802230E+02 0.  0.
         25    2    1    2    0    0 -0.77766205577E+01  0.29755051624E+02 -0.11292907590E+03  0.17130069421E+03  0.12508042503E+03 0.  0.
         24    2    1    2    0    0 -0.28089862354E+02  0.17148124551E+01  0.19154720087E+03  0.21091204484E+03  0.83675441741E+02 0.  0.
        -11    1    5    5    0    0 -0.13119724205E+02  0.78245586637E+01 -0.31060531046E+01  0.15588407468E+02  0.00000000000E+00 0.  1.
         12    1    5    5    0    0 -0.14970138148E+02 -0.61097462086E+01  0.19465325398E+03  0.19532363738E+03  0.00000000000E+00 0. -1.
         13    1    3    3    0    0 -0.20999480351E+02  0.33202125560E+01 -0.27715643534E+02  0.34930772721E+02  0.00000000000E+00 0. -1.
        -14    1    3    3    0    0  0.56865963262E+02 -0.34790076635E+02 -0.20851324721E+03  0.21891062439E+03  0.00000000000E+00 0.  1.
          5    1    4    4  501    0 -0.24451767639E+02 -0.24481920234E+02 -0.10880994101E+03  0.11425554263E+03  0.41800000000E+01 0.  1.
         -5    1    4    4    0  501  0.16675147081E+02  0.54236971858E+02 -0.41191348961E+01  0.57045151580E+02  0.41800000000E+01 0.  1.
</event>
<event>
11    1  0.8974665E-009  0.1830264E+03  0.7561462E-02  0.1067221E+00
         22   -1    0    0    0    0  0.00000000000E+00  0.00000000000E+00  0.13544509080E+04  0.13544509080E+04  0.00000000000E+00 0.  1.
         22   -1    0    0    0    0 -0.00000000000E+00 -0.00000000000E+00 -0.20816489828E+03  0.20816489828E+03  0.00000000000E+00 0. -1.
        -24    2    1    2    0    0  0.26024972075E+02 -0.20990155236E+02 -0.13085952079E+03  0.16335766543E+03  0.91889209843E+02 0.  0.
         25    2    1    2    0    0 -0.52240372449E+02  0.14928293486E+03  0.13076503810E+03  0.24033561039E+03  0.12508900541E+03 0.  0.
         24    2    1    2    0    0  0.26215400374E+02 -0.12829277962E+03  0.11463804925E+04  0.11589225305E+04  0.10847540595E+03 0.  0.
        -13    1    5    5    0    0  0.61250396407E+02 -0.84306389963E+02  0.90990488652E+03  0.91585265243E+03  0.00000000000E+00 0.  1.
         14    1    5    5    0    0 -0.35034996033E+02 -0.43986389661E+02  0.23647560593E+03  0.24306987807E+03  0.00000000000E+00 0. -1.
         11    1    3    3    0    0  0.26181762437E+02 -0.55882820672E+02 -0.71003872696E+02  0.94074036101E+02  0.00000000000E+00 0. -1.
        -12    1    3    3    0    0 -0.15679036245E+00  0.34892665436E+02 -0.59855648096E+02  0.69283629332E+02  0.00000000000E+00 0.  1.
          5    1    4    4  501    0 -0.78228766929E+02  0.38454100028E+02  0.64860521293E+02  0.10873277982E+03  0.41800000000E+01 0. -1.
         -5    1    4    4    0  501  0.25988394481E+02  0.11082883483E+03  0.65904516812E+02  0.13160283057E+03  0.41800000000E+01 0. -1.
</event>
<event>
11    1  0.8974665E-009  0.1367705E+03  0.7561462E-02  0.1111219E+00
         22   -1    0    0    0    0  0.00000000000E+00  0.00000000000E+00  0.30442471261E+04  0.30442471261E+04  0.00000000000E+00 0.  1.
         22   -1    0    0    0    0 -0.00000000000E+00 -0.00000000000E+00 -0.31957544005E+03  0.31957544005E+03  0.00000000000E+00 0.  1.
         24    2    1    2    0    0  0.10527692038E+02  0.44103431198E+01 -0.30347706923E+03  0.31483416896E+03  0.83017702753E+02 0.  0.
         25    2    1    2    0    0 -0.64974620932E+02 -0.60963548225E+01  0.50893782404E+03  0.52813150839E+03  0.12508522899E+03 0.  0.
        -24    2    1    2    0    0  0.54446928894E+02  0.16860117027E+01  0.25192109312E+04  0.25208568888E+04  0.72996075385E+02 0.  0.
        -11    1    3    3    0    0 -0.10546803769E+02  0.28510180908E+02 -0.25458224836E+03  0.25639069145E+03  0.00000000000E+00 0.  1.
         12    1    3    3    0    0  0.21074495808E+02 -0.24099837788E+02 -0.48894820873E+02  0.58443477508E+02  0.00000000000E+00 0. -1.
         11    1    5    5    0    0  0.29963246989E+02  0.36886108022E+02  0.11697375414E+04  0.11707024801E+04  0.00000000000E+00 0. -1.
        -12    1    5    5    0    0  0.24483681905E+02 -0.35200096320E+02  0.13494733898E+04  0.13501544086E+04  0.00000000000E+00 0.  1.
          5    1    4    4  501    0  0.24105175215E+02 -0.20406929201E+02  0.42974948810E+02  0.53495989165E+02  0.41800000000E+01 0. -1.
         -5    1    4    4    0  501 -0.89079796148E+02  0.14310574378E+02  0.46596287523E+03  0.47463551922E+03  0.41800000000E+01 0. -1.
</event>
<event>
11    1  0.8974665E-009  0.1790597E+03  0.7561462E-02  0.1070406E+00
         22   -1    0    0    0    0  0.00000000000E+00  0.00000000000E+00  0.87870999924E+03  0.87870999924E+03  0.00000000000E+00 0. -1.
         22   -1    0    0    0    0 -0.00000000000E+00 -0.00000000000E+00 -0.77569438855E+03  0.77569438855E+03  0.00000000000E+00 0. -1.
        -24    2    1    2    0    0 -0.56103991840E+02 -0.11357295725E+03 -0.69853447341E+03  0.71445531766E+03  0.80308877926E+02 0.  0.
         25    2    1    2    0    0  0.61612634190E+01  0.17532463747E+03  0.11548130750E+03  0.24445950876E+03  0.12509128415E+03 0.  0.
         24    2    1    2    0    0  0.49942728421E+02 -0.61751680221E+02  0.68606877660E+03  0.69548956136E+03  0.81901267464E+02 0.  0.
        -13    1    5    5    0    0  0.39918577143E+02 -0.12365631426E+02  0.11784091197E+03  0.12503152473E+03  0.00000000000E+00 0.  1.
         14    1    5    5    0    0  0.10024151277E+02 -0.49386048795E+02  0.56822786462E+03  0.57045803663E+03  0.00000000000E+00 0. -1.
         11    1    3    3    0    0 -0.22543070015E+02 -0.11181119736E+03 -0.48091709298E+03  0.49425821610E+03  0.00000000000E+00 0. -1.
        -12    1    3    3    0    0 -0.33560921825E+02 -0.17617598921E+01 -0.21761738043E+03  0.22019710156E+03  0.00000000000E+00 0.  1.
          5    1    4    4  501    0 -0.51683833845E+02  0.11552971403E+03  0.42101233765E+02  0.13344781673E+03  0.41800000000E+01 0.  1.
         -5    1    4    4    0  501  0.57845097264E+02  0.59794923442E+02  0.73380073740E+02  0.11101169204E+03  0.41800000000E+01 0.  1.
</event>
<event>
11    1  0.8974665E-009  0.1338446E+03  0.7561462E-02  0.1114633E+00
         22   -1    0    0    0    0  0.00000000000E+00  0.00000000000E+00  0.12780930854E+04  0.12780930854E+04  0.00000000000E+00 0.  1.
         22   -1    0    0    0    0 -0.00000000000E+00 -0.00000000000E+00 -0.14349011739E+03  0.14349011739E+03  0.00000000000E+00 0.  1.
         24    2    1    2    0    0 -0.63498198034E+02  0.44792378227E+01 -0.37902739777E+02  0.10870458591E+03  0.79548630350E+02 0.  0.
         25    2    1    2    0    0  0.13818509088E+02 -0.53131408290E+01 -0.95045406864E+01  0.12631431750E+03  0.12508313177E+03 0.  0.
        -24    2    1    2    0    0  0.49679688946E+02  0.83390300629E+00  0.11820102484E+04  0.11865642994E+04  0.91202204900E+02 0.  0.
        -11    1    3    3    0    0 -0.60496567780E+02  0.10953675257E+02 -0.59743850680E+02  0.85727156776E+02  0.00000000000E+00 0.  1.
         12    1    3    3    0    0 -0.30016302537E+01 -0.64744374340E+01  0.21841110902E+02  0.22977429136E+02  0.00000000000E+00 0. -1.
         13    1    5    5    0    0  0.60799421006E+02 -0.60382563809E+01  0.41795334611E+03  0.42239558433E+03  0.00000000000E+00 0. -1.
        -14    1    5    5    0    0 -0.11119732060E+02  0.68721593872E+01  0.76405690233E+03  0.76416871502E+03  0.00000000000E+00 0.  1.
          5    1    4    4  501    0  0.42585671222E+02  0.21205655631E+02  0.40546978574E+02  0.62647817964E+02  0.41800000000E+01 0.  1.
         -5    1    4    4    0  501 -0.28767162134E+02 -0.26518796460E+02 -0.50051519260E+02  0.63666499536E+02  0.41800000000E+01 0.  1.
</event>
<event>
11    1  0.8974665E-009  0.1450617E+03  0.7561462E-02  0.1102034E+00
         22   -1    0    0    0    0  0.00000000000E+00  0.00000000000E+00  0.54780254415E+03  0.54780254415E+03  0.00000000000E+00 0.  1.
         22   -1    0    0    0    0 -0.00000000000E+00 -0.00000000000E+00 -0.83913231077E+03  0.83913231077E+03  0.00000000000E+00 0.  1.
        -24    2    1    2    0    0  0.73718487426E+01 -0.73010898098E+02 -0.71925612808E+03  0.72740725686E+03  0.80043763968E+02 0.  0.
         25    2    1    2    0    0  0.30554011856E+02  0.77070856744E+02 -0.60126493746E+02  0.16166661259E+03  0.12508970292E+03 0.  0.
         24    2    1    2    0    0 -0.37925860599E+02 -0.40599586460E+01  0.48805285520E+03  0.49786098548E+03  0.90637283856E+02 0.  0.
        -13    1    5    5    0    0 -0.37906211004E+02  0.34319535118E+02  0.37502094569E+03  0.37849097879E+03  0.00000000000E+00 0.  1.
         14    1    5    5    0    0 -0.19649594787E-01 -0.38379493764E+02  0.11303190952E+03  0.11937000669E+03  0.00000000000E+00 0. -1.
         13    1    3    3    0    0 -0.36543222186E+01  0.16739045805E+02 -0.15613499554E+03  0.15707223356E+03  0.00000000000E+00 0. -1.
        -14    1    3    3    0    0  0.11026170961E+02 -0.89749943902E+02 -0.56312113254E+03  0.57033502329E+03  0.00000000000E+00 0.  1.
          5    1    4    4  501    0  0.91561924923E+01 -0.22690361162E+02 -0.53923602376E+02  0.59362577806E+02  0.41800000000E+01 0. -1.
         -5    1    4    4    0  501  0.21397819364E+02  0.99761217906E+02 -0.62028913708E+01  0.10230403478E+03  0.41800000000E+01 0. -1.
</event>
<event>
11    1  0.8974665E-009  0.1261702E+03  0.7561462E-02  0.1124066E+00
         22   -1    0    0    0    0  0.00000000000E+00  0.00000000000E+00  0.18937058375E+04  0.18937058375E+04  0.00000000000E+00 0.  1.
         22   -1    0    0    0    0 -0.00000000000E+00 -0.00000000000E+00 -0.12735682369E+03  0.12735682369E+03  0.00000000000E+00 0. -1.
         24    2    1    2    0    0  0.14689429978E+02  0.49254498391E+01 -0.82001339764E+02  0.11834050772E+03  0.83905998804E+02 0.  0.
         25    2    1    2    0    0 -0.27029605209E+02  0.43244654229E+01  0.12956336897E+03  0.18216452253E+03  0.12509175085E+03 0.  0.
        -24    2    1    2    0    0  0.12340175231E+02 -0.92499152620E+01  0.17187869846E+04  0.17205576309E+04  0.76498510450E+02 0.  0.
        -11    1    3    3    0    0  0.25227038921E+02  0.27127923541E+02 -0.48398912121E+01  0.37359768138E+02  0.00000000000E+00 0.  1.
         12    1    3    3    0    0 -0.10537608943E+02 -0.22202473702E+02 -0.77161448552E+02  0.80980739583E+02  0.00000000000E+00 0. -1.
         11    1    5    5    0    0  0.25516371514E+01 -0.14382635211E+02  0.60665521670E+02  0.62399331465E+02  0.00000000000E+00 0. -1.
        -12    1    5    5    0    0  0.97885380794E+01  0.51327199490E+01  0.16581214629E+04  0.16581582995E+04  0.00000000000E+00 0.  1.
          5    1    4    4  501    0 -0.47298484962E+02  0.55106354482E+01 -0.30899662660E+01  0.47901295121E+02  0.41800000000E+01 0. -1.
         -5    1    4    4    0  501  0.20268879753E+02 -0.11861700253E+01  0.13265333523E+03  0.13426322741E+03  0.41800000000E+01 0. -1.
</event>
<event>
11    1  0.8974665E-009  0.2047204E+03  0.7561462E-02  0.1051235E+00
         22   -1    0    0    0    0  0.00000000000E+00  0.00000000000E+00  0.23825537559E+04  0.23825537559E+04  0.00000000000E+00 0.  1.
         22   -1    0    0    0    0 -0.00000000000E+00 -0.00000000000E+00 -0.26153589854E+03  0.26153589854E+03  0.00000000000E+00 0.  1.
         24    2    1    2    0    0  0.15767696639E+03 -0.18820293216E+02 -0.13520646142E+03  0.22310022561E+03  0.79225591142E+02 0.  0.
         25    2    1    2    0    0 -0.15701344816E+03  0.10855355291E+03  0.80601499354E+02  0.24203395710E+03  0.12508692153E+03 0.  0.
        -24    2    1    2    0    0 -0.66351823330E+00 -0.89733259699E+02  0.21756228194E+04  0.21789554717E+04  0.80372863762E+02 0.  0.
        -13    1    3    3    0    0  0.14751974119E+03 -0.35702432769E+02 -0.97040267049E+02  0.18014869185E+03  0.00000000000E+00 0.  1.
         14    1    3    3    0    0  0.10157225196E+02  0.16882139554E+02 -0.38166194367E+02  0.42951533757E+02  0.00000000000E+00 0. -1.
         11    1    5    5    0    0 -0.39252002260E+02 -0.59982439087E+02  0.13280071273E+04  0.13299404283E+04  0.00000000000E+00 0. -1.
        -12    1    5    5    0    0  0.38588484027E+02 -0.29750820613E+02  0.84761569211E+03  0.84901504341E+03  0.00000000000E+00 0.  1.
          5    1    4    4  501    0 -0.15926666302E+03  0.12684841544E+03  0.56382045016E+02  0.21131208638E+03  0.41800000000E+01 0.  1.
         -5    1    4    4    0  501  0.22532148600E+01 -0.18294862527E+02  0.24219454338E+02  0.30721870720E+02  0.41800000000E+01 0.  1.
</event>
<event>
11    1  0.8974665E-009  0.1372279E+03  0.7561462E-02  0.1110694E+00
         22   -1    0    0    0    0  0.00000000000E+00  0.00000000000E+00  0.10162873899E+03  0.10162873899E+03  0.00000000000E+00 0.  1.
         22   -1    0    0    0    0 -0.00000000000E+00 -0.00000000000E+00 -0.21128868154E+04  0.21128868154E+04  0.00000000000E+00 0. -1.
        -24    2    1    2    0    0 -0.30941537646E+02 -0.56741106381E+02 -0.16382146453E+04  0.16422457303E+04  0.95115101825E+02 0.  0.
         25    2    1    2    0    0  0.38564795184E+01  0.20707319316E+02 -0.44218632854E+03  0.46002251825E+03  0.12509317584E+03 0.  0.
         24    2    1    2    0    0  0.27085058127E+02  0.36033787065E+02  0.69142897442E+02  0.11224730586E+03  0.76070251882E+02 0.  0.
        -11    1    5    5    0    0  0.19456030396E+02  0.89205022916E+01  0.79428581044E+02  0.82261850007E+02  0.00000000000E+00 0.  1.
         12    1    5    5    0    0  0.76290277312E+01  0.27113284773E+02 -0.10285683602E+02  0.29985455849E+02  0.00000000000E+00 0. -1.
         13    1    3    3    0    0 -0.44413059151E+02 -0.76668892885E+02 -0.11332473176E+04  0.11367058202E+04  0.00000000000E+00 0. -1.
        -14    1    3    3    0    0  0.13471521505E+02  0.19927786504E+02 -0.50496732777E+03  0.50553991007E+03  0.00000000000E+00 0.  1.
          5    1    4    4  501    0 -0.18110924928E+02  0.32640589854E+02 -0.43045869369E+03  0.43209440297E+03  0.41800000000E+01 0.  1.
         -5    1    4    4    0  501  0.21967404446E+02 -0.11933270538E+02 -0.11727634855E+02  0.27928115281E+02  0.41800000000E+01 0.  1.
</event>
<event>
11    1  0.8974665E-009  0.1438991E+03  0.7561462E-02  0.1103281E+00
         22   -1    0    0    0    0  0.00000000000E+00  0.00000000000E+00  0.15986232739E+04  0.15986232739E+04  0.00000000000E+00 0.  1.
         22   -1    0    0    0    0 -0.00000000000E+00 -0.00000000000E+00 -0.59710850068E+03  0.59710850068E+03  0.00000000000E+00 0.  1.
         24    2    1    2    0    0  0.70386632758E+02 -0.10275532022E+02 -0.57910089651E+03  0.58901259396E+03  0.80734892571E+02 0.  0.
         25    2    1    2    0    0 -0.79280541728E+02 -0.51334959579E+02  0.57789455399E+03  0.59877351630E+03  0.12508767293E+03 0.  0.
        -24    2    1    2    0    0  0.88939089702E+01  0.61610491601E+02  0.10027211158E+04  0.10079456643E+04  0.81424025728E+02 0.  0.
        -13    1    3    3    0    0  0.34150714533E+02  0.29801664117E+02 -0.38061728667E+03  0.38330657364E+03  0.00000000000E+00 0.  1.
         14    1    3    3    0    0  0.36235918225E+02 -0.40077196138E+02 -0.19848360985E+03  0.20570602032E+03  0.00000000000E+00 0. -1.
         13    1    5    5    0    0  0.17191012914E+02 -0.79927602525E+01  0.67805336558E+02  0.70405815152E+02  0.00000000000E+00 0. -1.
        -14    1    5    5    0    0 -0.82971039441E+01  0.69603251854E+02  0.93491577919E+03  0.93753984917E+03  0.00000000000E+00 0.  1.
          5    1    4    4  501    0 -0.77753352884E+02 -0.48467876356E+01  0.51256552457E+03  0.51846886561E+03  0.41800000000E+01 0.  1.
         -5    1    4    4    0  501 -0.15271888440E+01 -0.46488171944E+02  0.65329029418E+02  0.80304650682E+02  0.41800000000E+01 0.  1.
</event>
<event>
11    1  0.8974665E-009  0.1723593E+03  0.7561462E-02  0.1075997E+00
         22   -1    0    0    0    0  0.00000000000E+00  0.00000000000E+00  0.82027394277E+03  0.82027394277E+03  0.00000000000E+00 0.  1.
         22   -1    0    0    0    0 -0.00000000000E+00 -0.00000000000E+00 -0.16094686092E+03  0.16094686092E+03  0.00000000000E+00 0.  1.
        -24    2    1    2    0    0 -0.17696771636E+02 -0.49794517298E+02 -0.11554409499E+03  0.14016523528E+03  0.59187715074E+02 0.  0.
         25    2    1    2    0    0  0.12269026965E+03  0.73070023436E+02  0.40082943331E+03  0.44351331189E+03  0.12509073758E+03 0.  0.
         24    2    1    2    0    0 -0.10499349801E+03 -0.23275506138E+02  0.37404174353E+03  0.39754225652E+03  0.81038484702E+02 0.  0.
        -11    1    5    5    0    0 -0.10229765962E+03 -0.27413607885E+02  0.37712929941E+03  0.39171778813E+03  0.00000000000E+00 0.  1.
         12    1    5    5    0    0 -0.26958383940E+01  0.41381017473E+01 -0.30875558806E+01  0.58244683906E+01  0.00000000000E+00 0. -1.
         13    1    3    3    0    0 -0.66402537311E+01  0.45099911922E+01  0.35739050369E+01  0.87866823876E+01  0.00000000000E+00 0. -1.
        -14    1    3    3    0    0 -0.11056517905E+02 -0.54304508490E+02 -0.11911800003E+03  0.13137855290E+03  0.00000000000E+00 0.  1.
          5    1    4    4  501    0  0.10675413514E+03 -0.70776800238E+01  0.24887089783E+03  0.27092570035E+03  0.41800000000E+01 0. -1.
         -5    1    4    4    0  501  0.15936134511E+02  0.80147703459E+02  0.15195853548E+03  0.17258761155E+03  0.41800000000E+01 0. -1.
</event>
<event>
11    1  0.8974665E-009  0.1315298E+03  0.7561462E-02  0.1117403E+00
         22   -1    0    0    0    0  0.00000000000E+00  0.00000000000E+00  0.28803348373E+03  0.28803348373E+03  0.00000000000E+00 0.  1.
         22   -1    0    0    0    0 -0.00000000000E+00 -0.00000000000E+00 -0.64678600492E+03  0.64678600492E+03  0.00000000000E+00 0. -1.
         24    2    1    2    0    0 -0.11497668467E+02 -0.43386540401E+02 -0.50678690062E+03  0.51300648780E+03  0.65788339499E+02 0.  0.
         25    2    1    2    0    0  0.75275428357E+01  0.81305752533E+02 -0.85381842946E+02  0.17206331519E+03  0.12509370901E+03 0.  0.
        -24    2    1    2    0    0  0.39701256312E+01 -0.37919212132E+02  0.23341622238E+03  0.24974968567E+03  0.80238046309E+02 0.  0.
        -13    1    3    3    0    0  0.19894196423E+02 -0.65175218476E+01 -0.29555182483E+03  0.29629231901E+03  0.00000000000E+00 0.  1.
         14    1    3    3    0    0 -0.31391864890E+02 -0.36869018553E+02 -0.21123507579E+03  0.21671416879E+03  0.00000000000E+00 0. -1.
         11    1    5    5    0    0  0.39548467187E+02 -0.44511364022E+01  0.96694832684E+02  0.10456473851E+03  0.00000000000E+00 0. -1.
        -12    1    5    5    0    0 -0.35578341556E+02 -0.33468075730E+02  0.13672138969E+03  0.14518494716E+03  0.00000000000E+00 0.  1.
          5    1    4    4  501    0 -0.10688753991E+02 -0.23324684220E+02 -0.56079363520E+02  0.61811469556E+02  0.41800000000E+01 0. -1.
         -5    1    4    4    0  501  0.18216296827E+02  0.10463043675E+03 -0.29302479425E+02  0.11025184563E+03  0.41800000000E+01 0. -1.
</event>
<event>
11    1  0.8974665E-009  0.1345557E+03  0.7561462E-02  0.1113795E+00
         22   -1    0    0    0    0  0.00000000000E+00  0.00000000000E+00  0.53901199759E+03  0.53901199759E+03  0.00000000000E+00 0.  1.
         22   -1    0    0    0    0 -0.00000000000E+00 -0.00000000000E+00 -0.59070946912E+03  0.59070946912E+03  0.00000000000E+00 0.  1.
         24    2    1    2    0    0  0.51530958798E+02 -0.20673283242E+02 -0.15922111063E+03  0.18691402802E+03  0.80639118572E+02 0.  0.
         25    2    1    2    0    0 -0.47143061650E+02 -0.35500457117E+01 -0.40348781424E+03  0.42507117564E+03  0.12509203426E+03 0.  0.
        -24    2    1    2    0    0 -0.43878971479E+01  0.24223328954E+02  0.51101145335E+03  0.51773626305E+03  0.79448784262E+02 0.  0.
        -13    1    3    3    0    0  0.67709241611E+00 -0.42409677936E+02 -0.74856792087E+02  0.86038238930E+02  0.00000000000E+00 0.  1.
         14    1    3    3    0    0  0.50853866382E+02  0.21736394694E+02 -0.84364318545E+02  0.10087578909E+03  0.00000000000E+00 0. -1.
         13    1    5    5    0    0 -0.31678827217E+02  0.36914577096E+02  0.22814991367E+03  0.23327798268E+03  0.00000000000E+00 0. -1.
        -14    1    5    5    0    0  0.27290930069E+02 -0.12691248142E+02  0.28286153968E+03  0.28445828037E+03  0.00000000000E+00 0.  1.
          5    1    4    4  501    0 -0.41181927761E+02  0.48073618689E+02 -0.10994488842E+03  0.12693452988E+03  0.41800000000E+01 0. -1.
         -5    1    4    4    0  501 -0.59611338887E+01 -0.51623664401E+02 -0.29354292582E+03  0.29813664576E+03  0.41800000000E+01 0. -1.
</event>
<event>
11    1  0.8974665E-009  0.1609021E+03  0.7561462E-02  0.1086232E+00
         22   -1    0    0    0    0  0.00000000000E+00  0.00000000000E+00  0.13689279654E+04  0.13689279654E+04  0.00000000000E+00 0.  1.
         22   -1    0    0    0    0 -0.00000000000E+00 -0.00000000000E+00 -0.11717659239E+03  0.11717659239E+03  0.00000000000E+00 0.  1.
         24    2    1    2    0    0 -0.67396591029E+02  0.86371759570E+02 -0.45400277369E+02  0.14411773841E+03  0.81892344001E+02 0.  0.
         25    2    1    2    0    0  0.38232331993E+02 -0.47690333824E+02  0.21650553576E+03  0.25740574354E+03  0.12508793165E+03 0.  0.
        -24    2    1    2    0    0  0.29164259035E+02 -0.38681425746E+02  0.10806461146E+04  0.10845810758E+04  0.78570212729E+02 0.  0.
        -11    1    3    3    0    0 -0.77519138279E+02  0.70159418828E+02 -0.59562368750E+02  0.12032969966E+03  0.00000000000E+00 0.  1.
         12    1    3    3    0    0  0.10122547251E+02  0.16212340742E+02  0.14162091381E+02  0.23788038748E+02  0.00000000000E+00 0. -1.
         13    1    5    5    0    0  0.38503546225E+02  0.89777770948E+00  0.25087856229E+03  0.25381761581E+03  0.00000000000E+00 0. -1.
        -14    1    5    5    0    0 -0.93392871897E+01 -0.39579203455E+02  0.82976755230E+03  0.83076346001E+03  0.00000000000E+00 0.  1.
          5    1    4    4  501    0  0.74251009576E+02  0.57053988817E+01  0.11138984749E+03  0.13405571425E+03  0.41800000000E+01 0. -1.
         -5    1    4    4    0  501 -0.36018677583E+02 -0.53395732706E+02  0.10511568827E+03  0.12335002929E+03  0.41800000000E+01 0. -1.
</event>
<event>
11    1  0.8974665E-009  0.1684773E+03  0.7561462E-02  0.1079364E+00
         22   -1    0    0    0    0  0.00000000000E+00  0.00000000000E+00  0.15954661289E+04  0.15954661289E+04  0.00000000000E+00 0.  1.
         22   -1    0    0    0    0 -0.00000000000E+00 -0.00000000000E+00 -0.64091700509E+03  0.64091700509E+03  0.00000000000E+00 0. -1.
        -24    2    1    2    0    0  0.80046132139E+02 -0.98929375600E+01 -0.60117425120E+03  0.61167633298E+03  0.78944300189E+02 0.  0.
         25    2    1    2    0    0  0.24280856318E+02 -0.50986260919E+02  0.12223045803E+03  0.18378440508E+03  0.12508902387E+03 0.  0.
         24    2    1    2    0    0 -0.10432698846E+03  0.60879198479E+02  0.14334929170E+04  0.14409223960E+04  0.82249685351E+02 0.  0.
        -11    1    5    5    0    0 -0.61275088044E+02  0.23710399149E+02  0.11445761531E+04  0.11464603742E+04  0.00000000000E+00 0.  1.
         12    1    5    5    0    0 -0.43051900413E+02  0.37168799330E+02  0.28891676395E+03  0.29446202177E+03  0.00000000000E+00 0. -1.
         11    1    3    3    0    0  0.65637302185E+02  0.25561422750E+02 -0.46188584872E+03  0.46722604702E+03  0.00000000000E+00 0. -1.
        -12    1    3    3    0    0  0.14408829954E+02 -0.35454360310E+02 -0.13928840248E+03  0.14445028595E+03  0.00000000000E+00 0.  1.
          5    1    4    4  501    0  0.32509304242E+02 -0.72185698789E+02  0.13560092791E+03  0.15707550421E+03  0.41800000000E+01 0. -1.
         -5    1    4    4    0  501 -0.82284479242E+01  0.21199437870E+02 -0.13370469876E+02  0.26708900874E+02  0.41800000000E+01 0. -1.
</event>
<event>
11    1  0.8974665E-009  0.1259253E+03  0.7561462E-02  0.1124379E+00
         22   -1    0    0    0    0  0.00000000000E+00  0.00000000000E+00  0.65251129533E+02  0.65251129533E+02  0.00000000000E+00 0.  1.
         22   -1    0    0    0    0 -0.00000000000E+00 -0.00000000000E+00 -0.17987088314E+04  0.17987088314E+04  0.00000000000E+00 0.  1.
         24    2    1    2    0    0 -0.13821997294E+02 -0.14779448224E+00 -0.16062736541E+04  0.16083887925E+04  0.81291982611E+02 0.  0.
         25    2    1    2    0    0  0.32018143288E+02  0.17663573531E+02 -0.11237179092E+03  0.17208303641E+03  0.12509192098E+03 0.  0.
        -24    2    1    2    0    0 -0.18196145994E+02 -0.17515779049E+02 -0.14812256779E+02  0.83488131992E+02  0.78185439744E+02 0.  0.
        -13    1    3    3    0    0 -0.34957775377E+02  0.29688666565E+02 -0.91564216251E+03  0.91679007017E+03  0.00000000000E+00 0.  1.
         14    1    3    3    0    0  0.21135778082E+02 -0.29836461047E+02 -0.69063149162E+03  0.69159872234E+03  0.00000000000E+00 0. -1.
         11    1    5    5    0    0 -0.99050851746E+01  0.29242262951E+02 -0.18270016535E+02  0.35874979568E+02  0.00000000000E+00 0. -1.
        -12    1    5    5    0    0 -0.82910608194E+01 -0.46758042000E+02  0.34577597562E+01  0.47613152424E+02  0.00000000000E+00 0.  1.
          5    1    4    4  501    0  0.90752231097E+01  0.11125885436E+02 -0.13684024790E+03  0.13765489765E+03  0.41800000000E+01 0. -1.
         -5    1    4    4    0  501  0.22942920179E+02  0.65376880948E+01  0.24468456972E+02  0.34428138761E+02  0.41800000000E+01 0. -1.
</event>
<event>
11    1  0.8974665E-009  0.1690712E+03  0.7561462E-02  0.1078843E+00
         22   -1    0    0    0    0  0.00000000000E+00  0.00000000000E+00  0.39010168177E+03  0.39010168177E+03  0.00000000000E+00 0.  1.
         22   -1    0    0    0    0 -0.00000000000E+00 -0.00000000000E+00 -0.34140999228E+03  0.34140999228E+03  0.00000000000E+00 0. -1.
         24    2    1    2    0    0  0.44629544854E+02 -0.49787161214E+02 -0.19153243268E+03  0.21446145647E+03  0.69559225440E+02 0.  0.
         25    2    1    2    0    0  0.71633904375E+02  0.22210404512E+02 -0.80771485848E+02  0.16672280663E+03  0.12509093893E+03 0.  0.
        -24    2    1    2    0    0 -0.11626344923E+03  0.27576756702E+02  0.32099560803E+03  0.35032741095E+03  0.73576133045E+02 0.  0.
        -13    1    3    3    0    0  0.29455640941E+02 -0.44690581158E+02 -0.54111277944E+02  0.76111189901E+02  0.00000000000E+00 0.  1.
         14    1    3    3    0    0  0.15173903914E+02 -0.50965800560E+01 -0.13742115474E+03  0.13835026657E+03  0.00000000000E+00 0. -1.
         13    1    5    5    0    0 -0.28482384371E+02 -0.21279011282E+01  0.18681958414E+02  0.34129016289E+02  0.00000000000E+00 0. -1.
        -14    1    5    5    0    0 -0.87781064859E+02  0.29704657831E+02  0.30231364961E+03  0.31619839466E+03  0.00000000000E+00 0.  1.
          5    1    4    4  501    0  0.84370071770E+02  0.58881452856E+02 -0.40548078942E+02  0.11066595505E+03  0.41800000000E+01 0. -1.
         -5    1    4    4    0  501 -0.12736167394E+02 -0.36671048345E+02 -0.40223406905E+02  0.56056851585E+02  0.41800000000E+01 0. -1.
</event>
<event>
11    1  0.8974665E-009  0.1721181E+03  0.7561462E-02  0.1076203E+00
         22   -1    0    0    0    0  0.00000000000E+00  0.00000000000E+00  0.13745502543E+04  0.13745502543E+04  0.00000000000E+00 0. -1.
         22   -1    0    0    0    0 -0.00000000000E+00 -0.00000000000E+00 -0.17476517759E+04  0.17476517759E+04  0.00000000000E+00 0. -1.
         24    2    1    2    0    0 -0.20758526742E+02 -0.78974234535E+02 -0.14453978760E+04  0.14499235185E+04  0.80220590612E+02 0.  0.
         25    2    1    2    0    0 -0.97162772395E+02  0.89521454695E+02 -0.26820965941E+03  0.32409768628E+03  0.12509274025E+03 0.  0.
        -24    2    1    2    0    0  0.11792129914E+03 -0.10547220161E+02  0.13405060138E+04  0.13481808254E+04  0.81354093044E+02 0.  0.
        -13    1    3    3    0    0  0.37405205494E+01  0.15178442334E+02 -0.13085178813E+03  0.13178227143E+03  0.00000000000E+00 0.  1.
         14    1    3    3    0    0 -0.24499047292E+02 -0.94152676868E+02 -0.13145460879E+04  0.13181412470E+04  0.00000000000E+00 0. -1.
         13    1    5    5    0    0  0.85489035820E+02 -0.22162765070E+02  0.12095348355E+04  0.12127547492E+04  0.00000000000E+00 0. -1.
        -14    1    5    5    0    0  0.32432263317E+02  0.11615544909E+02  0.13097117830E+03  0.13542607627E+03  0.00000000000E+00 0.  1.
          5    1    4    4  501    0 -0.10942045844E+03  0.11102568664E+03 -0.21887746916E+03  0.26874589992E+03  0.41800000000E+01 0.  1.
         -5    1    4    4    0  501  0.12257686044E+02 -0.21504231942E+02 -0.49332190250E+02  0.55351786362E+02  0.41800000000E+01 0.  1.
</event>
<event>
11    1  0.8974665E-009  0.1322417E+03  0.7561462E-02  0.1116545E+00
         22   -1    0    0    0    0  0.00000000000E+00  0.00000000000E+00  0.14642800300E+03  0.14642800300E+03  0.00000000000E+00 0.  1.
         22   -1    0    0    0    0 -0.00000000000E+00 -0.00000000000E+00 -0.18380907853E+04  0.18380907853E+04  0.00000000000E+00 0.  1.
         24    2    1    2    0    0  0.34322892525E+02  0.28896558346E+02 -0.15622613663E+04  0.15650878537E+04  0.82621675289E+02 0.  0.
         25    2    1    2    0    0 -0.29514440952E+02  0.34842893246E+01 -0.24446436660E+03  0.27621308528E+03  0.12509036512E+03 0.  0.
        -24    2    1    2    0    0 -0.48084515728E+01 -0.32380847671E+02  0.11506295063E+03  0.14321784927E+03  0.78741534408E+02 0.  0.
        -11    1    3    3    0    0  0.20293276539E+02  0.16833089952E+01 -0.13885295193E+04  0.13886788241E+04  0.00000000000E+00 0.  1.
         12    1    3    3    0    0  0.14029615986E+02  0.27213249351E+02 -0.17373184698E+03  0.17640902959E+03  0.00000000000E+00 0. -1.
         11    1    5    5    0    0  0.19682878304E+02 -0.22011877803E+02  0.49525875448E+01  0.29941051854E+02  0.00000000000E+00 0. -1.
        -12    1    5    5    0    0 -0.24491329877E+02 -0.10368969868E+02  0.11011036308E+03  0.11327679742E+03  0.00000000000E+00 0.  1.
          5    1    4    4  501    0 -0.42625367256E+02 -0.52268498154E+02 -0.99389267891E+02  0.12018575958E+03  0.41800000000E+01 0. -1.
         -5    1    4    4    0  501  0.13110926304E+02  0.55752787479E+02 -0.14507509871E+03  0.15602732570E+03  0.41800000000E+01 0. -1.
</event>
<event>
11    1  0.8974665E-009  0.1426843E+03  0.7561462E-02  0.1104597E+00
         22   -1    0    0    0    0  0.00000000000E+00  0.00000000000E+00  0.13178892552E+04  0.13178892552E+04  0.00000000000E+00 0.  1.
         22   -1    0    0    0    0 -0.00000000000E+00 -0.00000000000E+00 -0.74183390211E+03  0.74183390211E+03  0.00000000000E+00 0. -1.
         24    2    1    2    0    0 -0.79220042285E+00 -0.24632459154E+02 -0.58751500202E+03  0.59350920115E+03  0.80448173537E+02 0.  0.
         25    2    1    2    0    0 -0.63119996825E+02  0.49312810140E+02 -0.11205035267E+03  0.18606256627E+03  0.12509240500E+03 0.  0.
        -24    2    1    2    0    0  0.63912197248E+02 -0.24680350986E+02  0.12756207078E+04  0.12801513899E+04  0.82978926396E+02 0.  0.
        -11    1    3    3    0    0 -0.16666364403E+02  0.14465086134E+02 -0.54101902592E+02  0.58429635318E+02  0.00000000000E+00 0.  1.
         12    1    3    3    0    0  0.15874163980E+02 -0.39097545288E+02 -0.53341309943E+03  0.53507956583E+03  0.00000000000E+00 0. -1.
         11    1    5    5    0    0 -0.15482479717E+02  0.10122161313E+02  0.13826442224E+03  0.13949629309E+03  0.00000000000E+00 0. -1.
        -12    1    5    5    0    0  0.79394676965E+02 -0.34802512299E+02  0.11373562856E+04  0.11406550968E+04  0.00000000000E+00 0.  1.
          5    1    4    4  501    0 -0.41388359706E+02 -0.24448805745E+02 -0.95933123948E+02  0.10738424974E+03  0.41800000000E+01 0.  1.
         -5    1    4    4    0  501 -0.21731637119E+02  0.73761615885E+02 -0.16117228721E+02  0.78678316527E+02  0.41800000000E+01 0.  1.
</event>
<event>
11    1  0.8974665E-009  0.1403339E+03  0.7561462E-02  0.1107186E+00
         22   -1    0    0    0    0  0.00000000000E+00  0.00000000000E+00  0.37931957146E+03  0.37931957146E+03  0.00000000000E+00 0. -1.
         22   -1    0    0    0    0 -0.00000000000E+00 -0.00000000000E+00 -0.11847795451E+04  0.11847795451E+04  0.00000000000E+00 0. -1.
        -24    2    1    2    0    0  0.51838912402E+01  0.72590257718E+02 -0.63888056916E+03  0.64793195929E+03  0.79694566824E+02 0.  0.
         25    2    1    2    0    0  0.36301784406E+02 -0.44265605641E+02 -0.52761225890E+03  0.54525180620E+03  0.12509025953E+03 0.  0.
         24    2    1    2    0    0 -0.41485675646E+02 -0.28324652077E+02  0.36103285438E+03  0.37091535110E+03  0.68630376212E+02 0.  0.
        -11    1    5    5    0    0 -0.45301401343E+02  0.46339220433E+01  0.13531401043E+03  0.14277104614E+03  0.00000000000E+00 0.  1.
         12    1    5    5    0    0  0.38157256964E+01 -0.32958574120E+02  0.22571884396E+03  0.22814430496E+03  0.00000000000E+00 0. -1.
         11    1    3    3    0    0  0.55739332100E+01  0.30421107210E+02 -0.53394115826E+03  0.53483611787E+03  0.00000000000E+00 0. -1.
        -12    1    3    3    0    0 -0.39004196978E+00  0.42169150508E+02 -0.10493941090E+03  0.11309584143E+03  0.00000000000E+00 0.  1.
          5    1    4    4  501    0 -0.19117691274E+02 -0.72016473766E+02 -0.25805759826E+03  0.26863182059E+03  0.41800000000E+01 0.  1.
         -5    1    4    4    0  501  0.55419475680E+02  0.27750868125E+02 -0.26955466064E+03  0.27661998561E+03  0.41800000000E+01 0.  1.
</event>
<event>
11    1  0.8974665E-009  0.1306791E+03  0.7561462E-02  0.1118437E+00
         22   -1    0    0    0    0  0.00000000000E+00  0.00000000000E+00  0.71992396142E+03  0.71992396142E+03  0.00000000000E+00 0.  1.
         22   -1    0    0    0    0 -0.00000000000E+00 -0.00000000000E+00 -0.24932415160E+03  0.24932415160E+03  0.00000000000E+00 0.  1.
        -24    2    1    2    0    0 -0.24002819587E+02  0.66512796001E+01 -0.21483357004E+03  0.23046514509E+03  0.79626285969E+02 0.  0.
         25    2    1    2    0    0  0.52908454334E+02  0.12494146806E+02  0.19046426106E+03  0.23427458398E+03  0.12511010236E+03 0.  0.
         24    2    1    2    0    0 -0.28905634748E+02 -0.19145426406E+02  0.49496911879E+03  0.50450838395E+03  0.91280873407E+02 0.  0.
        -13    1    5    5    0    0  0.89824659658E+01 -0.48509440474E+02  0.27309235716E+03  0.27751267728E+03  0.00000000000E+00 0.  1.
         14    1    5    5    0    0 -0.37888100713E+02  0.29364014068E+02  0.22187676163E+03  0.22699570667E+03  0.00000000000E+00 0. -1.
         11    1    3    3    0    0 -0.29904095375E+02  0.49953993040E+01 -0.21819320240E+02  0.37353603174E+02  0.00000000000E+00 0. -1.
        -12    1    3    3    0    0  0.59012757879E+01  0.16558802961E+01 -0.19301424980E+03  0.19311154192E+03  0.00000000000E+00 0.  1.
          5    1    4    4  501    0  0.61860374025E+02  0.55171775378E+02  0.79295793009E+02  0.11478643588E+03  0.41800000000E+01 0. -1.
         -5    1    4    4    0  501 -0.89519196912E+01 -0.42677628572E+02  0.11116846805E+03  0.11948814810E+03  0.41800000000E+01 0. -1.
</event>
<event>
11    1  0.8974665E-009  0.1469378E+03  0.7561462E-02  0.1100049E+00
         22   -1    0    0    0    0  0.00000000000E+00  0.00000000000E+00  0.26118345645E+03  0.26118345645E+03  0.00000000000E+00 0.  1.
         22   -1    0    0    0    0 -0.00000000000E+00 -0.00000000000E+00 -0.98494778351E+03  0.98494778351E+03  0.00000000000E+00 0. -1.
        -24    2    1    2    0    0 -0.59369208878E+02  0.49622813622E+01 -0.32863971351E+03  0.34314410876E+03  0.78705088027E+02 0.  0.
         25    2    1    2    0    0  0.99254544150E+02 -0.25380796560E+02 -0.63003954956E+03  0.65045294724E+03  0.12507419078E+03 0.  0.
         24    2    1    2    0    0 -0.39885335272E+02  0.20418515198E+02  0.23491493600E+03  0.25253418396E+03  0.81121705974E+02 0.  0.
        -13    1    5    5    0    0 -0.19365087710E+02 -0.22749138060E+02  0.16599716397E+03  0.16866412882E+03  0.00000000000E+00 0.  1.
         14    1    5    5    0    0 -0.20520247563E+02  0.43167653258E+02  0.68917772034E+02  0.83870055144E+02  0.00000000000E+00 0. -1.
         13    1    3    3    0    0 -0.34924590323E+02 -0.21938027382E+02 -0.27665559877E+03  0.27971293210E+03  0.00000000000E+00 0. -1.
        -14    1    3    3    0    0 -0.24444618555E+02  0.26900308744E+02 -0.51984114740E+02  0.63431176657E+02  0.00000000000E+00 0.  1.
          5    1    4    4  501    0  0.43887494073E+02  0.44435511180E+02 -0.15593091165E+03  0.16802543974E+03  0.41800000000E+01 0. -1.
         -5    1    4    4    0  501  0.55367050077E+02 -0.69816307740E+02 -0.47410863791E+03  0.48242750751E+03  0.41800000000E+01 0. -1.
</event>
<event>
11    1  0.8974665E-009  0.1759116E+03  0.7561462E-02  0.1072999E+00
         22   -1    0    0    0    0  0.00000000000E+00  0.00000000000E+00  0.25530113377E+03  0.25530113377E+03  0.00000000000E+00 0.  1.
         22   -1    0    0    0    0 -0.00000000000E+00 -0.00000000000E+00 -0.71169961514E+03  0.71169961514E+03  0.00000000000E+00 0. -1.
        -24    2    1    2    0    0  0.18948425641E+01 -0.10961715791E+03 -0.36071009887E+03  0.38561980127E+03  0.81063826532E+02 0.  0.
         25    2    1    2    0    0 -0.10006131222E+03  0.15806958513E+03 -0.27567029440E+03  0.35586357109E+03  0.12508601068E+03 0.  0.
         24    2    1    2    0    0  0.98166469660E+02 -0.48452427227E+02  0.17998191190E+03  0.22551737654E+03  0.80500341873E+02 0.  0.
        -13    1    5    5    0    0  0.97657909781E+02 -0.10912894215E+02  0.12681461052E+03  0.16043099465E+03  0.00000000000E+00 0.  1.
         14    1    5    5    0    0  0.50855987956E+00 -0.37539533012E+02  0.53167301383E+02  0.65086381895E+02  0.00000000000E+00 0. -1.
         11    1    3    3    0    0  0.76465190790E+01 -0.11599350356E+03 -0.26314266597E+03  0.28767520710E+03  0.00000000000E+00 0. -1.
        -12    1    3    3    0    0 -0.57516765148E+01  0.63763456537E+01 -0.97567432897E+02  0.97944594179E+02  0.00000000000E+00 0.  1.
          5    1    4    4  501    0 -0.49459220229E+01  0.12351431024E+03 -0.15614604667E+03  0.19919665477E+03  0.41800000000E+01 0. -1.
         -5    1    4    4    0  501 -0.95115390201E+02  0.34555274892E+02 -0.11952424772E+03  0.15666691632E+03  0.41800000000E+01 0. -1.
</event>
<event>
11    1  0.8974665E-009  0.1559550E+03  0.7561462E-02  0.1090945E+00
         22   -1    0    0    0    0  0.00000000000E+00  0.00000000000E+00  0.28527847859E+03  0.28527847859E+03  0.00000000000E+00 0.  1.
         22   -1    0    0    0    0 -0.00000000000E+00 -0.00000000000E+00 -0.88362152623E+03  0.88362152623E+03  0.00000000000E+00 0.  1.
        -24    2    1    2    0    0 -0.25301806101E+02  0.89669890407E+02 -0.81744921578E+03  0.82673947052E+03  0.81203824370E+02 0.  0.
         25    2    1    2    0    0  0.32744846755E+02 -0.86574650491E+02  0.66882368682E+02  0.16937651107E+03  0.12509099155E+03 0.  0.
         24    2    1    2    0    0 -0.74430406539E+01 -0.30952399156E+01  0.15222379946E+03  0.17278402323E+03  0.81346506969E+02 0.  0.
        -13    1    5    5    0    0 -0.26115974092E+02  0.19273802058E+02  0.13519016912E+03  0.13903203003E+03  0.00000000000E+00 0.  1.
         14    1    5    5    0    0  0.18672933438E+02 -0.22369041974E+02  0.17033630342E+02  0.33751993195E+02  0.00000000000E+00 0. -1.
         11    1    3    3    0    0 -0.22994546710E+02  0.28458956580E+02 -0.96671645161E+02  0.10336376718E+03  0.00000000000E+00 0. -1.
        -12    1    3    3    0    0 -0.23072593908E+01  0.61210933827E+02 -0.72077757062E+03  0.72337570333E+03  0.00000000000E+00 0.  1.
          5    1    4    4  501    0  0.72757892800E+02 -0.17140086748E+02  0.25520704697E+02  0.79096601106E+02  0.41800000000E+01 0. -1.
         -5    1    4    4    0  501 -0.40013046045E+02 -0.69434563744E+02  0.41361663985E+02  0.90279909967E+02  0.41800000000E+01 0. -1.
</event>
<event>
11    1  0.8974665E-009  0.1526813E+03  0.7561462E-02  0.1094170E+00
         22   -1    0    0    0    0  0.00000000000E+00  0.00000000000E+00  0.64232300057E+02  0.64232300057E+02  0.00000000000E+00 0.  1.
         22   -1    0    0    0    0 -0.00000000000E+00 -0.00000000000E+00 -0.10689716194E+04  0.10689716194E+04  0.00000000000E+00 0.  1.
         24    2    1    2    0    0  0.94698968975E+02 -0.13778599763E+02 -0.74283088259E+03  0.75317799975E+03  0.79508707926E+02 0.  0.
         25    2    1    2    0    0 -0.59891209489E+02  0.57545447013E+01 -0.25845889539E+03  0.29337003278E+03  0.12507958973E+03 0.  0.
        -24    2    1    2    0    0 -0.34807759486E+02  0.80240550616E+01 -0.34495413210E+01  0.86655886890E+02  0.78875711200E+02 0.  0.
        -11    1    3    3    0    0  0.91995574295E+02 -0.34463725258E+01 -0.73268858562E+03  0.73844947469E+03  0.00000000000E+00 0.  1.
         12    1    3    3    0    0  0.27033946803E+01 -0.10332227237E+02 -0.10142296969E+02  0.14728525055E+02  0.00000000000E+00 0. -1.
         11    1    5    5    0    0 -0.25661336624E+02  0.32999831117E+02 -0.28117798093E+02  0.50379595281E+02  0.00000000000E+00 0. -1.
        -12    1    5    5    0    0 -0.91464228621E+01 -0.24975776055E+02  0.24668256772E+02  0.36276291609E+02  0.00000000000E+00 0.  1.
          5    1    4    4  501    0  0.37264127354E+02  0.14564301724E+02 -0.60712153243E+02  0.72829746831E+02  0.41800000000E+01 0. -1.
         -5    1    4    4    0  501 -0.97155336843E+02 -0.88097570222E+01 -0.19774674215E+03  0.22054028595E+03  0.41800000000E+01 0. -1.
</event>
<event>
11    1  0.8974665E-009  0.1619932E+03  0.7561462E-02  0.1085217E+00
         22   -1    0    0    0    0  0.00000000000E+00  0.00000000000E+00  0.18081441231E+03  0.18081441231E+03  0.00000000000E+00 0.  1.
         22   -1    0    0    0    0 -0.00000000000E+00 -0.00000000000E+00 -0.12461244094E+04  0.12461244094E+04  0.00000000000E+00 0.  1.
        -24    2    1    2    0    0 -0.98618685916E+02 -0.26348732954E+02 -0.11100688275E+04  0.11176698466E+04  0.80704294238E+02 0.  0.
         25    2    1    2    0    0  0.13348942779E+03 -0.30441472051E+02 -0.18146580443E+02  0.18633577240E+03  0.12508241739E+03 0.  0.
         24    2    1    2    0    0 -0.34870741874E+02  0.56790205005E+02  0.62905410888E+02  0.12293320276E+03  0.81941354629E+02 0.  0.
        -11    1    5    5    0    0 -0.50461741833E+02  0.29960046910E+02  0.69752114161E+02  0.91155631914E+02  0.00000000000E+00 0.  1.
         12    1    5    5    0    0  0.15590999960E+02  0.26830158095E+02 -0.68467032732E+01  0.31777570846E+02  0.00000000000E+00 0. -1.
         13    1    3    3    0    0 -0.27966298937E+02 -0.22384791313E+02 -0.12414518133E+03  0.12920997951E+03  0.00000000000E+00 0. -1.
        -14    1    3    3    0    0 -0.70652386978E+02 -0.39639416405E+01 -0.98592364620E+03  0.98845986704E+03  0.00000000000E+00 0.  1.
          5    1    4    4  501    0  0.84245194825E+02 -0.46203682543E+02  0.43680901844E+02  0.10562919444E+03  0.41800000000E+01 0. -1.
         -5    1    4    4    0  501  0.49244232964E+02  0.15762210492E+02 -0.61827482287E+02  0.80706577958E+02  0.41800000000E+01 0. -1.
</event>
<event>
11    1  0.8974665E-009  0.1419909E+03  0.7561462E-02  0.1105355E+00
         22   -1    0    0    0    0  0.00000000000E+00  0.00000000000E+00  0.10999150843E+04  0.10999150843E+04  0.00000000000E+00 0. -1.
         22   -1    0    0    0    0 -0.00000000000E+00 -0.00000000000E+00 -0.68921336035E+03  0.68921336035E+03  0.00000000000E+00 0. -1.
        -24    2    1    2    0    0 -0.33863145895E+02  0.49692546212E+02 -0.31340166572E+03  0.32854534387E+03  0.78136912575E+02 0.  0.
         25    2    1    2    0    0  0.10077677056E+03 -0.47228596427E+02 -0.34651684332E+03  0.38484851343E+03  0.12509179741E+03 0.  0.
         24    2    1    2    0    0 -0.66913624662E+02 -0.24639497851E+01  0.10706202330E+04  0.10757345874E+04  0.80583589641E+02 0.  0.
        -13    1    5    5    0    0 -0.26080037324E+02  0.27765220401E+02  0.19765858304E+03  0.20129578053E+03  0.00000000000E+00 0.  1.
         14    1    5    5    0    0 -0.40833587338E+02 -0.30229170186E+02  0.87296164996E+03  0.87443880683E+03  0.00000000000E+00 0. -1.
         13    1    3    3    0    0 -0.26081564094E+02 -0.14682931555E+02 -0.14572757870E+03  0.14876949841E+03  0.00000000000E+00 0. -1.
        -14    1    3    3    0    0 -0.77815818013E+01  0.64375477767E+02 -0.16767408702E+03  0.17977584546E+03  0.00000000000E+00 0.  1.
          5    1    4    4  501    0  0.82713524313E+02 -0.79757557197E+02 -0.31688478414E+03  0.33709973873E+03  0.41800000000E+01 0. -1.
         -5    1    4    4    0  501  0.18063246244E+02  0.32528960770E+02 -0.29632059182E+02  0.47748774697E+02  0.41800000000E+01 0. -1.
</event>
<event>
11    1  0.8974665E-009  0.1759230E+03  0.7561462E-02  0.1072989E+00
         22   -1    0    0    0    0  0.00000000000E+00  0.00000000000E+00  0.13676170240E+03  0.13676170240E+03  0.00000000000E+00 0. -1.
         22   -1    0    0    0    0 -0.00000000000E+00 -0.00000000000E+00 -0.18588277145E+04  0.18588277145E+04  0.00000000000E+00 0.  1.
        -24    2    1    2    0    0  0.82513144291E+02  0.91808002210E+02 -0.15652112333E+04  0.15719460622E+04  0.76753431930E+02 0.  0.
         25    2    1    2    0    0 -0.33528670427E+01 -0.16364829087E+03 -0.19097409312E+03  0.28091018919E+03  0.12508966914E+03 0.  0.
         24    2    1    2    0    0 -0.79160277248E+02  0.71840288659E+02  0.34119314370E+02  0.14273316548E+03  0.88211407115E+02 0.  0.
        -13    1    5    5    0    0 -0.63869452275E+02 -0.12107717706E+01  0.18154735833E+02  0.66410596559E+02  0.00000000000E+00 0.  1.
         14    1    5    5    0    0 -0.15290824973E+02  0.73051060430E+02  0.15964578537E+02  0.76322568917E+02  0.00000000000E+00 0. -1.
         13    1    3    3    0    0  0.20337127727E+01  0.13309637043E+02 -0.33354458605E+02  0.35969463920E+02  0.00000000000E+00 0. -1.
        -14    1    3    3    0    0  0.80479431518E+02  0.78498365167E+02 -0.15318567747E+04  0.15359765983E+04  0.00000000000E+00 0.  1.
          5    1    4    4  501    0 -0.47232844703E+02 -0.10522325640E+03 -0.16871236317E+03  0.20441186168E+03  0.41800000000E+01 0. -1.
         -5    1    4    4    0  501  0.43879977660E+02 -0.58425034468E+02 -0.22261729950E+02  0.76498327514E+02  0.41800000000E+01 0. -1.
</event>
<event>
11    1  0.8974665E-009  0.1460020E+03  0.7561462E-02  0.1101035E+00
         22   -1    0    0    0    0  0.00000000000E+00  0.00000000000E+00  0.80466523956E+03  0.80466523956E+03  0.00000000000E+00 0.  1.
         22   -1    0    0    0    0 -0.00000000000E+00 -0.00000000000E+00 -0.23485951674E+03  0.23485951674E+03  0.00000000000E+00 0. -1.
        -24    2    1    2    0    0 -0.58236692840E+02 -0.34097456693E+01 -0.15578228890E+03  0.18671344050E+03  0.84797692016E+02 0.  0.
         25    2    1    2    0    0  0.11957173978E+03  0.40502920872E+02  0.74234163516E+02  0.19260327598E+03  0.12508966117E+03 0.  0.
         24    2    1    2    0    0 -0.61335046943E+02 -0.37093175203E+02  0.65135384821E+03  0.66020803982E+03  0.80466941282E+02 0.  0.
        -11    1    5    5    0    0 -0.48105730929E+02  0.16124732515E+02  0.37968201459E+03  0.38305691555E+03  0.00000000000E+00 0.  1.
         12    1    5    5    0    0 -0.13229316014E+02 -0.53217907718E+02  0.27167183362E+03  0.27715112427E+03  0.00000000000E+00 0. -1.
         11    1    3    3    0    0 -0.62551335370E+02 -0.28496750915E+02 -0.14201146001E+03  0.15777195297E+03  0.00000000000E+00 0. -1.
        -12    1    3    3    0    0  0.43146425302E+01  0.25087005246E+02 -0.13770828888E+02  0.28941487534E+02  0.00000000000E+00 0.  1.
          5    1    4    4  501    0  0.13884195743E+03  0.38889947788E+02  0.87567469346E+02  0.16874552222E+03  0.41800000000E+01 0. -1.
         -5    1    4    4    0  501 -0.19270217644E+02  0.16129730849E+01 -0.13333305830E+02  0.23857753762E+02  0.41800000000E+01 0. -1.
</event>
<event>
11    1  0.8974665E-009  0.1348573E+03  0.7561462E-02  0.1113441E+00
         22   -1    0    0    0    0  0.00000000000E+00  0.00000000000E+00  0.40786535325E+03  0.40786535325E+03  0.00000000000E+00 0. -1.
         22   -1    0    0    0    0 -0.00000000000E+00 -0.00000000000E+00 -0.26755492467E+03  0.26755492467E+03  0.00000000000E+00 0. -1.
        -24    2    1    2    0    0 -0.85823412649E+01  0.49183237606E+02 -0.22672980498E+03  0.24581062423E+03  0.80770112524E+02 0.  0.
         25    2    1    2    0    0  0.98248266826E+01 -0.60467928381E+02  0.20031156610E+03  0.24397674339E+03  0.12508808984E+03 0.  0.
         24    2    1    2    0    0 -0.12424854177E+01  0.11284690774E+02  0.16672866746E+03  0.18563291030E+03  0.80822279211E+02 0.  0.
        -13    1    5    5    0    0 -0.77702722860E+00 -0.23993051281E+02  0.11820867887E+02  0.26758236091E+02  0.00000000000E+00 0.  1.
         14    1    5    5    0    0 -0.46545818911E+00  0.35277742055E+02  0.15490779957E+03  0.15887467421E+03  0.00000000000E+00 0. -1.
         13    1    3    3    0    0  0.30758812663E+02  0.28797142024E+02 -0.16184507126E+03  0.16723996842E+03  0.00000000000E+00 0. -1.
        -14    1    3    3    0    0 -0.39341153928E+02  0.20386095582E+02 -0.64884733718E+02  0.78570655815E+02  0.00000000000E+00 0.  1.
          5    1    4    4  501    0  0.19241678396E+01 -0.90793293117E+01  0.19065956442E+03  0.19093108324E+03  0.41800000000E+01 0.  1.
         -5    1    4    4    0  501  0.79006588430E+01 -0.51388599069E+02  0.96520016829E+01  0.53045660152E+02  0.41800000000E+01 0.  1.
</event>
<event>
11    1  0.8974665E-009  0.1428331E+03  0.7561462E-02  0.1104435E+00
         22   -1    0    0    0    0  0.00000000000E+00  0.00000000000E+00  0.63352668954E+03  0.63352668954E+03  0.00000000000E+00 0. -1.
         22   -1    0    0    0    0 -0.00000000000E+00 -0.00000000000E+00 -0.16721331088E+03  0.16721331088E+03  0.00000000000E+00 0.  1.
         24    2    1    2    0    0  0.69295187708E+02 -0.67048141178E+01 -0.67006449136E+02  0.12449143597E+03  0.78495068835E+02 0.  0.
         25    2    1    2    0    0 -0.13139537361E+03 -0.58412638854E+01  0.60275611090E+02  0.19126015666E+03  0.12509369953E+03 0.  0.
        -24    2    1    2    0    0  0.62100185901E+02  0.12546078003E+02  0.47304421670E+03  0.48498840780E+03  0.86192155011E+02 0.  0.
        -11    1    3    3    0    0  0.43308023646E+02 -0.10732095515E+02 -0.82627359054E+02  0.93904436798E+02  0.00000000000E+00 0.  1.
         12    1    3    3    0    0  0.25987164062E+02  0.40272813969E+01  0.15620909918E+02  0.30586999168E+02  0.00000000000E+00 0. -1.
         13    1    5    5    0    0  0.83434398603E+02  0.16112111692E+02  0.39224578704E+03  0.40134480994E+03  0.00000000000E+00 0. -1.
        -14    1    5    5    0    0 -0.21334212702E+02 -0.35660336892E+01  0.80798429657E+02  0.83643597860E+02  0.00000000000E+00 0.  1.
          5    1    4    4  501    0 -0.10819362494E+03 -0.31610366383E+02 -0.95386741524E+01  0.11319688354E+03  0.41800000000E+01 0. -1.
         -5    1    4    4    0  501 -0.23201748674E+02  0.25769102498E+02  0.69814285243E+02  0.78063273112E+02  0.41800000000E+01 0. -1.
</event>
<event>
11    1  0.8974665E-009  0.1435146E+03  0.7561462E-02  0.1103696E+00
         22   -1    0    0    0    0  0.00000000000E+00  0.00000000000E+00  0.87572083777E+03  0.87572083777E+03  0.00000000000E+00 0.  1.
         22   -1    0    0    0    0 -0.00000000000E+00 -0.00000000000E+00 -0.15582390348E+03  0.15582390348E+03  0.00000000000E+00 0.  1.
        -24    2    1    2    0    0 -0.15634281938E+02 -0.67239096496E+02 -0.10919654507E+03  0.15352850899E+03  0.82955353959E+02 0.  0.
         25    2    1    2    0    0 -0.97331297885E+00  0.89085388265E+02  0.25511831877E+03  0.29777466059E+03  0.12508892108E+03 0.  0.
         24    2    1    2    0    0  0.16607594917E+02 -0.21846291770E+02  0.57397516059E+03  0.58024157166E+03  0.80496731873E+02 0.  0.
        -11    1    5    5    0    0  0.11945407427E+02 -0.20116497582E+02  0.57473510246E+03  0.57521109537E+03  0.00000000000E+00 0.  1.
         12    1    5    5    0    0  0.46621874894E+01 -0.17297941879E+01 -0.75994187280E+00  0.50304762964E+01  0.00000000000E+00 0. -1.
         13    1    3    3    0    0 -0.32563980414E+02  0.32739351750E+01 -0.19174260205E+02  0.37931302724E+02  0.00000000000E+00 0. -1.
        -14    1    3    3    0    0  0.16929698476E+02 -0.70513031671E+02 -0.90022284860E+02  0.11559720627E+03  0.00000000000E+00 0.  1.
          5    1    4    4  501    0 -0.48472551867E+02  0.73212724296E+02  0.92667197168E+02  0.12772773040E+03  0.41800000000E+01 0. -1.
         -5    1    4    4    0  501  0.47499238888E+02  0.15872663970E+02  0.16245112160E+03  0.17004693019E+03  0.41800000000E+01 0. -1.
</event>
<event>
11    1  0.8974665E-009  0.1754593E+03  0.7561462E-02  0.1073376E+00
         22   -1    0    0    0    0  0.00000000000E+00  0.00000000000E+00  0.40812478099E+03  0.40812478099E+03  0.00000000000E+00 0.  1.
         22   -1    0    0    0    0 -0.00000000000E+00 -0.00000000000E+00 -0.13998628446E+04  0.13998628446E+04  0.00000000000E+00 0. -1.
         24    2    1    2    0    0 -0.12059479413E+03 -0.38159921063E+02 -0.13005821125E+04  0.13106000886E+04  0.10079423071E+03 0.  0.
         25    2    1    2    0    0  0.70229308073E+02  0.40333678691E+02 -0.23618877710E+02  0.15087855172E+03  0.12509006610E+03 0.  0.
        -24    2    1    2    0    0  0.50365486061E+02 -0.21737576280E+01  0.33246292653E+03  0.34650898534E+03  0.83638938248E+02 0.  0.
        -11    1    3    3    0    0 -0.11507279502E+01 -0.22054896982E+01  0.12648985515E+01  0.27907575978E+01  0.00000000000E+00 0.  1.
         12    1    3    3    0    0 -0.11944406618E+03 -0.35954431364E+02 -0.13018470110E+04  0.13078093310E+04  0.00000000000E+00 0. -1.
         11    1    5    5    0    0  0.36236209530E+02  0.38411897020E+02  0.21626645565E+03  0.22262011713E+03  0.00000000000E+00 0. -1.
        -12    1    5    5    0    0  0.14129276531E+02 -0.40585654648E+02  0.11619647089E+03  0.12388886821E+03  0.00000000000E+00 0.  1.
          5    1    4    4  501    0  0.24697031117E+02  0.67804350192E+02  0.27174258791E+02  0.77222315374E+02  0.41800000000E+01 0.  1.
         -5    1    4    4    0  501  0.45532276956E+02 -0.27470671501E+02 -0.50793136501E+02  0.73656236349E+02  0.41800000000E+01 0.  1.
</event>
<event>
11    1  0.8974665E-009  0.3730791E+03  0.7561462E-02  0.9732708E-01
         22   -1    0    0    0    0  0.00000000000E+00  0.00000000000E+00  0.14805837781E+04  0.14805837781E+04  0.00000000000E+00 0.  1.
         22   -1    0    0    0    0 -0.00000000000E+00 -0.00000000000E+00 -0.11317939582E+04  0.11317939582E+04  0.00000000000E+00 0. -1.
         24    2    1    2    0    0  0.17432443231E+03 -0.99769656185E+02 -0.75772307102E+03  0.78807569448E+03  0.81092884197E+02 0.  0.
         25    2    1    2    0    0  0.18518617533E+03  0.41169070428E+02 -0.29586211179E+03  0.37305783555E+03  0.12509575364E+03 0.  0.
        -24    2    1    2    0    0 -0.35951060764E+03  0.58600585757E+02  0.14023750027E+04  0.14512442063E+04  0.82293332741E+02 0.  0.
        -13    1    3    3    0    0  0.71524006176E+02 -0.12379359824E+02 -0.38260629267E+03  0.38943100442E+03  0.00000000000E+00 0.  1.
         14    1    3    3    0    0  0.10280042613E+03 -0.87390296361E+02 -0.37511677835E+03  0.39864469006E+03  0.00000000000E+00 0. -1.
         11    1    5    5    0    0 -0.19381261600E+02  0.25804111904E+01  0.18423977857E+03  0.18527435827E+03  0.00000000000E+00 0. -1.
        -12    1    5    5    0    0 -0.34012934604E+03  0.56020174567E+02  0.12181352241E+04  0.12659698480E+04  0.00000000000E+00 0.  1.
          5    1    4    4  501    0  0.11292750663E+03  0.18308221980E+02 -0.26933089924E+03  0.29265067645E+03  0.41800000000E+01 0. -1.
         -5    1    4    4    0  501  0.72258668698E+02  0.22860848448E+02 -0.26531212550E+02  0.80407159091E+02  0.41800000000E+01 0. -1.
</event>
<event>
11    1  0.8974665E-009  0.1755107E+03  0.7561462E-02  0.1073333E+00
         22   -1    0    0    0    0  0.00000000000E+00  0.00000000000E+00  0.79677840442E+02  0.79677840442E+02  0.00000000000E+00 0. -1.
         22   -1    0    0    0    0 -0.00000000000E+00 -0.00000000000E+00 -0.82878713844E+03  0.82878713844E+03  0.00000000000E+00 0. -1.
        -24    2    1    2    0    0  0.56963327277E+02 -0.50270992714E+02 -0.38768567528E+03  0.40425927962E+03  0.85751903632E+02 0.  0.
         25    2    1    2    0    0 -0.11796620059E+03 -0.57291867442E+02 -0.10728438960E+03  0.21060778925E+03  0.12508924048E+03 0.  0.
         24    2    1    2    0    0  0.61002873312E+02  0.10756286016E+03 -0.25413923312E+03  0.29359791001E+03  0.79510147266E+02 0.  0.
        -11    1    5    5    0    0 -0.16997438254E+02  0.41271154648E+02 -0.75310799353E+02  0.87543918192E+02  0.00000000000E+00 0.  1.
         12    1    5    5    0    0  0.78000311566E+02  0.66291705507E+02 -0.17882843376E+03  0.20605399182E+03  0.00000000000E+00 0. -1.
         11    1    3    3    0    0  0.61725718960E+02 -0.31841835654E+02 -0.37501656462E+03  0.38139400968E+03  0.00000000000E+00 0. -1.
        -12    1    3    3    0    0 -0.47623916822E+01 -0.18429157059E+02 -0.12669110659E+02  0.22865269938E+02  0.00000000000E+00 0.  1.
          5    1    4    4  501    0 -0.47357926855E+02 -0.43653722800E+02 -0.12113148249E+03  0.13725425021E+03  0.41800000000E+01 0.  1.
         -5    1    4    4    0  501 -0.70608273735E+02 -0.13638144642E+02  0.13847092885E+02  0.73353539045E+02  0.41800000000E+01 0.  1.
</event>
<event>
11    1  0.8974665E-009  0.1968940E+03  0.7561462E-02  0.1056742E+00
         22   -1    0    0    0    0  0.00000000000E+00  0.00000000000E+00  0.59923397221E+03  0.59923397221E+03  0.00000000000E+00 0. -1.
         22   -1    0    0    0    0 -0.00000000000E+00 -0.00000000000E+00 -0.50155361148E+03  0.50155361148E+03  0.00000000000E+00 0.  1.
         24    2    1    2    0    0  0.13647619489E+03 -0.64782424511E+02 -0.40539002206E+03  0.44031184963E+03  0.81920331055E+02 0.  0.
         25    2    1    2    0    0 -0.15434489267E+03  0.46723748794E+02  0.63515734286E+02  0.21375807188E+03  0.12511119134E+03 0.  0.
        -24    2    1    2    0    0  0.17868697777E+02  0.18058675717E+02  0.43955464851E+03  0.44671766219E+03  0.75518041285E+02 0.  0.
        -13    1    3    3    0    0  0.11500819518E+03 -0.76013574833E+02 -0.27421703641E+03  0.30692007359E+03  0.00000000000E+00 0.  1.
         14    1    3    3    0    0  0.21467999709E+02  0.11231150322E+02 -0.13117298565E+03  0.13339177604E+03  0.00000000000E+00 0. -1.
         11    1    5    5    0    0  0.17812564625E+02 -0.17696441681E+02  0.34019686096E+03  0.34112220055E+03  0.00000000000E+00 0. -1.
        -12    1    5    5    0    0  0.56133152803E-01  0.35755117398E+02  0.99357787550E+02  0.10559546163E+03  0.00000000000E+00 0.  1.
          5    1    4    4  501    0 -0.12729535327E+03 -0.21942706792E+02  0.30448815599E+02  0.13277873368E+03  0.41800000000E+01 0. -1.
         -5    1    4    4    0  501 -0.27049539397E+02  0.68666455586E+02  0.33066918687E+02  0.80979338203E+02  0.41800000000E+01 0. -1.
</event>
<event>
11    1  0.8974665E-009  0.1398836E+03  0.7561462E-02  0.1107688E+00
         22   -1    0    0    0    0  0.00000000000E+00  0.00000000000E+00  0.27422276972E+03  0.27422276972E+03  0.00000000000E+00 0.  1.
         22   -1    0    0    0    0 -0.00000000000E+00 -0.00000000000E+00 -0.20122435611E+03  0.20122435611E+03  0.00000000000E+00 0. -1.
         24    2    1    2    0    0  0.13199985479E+02 -0.17937945578E+02 -0.12385986064E+03  0.14788993344E+03  0.77679841818E+02 0.  0.
         25    2    1    2    0    0  0.73944692123E+00 -0.48370070607E+02  0.43869818372E+02  0.14110926900E+03  0.12508818618E+03 0.  0.
        -24    2    1    2    0    0 -0.13939432401E+02  0.66308016185E+02  0.15298845588E+03  0.18644792339E+03  0.82257520741E+02 0.  0.
        -13    1    3    3    0    0  0.13684106756E+02 -0.16462122387E+02  0.24714150869E+01  0.21549110045E+02  0.00000000000E+00 0.  1.
         14    1    3    3    0    0 -0.48412127631E+00 -0.14758231909E+01 -0.12633127573E+03  0.12634082339E+03  0.00000000000E+00 0. -1.
         11    1    5    5    0    0  0.15876317624E+02 -0.99552263016E+01  0.58435302818E+02  0.61366510471E+02  0.00000000000E+00 0. -1.
        -12    1    5    5    0    0 -0.29815750025E+02  0.76263242486E+02  0.94553153062E+02  0.12508141292E+03  0.00000000000E+00 0.  1.
          5    1    4    4  501    0  0.18724518879E+02 -0.87879592795E+02  0.35504476823E+02  0.96703002598E+02  0.41800000000E+01 0. -1.
         -5    1    4    4    0  501 -0.17985071957E+02  0.39509522188E+02  0.83653415494E+01  0.44406266406E+02  0.41800000000E+01 0. -1.
</event>
<event>
11    1  0.8974665E-009  0.1433595E+03  0.7561462E-02  0.1103864E+00
         22   -1    0    0    0    0  0.00000000000E+00  0.00000000000E+00  0.16689700878E+04  0.16689700878E+04  0.00000000000E+00 0.  1.
         22   -1    0    0    0    0 -0.00000000000E+00 -0.00000000000E+00 -0.48189130878E+03  0.48189130878E+03  0.00000000000E+00 0.  1.
        -24    2    1    2    0    0 -0.12642067652E+02  0.40001216933E+02 -0.39940233700E+03  0.41012184768E+03  0.83173216335E+02 0.  0.
         25    2    1    2    0    0  0.45857312983E+02 -0.10060237306E+03  0.17028256353E+02  0.16781202424E+03  0.12508870191E+03 0.  0.
         24    2    1    2    0    0 -0.33215245331E+02  0.60601156131E+02  0.15694528596E+04  0.15729275246E+04  0.78377078723E+02 0.  0.
        -11    1    5    5    0    0 -0.35430682571E+02  0.67707795420E+02  0.15528857698E+04  0.15547648995E+04  0.00000000000E+00 0.  1.
         12    1    5    5    0    0  0.22154372397E+01 -0.71066392890E+01  0.16567089852E+02  0.18162625094E+02  0.00000000000E+00 0. -1.
         11    1    3    3    0    0  0.15709763485E+02 -0.16273702881E+02 -0.47357789117E+02  0.52482285243E+02  0.00000000000E+00 0. -1.
        -12    1    3    3    0    0 -0.28351831137E+02  0.56274919814E+02 -0.35204454788E+03  0.35763956244E+03  0.00000000000E+00 0.  1.
          5    1    4    4  501    0  0.36374222526E+02 -0.75360129991E+01  0.55219020445E+02  0.66681992886E+02  0.41800000000E+01 0. -1.
         -5    1    4    4    0  501  0.94830904570E+01 -0.93066360065E+02 -0.38190764092E+02  0.10113003136E+03  0.41800000000E+01 0. -1.
</event>
<event>
11    1  0.8974665E-009  0.1554589E+03  0.7561462E-02  0.1091428E+00
         22   -1    0    0    0    0  0.00000000000E+00  0.00000000000E+00  0.58302772090E+03  0.58302772090E+03  0.00000000000E+00 0.  1.
         22   -1    0    0    0    0 -0.00000000000E+00 -0.00000000000E+00 -0.45110716526E+03  0.45110716526E+03  0.00000000000E+00 0.  1.
        -24    2    1    2    0    0 -0.14580784523E+02  0.92210261695E+02 -0.39826323317E+03  0.41663510114E+03  0.79094076686E+02 0.  0.
         25    2    1    2    0    0 -0.79574536239E+02 -0.51250513927E+02  0.15475823044E+03  0.22035451008E+03  0.12508908116E+03 0.  0.
         24    2    1    2    0    0  0.94155320762E+02 -0.40959747767E+02  0.37542555837E+03  0.39714527494E+03  0.78975275643E+02 0.  0.
        -11    1    5    5    0    0  0.86403819491E+02 -0.57205187382E+02  0.35549276839E+03  0.37028794453E+03  0.00000000000E+00 0.  1.
         12    1    5    5    0    0  0.77515012706E+01  0.16245439614E+02  0.19932789974E+02  0.26857330403E+02  0.00000000000E+00 0. -1.
         11    1    3    3    0    0  0.64188416545E+01 -0.87629385031E+01 -0.95198582765E+01  0.14443625618E+02  0.00000000000E+00 0. -1.
        -12    1    3    3    0    0 -0.20999626177E+02  0.10097320020E+03 -0.38874337489E+03  0.40219147552E+03  0.00000000000E+00 0.  1.
          5    1    4    4  501    0 -0.17654272068E+02  0.32101975977E+02  0.37776786930E+01  0.37066877940E+02  0.41800000000E+01 0.  1.
         -5    1    4    4    0  501 -0.61920264171E+02 -0.83352489905E+02  0.15098055175E+03  0.18328763214E+03  0.41800000000E+01 0.  1.
</event>
<event>
11    1  0.8974665E-009  0.1492007E+03  0.7561462E-02  0.1097698E+00
         22   -1    0    0    0    0  0.00000000000E+00  0.00000000000E+00  0.12067303159E+04  0.12067303159E+04  0.00000000000E+00 0. -1.
         22   -1    0    0    0    0 -0.00000000000E+00 -0.00000000000E+00 -0.11158222984E+03  0.11158222984E+03  0.00000000000E+00 0.  1.
        -24    2    1    2    0    0 -0.39353518793E+02  0.54113045427E+01 -0.64746976807E+02  0.11274005362E+03  0.83307664878E+02 0.  0.
         25    2    1    2    0    0  0.36517897962E+02 -0.85768936448E+02  0.29935916147E+03  0.33756982097E+03  0.12509040389E+03 0.  0.
         24    2    1    2    0    0  0.28356208314E+01  0.80357631906E+02  0.86053590139E+03  0.86800267114E+03  0.80257147775E+02 0.  0.
        -11    1    5    5    0    0  0.36018206912E+02  0.66949475360E+02  0.50838125652E+03  0.51403408979E+03  0.00000000000E+00 0.  1.
         12    1    5    5    0    0 -0.33182586081E+02  0.13408156546E+02  0.35215464487E+03  0.35396858135E+03  0.00000000000E+00 0. -1.
         13    1    3    3    0    0 -0.38232586037E+02 -0.34489670519E+02 -0.28660912422E+02  0.58929754017E+02  0.00000000000E+00 0. -1.
        -14    1    3    3    0    0 -0.11209327566E+01  0.39900975062E+02 -0.36086064384E+02  0.53810299608E+02  0.00000000000E+00 0.  1.
          5    1    4    4  501    0 -0.38278386379E+02 -0.69326963706E+02  0.15072474004E+03  0.17031406994E+03  0.41800000000E+01 0.  1.
         -5    1    4    4    0  501  0.74796284341E+02 -0.16441972742E+02  0.14863442143E+03  0.16725575103E+03  0.41800000000E+01 0.  1.
</event>
<event>
11    1  0.8974665E-009  0.1413158E+03  0.7561462E-02  0.1106098E+00
         22   -1    0    0    0    0  0.00000000000E+00  0.00000000000E+00  0.52254791005E+03  0.52254791005E+03  0.00000000000E+00 0.  1.
         22   -1    0    0    0    0 -0.00000000000E+00 -0.00000000000E+00 -0.66035687777E+03  0.66035687777E+03  0.00000000000E+00 0.  1.
         24    2    1    2    0    0  0.21511633194E+02  0.37939358555E+02 -0.35106191275E+03  0.36380611743E+03  0.84901585398E+02 0.  0.
         25    2    1    2    0    0 -0.75880257225E+02 -0.86032261726E+00 -0.27939379453E+03  0.31538364370E+03  0.12508955472E+03 0.  0.
        -24    2    1    2    0    0  0.54368624031E+02 -0.37079035938E+02  0.49264673956E+03  0.50371502669E+03  0.81836519526E+02 0.  0.
        -13    1    3    3    0    0 -0.22864183491E+02  0.36924231447E+02 -0.24517709054E+03  0.24899392659E+03  0.00000000000E+00 0.  1.
         14    1    3    3    0    0  0.44375816685E+02  0.10151271089E+01 -0.10588482221E+03  0.11481219083E+03  0.00000000000E+00 0. -1.
         11    1    5    5    0    0  0.34185179302E+02  0.23074597571E+02  0.21362889059E+03  0.21757381835E+03  0.00000000000E+00 0. -1.
        -12    1    5    5    0    0  0.20183444729E+02 -0.60153633509E+02  0.27901784897E+03  0.28614120834E+03  0.00000000000E+00 0.  1.
          5    1    4    4  501    0 -0.28510013461E+02  0.58013662274E+02 -0.85673157351E+02  0.10740469342E+03  0.41800000000E+01 0.  1.
         -5    1    4    4    0  501 -0.47370243764E+02 -0.58873984891E+02 -0.19372063718E+03  0.20797895028E+03  0.41800000000E+01 0.  1.
</event>
<event>
11    1  0.8974665E-009  0.2405921E+03  0.7561462E-02  0.1029034E+00
         22   -1    0    0    0    0  0.00000000000E+00  0.00000000000E+00  0.13733915550E+03  0.13733915550E+03  0.00000000000E+00 0.  1.
         22   -1    0    0    0    0 -0.00000000000E+00 -0.00000000000E+00 -0.99608793057E+03  0.99608793057E+03  0.00000000000E+00 0. -1.
         24    2    1    2    0    0 -0.20223660045E+03  0.38447128863E+02 -0.44766422812E+03  0.49827493058E+03  0.74140549088E+02 0.  0.
         25    2    1    2    0    0  0.20265317668E+03 -0.32131221533E+02 -0.47462862124E+03  0.53199589038E+03  0.12508626567E+03 0.  0.
        -24    2    1    2    0    0 -0.41657622531E+00 -0.63159073299E+01  0.63544074296E+02  0.10315626512E+03  0.81014205136E+02 0.  0.
        -11    1    3    3    0    0 -0.61715147585E+02  0.39587634968E+02 -0.10646318001E+03  0.12926851504E+03  0.00000000000E+00 0.  1.
         12    1    3    3    0    0 -0.14052145287E+03 -0.11405061051E+01 -0.34120104812E+03  0.36900641553E+03  0.00000000000E+00 0. -1.
         13    1    5    5    0    0  0.60888949229E+01 -0.30934643811E+02 -0.32285654344E+01  0.31693066495E+02  0.00000000000E+00 0. -1.
        -14    1    5    5    0    0 -0.65054711482E+01  0.24618736481E+02  0.66772639731E+02  0.71463198623E+02  0.00000000000E+00 0.  1.
          5    1    4    4  501    0  0.21368155826E+03 -0.46782863248E+02 -0.45467771007E+03  0.50457679006E+03  0.41800000000E+01 0. -1.
         -5    1    4    4    0  501 -0.11028381584E+02  0.14651641715E+02 -0.19950911171E+02  0.27419100311E+02  0.41800000000E+01 0. -1.
</event>
<event>
11    1  0.8974665E-009  0.1363916E+03  0.7561462E-02  0.1111656E+00
         22   -1    0    0    0    0  0.00000000000E+00  0.00000000000E+00  0.18890255984E+04  0.18890255984E+04  0.00000000000E+00 0. -1.
         22   -1    0    0    0    0 -0.00000000000E+00 -0.00000000000E+00 -0.84399582690E+03  0.84399582690E+03  0.00000000000E+00 0. -1.
         24    2    1    2    0    0 -0.43017540540E+02  0.33862225214E+02 -0.80754049469E+03  0.81279525532E+03  0.74278647177E+02 0.  0.
         25    2    1    2    0    0  0.24414657134E+02 -0.26940637061E+02  0.96273036295E+02  0.16197838495E+03  0.12508647515E+03 0.  0.
        -24    2    1    2    0    0  0.18602883406E+02 -0.69215881527E+01  0.17562972299E+04  0.17582477850E+04  0.80382449370E+02 0.  0.
        -11    1    3    3    0    0 -0.21563787060E+02  0.37323914945E+02 -0.18818797601E+03  0.19306161155E+03  0.00000000000E+00 0.  1.
         12    1    3    3    0    0 -0.21453753480E+02 -0.34616897315E+01 -0.61935251868E+03  0.61973364377E+03  0.00000000000E+00 0. -1.
         11    1    5    5    0    0 -0.12114385155E+02  0.49391077366E+01  0.14707704020E+04  0.14708285857E+04  0.00000000000E+00 0. -1.
        -12    1    5    5    0    0  0.30717268561E+02 -0.11860695889E+02  0.28552682790E+03  0.28741919933E+03  0.00000000000E+00 0.  1.
          5    1    4    4  501    0  0.73500900349E+02 -0.11028274700E+02  0.75990879140E+02  0.10637711835E+03  0.41800000000E+01 0. -1.
         -5    1    4    4    0  501 -0.49086243216E+02 -0.15912362361E+02  0.20282157156E+02  0.55601266603E+02  0.41800000000E+01 0. -1.
</event>
<event>
11    1  0.8974665E-009  0.1696945E+03  0.7561462E-02  0.1078298E+00
         22   -1    0    0    0    0  0.00000000000E+00  0.00000000000E+00  0.17099996015E+03  0.17099996015E+03  0.00000000000E+00 0.  1.
         22   -1    0    0    0    0 -0.00000000000E+00 -0.00000000000E+00 -0.30807075503E+04  0.30807075503E+04  0.00000000000E+00 0. -1.
         24    2    1    2    0    0 -0.63837881841E+02  0.16920681844E+02 -0.27554681504E+04  0.27574471842E+04  0.80923798988E+02 0.  0.
         25    2    1    2    0    0  0.75281758488E+02  0.98096205292E+02 -0.26261034321E+03  0.31607271661E+03  0.12509021212E+03 0.  0.
        -24    2    1    2    0    0 -0.11443876646E+02 -0.11501688714E+03  0.10837090340E+03  0.17818760968E+03  0.81527448761E+02 0.  0.
        -13    1    3    3    0    0 -0.14051471451E+02  0.74434940445E+01 -0.83623040581E+02  0.85121456575E+02  0.00000000000E+00 0.  1.
         14    1    3    3    0    0 -0.49786410390E+02  0.94771877992E+01 -0.26718451098E+04  0.26723257276E+04  0.00000000000E+00 0. -1.
         11    1    5    5    0    0  0.22394995333E+02 -0.11168692469E+01  0.20787322334E+02  0.30576068791E+02  0.00000000000E+00 0. -1.
        -12    1    5    5    0    0 -0.33838871980E+02 -0.11390001789E+03  0.87583581067E+02  0.14761154089E+03  0.00000000000E+00 0.  1.
          5    1    4    4  501    0 -0.30379413219E+02  0.44419396206E+02 -0.55529049156E+02  0.77439907070E+02  0.41800000000E+01 0. -1.
         -5    1    4    4    0  501  0.10566117171E+03  0.53676809085E+02 -0.20708129405E+03  0.23863280954E+03  0.41800000000E+01 0. -1.
</event>
<event>
11    1  0.8974665E-009  0.2566562E+03  0.7561462E-02  0.1020412E+00
         22   -1    0    0    0    0  0.00000000000E+00  0.00000000000E+00  0.23559742089E+04  0.23559742089E+04  0.00000000000E+00 0.  1.
         22   -1    0    0    0    0 -0.00000000000E+00 -0.00000000000E+00 -0.33203724049E+03  0.33203724049E+03  0.00000000000E+00 0. -1.
         24    2    1    2    0    0  0.22804899568E+03 -0.18866797995E+02 -0.14262619511E+03  0.28563322005E+03  0.94243325310E+02 0.  0.
         25    2    1    2    0    0 -0.21124180152E+03  0.48542442599E+02  0.17073069117E+02  0.25083522107E+03  0.12508937203E+03 0.  0.
        -24    2    1    2    0    0 -0.16807194156E+02 -0.29675644604E+02  0.21494900944E+04  0.21515430082E+04  0.87558693820E+02 0.  0.
        -11    1    3    3    0    0  0.17638236357E+03 -0.84596794467E+01 -0.57868580826E+02  0.18582539385E+03  0.00000000000E+00 0.  1.
         12    1    3    3    0    0  0.51666632112E+02 -0.10407118548E+02 -0.84757614283E+02  0.99807826192E+02  0.00000000000E+00 0. -1.
         13    1    5    5    0    0  0.30651311199E+02  0.61947191499E+01  0.49726701492E+03  0.49824929659E+03  0.00000000000E+00 0. -1.
        -14    1    5    5    0    0 -0.47458505356E+02 -0.35870363754E+02  0.16522230795E+04  0.16532937117E+04  0.00000000000E+00 0.  1.
          5    1    4    4  501    0 -0.15154502500E+03 -0.18482870656E+02 -0.19218948381E+02  0.15392969657E+03  0.41800000000E+01 0.  1.
         -5    1    4    4    0  501 -0.59696776528E+02  0.67025313256E+02  0.36292017498E+02  0.96905524502E+02  0.41800000000E+01 0.  1.
</event>
<event>
11    1  0.8974665E-009  0.2948381E+03  0.7561462E-02  0.1002400E+00
         22   -1    0    0    0    0  0.00000000000E+00  0.00000000000E+00  0.93019624861E+02  0.93019624861E+02  0.00000000000E+00 0. -1.
         22   -1    0    0    0    0 -0.00000000000E+00 -0.00000000000E+00 -0.44652277917E+04  0.44652277917E+04  0.00000000000E+00 0. -1.
         24    2    1    2    0    0  0.11494895132E+03  0.24759471393E+03 -0.23777247604E+04  0.23944889369E+04  0.74066379244E+02 0.  0.
         25    2    1    2    0    0 -0.14740205019E+03 -0.21614859118E+03 -0.20398286817E+04  0.20603389356E+04  0.12509157084E+03 0.  0.
        -24    2    1    2    0    0  0.32453098870E+02 -0.31446122746E+02  0.45345275292E+02  0.10341954409E+03  0.81224047219E+02 0.  0.
        -11    1    3    3    0    0  0.33569951559E+02  0.15192102256E+03 -0.14428753324E+04  0.14512395266E+04  0.00000000000E+00 0.  1.
         12    1    3    3    0    0  0.81378999761E+02  0.95673691364E+02 -0.93484942805E+03  0.94324941025E+03  0.00000000000E+00 0. -1.
         11    1    5    5    0    0  0.33939523809E+02 -0.34431609850E+02  0.66381029199E+02  0.82121057413E+02  0.00000000000E+00 0. -1.
        -12    1    5    5    0    0 -0.14864249390E+01  0.29854871042E+01 -0.21035753906E+02  0.21298486677E+02  0.00000000000E+00 0.  1.
          5    1    4    4  501    0 -0.52553258831E+02 -0.10455767518E+03 -0.49876771099E+03  0.51232885374E+03  0.41800000000E+01 0. -1.
         -5    1    4    4    0  501 -0.94848791358E+02 -0.11159091600E+03 -0.15410609707E+04  0.15480100818E+04  0.41800000000E+01 0. -1.
</event>
<event>
11    1  0.8974665E-009  0.1468508E+03  0.7561462E-02  0.1100141E+00
         22   -1    0    0    0    0  0.00000000000E+00  0.00000000000E+00  0.14582658908E+04  0.14582658908E+04  0.00000000000E+00 0.  1.
         22   -1    0    0    0    0 -0.00000000000E+00 -0.00000000000E+00 -0.15924610053E+03  0.15924610053E+03  0.00000000000E+00 0.  1.
        -24    2    1    2    0    0 -0.47132162072E+02  0.46904178759E+02 -0.49721415932E+02  0.11693377042E+03  0.82339812827E+02 0.  0.
         25    2    1    2    0    0  0.10586592992E+03 -0.39632215464E+02  0.21665899674E+02  0.16998499065E+03  0.12508868142E+03 0.  0.
         24    2    1    2    0    0 -0.58733767847E+02 -0.72719632946E+01  0.13270753065E+04  0.13305932303E+04  0.76465274992E+02 0.  0.
        -13    1    5    5    0    0 -0.32209539020E+02 -0.41875573612E+02  0.77549795556E+03  0.77729537317E+03  0.00000000000E+00 0.  1.
         14    1    5    5    0    0 -0.26524228827E+02  0.34603610317E+02  0.55157735098E+03  0.55329785711E+03  0.00000000000E+00 0. -1.
         11    1    3    3    0    0  0.52266462275E+01 -0.14947010712E+02 -0.29391448419E+02  0.33385448929E+02  0.00000000000E+00 0. -1.
        -12    1    3    3    0    0 -0.52358808300E+02  0.61851189470E+02 -0.20329967513E+02  0.83548321494E+02  0.00000000000E+00 0.  1.
          5    1    4    4  501    0 -0.24043816524E+01 -0.39274921697E+02  0.44189840843E+02  0.59317071397E+02  0.41800000000E+01 0. -1.
         -5    1    4    4    0  501  0.10827031157E+03 -0.35729376746E+00 -0.22523941169E+02  0.11066791926E+03  0.41800000000E+01 0. -1.
</event>
<event>
11    1  0.8974665E-009  0.1306169E+03  0.7561462E-02  0.1118513E+00
         22   -1    0    0    0    0  0.00000000000E+00  0.00000000000E+00  0.12778759266E+04  0.12778759266E+04  0.00000000000E+00 0.  1.
         22   -1    0    0    0    0 -0.00000000000E+00 -0.00000000000E+00 -0.33057351397E+03  0.33057351397E+03  0.00000000000E+00 0.  1.
        -24    2    1    2    0    0  0.31451499504E+02 -0.77022961004E+01 -0.30857233383E+03  0.32035203620E+03  0.79749731695E+02 0.  0.
         25    2    1    2    0    0 -0.54214900908E+02 -0.19669064899E+02  0.32343483890E+03  0.35154461571E+03  0.12508954483E+03 0.  0.
         24    2    1    2    0    0  0.22763401404E+02  0.27371360999E+02  0.93243990751E+03  0.93655278862E+03  0.80122287163E+02 0.  0.
        -11    1    5    5    0    0  0.36806003745E+02  0.36058065791E+02  0.88147641382E+03  0.88298104971E+03  0.00000000000E+00 0.  1.
         12    1    5    5    0    0 -0.14042602341E+02 -0.86867047916E+01  0.50963493693E+02  0.53571738912E+02  0.00000000000E+00 0. -1.
         13    1    3    3    0    0  0.53643530971E+02 -0.22075603838E+02 -0.23861896026E+03  0.24556866432E+03  0.00000000000E+00 0. -1.
        -14    1    3    3    0    0 -0.22192031467E+02  0.14373307738E+02 -0.69953373572E+02  0.74783371882E+02  0.00000000000E+00 0.  1.
          5    1    4    4  501    0  0.23429008469E+02  0.34132161588E+02  0.75767419491E+02  0.86441293077E+02  0.41800000000E+01 0.  1.
         -5    1    4    4    0  501 -0.77643909377E+02 -0.53801226487E+02  0.24766741941E+03  0.26510332263E+03  0.41800000000E+01 0.  1.
</event>
<event>
11    1  0.8974665E-009  0.1743869E+03  0.7561462E-02  0.1074276E+00
         22   -1    0    0    0    0  0.00000000000E+00  0.00000000000E+00  0.94728946529E+03  0.94728946529E+03  0.00000000000E+00 0.  1.
         22   -1    0    0    0    0 -0.00000000000E+00 -0.00000000000E+00 -0.37480703960E+03  0.37480703960E+03  0.00000000000E+00 0.  1.
         24    2    1    2    0    0  0.69115083386E+02 -0.91527000029E+02 -0.20963817934E+03  0.25243382550E+03  0.81366968333E+02 0.  0.
         25    2    1    2    0    0 -0.59899172552E+02  0.13155332554E+03 -0.76816330560E+02  0.20601222913E+03  0.12508437783E+03 0.  0.
        -24    2    1    2    0    0 -0.92159108340E+01 -0.40026325509E+02  0.85893693560E+03  0.86365045025E+03  0.80202251509E+02 0.  0.
        -11    1    3    3    0    0  0.52175958668E+02 -0.10477374135E+03 -0.19082699729E+03  0.22386337448E+03  0.00000000000E+00 0.  1.
         12    1    3    3    0    0  0.16939124718E+02  0.13246741316E+02 -0.18811182054E+02  0.28570451028E+02  0.00000000000E+00 0. -1.
         11    1    5    5    0    0 -0.39056952903E+01  0.14947703944E+01  0.52073657880E+00  0.42142568523E+01  0.00000000000E+00 0. -1.
        -12    1    5    5    0    0 -0.53102155437E+01 -0.41521095903E+02  0.85841619902E+03  0.85943619340E+03  0.00000000000E+00 0.  1.
          5    1    4    4  501    0 -0.33246569298E+02  0.14012431130E+03 -0.94808411937E+02  0.17247105369E+03  0.41800000000E+01 0.  1.
         -5    1    4    4    0  501 -0.26652603254E+02 -0.85709857637E+01  0.17992081377E+02  0.33541175433E+02  0.41800000000E+01 0.  1.
</event>
<event>
11    1  0.8974665E-009  0.1852565E+03  0.7561462E-02  0.1065469E+00
         22   -1    0    0    0    0  0.00000000000E+00  0.00000000000E+00  0.56916636682E+03  0.56916636682E+03  0.00000000000E+00 0. -1.
         22   -1    0    0    0    0 -0.00000000000E+00 -0.00000000000E+00 -0.60264257948E+03  0.60264257948E+03  0.00000000000E+00 0. -1.
         24    2    1    2    0    0 -0.16878407396E-01  0.41495764154E+02 -0.52964882135E+03  0.53760788364E+03  0.82294980799E+02 0.  0.
         25    2    1    2    0    0  0.36493661948E+02 -0.16351356562E+03  0.15339155093E+03  0.25932730635E+03  0.12511279079E+03 0.  0.
        -24    2    1    2    0    0 -0.36476783540E+02  0.12201780147E+03  0.34278105776E+03  0.37487375630E+03  0.82538354661E+02 0.  0.
        -11    1    3    3    0    0  0.26911239155E+02  0.22620125892E+02 -0.88377478551E+02  0.95112899248E+02  0.00000000000E+00 0.  1.
         12    1    3    3    0    0 -0.26928117562E+02  0.18875638262E+02 -0.44127134280E+03  0.44249498439E+03  0.00000000000E+00 0. -1.
         11    1    5    5    0    0 -0.62397221256E+02  0.74333263015E+02  0.23318870992E+03  0.25257834753E+03  0.00000000000E+00 0. -1.
        -12    1    5    5    0    0  0.25920437716E+02  0.47684538455E+02  0.10959234784E+03  0.12229540876E+03  0.00000000000E+00 0.  1.
          5    1    4    4  501    0  0.46026620446E+02 -0.13525009807E+02  0.55604479954E+01  0.48474391816E+02  0.41800000000E+01 0.  1.
         -5    1    4    4    0  501 -0.95329584988E+01 -0.14998855582E+03  0.14783110294E+03  0.21085291454E+03  0.41800000000E+01 0.  1.
</event>
<event>
11    1  0.8974665E-009  0.1854904E+03  0.7561462E-02  0.1065286E+00
         22   -1    0    0    0    0  0.00000000000E+00  0.00000000000E+00  0.85216437698E+03  0.85216437698E+03  0.00000000000E+00 0.  1.
         22   -1    0    0    0    0 -0.00000000000E+00 -0.00000000000E+00 -0.51393925355E+03  0.51393925355E+03  0.00000000000E+00 0. -1.
        -24    2    1    2    0    0 -0.13563558287E+03 -0.20452891016E+02 -0.46521635829E+03  0.49537076143E+03  0.10075018196E+03 0.  0.
         25    2    1    2    0    0  0.13483990888E+03 -0.19398317175E+01  0.24705015870E+03  0.30800598073E+03  0.12509332230E+03 0.  0.
         24    2    1    2    0    0  0.79567399143E+00  0.22392722733E+02  0.55639132302E+03  0.56272688837E+03  0.81167600876E+02 0.  0.
        -11    1    5    5    0    0  0.14523129788E+01  0.53284668348E+02  0.35159758837E+03  0.35561528263E+03  0.00000000000E+00 0.  1.
         12    1    5    5    0    0 -0.65663898739E+00 -0.30891945615E+02  0.20479373465E+03  0.20711160574E+03  0.00000000000E+00 0. -1.
         13    1    3    3    0    0 -0.12858390659E+03  0.16586858863E+02 -0.39408868080E+03  0.41486724775E+03  0.00000000000E+00 0. -1.
        -14    1    3    3    0    0 -0.70516762815E+01 -0.37039749879E+02 -0.71127677492E+02  0.80503513680E+02  0.00000000000E+00 0.  1.
          5    1    4    4  501    0  0.57724119238E+02  0.15761562264E+02  0.13639622662E+02  0.61514327544E+02  0.41800000000E+01 0. -1.
         -5    1    4    4    0  501  0.77115789637E+02 -0.17701393982E+02  0.23341053603E+03  0.24649165319E+03  0.41800000000E+01 0. -1.
</event>
<event>
11    1  0.8974665E-009  0.1373689E+03  0.7561462E-02  0.1110533E+00
         22   -1    0    0    0    0  0.00000000000E+00  0.00000000000E+00  0.14405954036E+04  0.14405954036E+04  0.00000000000E+00 0. -1.
         22   -1    0    0    0    0 -0.00000000000E+00 -0.00000000000E+00 -0.48295978226E+03  0.48295978226E+03  0.00000000000E+00 0.  1.
        -24    2    1    2    0    0 -0.21008363548E+02  0.14933102666E+02 -0.45895840853E+03  0.46892068989E+03  0.92625286765E+02 0.  0.
         25    2    1    2    0    0  0.11710260321E+02  0.43063582092E+02  0.24367087784E+03  0.27751295461E+03  0.12508533474E+03 0.  0.
         24    2    1    2    0    0  0.92981032276E+01 -0.57996684758E+02  0.11729231520E+04  0.11771215413E+04  0.80102012703E+02 0.  0.
        -11    1    5    5    0    0  0.31903359391E+02 -0.14939062752E+02  0.20709453678E+03  0.21006938639E+03  0.00000000000E+00 0.  1.
         12    1    5    5    0    0 -0.22605256164E+02 -0.43057622006E+02  0.96582861521E+03  0.96705215494E+03  0.00000000000E+00 0. -1.
         13    1    3    3    0    0  0.30069343421E+02 -0.12947873508E+02 -0.98575250675E+02  0.10386959559E+03  0.00000000000E+00 0. -1.
        -14    1    3    3    0    0 -0.51077706970E+02  0.27880976174E+02 -0.36038315786E+03  0.36505109430E+03  0.00000000000E+00 0.  1.
          5    1    4    4  501    0  0.20093752425E+02  0.74137820785E+02  0.22958963273E+03  0.24213435777E+03  0.41800000000E+01 0. -1.
         -5    1    4    4    0  501 -0.83834921045E+01 -0.31074238693E+02  0.14081245116E+02  0.35378596838E+02  0.41800000000E+01 0. -1.
</event>
<event>
11    1  0.8974665E-009  0.1529436E+03  0.7561462E-02  0.1093908E+00
         22   -1    0    0    0    0  0.00000000000E+00  0.00000000000E+00  0.26182967486E+03  0.26182967486E+03  0.00000000000E+00 0. -1.
         22   -1    0    0    0    0 -0.00000000000E+00 -0.00000000000E+00 -0.21763091756E+04  0.21763091756E+04  0.00000000000E+00 0.  1.
         24    2    1    2    0    0 -0.12235091402E+02  0.88067151595E+01 -0.20118330390E+04  0.20134578670E+04  0.79455331228E+02 0.  0.
         25    2    1    2    0    0  0.97977592946E+02 -0.21525700968E+02 -0.10409126126E+03  0.19117133339E+03  0.12509405869E+03 0.  0.
        -24    2    1    2    0    0 -0.85742501544E+02  0.12718985809E+02  0.20144479948E+03  0.23350965011E+03  0.80207233380E+02 0.  0.
        -11    1    3    3    0    0  0.17419963531E+02  0.54068359038E+01 -0.17210798428E+04  0.17211764914E+04  0.00000000000E+00 0.  1.
         12    1    3    3    0    0 -0.29655054933E+02  0.33998792557E+01 -0.29075319615E+03  0.29228137561E+03  0.00000000000E+00 0. -1.
         11    1    5    5    0    0 -0.91571346914E+02  0.22483850127E+02  0.20112737969E+03  0.22213297359E+03  0.00000000000E+00 0. -1.
        -12    1    5    5    0    0  0.58288453699E+01 -0.97648643178E+01  0.31741979044E+00  0.11376676528E+02  0.00000000000E+00 0.  1.
          5    1    4    4  501    0  0.73073465093E+02  0.17839531235E+02 -0.12007103117E+03  0.14174803386E+03  0.41800000000E+01 0.  1.
         -5    1    4    4    0  501  0.24904127853E+02 -0.39365232203E+02  0.15979769914E+02  0.49423299536E+02  0.41800000000E+01 0.  1.
</event>
<event>
11    1  0.8974665E-009  0.1392610E+03  0.7561462E-02  0.1108386E+00
         22   -1    0    0    0    0  0.00000000000E+00  0.00000000000E+00  0.16709565380E+04  0.16709565380E+04  0.00000000000E+00 0.  1.
         22   -1    0    0    0    0 -0.00000000000E+00 -0.00000000000E+00 -0.16672606450E+03  0.16672606450E+03  0.00000000000E+00 0.  1.
         24    2    1    2    0    0  0.58659787326E+02 -0.20272412221E+02 -0.14022100145E+03  0.17243573411E+03  0.78868319407E+02 0.  0.
         25    2    1    2    0    0 -0.34851931002E+02  0.90381954477E+01  0.46933297892E+03  0.48704888287E+03  0.12508726209E+03 0.  0.
        -24    2    1    2    0    0 -0.23807856323E+02  0.11234216773E+02  0.11751184961E+04  0.11781979856E+04  0.80956727331E+02 0.  0.
        -11    1    3    3    0    0  0.56099746317E+02 -0.42794705064E+02 -0.12924472733E+03  0.14725069732E+03  0.00000000000E+00 0.  1.
         12    1    3    3    0    0  0.25600410087E+01  0.22522292843E+02 -0.10976274120E+02  0.25185036797E+02  0.00000000000E+00 0. -1.
         11    1    5    5    0    0 -0.34253515406E+01 -0.75202493532E+01  0.11040776635E+02  0.13790791573E+02  0.00000000000E+00 0. -1.
        -12    1    5    5    0    0 -0.20382504783E+02  0.18754466126E+02  0.11640777194E+04  0.11644071940E+04  0.00000000000E+00 0.  1.
          5    1    4    4  501    0 -0.82136631044E+02  0.32270258631E+01  0.30235650980E+03  0.31335885383E+03  0.41800000000E+01 0. -1.
         -5    1    4    4    0  501  0.47284700041E+02  0.58111695846E+01  0.16697646912E+03  0.17369002904E+03  0.41800000000E+01 0. -1.
</event>
<event>
11    1  0.8974665E-009  0.1335579E+03  0.7561462E-02  0.1114973E+00
         22   -1    0    0    0    0  0.00000000000E+00  0.00000000000E+00  0.24726755470E+04  0.24726755470E+04  0.00000000000E+00 0. -1.
         22   -1    0    0    0    0 -0.00000000000E+00 -0.00000000000E+00 -0.14829265740E+04  0.14829265740E+04  0.00000000000E+00 0. -1.
        -24    2    1    2    0    0 -0.26157019814E+02  0.14940708055E+02 -0.86716415461E+03  0.87156285625E+03  0.82101929988E+02 0.  0.
         25    2    1    2    0    0 -0.26562111182E+01  0.21977776116E+02 -0.60600142298E+03  0.61917403260E+03  0.12509468372E+03 0.  0.
         24    2    1    2    0    0  0.28813230932E+02 -0.36918484171E+02  0.24629145506E+04  0.24648652322E+04  0.86135663333E+02 0.  0.
        -13    1    5    5    0    0 -0.13638464185E+02  0.13922674155E+01  0.15997045640E+04  0.15997633070E+04  0.00000000000E+00 0.  1.
         14    1    5    5    0    0  0.42451695116E+02 -0.38310751586E+02  0.86320998657E+03  0.86510192522E+03  0.00000000000E+00 0. -1.
         11    1    3    3    0    0 -0.27565172108E+02 -0.30949470968E+02 -0.43191516925E+03  0.43389909184E+03  0.00000000000E+00 0. -1.
        -12    1    3    3    0    0  0.14081522942E+01  0.45890179022E+02 -0.43524898536E+03  0.43766376441E+03  0.00000000000E+00 0.  1.
          5    1    4    4  501    0 -0.18682110331E+02 -0.64390300018E+01 -0.10498388083E+02  0.22763367636E+02  0.41800000000E+01 0. -1.
         -5    1    4    4    0  501  0.16025899213E+02  0.28416806118E+02 -0.59550303489E+03  0.59641066496E+03  0.41800000000E+01 0. -1.
</event>
<event>
11    1  0.8974665E-009  0.1399311E+03  0.7561462E-02  0.1107635E+00
         22   -1    0    0    0    0  0.00000000000E+00  0.00000000000E+00  0.12179208579E+04  0.12179208579E+04  0.00000000000E+00 0. -1.
         22   -1    0    0    0    0 -0.00000000000E+00 -0.00000000000E+00 -0.10002510636E+04  0.10002510636E+04  0.00000000000E+00 0.  1.
        -24    2    1    2    0    0 -0.33408438543E+02 -0.12546008289E+02 -0.93484513177E+03  0.93900133857E+03  0.80712869799E+02 0.  0.
         25    2    1    2    0    0  0.71147960971E+02 -0.37053768246E+02  0.29360351227E+02  0.15147928193E+03  0.12509567754E+03 0.  0.
         24    2    1    2    0    0 -0.37739522429E+02  0.49599776535E+02  0.11231545749E+04  0.11276913010E+04  0.79542830156E+02 0.  0.
        -11    1    5    5    0    0  0.21597310490E+02  0.32530198887E+02  0.39625593098E+03  0.39817511286E+03  0.00000000000E+00 0.  1.
         12    1    5    5    0    0 -0.59336832919E+02  0.17069577648E+02  0.72689864393E+03  0.72951618815E+03  0.00000000000E+00 0. -1.
         13    1    3    3    0    0 -0.18696739236E+02 -0.20745631164E+02 -0.95813566036E+02  0.99800745022E+02  0.00000000000E+00 0. -1.
        -14    1    3    3    0    0 -0.14711699306E+02  0.81996228747E+01 -0.83903156574E+03  0.83920059355E+03  0.00000000000E+00 0.  1.
          5    1    4    4  501    0  0.37750916281E+02  0.40222515836E+02  0.37447929947E+02  0.66804208831E+02  0.41800000000E+01 0.  1.
         -5    1    4    4    0  501  0.33397044690E+02 -0.77276284081E+02 -0.80875787203E+01  0.84675073103E+02  0.41800000000E+01 0.  1.
</event>
<event>
11    1  0.8974665E-009  0.1406008E+03  0.7561462E-02  0.1106889E+00
         22   -1    0    0    0    0  0.00000000000E+00  0.00000000000E+00  0.46448753745E+03  0.46448753745E+03  0.00000000000E+00 0.  1.
         22   -1    0    0    0    0 -0.00000000000E+00 -0.00000000000E+00 -0.80437390436E+03  0.80437390436E+03  0.00000000000E+00 0.  1.
        -24    2    1    2    0    0  0.19884337973E+02 -0.16478836884E+02 -0.74048631498E+03  0.74514851686E+03  0.79116310243E+02 0.  0.
         25    2    1    2    0    0 -0.29317763800E+02 -0.48549827048E+02  0.32307899829E+02  0.14109568862E+03  0.12509027130E+03 0.  0.
         24    2    1    2    0    0  0.94334258271E+01  0.65028663932E+02  0.36829204825E+03  0.38261723633E+03  0.80244626488E+02 0.  0.
        -13    1    5    5    0    0 -0.34262434596E+02  0.41441730798E+02  0.20569136591E+03  0.21260355003E+03  0.00000000000E+00 0.  1.
         14    1    5    5    0    0  0.43695860424E+02  0.23586933134E+02  0.16260068234E+03  0.17001368630E+03  0.00000000000E+00 0. -1.
         11    1    3    3    0    0 -0.29882296803E+02 -0.77708605816E+01 -0.20934179662E+03  0.21160653522E+03  0.00000000000E+00 0. -1.
        -12    1    3    3    0    0  0.49766634776E+02 -0.87079763022E+01 -0.53114451836E+03  0.53354198164E+03  0.00000000000E+00 0.  1.
          5    1    4    4  501    0 -0.24173929660E+02 -0.78251099189E+02  0.58670426006E+02  0.10083305354E+03  0.41800000000E+01 0.  1.
         -5    1    4    4    0  501 -0.51438341394E+01  0.29701272141E+02 -0.26362526177E+02  0.40262635071E+02  0.41800000000E+01 0.  1.
</event>
<event>
11    1  0.8974665E-009  0.1969891E+03  0.7561462E-02  0.1056673E+00
         22   -1    0    0    0    0  0.00000000000E+00  0.00000000000E+00  0.14672266484E+04  0.14672266484E+04  0.00000000000E+00 0.  1.
         22   -1    0    0    0    0 -0.00000000000E+00 -0.00000000000E+00 -0.55465626170E+03  0.55465626170E+03  0.00000000000E+00 0.  1.
        -24    2    1    2    0    0 -0.64858112431E+02 -0.13355406136E+03 -0.41476416886E+03  0.44662950603E+03  0.73521002666E+02 0.  0.
         25    2    1    2    0    0  0.18240041656E+03  0.10751037365E+03  0.59424241870E+01  0.24599088134E+03  0.12509120230E+03 0.  0.
         24    2    1    2    0    0 -0.11754230413E+03  0.26043687710E+02  0.13213921314E+04  0.13292625227E+04  0.79794878000E+02 0.  0.
        -13    1    5    5    0    0 -0.12251425528E+03  0.20141522816E+02  0.13074090146E+04  0.13132911921E+04  0.00000000000E+00 0.  1.
         14    1    5    5    0    0  0.49719511548E+01  0.59021648942E+01  0.13983116783E+02  0.15971330680E+02  0.00000000000E+00 0. -1.
         13    1    3    3    0    0 -0.19568248841E+02 -0.28236136305E+02 -0.31581881916E+02  0.46664879958E+02  0.00000000000E+00 0. -1.
        -14    1    3    3    0    0 -0.45289863590E+02 -0.10531792506E+03 -0.38318228694E+03  0.39996462607E+03  0.00000000000E+00 0.  1.
          5    1    4    4  501    0  0.19619643639E+02  0.40525801813E+02 -0.43874145180E+02  0.63005428690E+02  0.41800000000E+01 0.  1.
         -5    1    4    4    0  501  0.16278077292E+03  0.66984571841E+02  0.49816569367E+02  0.18298545265E+03  0.41800000000E+01 0.  1.
</event>
<event>
11    1  0.8974665E-009  0.1704361E+03  0.7561462E-02  0.1077653E+00
         22   -1    0    0    0    0  0.00000000000E+00  0.00000000000E+00  0.97416287733E+03  0.97416287733E+03  0.00000000000E+00 0.  1.
         22   -1    0    0    0    0 -0.00000000000E+00 -0.00000000000E+00 -0.23646442761E+03  0.23646442761E+03  0.00000000000E+00 0. -1.
         24    2    1    2    0    0  0.24773235668E+02 -0.12265929790E+03 -0.16181595434E+03  0.22011790253E+03  0.81292504997E+02 0.  0.
         25    2    1    2    0    0  0.76510622869E+02  0.72731736480E+02  0.13101172111E+03  0.20963839349E+03  0.12506160104E+03 0.  0.
        -24    2    1    2    0    0 -0.10128385854E+03  0.49927561423E+02  0.76850268294E+03  0.78087100892E+03  0.80074824302E+02 0.  0.
        -13    1    3    3    0    0 -0.20996743767E+02 -0.54579800684E+02 -0.32297328095E+02  0.66805204090E+02  0.00000000000E+00 0.  1.
         14    1    3    3    0    0  0.45769979435E+02 -0.68079497219E+02 -0.12951862624E+03  0.15331269844E+03  0.00000000000E+00 0. -1.
         11    1    5    5    0    0 -0.38494245975E+01  0.11375077705E+02  0.32254140922E+03  0.32276488521E+03  0.00000000000E+00 0. -1.
        -12    1    5    5    0    0 -0.97434433940E+02  0.38552483718E+02  0.44596127372E+03  0.45810612370E+03  0.00000000000E+00 0.  1.
          5    1    4    4  501    0 -0.16114973328E+02 -0.21519056380E+02  0.63852064918E+01  0.27946474103E+02  0.41800000000E+01 0.  1.
         -5    1    4    4    0  501  0.92625596197E+02  0.94250792860E+02  0.12462651462E+03  0.18169191939E+03  0.41800000000E+01 0.  1.
</event>
<event>
11    1  0.8974665E-009  0.1401430E+03  0.7561462E-02  0.1107399E+00
         22   -1    0    0    0    0  0.00000000000E+00  0.00000000000E+00  0.54641478028E+03  0.54641478028E+03  0.00000000000E+00 0.  1.
         22   -1    0    0    0    0 -0.00000000000E+00 -0.00000000000E+00 -0.11485076826E+04  0.11485076826E+04  0.00000000000E+00 0. -1.
         24    2    1    2    0    0  0.48531061113E+02  0.16239065643E+02 -0.11121628727E+04  0.11161979735E+04  0.79829126006E+02 0.  0.
         25    2    1    2    0    0  0.43508164318E+01  0.41349585660E+02  0.17152198880E+03  0.21631716598E+03  0.12507839868E+03 0.  0.
        -24    2    1    2    0    0 -0.52881877545E+02 -0.57588651303E+02  0.33854798163E+03  0.36240732341E+03  0.10301158413E+03 0.  0.
        -11    1    3    3    0    0  0.31402564019E+02  0.30380857657E+00 -0.12938272579E+03  0.13313941212E+03  0.00000000000E+00 0.  1.
         12    1    3    3    0    0  0.17128497094E+02  0.15935257067E+02 -0.98278014691E+03  0.98305856133E+03  0.00000000000E+00 0. -1.
         11    1    5    5    0    0  0.17099568599E+02  0.17353361353E+02  0.41052417048E+02  0.47737148449E+02  0.00000000000E+00 0. -1.
        -12    1    5    5    0    0 -0.69981446143E+02 -0.74942012656E+02  0.29749556458E+03  0.31467017496E+03  0.00000000000E+00 0.  1.
          5    1    4    4  501    0  0.87593769862E+01 -0.43121108415E+02  0.38457863001E+02  0.58588704566E+02  0.41800000000E+01 0. -1.
         -5    1    4    4    0  501 -0.44085605545E+01  0.84470694075E+02  0.13306412580E+03  0.15772846141E+03  0.41800000000E+01 0. -1.
</event>
<event>
11    1  0.8974665E-009  0.1270718E+03  0.7561462E-02  0.1122920E+00
         22   -1    0    0    0    0  0.00000000000E+00  0.00000000000E+00  0.98729892053E+03  0.98729892053E+03  0.00000000000E+00 0.  1.
         22   -1    0    0    0    0 -0.00000000000E+00 -0.00000000000E+00 -0.56920436878E+03  0.56920436878E+03  0.00000000000E+00 0.  1.
        -24    2    1    2    0    0 -0.13945648350E+02 -0.17072118876E+02 -0.47569154033E+03  0.48724053572E+03  0.10312594123E+03 0.  0.
         25    2    1    2    0    0 -0.14080836404E+02  0.40302937116E+02 -0.34372800095E+02  0.13656705861E+03  0.12508587217E+03 0.  0.
         24    2    1    2    0    0  0.28026484754E+02 -0.23230818240E+02  0.92815889218E+03  0.93269569497E+03  0.84363354158E+02 0.  0.
        -11    1    5    5    0    0 -0.84067646613E+01 -0.47410660277E+02  0.48157264861E+03  0.48397382191E+03  0.00000000000E+00 0.  1.
         12    1    5    5    0    0  0.36433249415E+02  0.24179842037E+02  0.44658624357E+03  0.44872187307E+03  0.00000000000E+00 0. -1.
         11    1    3    3    0    0  0.24058949283E+02 -0.48628909385E+02 -0.29341549874E+03  0.29838944145E+03  0.00000000000E+00 0. -1.
        -12    1    3    3    0    0 -0.38004597633E+02  0.31556790510E+02 -0.18227604160E+03  0.18885109428E+03  0.00000000000E+00 0.  1.
          5    1    4    4  501    0 -0.47899618280E+02  0.70234303685E+02 -0.32700607455E+02  0.91181319213E+02  0.41800000000E+01 0.  1.
         -5    1    4    4    0  501  0.33818781876E+02 -0.29931366569E+02 -0.16721926398E+01  0.45385739396E+02  0.41800000000E+01 0.  1.
</event>
<event>
11    1  0.8974665E-009  0.1533057E+03  0.7561462E-02  0.1093548E+00
         22   -1    0    0    0    0  0.00000000000E+00  0.00000000000E+00  0.15013232231E+03  0.15013232231E+03  0.00000000000E+00 0. -1.
         22   -1    0    0    0    0 -0.00000000000E+00 -0.00000000000E+00 -0.15540728641E+04  0.15540728641E+04  0.00000000000E+00 0. -1.
        -24    2    1    2    0    0 -0.42022954131E+02 -0.16876906217E+02 -0.11058169242E+04  0.11096094211E+04  0.79694660100E+02 0.  0.
         25    2    1    2    0    0 -0.48688834047E+02  0.79202803922E+01 -0.40965576093E+03  0.43115992282E+03  0.12509077978E+03 0.  0.
         24    2    1    2    0    0  0.90711788179E+02  0.89566258244E+01  0.11153214337E+03  0.16343584249E+03  0.77220502102E+02 0.  0.
        -11    1    5    5    0    0 -0.69813490146E+01  0.13990504726E+02  0.76152189628E+00  0.15654180660E+02  0.00000000000E+00 0.  1.
         12    1    5    5    0    0  0.97693137194E+02 -0.50338789015E+01  0.11077062147E+03  0.14778166183E+03  0.00000000000E+00 0. -1.
         11    1    3    3    0    0 -0.43507294282E+02 -0.37855422767E+02 -0.10033742805E+04  0.10050302803E+04  0.00000000000E+00 0. -1.
        -12    1    3    3    0    0  0.14843401503E+01  0.20978516550E+02 -0.10244264374E+03  0.10457914074E+03  0.00000000000E+00 0.  1.
          5    1    4    4  501    0 -0.21879913231E+02  0.37188927129E+02 -0.37729818559E+03  0.37978038411E+03  0.41800000000E+01 0. -1.
         -5    1    4    4    0  501 -0.26808920816E+02 -0.29268646737E+02 -0.32357575340E+02  0.51379538719E+02  0.41800000000E+01 0. -1.
</event>
<event>
11    1  0.8974665E-009  0.1405014E+03  0.7561462E-02  0.1107000E+00
         22   -1    0    0    0    0  0.00000000000E+00  0.00000000000E+00  0.12456099879E+04  0.12456099879E+04  0.00000000000E+00 0.  1.
         22   -1    0    0    0    0 -0.00000000000E+00 -0.00000000000E+00 -0.16464520446E+04  0.16464520446E+04  0.00000000000E+00 0. -1.
        -24    2    1    2    0    0 -0.99453877846E+01 -0.45289589371E+02 -0.15439791788E+04  0.15467646446E+04  0.80368548675E+02 0.  0.
         25    2    1    2    0    0  0.39771834263E+02 -0.12186226773E+02 -0.54924078258E+02  0.14280926416E+03  0.12509008208E+03 0.  0.
         24    2    1    2    0    0 -0.29826446479E+02  0.57475816143E+02  0.11980612003E+04  0.12024881238E+04  0.80211979724E+02 0.  0.
        -13    1    5    5    0    0  0.16564139261E+01  0.17375023953E+02  0.89487957845E+03  0.89504977241E+03  0.00000000000E+00 0.  1.
         14    1    5    5    0    0 -0.31482860405E+02  0.40100792190E+02  0.30318162188E+03  0.30743835135E+03  0.00000000000E+00 0. -1.
         13    1    3    3    0    0  0.29177410242E+02  0.37840139789E+01 -0.57862338674E+03  0.57937092066E+03  0.00000000000E+00 0. -1.
        -14    1    3    3    0    0 -0.39122798027E+02 -0.49073603349E+02 -0.96535579205E+03  0.96739372393E+03  0.00000000000E+00 0.  1.
          5    1    4    4  501    0 -0.38128784872E+01  0.33691142117E+02  0.23861290235E+02  0.41670909171E+02  0.41800000000E+01 0.  1.
         -5    1    4    4    0  501  0.43584712750E+02 -0.45877368890E+02 -0.78785368493E+02  0.10113835499E+03  0.41800000000E+01 0.  1.
</event>
<event>
11    1  0.8974665E-009  0.1492989E+03  0.7561462E-02  0.1097597E+00
         22   -1    0    0    0    0  0.00000000000E+00  0.00000000000E+00  0.53841409908E+03  0.53841409908E+03  0.00000000000E+00 0. -1.
         22   -1    0    0    0    0 -0.00000000000E+00 -0.00000000000E+00 -0.16352379882E+03  0.16352379882E+03  0.00000000000E+00 0. -1.
         24    2    1    2    0    0  0.56980743989E+02 -0.66965046771E+02 -0.10517873366E+03  0.15856629116E+03  0.79684251911E+02 0.  0.
         25    2    1    2    0    0 -0.40506396017E+02  0.15853642949E+02  0.15313893114E+03  0.20246525141E+03  0.12509412331E+03 0.  0.
        -24    2    1    2    0    0 -0.16474347972E+02  0.51111403822E+02  0.32693010278E+03  0.34090635533E+03  0.80312335675E+02 0.  0.
        -13    1    3    3    0    0  0.38060027764E+02 -0.30463827094E+02 -0.34836491227E+01  0.48874802157E+02  0.00000000000E+00 0.  1.
         14    1    3    3    0    0  0.18920716225E+02 -0.36501219676E+02 -0.10169508453E+03  0.10969148900E+03  0.00000000000E+00 0. -1.
         11    1    5    5    0    0 -0.46461658831E+02  0.16380643718E+02  0.19861765146E+03  0.20463622041E+03  0.00000000000E+00 0. -1.
        -12    1    5    5    0    0  0.29987310859E+02  0.34730760103E+02  0.12831245132E+03  0.13627013493E+03  0.00000000000E+00 0.  1.
          5    1    4    4  501    0  0.32914905022E+02 -0.17134164593E+02  0.10770026748E+02  0.38864333843E+02  0.41800000000E+01 0.  1.
         -5    1    4    4    0  501 -0.73421301039E+02  0.32987807542E+02  0.14236890439E+03  0.16360091757E+03  0.41800000000E+01 0.  1.
</event>
<event>
11    1  0.8974665E-009  0.1314142E+03  0.7561462E-02  0.1117543E+00
         22   -1    0    0    0    0  0.00000000000E+00  0.00000000000E+00  0.71679418201E+02  0.71679418201E+02  0.00000000000E+00 0.  1.
         22   -1    0    0    0    0 -0.00000000000E+00 -0.00000000000E+00 -0.11369974564E+04  0.11369974564E+04  0.00000000000E+00 0. -1.
         24    2    1    2    0    0 -0.19850320453E+02  0.24348943698E+02 -0.88872556700E+03  0.89299125693E+03  0.81322476847E+02 0.  0.
         25    2    1    2    0    0  0.53518114020E+02 -0.59751230112E+01 -0.16614705211E+03  0.21483239934E+03  0.12509287053E+03 0.  0.
        -24    2    1    2    0    0 -0.33667793568E+02 -0.18373820687E+02 -0.10445419123E+02  0.10085321836E+03  0.92688441908E+02 0.  0.
        -11    1    3    3    0    0  0.17651636535E+02  0.30827281353E+02 -0.19409696524E+03  0.19732088958E+03  0.00000000000E+00 0.  1.
         12    1    3    3    0    0 -0.37501956987E+02 -0.64783376549E+01 -0.69462860175E+03  0.69567036735E+03  0.00000000000E+00 0. -1.
         11    1    5    5    0    0  0.22675156872E+02 -0.24808781546E+02 -0.25489563226E+02  0.42182415939E+02  0.00000000000E+00 0. -1.
        -12    1    5    5    0    0 -0.56342950439E+02  0.64349608586E+01  0.15044144103E+02  0.58670802425E+02  0.00000000000E+00 0.  1.
          5    1    4    4  501    0  0.37539448312E+02 -0.64702627610E+02 -0.98206638383E+02  0.12352188641E+03  0.41800000000E+01 0. -1.
         -5    1    4    4    0  501  0.15978665708E+02  0.58727504599E+02 -0.67940413731E+02  0.91310512934E+02  0.41800000000E+01 0. -1.
</event>
<event>
11    1  0.8974665E-009  0.1367939E+03  0.7561462E-02  0.1111192E+00
         22   -1    0    0    0    0  0.00000000000E+00  0.00000000000E+00  0.25894309442E+03  0.25894309442E+03  0.00000000000E+00 0.  1.
         22   -1    0    0    0    0 -0.00000000000E+00 -0.00000000000E+00 -0.27441507704E+03  0.27441507704E+03  0.00000000000E+00 0.  1.
        -24    2    1    2    0    0 -0.41261314697E+02 -0.32723874685E+02 -0.14796381843E+03  0.17524287661E+03  0.77739476282E+02 0.  0.
         25    2    1    2    0    0  0.59597042506E+02  0.28571764761E+02 -0.56017746959E+02  0.15216348556E+03  0.12509030796E+03 0.  0.
         24    2    1    2    0    0 -0.18335727809E+02  0.41521099243E+01  0.18850958276E+03  0.20595180929E+03  0.80788897920E+02 0.  0.
        -13    1    5    5    0    0 -0.28390883887E+02 -0.27677930192E+02  0.14921403426E+03  0.15439215695E+03  0.00000000000E+00 0.  1.
         14    1    5    5    0    0  0.10055156078E+02  0.31830040117E+02  0.39295548498E+02  0.51559652339E+02  0.00000000000E+00 0. -1.
         11    1    3    3    0    0  0.41768528899E+01 -0.31817429837E+01  0.83143948729E+01  0.98335522870E+01  0.00000000000E+00 0. -1.
        -12    1    3    3    0    0 -0.45438167587E+02 -0.29542131702E+02 -0.15627821330E+03  0.16540932432E+03  0.00000000000E+00 0.  1.
          5    1    4    4  501    0 -0.37110655359E+02 -0.65253456409E+01 -0.89612671597E+01  0.38955841487E+02  0.41800000000E+01 0.  1.
         -5    1    4    4    0  501  0.96707697864E+02  0.35097110402E+02 -0.47056479799E+02  0.11320764407E+03  0.41800000000E+01 0.  1.
</event>
<event>
11    1  0.8974665E-009  0.1463059E+03  0.7561462E-02  0.1100714E+00
         22   -1    0    0    0    0  0.00000000000E+00  0.00000000000E+00  0.35839160312E+03  0.35839160312E+03  0.00000000000E+00 0.  1.
         22   -1    0    0    0    0 -0.00000000000E+00 -0.00000000000E+00 -0.24679483579E+04  0.24679483579E+04  0.00000000000E+00 0. -1.
        -24    2    1    2    0    0  0.56251566825E+02 -0.46537657400E+02 -0.21168680054E+04  0.21196894127E+04  0.81382196283E+02 0.  0.
         25    2    1    2    0    0 -0.66471273972E+02  0.11543638258E+03 -0.31696147033E+03  0.36586477112E+03  0.12509383833E+03 0.  0.
         24    2    1    2    0    0  0.10219707147E+02 -0.68898725177E+02  0.32427272093E+03  0.34078577718E+03  0.78298605613E+02 0.  0.
        -13    1    5    5    0    0 -0.33322541901E+02 -0.27375500792E+02  0.16451936266E+03  0.17007771909E+03  0.00000000000E+00 0.  1.
         14    1    5    5    0    0  0.43542249048E+02 -0.41523224385E+02  0.15975335827E+03  0.17070805808E+03  0.00000000000E+00 0. -1.
         11    1    3    3    0    0  0.53254896711E+02 -0.38977515378E+02 -0.20992274418E+04  0.21002645508E+04  0.00000000000E+00 0. -1.
        -12    1    3    3    0    0  0.29966701138E+01 -0.75601420219E+01 -0.17640563576E+02  0.19424861967E+02  0.00000000000E+00 0.  1.
          5    1    4    4  501    0 -0.82767992138E+02  0.94969611054E+02 -0.31501881543E+03  0.33929941648E+03  0.41800000000E+01 0. -1.
         -5    1    4    4    0  501  0.16296718166E+02  0.20466771523E+02 -0.19426549052E+01  0.26565354649E+02  0.41800000000E+01 0. -1.
</event>
<event>
11    1  0.8974665E-009  0.1507856E+03  0.7561462E-02  0.1096079E+00
         22   -1    0    0    0    0  0.00000000000E+00  0.00000000000E+00  0.59518107059E+03  0.59518107059E+03  0.00000000000E+00 0. -1.
         22   -1    0    0    0    0 -0.00000000000E+00 -0.00000000000E+00 -0.68435901667E+03  0.68435901667E+03  0.00000000000E+00 0.  1.
         24    2    1    2    0    0 -0.81031671437E+02 -0.84251368393E+01 -0.55953947669E+03  0.57098930435E+03  0.79418165445E+02 0.  0.
         25    2    1    2    0    0  0.11671061899E+03 -0.20150066545E+02 -0.50837586337E+02  0.17962273072E+03  0.12510983750E+03 0.  0.
        -24    2    1    2    0    0 -0.35678947552E+02  0.28575203384E+02  0.52119911695E+03  0.52892805219E+03  0.77632695043E+02 0.  0.
        -11    1    3    3    0    0 -0.59996018281E+02 -0.10602862125E+02 -0.53556911249E+03  0.53902339202E+03  0.00000000000E+00 0.  1.
         12    1    3    3    0    0 -0.21035653155E+02  0.21777252860E+01 -0.23970364200E+02  0.31965912328E+02  0.00000000000E+00 0. -1.
         11    1    5    5    0    0  0.17907332178E+01  0.47787958812E+02  0.29287283082E+03  0.29675139556E+03  0.00000000000E+00 0. -1.
        -12    1    5    5    0    0 -0.37469680770E+02 -0.19212755428E+02  0.22832628612E+03  0.23217665663E+03  0.00000000000E+00 0.  1.
          5    1    4    4  501    0  0.24719977340E+02  0.46820304894E+02 -0.37426720812E+02  0.64972687037E+02  0.41800000000E+01 0. -1.
         -5    1    4    4    0  501  0.91990641649E+02 -0.66970371439E+02 -0.13410865525E+02  0.11465004368E+03  0.41800000000E+01 0. -1.
</event>
<event>
11    1  0.8974665E-009  0.1574091E+03  0.7561462E-02  0.1089540E+00
         22   -1    0    0    0    0  0.00000000000E+00  0.00000000000E+00  0.26459269973E+04  0.26459269973E+04  0.00000000000E+00 0. -1.
         22   -1    0    0    0    0 -0.00000000000E+00 -0.00000000000E+00 -0.20957925918E+03  0.20957925918E+03  0.00000000000E+00 0. -1.
        -24    2    1    2    0    0  0.40523598841E+02 -0.98221120056E+00 -0.17826085918E+03  0.20004999589E+03  0.81240015637E+02 0.  0.
         25    2    1    2    0    0 -0.12598048629E+03  0.35969403889E+02  0.41998551787E+03  0.45738520157E+03  0.12509399045E+03 0.  0.
         24    2    1    2    0    0  0.85456887452E+02 -0.34987192688E+02  0.21946230794E+04  0.21980710590E+04  0.81356846584E+02 0.  0.
        -11    1    5    5    0    0  0.97829883978E+01 -0.19943744301E+02  0.12158005089E+03  0.12359275292E+03  0.00000000000E+00 0.  1.
         12    1    5    5    0    0  0.75673899054E+02 -0.15043448387E+02  0.20730430286E+04  0.20744783061E+04  0.00000000000E+00 0. -1.
         13    1    3    3    0    0  0.24540387517E+02 -0.11758253891E+02 -0.17870832942E+03  0.18076823327E+03  0.00000000000E+00 0. -1.
        -14    1    3    3    0    0  0.15983211324E+02  0.10776042690E+02  0.44747024609E+00  0.19281762625E+02  0.00000000000E+00 0.  1.
          5    1    4    4  501    0 -0.83306289407E+02 -0.22697595799E+02  0.33302011011E+03  0.34405665935E+03  0.41800000000E+01 0.  1.
         -5    1    4    4    0  501 -0.42674196886E+02  0.58666999688E+02  0.86965407766E+02  0.11332854221E+03  0.41800000000E+01 0.  1.
</event>
<event>
11    1  0.8974665E-009  0.1494927E+03  0.7561462E-02  0.1097398E+00
         22   -1    0    0    0    0  0.00000000000E+00  0.00000000000E+00  0.29595338768E+03  0.29595338768E+03  0.00000000000E+00 0.  1.
         22   -1    0    0    0    0 -0.00000000000E+00 -0.00000000000E+00 -0.71095201001E+03  0.71095201001E+03  0.00000000000E+00 0. -1.
        -24    2    1    2    0    0 -0.56076124157E+01 -0.55662912903E+02 -0.58837087008E+03  0.59687646841E+03  0.83375251680E+02 0.  0.
         25    2    1    2    0    0 -0.25220771329E+02  0.12497106659E+03 -0.27111678859E+02  0.18065620285E+03  0.12509102968E+03 0.  0.
         24    2    1    2    0    0  0.30828383745E+02 -0.69308153688E+02  0.20048392661E+03  0.22937272644E+03  0.81633531063E+02 0.  0.
        -11    1    5    5    0    0  0.16385599479E+02 -0.85405088862E+02  0.13664677249E+03  0.16197177997E+03  0.00000000000E+00 0.  1.
         12    1    5    5    0    0  0.14442784266E+02  0.16096935174E+02  0.63837154119E+02  0.67400946472E+02  0.00000000000E+00 0. -1.
         11    1    3    3    0    0 -0.28381031507E+02 -0.68536005238E+02 -0.44425040136E+03  0.45040102806E+03  0.00000000000E+00 0. -1.
        -12    1    3    3    0    0  0.22773419091E+02  0.12873092336E+02 -0.14412046872E+03  0.14647544035E+03  0.00000000000E+00 0.  1.
          5    1    4    4  501    0  0.37168950727E+02  0.14961626923E+02  0.20816278072E+02  0.45345021900E+02  0.41800000000E+01 0.  1.
         -5    1    4    4    0  501 -0.62389722057E+02  0.11000943967E+03 -0.47927956931E+02  0.13531118095E+03  0.41800000000E+01 0.  1.
</event>
<event>
11    1  0.8974665E-009  0.1591232E+03  0.7561462E-02  0.1087905E+00
         22   -1    0    0    0    0  0.00000000000E+00  0.00000000000E+00  0.25755709343E+03  0.25755709343E+03  0.00000000000E+00 0.  1.
         22   -1    0    0    0    0 -0.00000000000E+00 -0.00000000000E+00 -0.63101750260E+03  0.63101750260E+03  0.00000000000E+00 0.  1.
         24    2    1    2    0    0  0.13038107448E+02 -0.93562756369E+02 -0.46887501955E+03  0.48539458701E+03  0.82705135988E+02 0.  0.
         25    2    1    2    0    0 -0.15997146868E+02  0.12243007672E+03 -0.91173365327E+02  0.19800237978E+03  0.12508927796E+03 0.  0.
        -24    2    1    2    0    0  0.29590394204E+01 -0.28867320346E+02  0.18658797571E+03  0.20517762923E+03  0.80254026436E+02 0.  0.
        -13    1    3    3    0    0 -0.19459913694E+02 -0.29989109700E+02 -0.29893634049E+03  0.30106638904E+03  0.00000000000E+00 0.  1.
         14    1    3    3    0    0  0.32498021141E+02 -0.63573646669E+02 -0.16993867906E+03  0.18432819797E+03  0.00000000000E+00 0. -1.
         11    1    5    5    0    0 -0.37943197905E+00  0.27503697705E+02  0.79315411566E+02  0.83949579320E+02  0.00000000000E+00 0. -1.
        -12    1    5    5    0    0  0.33384713995E+01 -0.56371018051E+02  0.10727256414E+03  0.12122804991E+03  0.00000000000E+00 0.  1.
          5    1    4    4  501    0 -0.67035887726E+02  0.79872708454E+02 -0.77598086040E+02  0.13004766494E+03  0.41800000000E+01 0.  1.
         -5    1    4    4    0  501  0.51038740858E+02  0.42557368262E+02 -0.13575279287E+02  0.67954714843E+02  0.41800000000E+01 0.  1.
</event>
<event>
11    1  0.8974665E-009  0.2383332E+03  0.7561462E-02  0.1030305E+00
         22   -1    0    0    0    0  0.00000000000E+00  0.00000000000E+00  0.20114604761E+04  0.20114604761E+04  0.00000000000E+00 0. -1.
         22   -1    0    0    0    0 -0.00000000000E+00 -0.00000000000E+00 -0.55053089803E+03  0.55053089803E+03  0.00000000000E+00 0. -1.
        -24    2    1    2    0    0  0.20192744889E+03 -0.44858614376E+02 -0.46405663687E+03  0.51422648287E+03  0.79330470599E+02 0.  0.
         25    2    1    2    0    0 -0.17776959207E+03 -0.13010633883E+02  0.13791134280E+03  0.25775742968E+03  0.12509216451E+03 0.  0.
         24    2    1    2    0    0 -0.24157856818E+02  0.57869248259E+02  0.17870748722E+04  0.17900074616E+04  0.80979392148E+02 0.  0.
        -11    1    5    5    0    0 -0.32479663414E+02  0.49703661397E+02  0.61172252957E+03  0.61459729553E+03  0.00000000000E+00 0.  1.
         12    1    5    5    0    0  0.83218065963E+01  0.81655868623E+01  0.11753523426E+04  0.11754101661E+04  0.00000000000E+00 0. -1.
         13    1    3    3    0    0  0.58291297846E+02 -0.60551300891E+01 -0.22619901031E+03  0.23366756786E+03  0.00000000000E+00 0. -1.
        -14    1    3    3    0    0  0.14363615105E+03 -0.38803484287E+02 -0.23785762656E+03  0.28055891501E+03  0.00000000000E+00 0.  1.
          5    1    4    4  501    0 -0.19356951870E+03 -0.89882058607E+00  0.13738755140E+03  0.23740846263E+03  0.41800000000E+01 0. -1.
         -5    1    4    4    0  501  0.15799926626E+02 -0.12111813297E+02  0.52379140767E+00  0.20348967054E+02  0.41800000000E+01 0. -1.
</event>
<event>
11    1  0.8974665E-009  0.1560499E+03  0.7561462E-02  0.1090852E+00
         22   -1    0    0    0    0  0.00000000000E+00  0.00000000000E+00  0.29013640574E+03  0.29013640574E+03  0.00000000000E+00 0. -1.
         22   -1    0    0    0    0 -0.00000000000E+00 -0.00000000000E+00 -0.86276937282E+03  0.86276937282E+03  0.00000000000E+00 0.  1.
        -24    2    1    2    0    0  0.99030307369E+01 -0.90788489834E+02 -0.59268939042E+03  0.60499984167E+03  0.80021715781E+02 0.  0.
         25    2    1    2    0    0 -0.16216461451E+02  0.10012315054E+03 -0.23232231189E+03  0.28268325718E+03  0.12509415810E+03 0.  0.
         24    2    1    2    0    0  0.63134307136E+01 -0.93346607085E+01  0.25237873523E+03  0.26522267971E+03  0.80753009480E+02 0.  0.
        -13    1    5    5    0    0  0.25064687553E+02 -0.15164035515E+02  0.29829850927E+02  0.41809168152E+02  0.00000000000E+00 0.  1.
         14    1    5    5    0    0 -0.18751256839E+02  0.58293748068E+01  0.22254888430E+03  0.22341351156E+03  0.00000000000E+00 0. -1.
         13    1    3    3    0    0 -0.60369874441E+01  0.96320048210E+01 -0.17332156215E+02  0.20727382211E+02  0.00000000000E+00 0. -1.
        -14    1    3    3    0    0  0.15940018181E+02 -0.10042049465E+03 -0.57535723421E+03  0.58427245946E+03  0.00000000000E+00 0.  1.
          5    1    4    4  501    0  0.40967346997E+02 -0.30974795878E+01 -0.79227735491E+02  0.89344414324E+02  0.41800000000E+01 0.  1.
         -5    1    4    4    0  501 -0.57183808448E+02  0.10322063013E+03 -0.15309457640E+03  0.19333884286E+03  0.41800000000E+01 0.  1.
</event>
<event>
11    1  0.8974665E-009  0.1805387E+03  0.7561462E-02  0.1069208E+00
         22   -1    0    0    0    0  0.00000000000E+00  0.00000000000E+00  0.10109930080E+03  0.10109930080E+03  0.00000000000E+00 0.  1.
         22   -1    0    0    0    0 -0.00000000000E+00 -0.00000000000E+00 -0.90639488486E+03  0.90639488486E+03  0.00000000000E+00 0.  1.
         24    2    1    2    0    0  0.14552419255E+03  0.17355282191E+02 -0.67234737413E+03  0.69285293303E+03  0.80719879053E+02 0.  0.
         25    2    1    2    0    0 -0.76367181395E+02 -0.28240809724E+02 -0.14382190151E+03  0.20727139766E+03  0.12508878129E+03 0.  0.
        -24    2    1    2    0    0 -0.69157011150E+02  0.10885527534E+02  0.10873691580E+02  0.10736985496E+03  0.80677516605E+02 0.  0.
        -11    1    3    3    0    0  0.15086383468E+03  0.38374743991E+01 -0.63703437834E+03  0.65466588578E+03  0.00000000000E+00 0.  1.
         12    1    3    3    0    0 -0.53396421369E+01  0.13517807792E+02 -0.35312995790E+02  0.38187047245E+02  0.00000000000E+00 0. -1.
         11    1    5    5    0    0 -0.52753985600E+02  0.44695814454E+02  0.48674189242E+01  0.69313711438E+02  0.00000000000E+00 0. -1.
        -12    1    5    5    0    0 -0.16403025550E+02 -0.33810286920E+02  0.60062726558E+01  0.38056143526E+02  0.00000000000E+00 0.  1.
          5    1    4    4  501    0 -0.11761113783E+02 -0.12303352489E+02  0.22245088983E+02  0.28319828103E+02  0.41800000000E+01 0.  1.
         -5    1    4    4    0  501 -0.64606067612E+02 -0.15937457235E+02 -0.16606699050E+03  0.17895156956E+03  0.41800000000E+01 0.  1.
</event>
<event>
11    1  0.8974665E-009  0.1295573E+03  0.7561462E-02  0.1119814E+00
         22   -1    0    0    0    0  0.00000000000E+00  0.00000000000E+00  0.70550215705E+03  0.70550215705E+03  0.00000000000E+00 0.  1.
         22   -1    0    0    0    0 -0.00000000000E+00 -0.00000000000E+00 -0.21206349014E+03  0.21206349014E+03  0.00000000000E+00 0.  1.
        -24    2    1    2    0    0  0.25630993082E+02 -0.84734501167E+01 -0.17393782355E+03  0.19395646262E+03  0.81461621422E+02 0.  0.
         25    2    1    2    0    0  0.45683756635E+01  0.27474441652E+02  0.14353074481E+03  0.19244743143E+03  0.12513682175E+03 0.  0.
         24    2    1    2    0    0 -0.30199368745E+02 -0.19000991535E+02  0.52384574565E+03  0.53116175314E+03  0.80283268572E+02 0.  0.
        -11    1    5    5    0    0 -0.27882296624E+02  0.28411172828E+02  0.20891605597E+03  0.21267471794E+03  0.00000000000E+00 0.  1.
         12    1    5    5    0    0 -0.23170721209E+01 -0.47412164363E+02  0.31492968968E+03  0.31848703521E+03  0.00000000000E+00 0. -1.
         11    1    3    3    0    0  0.18711907628E+02  0.22422167045E+02 -0.16864259306E+02  0.33723764677E+02  0.00000000000E+00 0. -1.
        -12    1    3    3    0    0  0.69190854542E+01 -0.30895617162E+02 -0.15707356425E+03  0.16023269794E+03  0.00000000000E+00 0.  1.
          5    1    4    4  501    0 -0.15749751991E+02 -0.42127643063E+02  0.20554357501E+02  0.49626071879E+02  0.41800000000E+01 0.  1.
         -5    1    4    4    0  501  0.20318127654E+02  0.69602084715E+02  0.12297638731E+03  0.14282135955E+03  0.41800000000E+01 0.  1.
</event>
<event>
11    1  0.8974665E-009  0.2895854E+03  0.7561462E-02  0.1004698E+00
         22   -1    0    0    0    0  0.00000000000E+00  0.00000000000E+00  0.54388758541E+03  0.54388758541E+03  0.00000000000E+00 0. -1.
         22   -1    0    0    0    0 -0.00000000000E+00 -0.00000000000E+00 -0.65756375346E+03  0.65756375346E+03  0.00000000000E+00 0.  1.
         24    2    1    2    0    0  0.20694461471E+03 -0.96982492120E+02 -0.17570460639E+03  0.29925867482E+03  0.80324145910E+02 0.  0.
         25    2    1    2    0    0 -0.17344472252E+03  0.27731180355E+03 -0.31801593985E+03  0.47303901106E+03  0.12508740875E+03 0.  0.
        -24    2    1    2    0    0 -0.33499892183E+02 -0.18032931143E+03  0.38004437819E+03  0.42915365299E+03  0.78091133589E+02 0.  0.
        -11    1    3    3    0    0  0.84157070324E+02 -0.68979315430E+02 -0.11866698085E+03  0.16100438126E+03  0.00000000000E+00 0.  1.
         12    1    3    3    0    0  0.12278754438E+03 -0.28003176690E+02 -0.57037625547E+02  0.13825429356E+03  0.00000000000E+00 0. -1.
         11    1    5    5    0    0 -0.16239928201E+02 -0.17016040127E+03  0.28759045083E+03  0.33455427786E+03  0.00000000000E+00 0. -1.
        -12    1    5    5    0    0 -0.17259963982E+02 -0.10168910163E+02  0.92453927361E+02  0.94599375130E+02  0.00000000000E+00 0.  1.
          5    1    4    4  501    0 -0.20545119318E+02  0.10666339077E+02 -0.82499849814E+02  0.85787938175E+02  0.41800000000E+01 0.  1.
         -5    1    4    4    0  501 -0.15289960320E+03  0.26664546447E+03 -0.23551609003E+03  0.38725107288E+03  0.41800000000E+01 0.  1.
</event>
<event>
11    1  0.8974665E-009  0.1741865E+03  0.7561462E-02  0.1074445E+00
         22   -1    0    0    0    0  0.00000000000E+00  0.00000000000E+00  0.17341386038E+03  0.17341386038E+03  0.00000000000E+00 0. -1.
         22   -1    0    0    0    0 -0.00000000000E+00 -0.00000000000E+00 -0.98103952640E+03  0.98103952640E+03  0.00000000000E+00 0. -1.
         24    2    1    2    0    0 -0.59480189652E+02 -0.68454339369E+02 -0.75090562916E+03  0.76061680678E+03  0.80341603917E+02 0.  0.
         25    2    1    2    0    0  0.16883937908E+03  0.56995140646E+02 -0.11477348683E+03  0.24612188967E+03  0.12509136386E+03 0.  0.
        -24    2    1    2    0    0 -0.10935918943E+03  0.11459198722E+02  0.58053449962E+02  0.14771469033E+03  0.79741338951E+02 0.  0.
        -13    1    3    3    0    0 -0.72666744140E+01 -0.32670762185E+02 -0.79825800606E+02  0.86558313876E+02  0.00000000000E+00 0.  1.
         14    1    3    3    0    0 -0.52213515238E+02 -0.35783577184E+02 -0.67107982855E+03  0.67405849291E+03  0.00000000000E+00 0. -1.
         11    1    5    5    0    0 -0.47611694842E+02  0.31827681622E+02  0.59626791029E+02  0.82675443824E+02  0.00000000000E+00 0. -1.
        -12    1    5    5    0    0 -0.61747494587E+02 -0.20368482899E+02 -0.15733410668E+01  0.65039246502E+02  0.00000000000E+00 0.  1.
          5    1    4    4  501    0 -0.57803907972E+01 -0.21267106029E+02 -0.28249003952E+02  0.36071891285E+02  0.41800000000E+01 0.  1.
         -5    1    4    4    0  501  0.17461976988E+03  0.78262246675E+02 -0.86524482873E+02  0.21004999839E+03  0.41800000000E+01 0.  1.
</event>
<event>
11    1  0.8974665E-009  0.1701802E+03  0.7561462E-02  0.1077875E+00
         22   -1    0    0    0    0  0.00000000000E+00  0.00000000000E+00  0.33704421869E+03  0.33704421869E+03  0.00000000000E+00 0. -1.
         22   -1    0    0    0    0 -0.00000000000E+00 -0.00000000000E+00 -0.73585135243E+03  0.73585135243E+03  0.00000000000E+00 0. -1.
         24    2    1    2    0    0 -0.91797099111E+02 -0.66712637643E+02 -0.55575001341E+03  0.57291499491E+03  0.80599197067E+02 0.  0.
         25    2    1    2    0    0  0.10442362466E+03  0.70743057968E+02 -0.11650468544E+03  0.21243526450E+03  0.12508607531E+03 0.  0.
        -24    2    1    2    0    0 -0.12626525546E+02 -0.40304203253E+01  0.27344756511E+03  0.28754531171E+03  0.87937830231E+02 0.  0.
        -11    1    3    3    0    0 -0.50064743483E+01  0.12001238540E+02 -0.16119438404E+02  0.20710644760E+02  0.00000000000E+00 0.  1.
         12    1    3    3    0    0 -0.86790624763E+02 -0.78713876183E+02 -0.53963057500E+03  0.55220435015E+03  0.00000000000E+00 0. -1.
         11    1    5    5    0    0 -0.98126385364E+01  0.61084511639E+01  0.27638049800E+03  0.27662209009E+03  0.00000000000E+00 0. -1.
        -12    1    5    5    0    0 -0.28138870094E+01 -0.10138871489E+02 -0.29329328910E+01  0.10923221618E+02  0.00000000000E+00 0.  1.
          5    1    4    4  501    0  0.62178100298E+02  0.10440452126E+03 -0.94352407626E+02  0.15390344194E+03  0.41800000000E+01 0. -1.
         -5    1    4    4    0  501  0.42245524359E+02 -0.33661463294E+02 -0.22152277813E+02  0.58531822556E+02  0.41800000000E+01 0. -1.
</event>
<event>
11    1  0.8974665E-009  0.1411969E+03  0.7561462E-02  0.1106229E+00
         22   -1    0    0    0    0  0.00000000000E+00  0.00000000000E+00  0.79150318238E+03  0.79150318238E+03  0.00000000000E+00 0.  1.
         22   -1    0    0    0    0 -0.00000000000E+00 -0.00000000000E+00 -0.43384969321E+03  0.43384969321E+03  0.00000000000E+00 0. -1.
         24    2    1    2    0    0  0.63681819908E+02  0.22799742015E+02 -0.37461365871E+03  0.38955296051E+03  0.82709813964E+02 0.  0.
         25    2    1    2    0    0 -0.44971170757E+02  0.94807303522E+01  0.41524936261E+02  0.13958382886E+03  0.12508810695E+03 0.  0.
        -24    2    1    2    0    0 -0.18710649150E+02 -0.32280472367E+02  0.69074221162E+03  0.69621608622E+03  0.78739561286E+02 0.  0.
        -13    1    3    3    0    0  0.23245838557E+02  0.11007448362E+02 -0.20358219205E+02  0.32802286793E+02  0.00000000000E+00 0.  1.
         14    1    3    3    0    0  0.40435981351E+02  0.11792293653E+02 -0.35425543950E+03  0.35675067371E+03  0.00000000000E+00 0. -1.
         11    1    5    5    0    0 -0.30152093868E+02 -0.13315380708E+02  0.10492856060E+03  0.10998386680E+03  0.00000000000E+00 0. -1.
        -12    1    5    5    0    0  0.11441444717E+02 -0.18965091659E+02  0.58581365102E+03  0.58623221942E+03  0.00000000000E+00 0.  1.
          5    1    4    4  501    0  0.38212886218E+01 -0.53322426626E+02  0.17128787223E+02  0.56291661725E+02  0.41800000000E+01 0. -1.
         -5    1    4    4    0  501 -0.48792459379E+02  0.62803156978E+02  0.24396149038E+02  0.83292167138E+02  0.41800000000E+01 0. -1.
</event>
<event>
11    1  0.8974665E-009  0.1365670E+03  0.7561462E-02  0.1111454E+00
         22   -1    0    0    0    0  0.00000000000E+00  0.00000000000E+00  0.58265827249E+03  0.58265827249E+03  0.00000000000E+00 0. -1.
         22   -1    0    0    0    0 -0.00000000000E+00 -0.00000000000E+00 -0.34207451868E+03  0.34207451868E+03  0.00000000000E+00 0.  1.
        -24    2    1    2    0    0 -0.16060371898E+02 -0.51666949086E+02 -0.29901726088E+03  0.31429323368E+03  0.80258988671E+02 0.  0.
         25    2    1    2    0    0  0.10876939374E+02  0.70086987202E+02  0.13421599501E+03  0.19669827804E+03  0.12508311510E+03 0.  0.
         24    2    1    2    0    0  0.51834325241E+01 -0.18420038115E+02  0.40538501968E+03  0.41374127944E+03  0.80490163082E+02 0.  0.
        -13    1    5    5    0    0  0.34569432774E+01 -0.13820163216E+02  0.80247911332E+01  0.16350677077E+02  0.00000000000E+00 0.  1.
         14    1    5    5    0    0  0.17264892467E+01 -0.45998748997E+01  0.39736022855E+03  0.39739060236E+03  0.00000000000E+00 0. -1.
         11    1    3    3    0    0 -0.31789165954E+02 -0.50073630170E+02 -0.11313384094E+03  0.12773873914E+03  0.00000000000E+00 0. -1.
        -12    1    3    3    0    0  0.15728794056E+02 -0.15933189164E+01 -0.18588341993E+03  0.18655449454E+03  0.00000000000E+00 0.  1.
          5    1    4    4  501    0 -0.14082785261E+02  0.61998316420E+02  0.15194131837E+03  0.16475968168E+03  0.41800000000E+01 0.  1.
         -5    1    4    4    0  501  0.24959724635E+02  0.80886707818E+01 -0.17725323365E+02  0.31938596357E+02  0.41800000000E+01 0.  1.
</event>
<event>
11    1  0.8974665E-009  0.2326444E+03  0.7561462E-02  0.1033574E+00
         22   -1    0    0    0    0  0.00000000000E+00  0.00000000000E+00  0.65751285668E+03  0.65751285668E+03  0.00000000000E+00 0. -1.
         22   -1    0    0    0    0 -0.00000000000E+00 -0.00000000000E+00 -0.43728938207E+03  0.43728938207E+03  0.00000000000E+00 0. -1.
        -24    2    1    2    0    0  0.30211218273E+02 -0.86162158089E+02 -0.26927336539E+03  0.29549913067E+03  0.80467109566E+02 0.  0.
         25    2    1    2    0    0 -0.47936377297E+02  0.26930971675E+03  0.35459932866E+02  0.30286450718E+03  0.12507550946E+03 0.  0.
         24    2    1    2    0    0  0.17725159025E+02 -0.18314755866E+03  0.45403690713E+03  0.49643860090E+03  0.80278028886E+02 0.  0.
        -11    1    5    5    0    0  0.34070929476E+00 -0.71409787417E+01 -0.19020813026E+01  0.73978086955E+01  0.00000000000E+00 0.  1.
         12    1    5    5    0    0  0.17384449730E+02 -0.17600657992E+03  0.45593898844E+03  0.48904079221E+03  0.00000000000E+00 0. -1.
         13    1    3    3    0    0  0.39269838075E+02 -0.94545367476E+02 -0.26171516525E+03  0.28102628777E+03  0.00000000000E+00 0. -1.
        -14    1    3    3    0    0 -0.90586198028E+01  0.83832093875E+01 -0.75582001416E+01  0.14472842905E+02  0.00000000000E+00 0.  1.
          5    1    4    4  501    0 -0.15522628476E+02  0.38725048669E+02  0.54996944573E+02  0.69157195588E+02  0.41800000000E+01 0.  1.
         -5    1    4    4    0  501 -0.32413748821E+02  0.23058466808E+03 -0.19537011706E+02  0.23370731159E+03  0.41800000000E+01 0.  1.
</event>
<event>
11    1  0.8974665E-009  0.1341160E+03  0.7561462E-02  0.1114313E+00
         22   -1    0    0    0    0  0.00000000000E+00  0.00000000000E+00  0.30538566552E+03  0.30538566552E+03  0.00000000000E+00 0. -1.
         22   -1    0    0    0    0 -0.00000000000E+00 -0.00000000000E+00 -0.12064787866E+04  0.12064787866E+04  0.00000000000E+00 0.  1.
        -24    2    1    2    0    0  0.38816339607E+02 -0.32945120274E+02 -0.10362555695E+04  0.10406279193E+04  0.80552913774E+02 0.  0.
         25    2    1    2    0    0 -0.54880731309E+01  0.23112613496E+02 -0.13601321068E+03  0.18630606468E+03  0.12508414930E+03 0.  0.
         24    2    1    2    0    0 -0.33328266476E+02  0.98325067774E+01  0.27117565915E+03  0.28493046809E+03  0.80260089666E+02 0.  0.
        -13    1    5    5    0    0  0.24117728488E+01  0.27412132438E+02  0.30904006689E+02  0.41379938164E+02  0.00000000000E+00 0.  1.
         14    1    5    5    0    0 -0.35740039325E+02 -0.17579625660E+02  0.24027165247E+03  0.24355052993E+03  0.00000000000E+00 0. -1.
         11    1    3    3    0    0  0.36151019264E+01  0.25660020326E+02 -0.35760829899E+03  0.35854595398E+03  0.00000000000E+00 0. -1.
        -12    1    3    3    0    0  0.35201237681E+02 -0.58605140600E+02 -0.67864727054E+03  0.68208196535E+03  0.00000000000E+00 0.  1.
          5    1    4    4  501    0 -0.47850719747E+01  0.22183742187E+02 -0.16013905547E+03  0.16179309261E+03  0.41800000000E+01 0.  1.
         -5    1    4    4    0  501 -0.70300115619E+00  0.92887130963E+00  0.24125844788E+02  0.24512972061E+02  0.41800000000E+01 0.  1.
</event>
<event>
11    1  0.8974665E-009  0.1585548E+03  0.7561462E-02  0.1088444E+00
         22   -1    0    0    0    0  0.00000000000E+00  0.00000000000E+00  0.49764869285E+03  0.49764869285E+03  0.00000000000E+00 0.  1.
         22   -1    0    0    0    0 -0.00000000000E+00 -0.00000000000E+00 -0.17937311077E+03  0.17937311077E+03  0.00000000000E+00 0. -1.
         24    2    1    2    0    0  0.95309375083E+02  0.59932380666E+01 -0.11271383022E+03  0.16839294458E+03  0.80820668034E+02 0.  0.
         25    2    1    2    0    0 -0.12056852766E+03 -0.28511052920E+02  0.33614623167E+03  0.37946109424E+03  0.12508710155E+03 0.  0.
        -24    2    1    2    0    0  0.25259152578E+02  0.22517814854E+02  0.94843180633E+02  0.12916776480E+03  0.80895029366E+02 0.  0.
        -11    1    3    3    0    0  0.15735287139E+01 -0.11227373442E+02  0.85211954081E+01  0.14182407349E+02  0.00000000000E+00 0.  1.
         12    1    3    3    0    0  0.93735846369E+02  0.17220611509E+02 -0.12123502563E+03  0.15421053723E+03  0.00000000000E+00 0. -1.
         13    1    5    5    0    0  0.11905047177E+02  0.34351344955E+02  0.39842989187E+01  0.36573483378E+02  0.00000000000E+00 0. -1.
        -14    1    5    5    0    0  0.13354105402E+02 -0.11833530102E+02  0.90858881714E+02  0.92594281422E+02  0.00000000000E+00 0.  1.
          5    1    4    4  501    0 -0.12334318478E+03 -0.34288306359E+02  0.34485137094E+03  0.36787113181E+03  0.41800000000E+01 0. -1.
         -5    1    4    4    0  501  0.27746571141E+01  0.57772534391E+01 -0.87051392663E+01  0.11589962426E+02  0.41800000000E+01 0. -1.
</event>
<event>
11    1  0.8974665E-009  0.1516911E+03  0.7561462E-02  0.1095163E+00
         22   -1    0    0    0    0  0.00000000000E+00  0.00000000000E+00  0.40175355560E+03  0.40175355560E+03  0.00000000000E+00 0. -1.
         22   -1    0    0    0    0 -0.00000000000E+00 -0.00000000000E+00 -0.12676074429E+04  0.12676074429E+04  0.00000000000E+00 0.  1.
         24    2    1    2    0    0 -0.65730656698E+02 -0.53283260889E+01 -0.10505421115E+04  0.10557110782E+04  0.80859398939E+02 0.  0.
         25    2    1    2    0    0  0.94050638764E+02 -0.74848895144E+02 -0.16858593500E+03  0.24190344648E+03  0.12509268636E+03 0.  0.
        -24    2    1    2    0    0 -0.28319982066E+02  0.80177221233E+02  0.35327415917E+03  0.37174647381E+03  0.78500962201E+02 0.  0.
        -11    1    3    3    0    0 -0.57992811492E+02  0.72388393065E+00 -0.10387297888E+04  0.10403476652E+04  0.00000000000E+00 0.  1.
         12    1    3    3    0    0 -0.77378452055E+01 -0.60522100196E+01 -0.11812322640E+02  0.15363413055E+02  0.00000000000E+00 0. -1.
         11    1    5    5    0    0 -0.33857669292E+02  0.59502261639E+02  0.33940821261E+03  0.34624383850E+03  0.00000000000E+00 0. -1.
        -12    1    5    5    0    0  0.55376872251E+01  0.20674959594E+02  0.13865946557E+02  0.25502635314E+02  0.00000000000E+00 0.  1.
          5    1    4    4  501    0  0.59155645953E+02 -0.74837129979E+02 -0.31748863541E+02  0.10062529109E+03  0.41800000000E+01 0.  1.
         -5    1    4    4    0  501  0.34894992811E+02 -0.11765165131E-01 -0.13683707146E+03  0.14127815538E+03  0.41800000000E+01 0.  1.
</event>
<event>
11    1  0.8974665E-009  0.1531345E+03  0.7561462E-02  0.1093718E+00
         22   -1    0    0    0    0  0.00000000000E+00  0.00000000000E+00  0.19907464564E+03  0.19907464564E+03  0.00000000000E+00 0.  1.
         22   -1    0    0    0    0 -0.00000000000E+00 -0.00000000000E+00 -0.39379465544E+03  0.39379465544E+03  0.00000000000E+00 0. -1.
        -24    2    1    2    0    0 -0.66514632001E+02  0.78890251264E+02 -0.15481878561E+03  0.20372068174E+03  0.82978260862E+02 0.  0.
         25    2    1    2    0    0 -0.14820331076E+02 -0.87946076682E+02 -0.16072149445E+03  0.22233310561E+03  0.12508579636E+03 0.  0.
         24    2    1    2    0    0  0.81334963077E+02  0.90558254173E+01  0.12082027027E+03  0.16681551373E+03  0.80823843769E+02 0.  0.
        -13    1    5    5    0    0  0.42457275150E+02  0.40484876906E+02  0.91992761315E+02  0.10910689073E+03  0.00000000000E+00 0.  1.
         14    1    5    5    0    0  0.38877687927E+02 -0.31429051488E+02  0.28827508951E+02  0.57708622997E+02  0.00000000000E+00 0. -1.
         11    1    3    3    0    0 -0.62726428197E+02  0.75078864992E+02 -0.73859641381E+02  0.12258338953E+03  0.00000000000E+00 0. -1.
        -12    1    3    3    0    0 -0.37882038031E+01  0.38113862725E+01 -0.80959144226E+02  0.81137292210E+02  0.00000000000E+00 0.  1.
          5    1    4    4  501    0 -0.68046432491E+02 -0.31762479370E+02 -0.67094633218E+02  0.10078856223E+03  0.41800000000E+01 0.  1.
         -5    1    4    4    0  501  0.53226101414E+02 -0.56183597311E+02 -0.93626861237E+02  0.12154454337E+03  0.41800000000E+01 0.  1.
</event>
<event>
11    1  0.8974665E-009  0.1312556E+03  0.7561462E-02  0.1117736E+00
         22   -1    0    0    0    0  0.00000000000E+00  0.00000000000E+00  0.17672242734E+03  0.17672242734E+03  0.00000000000E+00 0. -1.
         22   -1    0    0    0    0 -0.00000000000E+00 -0.00000000000E+00 -0.32351706945E+03  0.32351706945E+03  0.00000000000E+00 0.  1.
        -24    2    1    2    0    0 -0.21226005335E+02  0.38779907589E+02 -0.20078934011E+03  0.22128016483E+03  0.81817649150E+02 0.  0.
         25    2    1    2    0    0 -0.52355730845E+01 -0.26961267166E+02 -0.58987367710E+02  0.14100234052E+03  0.12509128399E+03 0.  0.
         24    2    1    2    0    0  0.26461578420E+02 -0.11818640423E+02  0.11298206571E+03  0.13795699144E+03  0.73670135881E+02 0.  0.
        -13    1    5    5    0    0  0.35715995650E+02 -0.95260930174E+01  0.15620174353E+02  0.40129398703E+02  0.00000000000E+00 0.  1.
         14    1    5    5    0    0 -0.92544172300E+01 -0.22925474057E+01  0.97361891355E+02  0.97827592734E+02  0.00000000000E+00 0. -1.
         11    1    3    3    0    0 -0.42986289791E+02  0.69837370274E+01 -0.53238427939E+02  0.68781711976E+02  0.00000000000E+00 0. -1.
        -12    1    3    3    0    0  0.21760284456E+02  0.31796170562E+02 -0.14755091217E+03  0.15249845286E+03  0.00000000000E+00 0.  1.
          5    1    4    4  501    0  0.53846850456E+02 -0.32094881918E+02 -0.51192412611E+02  0.81041349065E+02  0.41800000000E+01 0.  1.
         -5    1    4    4    0  501 -0.59082423540E+02  0.51336147519E+01 -0.77949550997E+01  0.59960991460E+02  0.41800000000E+01 0.  1.
</event>
<event>
11    1  0.8974665E-009  0.1476849E+03  0.7561462E-02  0.1099268E+00
         22   -1    0    0    0    0  0.00000000000E+00  0.00000000000E+00  0.39262036450E+03  0.39262036450E+03  0.00000000000E+00 0. -1.
         22   -1    0    0    0    0 -0.00000000000E+00 -0.00000000000E+00 -0.64575354591E+03  0.64575354591E+03  0.00000000000E+00 0. -1.
        -24    2    1    2    0    0 -0.79859097800E+02 -0.16283769174E+02 -0.50055542181E+03  0.51514912820E+03  0.90444775115E+02 0.  0.
         25    2    1    2    0    0  0.44240425922E+02  0.70289422344E+02 -0.86758533965E+02  0.17341445512E+03  0.12509081441E+03 0.  0.
         24    2    1    2    0    0  0.35618671877E+02 -0.54005653170E+02  0.33418077436E+03  0.34981032708E+03  0.80654662721E+02 0.  0.
        -13    1    5    5    0    0  0.44141777796E+02 -0.46852919869E+01  0.87643931905E+02  0.98244120984E+02  0.00000000000E+00 0.  1.
         14    1    5    5    0    0 -0.85231059188E+01 -0.49320361183E+02  0.24653684246E+03  0.25156620610E+03  0.00000000000E+00 0. -1.
         11    1    3    3    0    0 -0.74903766636E+02  0.25123229762E+02 -0.35831422109E+03  0.36692074344E+03  0.00000000000E+00 0. -1.
        -12    1    3    3    0    0 -0.49553311638E+01 -0.41406998936E+02 -0.14224120072E+03  0.14822838476E+03  0.00000000000E+00 0.  1.
          5    1    4    4  501    0  0.19196287815E+02  0.83236913202E+02 -0.10807704481E+03  0.13782235378E+03  0.41800000000E+01 0. -1.
         -5    1    4    4    0  501  0.25044138107E+02 -0.12947490859E+02  0.21318510849E+02  0.35592101342E+02  0.41800000000E+01 0. -1.
</event>
<event>
11    1  0.8974665E-009  0.1815454E+03  0.7561462E-02  0.1068400E+00
         22   -1    0    0    0    0  0.00000000000E+00  0.00000000000E+00  0.18460465300E+04  0.18460465300E+04  0.00000000000E+00 0. -1.
         22   -1    0    0    0    0 -0.00000000000E+00 -0.00000000000E+00 -0.24661608151E+03  0.24661608151E+03  0.00000000000E+00 0.  1.
         24    2    1    2    0    0  0.61775924617E+02  0.46468403246E+02 -0.21664646203E+03  0.24359697814E+03  0.80176186533E+02 0.  0.
         25    2    1    2    0    0 -0.27847692933E+02 -0.15380649348E+03  0.12606116431E+04  0.12764103491E+04  0.12509889299E+03 0.  0.
        -24    2    1    2    0    0 -0.33928231684E+02  0.10733809023E+03  0.55546526747E+03  0.57265528436E+03  0.81974513234E+02 0.  0.
        -13    1    3    3    0    0  0.44606081342E+02  0.34893868280E+02 -0.21554507695E+03  0.22286086407E+03  0.00000000000E+00 0.  1.
         14    1    3    3    0    0  0.17169843276E+02  0.11574534966E+02 -0.11013850819E+01  0.20736114074E+02  0.00000000000E+00 0. -1.
         13    1    5    5    0    0  0.48155200715E+01  0.76217472704E+02  0.44528529988E+03  0.45178677566E+03  0.00000000000E+00 0. -1.
        -14    1    5    5    0    0 -0.38743751756E+02  0.31120617526E+02  0.11017996759E+03  0.12086850869E+03  0.00000000000E+00 0.  1.
          5    1    4    4  501    0 -0.17625449020E+02  0.11222016142E+02  0.36719115069E+03  0.36780892273E+03  0.41800000000E+01 0.  1.
         -5    1    4    4    0  501 -0.10222243913E+02 -0.16502850962E+03  0.89342049241E+03  0.90860142633E+03  0.41800000000E+01 0.  1.
</event>
<event>
11    1  0.8974665E-009  0.1432001E+03  0.7561462E-02  0.1104037E+00
         22   -1    0    0    0    0  0.00000000000E+00  0.00000000000E+00  0.62850985026E+03  0.62850985026E+03  0.00000000000E+00 0.  1.
         22   -1    0    0    0    0 -0.00000000000E+00 -0.00000000000E+00 -0.24060517159E+04  0.24060517159E+04  0.00000000000E+00 0. -1.
        -24    2    1    2    0    0  0.83819343482E+01 -0.33892472041E+02 -0.13736601506E+04  0.13764545650E+04  0.80411464931E+02 0.  0.
         25    2    1    2    0    0 -0.49954616432E+02  0.89665922100E+02 -0.10203440822E+04  0.10330954514E+04  0.12509486168E+03 0.  0.
         24    2    1    2    0    0  0.41572682084E+02 -0.55773450059E+02  0.61646236716E+03  0.62501154972E+03  0.75990930548E+02 0.  0.
        -13    1    5    5    0    0 -0.14165521585E+02  0.93505594449E+01  0.84617221705E+02  0.86302776159E+02  0.00000000000E+00 0.  1.
         14    1    5    5    0    0  0.55738203669E+02 -0.65124009504E+02  0.53184514546E+03  0.53870877356E+03  0.00000000000E+00 0. -1.
         11    1    3    3    0    0  0.12068919712E+02  0.14268543934E+02 -0.92734947922E+03  0.92753776569E+03  0.00000000000E+00 0. -1.
        -12    1    3    3    0    0 -0.36869853634E+01 -0.48161015975E+02 -0.44631067137E+03  0.44891679930E+03  0.00000000000E+00 0.  1.
          5    1    4    4  501    0  0.32782105118E+02  0.52332938951E+02 -0.59156373302E+03  0.59479284254E+03  0.41800000000E+01 0.  1.
         -5    1    4    4    0  501 -0.82736721551E+02  0.37332983149E+02 -0.42878034915E+03  0.43830260887E+03  0.41800000000E+01 0.  1.
</event>
<event>
11    1  0.8974665E-009  0.1315292E+03  0.7561462E-02  0.1117404E+00
         22   -1    0    0    0    0  0.00000000000E+00  0.00000000000E+00  0.60604087292E+02  0.60604087292E+02  0.00000000000E+00 0.  1.
         22   -1    0    0    0    0 -0.00000000000E+00 -0.00000000000E+00 -0.46483275050E+04  0.46483275050E+04  0.00000000000E+00 0.  1.
        -24    2    1    2    0    0 -0.33306277923E+02  0.10498092066E+02 -0.23848590661E+04  0.23865846881E+04  0.83750763473E+02 0.  0.
         25    2    1    2    0    0  0.58538383461E+02  0.14225107643E+02 -0.22270562325E+04  0.22313798507E+04  0.12508988398E+03 0.  0.
         24    2    1    2    0    0 -0.25232105538E+02 -0.24723199709E+02  0.24191880926E+02  0.90967053493E+02  0.80261210835E+02 0.  0.
        -11    1    5    5    0    0  0.30023841645E+01 -0.33646094454E+02  0.43903792902E+02  0.55395099186E+02  0.00000000000E+00 0.  1.
         12    1    5    5    0    0 -0.28234489703E+02  0.89228947444E+01 -0.19711911977E+02  0.35571954306E+02  0.00000000000E+00 0. -1.
         11    1    3    3    0    0 -0.14560698589E+02 -0.32076578086E+02 -0.54479883106E+03  0.54593652299E+03  0.00000000000E+00 0. -1.
        -12    1    3    3    0    0 -0.18745579334E+02  0.42574670152E+02 -0.18400602351E+04  0.18406481652E+04  0.00000000000E+00 0.  1.
          5    1    4    4  501    0  0.98086575113E+02  0.73848122182E+01 -0.15567412173E+04  0.15598513396E+04  0.41800000000E+01 0.  1.
         -5    1    4    4    0  501 -0.39548191652E+02  0.68402954250E+01 -0.67031501526E+03  0.67152851107E+03  0.41800000000E+01 0.  1.
</event>
<event>
11    1  0.8974665E-009  0.1977179E+03  0.7561462E-02  0.1056149E+00
         22   -1    0    0    0    0  0.00000000000E+00  0.00000000000E+00  0.31139388130E+03  0.31139388130E+03  0.00000000000E+00 0. -1.
         22   -1    0    0    0    0 -0.00000000000E+00 -0.00000000000E+00 -0.32684309037E+04  0.32684309037E+04  0.00000000000E+00 0.  1.
         24    2    1    2    0    0 -0.13123846749E+03 -0.78314669944E+02 -0.31262703111E+04  0.31310768443E+04  0.81972093280E+02 0.  0.
         25    2    1    2    0    0  0.97726772609E+02  0.15604283583E+03 -0.20187404930E+02  0.22352011727E+03  0.12511523811E+03 0.  0.
        -24    2    1    2    0    0  0.33511694882E+02 -0.77728165884E+02  0.18942069362E+03  0.22522782343E+03  0.87650851729E+02 0.  0.
        -13    1    3    3    0    0 -0.51898391151E+02 -0.13369466973E+02 -0.51212105124E+03  0.51491762135E+03  0.00000000000E+00 0.  1.
         14    1    3    3    0    0 -0.79340076340E+02 -0.64945202971E+02 -0.26141492598E+04  0.26161592229E+04  0.00000000000E+00 0. -1.
         13    1    5    5    0    0 -0.17426719586E+02  0.40701463925E+01  0.67456224497E+02  0.69789675960E+02  0.00000000000E+00 0. -1.
        -14    1    5    5    0    0  0.50938414468E+02 -0.81798312277E+02  0.12196446912E+03  0.15543814747E+03  0.00000000000E+00 0.  1.
          5    1    4    4  501    0  0.33638813484E+02  0.56238960820E+02 -0.68945647933E+02  0.95212211694E+02  0.41800000000E+01 0. -1.
         -5    1    4    4    0  501  0.64087959125E+02  0.99803875008E+02  0.48758243003E+02  0.12830790557E+03  0.41800000000E+01 0. -1.
</event>
<event>
11    1  0.8974665E-009  0.1478662E+03  0.7561462E-02  0.1099079E+00
         22   -1    0    0    0    0  0.00000000000E+00  0.00000000000E+00  0.35573110713E+03  0.35573110713E+03  0.00000000000E+00 0.  1.
         22   -1    0    0    0    0 -0.00000000000E+00 -0.00000000000E+00 -0.45106858453E+03  0.45106858453E+03  0.00000000000E+00 0.  1.
        -24    2    1    2    0    0  0.22820054680E+02  0.36706275529E+02 -0.30459813520E+03  0.31917548685E+03  0.84999187547E+02 0.  0.
         25    2    1    2    0    0 -0.98601185813E+02 -0.19534964141E+02 -0.78464602147E+02  0.17862931181E+03  0.12509168070E+03 0.  0.
         24    2    1    2    0    0  0.75781131133E+02 -0.17171311388E+02  0.28772525994E+03  0.30899489299E+03  0.81574413388E+02 0.  0.
        -11    1    5    5    0    0  0.60521586072E+02 -0.34262655530E+02  0.27309198890E+03  0.28180849233E+03  0.00000000000E+00 0.  1.
         12    1    5    5    0    0  0.15259545061E+02  0.17091344142E+02  0.14633271034E+02  0.27186400666E+02  0.00000000000E+00 0. -1.
         11    1    3    3    0    0 -0.13720021233E+02  0.13874646191E+02 -0.10933995675E+02  0.22367321051E+02  0.00000000000E+00 0. -1.
        -12    1    3    3    0    0  0.36540075913E+02  0.22831629338E+02 -0.29366413952E+03  0.29680816580E+03  0.00000000000E+00 0.  1.
          5    1    4    4  501    0  0.15110008516E+02  0.14222370583E+02 -0.53233175060E+02  0.57287271791E+02  0.41800000000E+01 0. -1.
         -5    1    4    4    0  501 -0.11371119433E+03 -0.33757334724E+02 -0.25231427088E+02  0.12134204002E+03  0.41800000000E+01 0. -1.
</event>
<event>
11    1  0.8974665E-009  0.2605953E+03  0.7561462E-02  0.1018402E+00
         22   -1    0    0    0    0  0.00000000000E+00  0.00000000000E+00  0.69449112768E+03  0.69449112768E+03  0.00000000000E+00 0. -1.
         22   -1    0    0    0    0 -0.00000000000E+00 -0.00000000000E+00 -0.15012196613E+04  0.15012196613E+04  0.00000000000E+00 0.  1.
        -24    2    1    2    0    0 -0.19580076951E+03 -0.12629109239E+03 -0.14437759695E+04  0.14648278763E+04  0.83332321803E+02 0.  0.
         25    2    1    2    0    0  0.13637609876E+03  0.15702413437E+02  0.21827377049E+03  0.28659265387E+03  0.12508758640E+03 0.  0.
         24    2    1    2    0    0  0.59424670745E+02  0.11058867895E+03  0.41877366536E+03  0.44429025879E+03  0.79128401034E+02 0.  0.
        -13    1    5    5    0    0  0.66138512713E+02  0.59473886395E+02  0.19013353934E+03  0.20991000169E+03  0.00000000000E+00 0.  1.
         14    1    5    5    0    0 -0.67138419688E+01  0.51114792559E+02  0.22864012602E+03  0.23438025710E+03  0.00000000000E+00 0. -1.
         11    1    3    3    0    0 -0.65700055202E+02 -0.96811276484E+00 -0.44915589222E+03  0.45393661454E+03  0.00000000000E+00 0. -1.
        -12    1    3    3    0    0 -0.13010071431E+03 -0.12532297963E+03 -0.99462007728E+03  0.10108912618E+04  0.00000000000E+00 0.  1.
          5    1    4    4  501    0  0.63149704469E+02  0.27922029009E+02  0.15881019988E+02  0.70973263095E+02  0.41800000000E+01 0. -1.
         -5    1    4    4    0  501  0.73226394294E+02 -0.12219615572E+02  0.20239275050E+03  0.21561939078E+03  0.41800000000E+01 0. -1.
</event>
<event>
11    1  0.8974665E-009  0.1451593E+03  0.7561462E-02  0.1101930E+00
         22   -1    0    0    0    0  0.00000000000E+00  0.00000000000E+00  0.23569161589E+04  0.23569161589E+04  0.00000000000E+00 0.  1.
         22   -1    0    0    0    0 -0.00000000000E+00 -0.00000000000E+00 -0.56450448298E+02  0.56450448298E+02  0.00000000000E+00 0. -1.
        -24    2    1    2    0    0  0.60426146153E+02 -0.49407037064E+02  0.23662499818E+02  0.11303053610E+03  0.78253522238E+02 0.  0.
         25    2    1    2    0    0 -0.45132340860E+02  0.18127888015E+02  0.40832435025E+03  0.42981612948E+03  0.12509029395E+03 0.  0.
         24    2    1    2    0    0 -0.15293805294E+02  0.31279149049E+02  0.18684788605E+04  0.18705199416E+04  0.80120622068E+02 0.  0.
        -13    1    5    5    0    0  0.10379459427E+02  0.38803673602E+02  0.16381771044E+04  0.16386694858E+04  0.00000000000E+00 0.  1.
         14    1    5    5    0    0 -0.25673264721E+02 -0.75245245533E+01  0.23030175612E+03  0.23185045582E+03  0.00000000000E+00 0. -1.
         13    1    3    3    0    0  0.74637670141E+02 -0.56867829121E+02  0.15789362029E+02  0.95152697000E+02  0.00000000000E+00 0. -1.
        -14    1    3    3    0    0 -0.14211523988E+02  0.74607920569E+01  0.78731377897E+01  0.17877839099E+02  0.00000000000E+00 0.  1.
          5    1    4    4  501    0 -0.81694792222E+02  0.25837141841E+02  0.35047841096E+03  0.36082431448E+03  0.41800000000E+01 0. -1.
         -5    1    4    4    0  501  0.36562451363E+02 -0.77092538257E+01  0.57845939289E+02  0.68991814996E+02  0.41800000000E+01 0. -1.
</event>
<event>
11    1  0.8974665E-009  0.1321887E+03  0.7561462E-02  0.1116609E+00
         22   -1    0    0    0    0  0.00000000000E+00  0.00000000000E+00  0.80699241950E+03  0.80699241950E+03  0.00000000000E+00 0. -1.
         22   -1    0    0    0    0 -0.00000000000E+00 -0.00000000000E+00 -0.68763946255E+03  0.68763946255E+03  0.00000000000E+00 0.  1.
        -24    2    1    2    0    0  0.17174308579E+00  0.39821181429E+02 -0.49889282372E+03  0.50637988321E+03  0.77076459293E+02 0.  0.
         25    2    1    2    0    0 -0.22892755394E+02 -0.30575501891E+01 -0.16016477360E+03  0.20453309326E+03  0.12509038603E+03 0.  0.
         24    2    1    2    0    0  0.22721012308E+02 -0.36763631240E+02  0.77841055427E+03  0.78371890558E+03  0.80153122128E+02 0.  0.
        -11    1    5    5    0    0  0.12588384649E+02 -0.39837932504E+02  0.16468340580E+03  0.16990041919E+03  0.00000000000E+00 0.  1.
         12    1    5    5    0    0  0.10132627659E+02  0.30743012641E+01  0.61372714846E+03  0.61381848639E+03  0.00000000000E+00 0. -1.
         11    1    3    3    0    0 -0.36999848726E+02  0.18640599040E+02 -0.30651616018E+03  0.30930343870E+03  0.00000000000E+00 0. -1.
        -12    1    3    3    0    0  0.37171591812E+02  0.21180582389E+02 -0.19237666354E+03  0.19707644451E+03  0.00000000000E+00 0.  1.
          5    1    4    4  501    0 -0.33059969915E+02  0.48458760246E+02 -0.13265315188E+03  0.14510528646E+03  0.41800000000E+01 0. -1.
         -5    1    4    4    0  501  0.10167214521E+02 -0.51516310435E+02 -0.27511621716E+02  0.59427806803E+02  0.41800000000E+01 0. -1.
</event>
<event>
11    1  0.8974665E-009  0.2070921E+03  0.7561462E-02  0.1049619E+00
         22   -1    0    0    0    0  0.00000000000E+00  0.00000000000E+00  0.15648092398E+04  0.15648092398E+04  0.00000000000E+00 0. -1.
         22   -1    0    0    0    0 -0.00000000000E+00 -0.00000000000E+00 -0.12233260943E+04  0.12233260943E+04  0.00000000000E+00 0. -1.
         24    2    1    2    0    0  0.14088063193E+03 -0.61449838617E+02 -0.80709345824E+03  0.82535354332E+03  0.78645953555E+02 0.  0.
         25    2    1    2    0    0 -0.18908817954E+03  0.94678971471E+02 -0.36828873362E+03  0.44272515730E+03  0.12510206359E+03 0.  0.
        -24    2    1    2    0    0  0.48207547608E+02 -0.33229132855E+02  0.15168653373E+04  0.15200566334E+04  0.79142746497E+02 0.  0.
        -13    1    3    3    0    0  0.13011284448E+03 -0.72314522485E+02 -0.61933399949E+03  0.63697201303E+03  0.00000000000E+00 0.  1.
         14    1    3    3    0    0  0.10767787452E+02  0.10864683868E+02 -0.18775945876E+03  0.18838153029E+03  0.00000000000E+00 0. -1.
         13    1    5    5    0    0  0.15554488500E+01 -0.49115174421E+02  0.77412028011E+03  0.77567836624E+03  0.00000000000E+00 0. -1.
        -14    1    5    5    0    0  0.46652098758E+02  0.15886041566E+02  0.74274505722E+03  0.74437826719E+03  0.00000000000E+00 0.  1.
          5    1    4    4  501    0 -0.15929946789E+03  0.72862020473E+02 -0.36565760370E+03  0.40547274882E+03  0.41800000000E+01 0. -1.
         -5    1    4    4    0  501 -0.29788711648E+02  0.21816950998E+02 -0.26311299232E+01  0.37252408475E+02  0.41800000000E+01 0. -1.
</event>
<event>
11    1  0.8974665E-009  0.1419601E+03  0.7561462E-02  0.1105389E+00
         22   -1    0    0    0    0  0.00000000000E+00  0.00000000000E+00  0.38064203882E+03  0.38064203882E+03  0.00000000000E+00 0. -1.
         22   -1    0    0    0    0 -0.00000000000E+00 -0.00000000000E+00 -0.70735366759E+03  0.70735366759E+03  0.00000000000E+00 0.  1.
         24    2    1    2    0    0 -0.66982971370E+02 -0.23671887176E+02 -0.61282724097E+03  0.62382861415E+03  0.92508571780E+02 0.  0.
         25    2    1    2    0    0  0.34256140352E+02 -0.20184989866E+00 -0.33951518546E+02  0.13402215551E+03  0.12504282731E+03 0.  0.
        -24    2    1    2    0    0  0.32726831017E+02  0.23873737074E+02  0.32006713075E+03  0.33014493676E+03  0.70083595001E+02 0.  0.
        -11    1    3    3    0    0 -0.46416189191E+02 -0.59334598156E+02 -0.38150665254E+03  0.38887322239E+03  0.00000000000E+00 0.  1.
         12    1    3    3    0    0 -0.20566782179E+02  0.35662710981E+02 -0.23132058843E+03  0.23495539175E+03  0.00000000000E+00 0. -1.
         11    1    5    5    0    0  0.50929604893E+02  0.74929333201E+01  0.26386480938E+03  0.26883936901E+03  0.00000000000E+00 0. -1.
        -12    1    5    5    0    0 -0.18202773875E+02  0.16380803754E+02  0.56202321376E+02  0.61305567744E+02  0.00000000000E+00 0.  1.
          5    1    4    4  501    0 -0.28713344311E+02  0.43188782430E+02 -0.22079465672E+02  0.56521697370E+02  0.41800000000E+01 0. -1.
         -5    1    4    4    0  501  0.62969484663E+02 -0.43390632329E+02 -0.11872052874E+02  0.77500458141E+02  0.41800000000E+01 0. -1.
</event>
<event>
11    1  0.8974665E-009  0.1531399E+03  0.7561462E-02  0.1093713E+00
         22   -1    0    0    0    0  0.00000000000E+00  0.00000000000E+00  0.16910416657E+03  0.16910416657E+03  0.00000000000E+00 0. -1.
         22   -1    0    0    0    0 -0.00000000000E+00 -0.00000000000E+00 -0.68467511605E+03  0.68467511605E+03  0.00000000000E+00 0. -1.
        -24    2    1    2    0    0  0.11989715927E+02 -0.17033007372E+02 -0.54738301773E+03  0.55394349116E+03  0.82409627347E+02 0.  0.
         25    2    1    2    0    0 -0.52417172306E+02 -0.64159827886E+02 -0.44466032730E+02  0.15648902625E+03  0.12509014270E+03 0.  0.
         24    2    1    2    0    0  0.40427456378E+02  0.81192835257E+02  0.76278100971E+02  0.14334676522E+03  0.80642982855E+02 0.  0.
        -11    1    5    5    0    0 -0.16311561663E+02  0.52158115621E+02  0.19609200421E+02  0.58060802700E+02  0.00000000000E+00 0.  1.
         12    1    5    5    0    0  0.56739018041E+02  0.29034719636E+02  0.56668900550E+02  0.85285962515E+02  0.00000000000E+00 0. -1.
         13    1    3    3    0    0  0.63092829147E+01  0.33524313547E+02 -0.22448018923E+03  0.22705735400E+03  0.00000000000E+00 0. -1.
        -14    1    3    3    0    0  0.56804330125E+01 -0.50557320919E+02 -0.32290282850E+03  0.32688613716E+03  0.00000000000E+00 0.  1.
          5    1    4    4  501    0 -0.64480586932E+02 -0.47740182892E+02 -0.81230696563E+02  0.11424871823E+03  0.41800000000E+01 0. -1.
         -5    1    4    4    0  501  0.12063414626E+02 -0.16419644994E+02  0.36764663834E+02  0.42240308012E+02  0.41800000000E+01 0. -1.
</event>
<event>
11    1  0.8974665E-009  0.1479087E+03  0.7561462E-02  0.1099035E+00
         22   -1    0    0    0    0  0.00000000000E+00  0.00000000000E+00  0.10477612440E+04  0.10477612440E+04  0.00000000000E+00 0. -1.
         22   -1    0    0    0    0 -0.00000000000E+00 -0.00000000000E+00 -0.66342493840E+03  0.66342493840E+03  0.00000000000E+00 0.  1.
        -24    2    1    2    0    0  0.51268193145E+02 -0.57746415233E+02 -0.50183686417E+03  0.51422757827E+03  0.81404471110E+02 0.  0.
         25    2    1    2    0    0 -0.81713144005E+02  0.46641364995E+02 -0.11325071776E+03  0.19320037774E+03  0.12509278977E+03 0.  0.
         24    2    1    2    0    0  0.30444950859E+02  0.11105050238E+02  0.99942388748E+03  0.10037582263E+04  0.87362766160E+02 0.  0.
        -11    1    5    5    0    0  0.12050609479E+02  0.49318546420E+02  0.54363113158E+03  0.54599665148E+03  0.00000000000E+00 0.  1.
         12    1    5    5    0    0  0.18394341380E+02 -0.38213496182E+02  0.45579275590E+03  0.45776157486E+03  0.00000000000E+00 0. -1.
         13    1    3    3    0    0  0.27253679968E+02 -0.61406854009E+02 -0.19152725849E+03  0.20296860727E+03  0.00000000000E+00 0. -1.
        -14    1    3    3    0    0  0.24014513177E+02  0.36604387764E+01 -0.31030960567E+03  0.31125897100E+03  0.00000000000E+00 0.  1.
          5    1    4    4  501    0  0.25388196199E+02 -0.13994960428E+02 -0.41118572551E+02  0.50483946282E+02  0.41800000000E+01 0. -1.
         -5    1    4    4    0  501 -0.10710134020E+03  0.60636325423E+02 -0.72132145212E+02  0.14271643145E+03  0.41800000000E+01 0. -1.
</event>
<event>
11    1  0.8974665E-009  0.1570270E+03  0.7561462E-02  0.1089907E+00
         22   -1    0    0    0    0  0.00000000000E+00  0.00000000000E+00  0.93865397178E+02  0.93865397178E+02  0.00000000000E+00 0.  1.
         22   -1    0    0    0    0 -0.00000000000E+00 -0.00000000000E+00 -0.49962391501E+03  0.49962391501E+03  0.00000000000E+00 0. -1.
         24    2    1    2    0    0 -0.19845185529E+02 -0.75892495172E+02 -0.14971921917E+03  0.18199471758E+03  0.67473924042E+02 0.  0.
         25    2    1    2    0    0 -0.29200281308E+02  0.14181849987E+03 -0.21867512522E+03  0.29057282677E+03  0.12509442006E+03 0.  0.
        -24    2    1    2    0    0  0.49045466838E+02 -0.65926004698E+02 -0.37364173440E+02  0.12092176784E+03  0.80463013666E+02 0.  0.
        -13    1    3    3    0    0 -0.28061637221E+02 -0.80603353405E+02 -0.10040073841E+03  0.13177505203E+03  0.00000000000E+00 0.  1.
         14    1    3    3    0    0  0.82164516919E+01  0.47108582333E+01 -0.49318480754E+02  0.50219665546E+02  0.00000000000E+00 0. -1.
         13    1    5    5    0    0  0.38713863127E+02 -0.99979649562E+01 -0.48614772338E+02  0.62945361949E+02  0.00000000000E+00 0. -1.
        -14    1    5    5    0    0  0.10331603711E+02 -0.55928039742E+02  0.11250598898E+02  0.57976405892E+02  0.00000000000E+00 0.  1.
          5    1    4    4  501    0 -0.45365723081E+02  0.13945540233E+03 -0.11738848860E+03  0.18789195759E+03  0.41800000000E+01 0.  1.
         -5    1    4    4    0  501  0.16165441773E+02  0.23630975407E+01 -0.10128663662E+03  0.10268086918E+03  0.41800000000E+01 0.  1.
</event>
<event>
11    1  0.8974665E-009  0.1449280E+03  0.7561462E-02  0.1102177E+00
         22   -1    0    0    0    0  0.00000000000E+00  0.00000000000E+00  0.96311088964E+03  0.96311088964E+03  0.00000000000E+00 0. -1.
         22   -1    0    0    0    0 -0.00000000000E+00 -0.00000000000E+00 -0.14899990938E+03  0.14899990938E+03  0.00000000000E+00 0.  1.
        -24    2    1    2    0    0  0.66017097654E+02 -0.39022713353E+02 -0.67412200821E+02  0.13363513446E+03  0.86214354964E+02 0.  0.
         25    2    1    2    0    0 -0.62322706634E+02  0.15184697710E+02  0.59788610792E+02  0.15276595074E+03  0.12509221766E+03 0.  0.
         24    2    1    2    0    0 -0.36943910203E+01  0.23838015644E+02  0.82173457028E+03  0.82570971382E+03  0.77245893025E+02 0.  0.
        -13    1    5    5    0    0  0.36338569170E+02  0.11745759772E+02  0.45451827145E+03  0.45611984562E+03  0.00000000000E+00 0.  1.
         14    1    5    5    0    0 -0.40032960190E+02  0.12092255872E+02  0.36721629883E+03  0.36958986820E+03  0.00000000000E+00 0. -1.
         13    1    3    3    0    0  0.72141610648E+01  0.17400490943E+01  0.19614701425E+02  0.20971609445E+02  0.00000000000E+00 0. -1.
        -14    1    3    3    0    0  0.58802936590E+02 -0.40762762448E+02 -0.87026902246E+02  0.11266352501E+03  0.00000000000E+00 0.  1.
          5    1    4    4  501    0 -0.16810668344E+02 -0.18849729221E+02 -0.34279687144E+02  0.42784111684E+02  0.41800000000E+01 0.  1.
         -5    1    4    4    0  501 -0.45512038290E+02  0.34034426931E+02  0.94068297936E+02  0.10998183906E+03  0.41800000000E+01 0.  1.
</event>
<event>
11    1  0.8974665E-009  0.1530227E+03  0.7561462E-02  0.1093830E+00
         22   -1    0    0    0    0  0.00000000000E+00  0.00000000000E+00  0.71991090860E+02  0.71991090860E+02  0.00000000000E+00 0. -1.
         22   -1    0    0    0    0 -0.00000000000E+00 -0.00000000000E+00 -0.21953132419E+04  0.21953132419E+04  0.00000000000E+00 0. -1.
         24    2    1    2    0    0 -0.71339405301E+02  0.39134878844E+01 -0.18734964477E+04  0.18765454754E+04  0.79557246204E+02 0.  0.
         25    2    1    2    0    0 -0.44761717939E+01 -0.71724103426E+02 -0.20335151968E+03  0.24932721526E+03  0.12509131298E+03 0.  0.
        -24    2    1    2    0    0  0.75815577095E+02  0.67810615541E+02 -0.46474183633E+02  0.14143164212E+03  0.86583938101E+02 0.  0.
        -11    1    3    3    0    0 -0.38978952171E+02 -0.25220906432E+02 -0.45112414416E+03  0.45350683156E+03  0.00000000000E+00 0.  1.
         12    1    3    3    0    0 -0.32360453130E+02  0.29134394316E+02 -0.14223723035E+04  0.14230386438E+04  0.00000000000E+00 0. -1.
         13    1    5    5    0    0  0.53999320009E+02  0.49472542974E+02  0.14015179693E+02  0.74564631908E+02  0.00000000000E+00 0. -1.
        -14    1    5    5    0    0  0.21816257086E+02  0.18338072568E+02 -0.60489363325E+02  0.66867010209E+02  0.00000000000E+00 0.  1.
          5    1    4    4  501    0  0.18848131198E+02 -0.48226591642E+02 -0.97297427666E+01  0.52850699952E+02  0.41800000000E+01 0.  1.
         -5    1    4    4    0  501 -0.23324302992E+02 -0.23497511784E+02 -0.19362177692E+03  0.19647651530E+03  0.41800000000E+01 0.  1.
</event>
<event>
11    1  0.8974665E-009  0.1311730E+03  0.7561462E-02  0.1117836E+00
         22   -1    0    0    0    0  0.00000000000E+00  0.00000000000E+00  0.53565782433E+02  0.53565782433E+02  0.00000000000E+00 0.  1.
         22   -1    0    0    0    0 -0.00000000000E+00 -0.00000000000E+00 -0.95369192352E+03  0.95369192352E+03  0.00000000000E+00 0. -1.
        -24    2    1    2    0    0  0.24865414628E+02 -0.30704820724E+02 -0.65549642126E+03  0.66158658555E+03  0.80375226494E+02 0.  0.
         25    2    1    2    0    0 -0.48739895585E+02  0.86642020155E+01 -0.21766440469E+03  0.25588397628E+03  0.12509264738E+03 0.  0.
         24    2    1    2    0    0  0.23874480957E+02  0.22040618708E+02 -0.26965315135E+02  0.89787144124E+02  0.79239026468E+02 0.  0.
        -13    1    5    5    0    0 -0.26413417445E+01  0.45165591245E+02 -0.30291605824E+02  0.54447118400E+02  0.00000000000E+00 0.  1.
         14    1    5    5    0    0  0.26515822702E+02 -0.23124972537E+02  0.33262906887E+01  0.35340025723E+02  0.00000000000E+00 0. -1.
         13    1    3    3    0    0  0.38153624012E+02 -0.45211658775E+02 -0.59584936063E+03  0.59877896896E+03  0.00000000000E+00 0. -1.
        -14    1    3    3    0    0 -0.13288209385E+02  0.14506838052E+02 -0.59647060629E+02  0.62807616581E+02  0.00000000000E+00 0.  1.
          5    1    4    4  501    0 -0.20109409224E+02 -0.57115289935E+02 -0.12169317671E+03  0.13598987588E+03  0.41800000000E+01 0. -1.
         -5    1    4    4    0  501 -0.28630486361E+02  0.65779491950E+02 -0.95971227981E+02  0.11989410040E+03  0.41800000000E+01 0. -1.
</event>
<event>
11    1  0.8974665E-009  0.1373615E+03  0.7561462E-02  0.1110541E+00
         22   -1    0    0    0    0  0.00000000000E+00  0.00000000000E+00  0.19648097971E+03  0.19648097971E+03  0.00000000000E+00 0. -1.
         22   -1    0    0    0    0 -0.00000000000E+00 -0.00000000000E+00 -0.40053893104E+03  0.40053893104E+03  0.00000000000E+00 0.  1.
         24    2    1    2    0    0 -0.42462905179E+01 -0.30044277027E+00 -0.17136967720E+03  0.18952020881E+03  0.80822163027E+02 0.  0.
         25    2    1    2    0    0  0.59462830358E+02  0.12072316368E+02 -0.18181730705E+03  0.22888396961E+03  0.12509504141E+03 0.  0.
        -24    2    1    2    0    0 -0.55216539840E+02 -0.11771873598E+02  0.14912903292E+03  0.17861573233E+03  0.80477749070E+02 0.  0.
        -13    1    3    3    0    0 -0.94610378478E+01  0.37821849046E+02 -0.11364916303E+03  0.12015047133E+03  0.00000000000E+00 0.  1.
         14    1    3    3    0    0  0.52147473299E+01 -0.38122291816E+02 -0.57720514161E+02  0.69369737480E+02  0.00000000000E+00 0. -1.
         11    1    5    5    0    0 -0.15667306827E+02 -0.27292118853E+02  0.12674677147E+03  0.13059505478E+03  0.00000000000E+00 0. -1.
        -12    1    5    5    0    0 -0.39549233014E+02  0.15520245255E+02  0.22382261453E+02  0.48020677551E+02  0.00000000000E+00 0.  1.
          5    1    4    4  501    0  0.49888604503E+02  0.48853292575E+02 -0.17703118791E+03  0.19034975951E+03  0.41800000000E+01 0.  1.
         -5    1    4    4    0  501  0.95742258557E+01 -0.36780976207E+02 -0.47861191413E+01  0.38534210098E+02  0.41800000000E+01 0.  1.
</event>
<event>
11    1  0.8974665E-009  0.1644385E+03  0.7561462E-02  0.1082975E+00
         22   -1    0    0    0    0  0.00000000000E+00  0.00000000000E+00  0.17964187573E+04  0.17964187573E+04  0.00000000000E+00 0. -1.
         22   -1    0    0    0    0 -0.00000000000E+00 -0.00000000000E+00 -0.23473457220E+03  0.23473457220E+03  0.00000000000E+00 0. -1.
        -24    2    1    2    0    0 -0.66756889314E+02  0.25456149554E+02 -0.20383796782E+03  0.23063002170E+03  0.80844245083E+02 0.  0.
         25    2    1    2    0    0 -0.27416822888E+01 -0.11141759944E+03  0.49950198387E+03  0.52685106488E+03  0.12509362250E+03 0.  0.
         24    2    1    2    0    0  0.69498571603E+02  0.85961449881E+02  0.12660201690E+04  0.12736722429E+04  0.84938163502E+02 0.  0.
        -11    1    5    5    0    0  0.10709958779E+02 -0.69380046727E+01  0.27889372320E+02  0.30670119242E+02  0.00000000000E+00 0.  1.
         12    1    5    5    0    0  0.58788612824E+02  0.92899454554E+02  0.12381307967E+04  0.12430021237E+04  0.00000000000E+00 0. -1.
         11    1    3    3    0    0 -0.80345439318E+02  0.31547091666E+02 -0.19515586742E+03  0.21339264561E+03  0.00000000000E+00 0. -1.
        -12    1    3    3    0    0  0.13588550004E+02 -0.60909421121E+01 -0.86821003935E+01  0.17237376084E+02  0.00000000000E+00 0.  1.
          5    1    4    4  501    0  0.25965859624E+02 -0.91974344024E+02  0.47413059923E+03  0.48368461145E+03  0.41800000000E+01 0.  1.
         -5    1    4    4    0  501 -0.28707541913E+02 -0.19443255411E+02  0.25371384646E+02  0.43166453439E+02  0.41800000000E+01 0.  1.
</event>
<event>
11    1  0.8974665E-009  0.1339058E+03  0.7561462E-02  0.1114561E+00
         22   -1    0    0    0    0  0.00000000000E+00  0.00000000000E+00  0.16612276522E+04  0.16612276522E+04  0.00000000000E+00 0. -1.
         22   -1    0    0    0    0 -0.00000000000E+00 -0.00000000000E+00 -0.39335356017E+03  0.39335356017E+03  0.00000000000E+00 0.  1.
        -24    2    1    2    0    0 -0.10557910871E+02  0.16200277727E+02 -0.37724373952E+03  0.38559215244E+03  0.77424482781E+02 0.  0.
         25    2    1    2    0    0  0.67460296015E+01 -0.61522740224E+02  0.46914803505E+03  0.48946675205E+03  0.12508903267E+03 0.  0.
         24    2    1    2    0    0  0.38118812691E+01  0.45322462498E+02  0.11759697965E+04  0.11795223079E+04  0.79367855202E+02 0.  0.
        -11    1    5    5    0    0  0.38361413619E+02  0.13358106861E+02  0.38072609264E+03  0.38288692155E+03  0.00000000000E+00 0.  1.
         12    1    5    5    0    0 -0.34549532349E+02  0.31964355636E+02  0.79524370389E+03  0.79663538636E+03  0.00000000000E+00 0. -1.
         13    1    3    3    0    0  0.83447312642E+01 -0.25584820490E+02 -0.70918690505E+02  0.75853004175E+02  0.00000000000E+00 0. -1.
        -14    1    3    3    0    0 -0.18902642135E+02  0.41785098216E+02 -0.30632504902E+03  0.30973914827E+03  0.00000000000E+00 0.  1.
          5    1    4    4  501    0  0.36685097701E+02 -0.42406082138E+02  0.75191128844E+02  0.93889565194E+02  0.41800000000E+01 0. -1.
         -5    1    4    4    0  501 -0.29939068099E+02 -0.19116658086E+02  0.39395690620E+03  0.39557718686E+03  0.41800000000E+01 0. -1.
</event>
<event>
11    1  0.8974665E-009  0.2331000E+03  0.7561462E-02  0.1033308E+00
         22   -1    0    0    0    0  0.00000000000E+00  0.00000000000E+00  0.13713017338E+04  0.13713017338E+04  0.00000000000E+00 0. -1.
         22   -1    0    0    0    0 -0.00000000000E+00 -0.00000000000E+00 -0.11073207266E+03  0.11073207266E+03  0.00000000000E+00 0.  1.
        -24    2    1    2    0    0  0.62522022852E+02 -0.40796842112E+01 -0.93143244227E+01  0.10177138798E+03  0.79655581146E+02 0.  0.
         25    2    1    2    0    0  0.28654432625E+02  0.18369483825E+03  0.24296293559E+03  0.33051957000E+03  0.12508928000E+03 0.  0.
         24    2    1    2    0    0 -0.91176455476E+02 -0.17961515404E+03  0.10269210500E+04  0.10497428485E+04  0.82573939314E+02 0.  0.
        -13    1    5    5    0    0  0.13486000317E+02 -0.66868750383E+01  0.91656988422E+02  0.92884821305E+02  0.00000000000E+00 0.  1.
         14    1    5    5    0    0 -0.10466245579E+03 -0.17292827900E+03  0.93526406159E+03  0.95685802721E+03  0.00000000000E+00 0. -1.
         13    1    3    3    0    0  0.49046685549E+02 -0.19459382931E+02  0.27617686868E+02  0.59556540996E+02  0.00000000000E+00 0. -1.
        -14    1    3    3    0    0  0.13475337302E+02  0.15379698720E+02 -0.36932011291E+02  0.42214846987E+02  0.00000000000E+00 0.  1.
          5    1    4    4  501    0 -0.39626000988E+02  0.11545681684E+03  0.99428550195E+02  0.15749287445E+03  0.41800000000E+01 0.  1.
         -5    1    4    4    0  501  0.68280433613E+02  0.68238021411E+02  0.14353438540E+03  0.17302669555E+03  0.41800000000E+01 0.  1.
</event>
<event>
11    1  0.8974665E-009  0.1412846E+03  0.7561462E-02  0.1106132E+00
         22   -1    0    0    0    0  0.00000000000E+00  0.00000000000E+00  0.13126611313E+04  0.13126611313E+04  0.00000000000E+00 0. -1.
         22   -1    0    0    0    0 -0.00000000000E+00 -0.00000000000E+00 -0.38872555752E+02  0.38872555752E+02  0.00000000000E+00 0. -1.
         24    2    1    2    0    0  0.45806273540E+02 -0.53840612052E+02  0.71693429280E+02  0.12836284792E+03  0.79624410336E+02 0.  0.
         25    2    1    2    0    0 -0.11724422410E+01  0.34046128040E+02  0.76042823312E+03  0.77140304603E+03  0.12510414957E+03 0.  0.
        -24    2    1    2    0    0 -0.44633831299E+02  0.19794484012E+02  0.44166691310E+03  0.45176779306E+03  0.81489117219E+02 0.  0.
        -13    1    3    3    0    0 -0.18075118372E+02 -0.34078313566E+02  0.35008147599E+02  0.52092338765E+02  0.00000000000E+00 0.  1.
         14    1    3    3    0    0  0.63881391912E+02 -0.19762298486E+02  0.36685281681E+02  0.76270509151E+02  0.00000000000E+00 0. -1.
         13    1    5    5    0    0 -0.45122312097E+02 -0.21520213510E+02  0.17814442797E+03  0.18502588969E+03  0.00000000000E+00 0. -1.
        -14    1    5    5    0    0  0.48848079755E+00  0.41314697522E+02  0.26352248513E+03  0.26674190337E+03  0.00000000000E+00 0.  1.
          5    1    4    4  501    0 -0.16541683637E+02 -0.21807939091E+02  0.40064314679E+02  0.48701490898E+02  0.41800000000E+01 0.  1.
         -5    1    4    4    0  501  0.15369241396E+02  0.55854067131E+02  0.72036391844E+03  0.72270155513E+03  0.41800000000E+01 0.  1.
</event>
<event>
11    1  0.8974665E-009  0.2485187E+03  0.7561462E-02  0.1024691E+00
         22   -1    0    0    0    0  0.00000000000E+00  0.00000000000E+00  0.52294716564E+03  0.52294716564E+03  0.00000000000E+00 0. -1.
         22   -1    0    0    0    0 -0.00000000000E+00 -0.00000000000E+00 -0.16769756690E+04  0.16769756690E+04  0.00000000000E+00 0. -1.
         24    2    1    2    0    0  0.13403975782E+03  0.16908546689E+03 -0.16063018464E+04  0.16226974626E+04  0.79905453199E+02 0.  0.
         25    2    1    2    0    0 -0.99786542653E+02 -0.15865328202E+03  0.17299166642E+03  0.28407383420E+03  0.12507441240E+03 0.  0.
        -24    2    1    2    0    0 -0.34253215162E+02 -0.10432184876E+02  0.27928167664E+03  0.29315153786E+03  0.81593235095E+02 0.  0.
        -13    1    3    3    0    0  0.64549554270E+02  0.34017787251E+02 -0.37233005881E+03  0.37941208138E+03  0.00000000000E+00 0.  1.
         14    1    3    3    0    0  0.69490203546E+02  0.13506767964E+03 -0.12339717876E+04  0.12432853812E+04  0.00000000000E+00 0. -1.
         11    1    5    5    0    0 -0.22436845204E+02 -0.27437934727E+02  0.26643527692E+03  0.26878245678E+03  0.00000000000E+00 0. -1.
        -12    1    5    5    0    0 -0.11816369958E+02  0.17005749851E+02  0.12846399719E+02  0.24369081081E+02  0.00000000000E+00 0.  1.
          5    1    4    4  501    0  0.21500118225E+02 -0.20366776172E+02  0.62941125643E+02  0.69685854753E+02  0.41800000000E+01 0. -1.
         -5    1    4    4    0  501 -0.12128666088E+03 -0.13828650585E+03  0.11005054078E+03  0.21438797945E+03  0.41800000000E+01 0. -1.
</event>
<event>
11    1  0.8974665E-009  0.1310251E+03  0.7561462E-02  0.1118016E+00
         22   -1    0    0    0    0  0.00000000000E+00  0.00000000000E+00  0.18999945588E+03  0.18999945588E+03  0.00000000000E+00 0. -1.
         22   -1    0    0    0    0 -0.00000000000E+00 -0.00000000000E+00 -0.44721311542E+03  0.44721311542E+03  0.00000000000E+00 0. -1.
        -24    2    1    2    0    0  0.15835219140E+02 -0.19832662104E+02 -0.35014630483E+03  0.35997317968E+03  0.79587477961E+02 0.  0.
         25    2    1    2    0    0 -0.40547515482E+02 -0.11280624767E+02 -0.18923277997E+02  0.13333157273E+03  0.12509142389E+03 0.  0.
         24    2    1    2    0    0  0.24712296342E+02  0.31113286871E+02  0.11185592328E+03  0.14390781889E+03  0.81357105128E+02 0.  0.
        -13    1    5    5    0    0  0.33284793780E+02 -0.15336555506E+02  0.22971775655E+02  0.43252628920E+02  0.00000000000E+00 0.  1.
         14    1    5    5    0    0 -0.85724974376E+01  0.46449842377E+02  0.88884147626E+02  0.10065518997E+03  0.00000000000E+00 0. -1.
         11    1    3    3    0    0  0.48168400561E+02 -0.13304442450E+02 -0.23112644171E+03  0.23646698513E+03  0.00000000000E+00 0. -1.
        -12    1    3    3    0    0 -0.32333181421E+02 -0.65282196547E+01 -0.11901986312E+03  0.12350619454E+03  0.00000000000E+00 0.  1.
          5    1    4    4  501    0 -0.50056145594E+02 -0.58204270084E+02  0.95466576055E+01  0.77472355322E+02  0.41800000000E+01 0. -1.
         -5    1    4    4    0  501  0.95086301115E+01  0.46923645317E+02 -0.28469935602E+02  0.55859217410E+02  0.41800000000E+01 0. -1.
</event>
<event>
11    1  0.8974665E-009  0.1427172E+03  0.7561462E-02  0.1104562E+00
         22   -1    0    0    0    0  0.00000000000E+00  0.00000000000E+00  0.80331409614E+02  0.80331409614E+02  0.00000000000E+00 0. -1.
         22   -1    0    0    0    0 -0.00000000000E+00 -0.00000000000E+00 -0.21567638986E+04  0.21567638986E+04  0.00000000000E+00 0. -1.
        -24    2    1    2    0    0  0.10183825848E+02 -0.48434921362E+01 -0.15882369124E+04  0.15903643565E+04  0.81456288641E+02 0.  0.
         25    2    1    2    0    0 -0.53397922670E+02  0.57288571635E+02 -0.51617042395E+03  0.53685624831E+03  0.12509758673E+03 0.  0.
         24    2    1    2    0    0  0.43214096822E+02 -0.52445079499E+02  0.27974847308E+02  0.10987470341E+03  0.81681784008E+02 0.  0.
        -11    1    5    5    0    0 -0.13002297083E+02 -0.41708344661E+02 -0.47522821025E+01  0.43945761217E+02  0.00000000000E+00 0.  1.
         12    1    5    5    0    0  0.56216393905E+02 -0.10736734838E+02  0.32727129411E+02  0.65928942188E+02  0.00000000000E+00 0. -1.
         13    1    3    3    0    0 -0.17788642344E+01  0.13566165604E+02 -0.14724931919E+04  0.14725567580E+04  0.00000000000E+00 0. -1.
        -14    1    3    3    0    0  0.11962690083E+02 -0.18409657741E+02 -0.11574372048E+03  0.11780759857E+03  0.00000000000E+00 0.  1.
          5    1    4    4  501    0 -0.64645499525E+02  0.17891564234E+01 -0.11770867510E+03  0.13436906744E+03  0.41800000000E+01 0. -1.
         -5    1    4    4    0  501  0.11247576855E+02  0.55499415212E+02 -0.39846174884E+03  0.40248718087E+03  0.41800000000E+01 0. -1.
</event>
<event>
11    1  0.8974665E-009  0.1778750E+03  0.7561462E-02  0.1071375E+00
         22   -1    0    0    0    0  0.00000000000E+00  0.00000000000E+00  0.56902484803E+03  0.56902484803E+03  0.00000000000E+00 0.  1.
         22   -1    0    0    0    0 -0.00000000000E+00 -0.00000000000E+00 -0.14777012038E+03  0.14777012038E+03  0.00000000000E+00 0.  1.
        -24    2    1    2    0    0 -0.80802987074E+02 -0.95284024633E+02 -0.40292400401E+02  0.15396304288E+03  0.80454788375E+02 0.  0.
         25    2    1    2    0    0  0.25712075013E+02  0.15035051506E+03  0.28396880379E+03  0.34576134646E+03  0.12508492714E+03 0.  0.
         24    2    1    2    0    0  0.55090912061E+02 -0.55066490427E+02  0.17757832426E+03  0.21707057908E+03  0.97561509288E+02 0.  0.
        -11    1    5    5    0    0  0.19280248411E+02 -0.77297641851E+02  0.13747873965E+03  0.15889322601E+03  0.00000000000E+00 0.  1.
         12    1    5    5    0    0  0.35810663650E+02  0.22231151423E+02  0.40099584606E+02  0.58177353070E+02  0.00000000000E+00 0. -1.
         11    1    3    3    0    0 -0.10173046630E+02 -0.16476522506E+02  0.23458298619E+02  0.30418061176E+02  0.00000000000E+00 0. -1.
        -12    1    3    3    0    0 -0.70629940445E+02 -0.78807502127E+02 -0.63750699020E+02  0.12354498170E+03  0.00000000000E+00 0.  1.
          5    1    4    4  501    0  0.39248951312E+02  0.66639806741E+01  0.19681351527E+02  0.44606241889E+02  0.41800000000E+01 0. -1.
         -5    1    4    4    0  501 -0.13536876299E+02  0.14368653439E+03  0.26428745227E+03  0.30115510457E+03  0.41800000000E+01 0. -1.
</event>
<event>
11    1  0.8974665E-009  0.1543606E+03  0.7561462E-02  0.1092505E+00
         22   -1    0    0    0    0  0.00000000000E+00  0.00000000000E+00  0.32756798157E+04  0.32756798157E+04  0.00000000000E+00 0.  1.
         22   -1    0    0    0    0 -0.00000000000E+00 -0.00000000000E+00 -0.22036740750E+03  0.22036740750E+03  0.00000000000E+00 0.  1.
        -24    2    1    2    0    0 -0.38321596004E+02  0.10889911426E+02 -0.12715034949E+03  0.15519448361E+03  0.79567464938E+02 0.  0.
         25    2    1    2    0    0  0.97350341139E+02  0.57313907740E+02  0.12886119434E+02  0.16904415084E+03  0.12509156614E+03 0.  0.
         24    2    1    2    0    0 -0.59028745135E+02 -0.68203819166E+02  0.31695766382E+04  0.31718085887E+04  0.77572573469E+02 0.  0.
        -13    1    5    5    0    0 -0.71878311495E+02 -0.32506571750E+02  0.24017473477E+04  0.24030425488E+04  0.00000000000E+00 0.  1.
         14    1    5    5    0    0  0.12849566360E+02 -0.35697247417E+02  0.76782929051E+03  0.76876603996E+03  0.00000000000E+00 0. -1.
         13    1    3    3    0    0 -0.10037357551E+02  0.38562144561E+02 -0.28749795216E+02  0.49135916240E+02  0.00000000000E+00 0. -1.
        -14    1    3    3    0    0 -0.28284238452E+02 -0.27672233135E+02 -0.98400554270E+02  0.10605856737E+03  0.00000000000E+00 0.  1.
          5    1    4    4  501    0  0.10725461275E+03  0.33742065210E+02 -0.32211365619E+02  0.11703471022E+03  0.41800000000E+01 0. -1.
         -5    1    4    4    0  501 -0.99042716083E+01  0.23571842530E+02  0.45097485052E+02  0.52009440627E+02  0.41800000000E+01 0. -1.
</event>
<event>
11    1  0.8974665E-009  0.1400007E+03  0.7561462E-02  0.1107558E+00
         22   -1    0    0    0    0  0.00000000000E+00  0.00000000000E+00  0.29523775060E+03  0.29523775060E+03  0.00000000000E+00 0.  1.
         22   -1    0    0    0    0 -0.00000000000E+00 -0.00000000000E+00 -0.74425020880E+03  0.74425020880E+03  0.00000000000E+00 0.  1.
        -24    2    1    2    0    0  0.59431392388E+02 -0.20438615302E+02 -0.68861792008E+03  0.69644775630E+03  0.83036197005E+02 0.  0.
         25    2    1    2    0    0 -0.76393863324E+02 -0.24249834841E+02  0.15295088064E+03  0.21322160519E+03  0.12508159012E+03 0.  0.
         24    2    1    2    0    0  0.16962470936E+02  0.44688450143E+02  0.86654581237E+02  0.12981859790E+03  0.84018265365E+02 0.  0.
        -11    1    5    5    0    0 -0.33519361500E+02  0.26347597078E+02  0.33151268674E+02  0.54006944756E+02  0.00000000000E+00 0.  1.
         12    1    5    5    0    0  0.50481832436E+02  0.18340853065E+02  0.53503312563E+02  0.75811653144E+02  0.00000000000E+00 0. -1.
         13    1    3    3    0    0  0.11557304997E+01  0.59811925600E+01 -0.13910484091E+01  0.62486312985E+01  0.00000000000E+00 0. -1.
        -14    1    3    3    0    0  0.58275661888E+02 -0.26419807862E+02 -0.68722687167E+03  0.69019912501E+03  0.00000000000E+00 0.  1.
          5    1    4    4  501    0 -0.29090863724E+02 -0.45906158723E+02  0.31614106003E+01  0.54599639906E+02  0.41800000000E+01 0.  1.
         -5    1    4    4    0  501 -0.47302999599E+02  0.21656323882E+02  0.14978947004E+03  0.15862196529E+03  0.41800000000E+01 0.  1.
</event>
<event>
11    1  0.8974665E-009  0.3826061E+03  0.7561462E-02  0.9702521E-01
         22   -1    0    0    0    0  0.00000000000E+00  0.00000000000E+00  0.21302402140E+04  0.21302402140E+04  0.00000000000E+00 0. -1.
         22   -1    0    0    0    0 -0.00000000000E+00 -0.00000000000E+00 -0.21428208392E+03  0.21428208392E+03  0.00000000000E+00 0.  1.
         24    2    1    2    0    0  0.14786758772E+03  0.83436667785E+02 -0.15196248640E+03  0.24150467120E+03  0.80033792294E+02 0.  0.
         25    2    1    2    0    0  0.40158762846E+02  0.34097506097E+02  0.52797744596E+03  0.54514534738E+03  0.12509156716E+03 0.  0.
        -24    2    1    2    0    0 -0.18802635057E+03 -0.11753417388E+03  0.15399431705E+04  0.15578722793E+04  0.79830318454E+02 0.  0.
        -11    1    3    3    0    0  0.14727016488E+03  0.78893364396E+02 -0.11167549924E+03  0.20095790988E+03  0.00000000000E+00 0.  1.
         12    1    3    3    0    0  0.59742283688E+00  0.45433033895E+01 -0.40286987154E+02  0.40546761322E+02  0.00000000000E+00 0. -1.
         11    1    5    5    0    0 -0.16663864754E+03 -0.12885758502E+03  0.14167758734E+04  0.14323500241E+04  0.00000000000E+00 0. -1.
        -12    1    5    5    0    0 -0.21387703025E+02  0.11323411137E+02  0.12316729707E+03  0.12552225519E+03  0.00000000000E+00 0.  1.
          5    1    4    4  501    0  0.59960263489E+02  0.63310614261E+02  0.46229155768E+03  0.47046192596E+03  0.41800000000E+01 0.  1.
         -5    1    4    4    0  501 -0.19801500643E+02 -0.29213108164E+02  0.65685888283E+02  0.74683421425E+02  0.41800000000E+01 0.  1.
</event>
<event>
11    1  0.8974665E-009  0.1270834E+03  0.7561462E-02  0.1122905E+00
         22   -1    0    0    0    0  0.00000000000E+00  0.00000000000E+00  0.39955949044E+03  0.39955949044E+03  0.00000000000E+00 0. -1.
         22   -1    0    0    0    0 -0.00000000000E+00 -0.00000000000E+00 -0.69792691563E+03  0.69792691563E+03  0.00000000000E+00 0.  1.
         24    2    1    2    0    0  0.11970291090E+02  0.18589085168E+02 -0.64630849801E+03  0.65264652353E+03  0.87999818863E+02 0.  0.
         25    2    1    2    0    0 -0.51147245017E+00 -0.38049096997E+02  0.56063009517E+02  0.14226035396E+03  0.12508777673E+03 0.  0.
        -24    2    1    2    0    0 -0.11458818640E+02  0.19460011829E+02  0.29187806331E+03  0.30257952858E+03  0.76495559942E+02 0.  0.
        -11    1    3    3    0    0 -0.13214395585E+01  0.12365749175E+02 -0.63208925135E+03  0.63221157822E+03  0.00000000000E+00 0.  1.
         12    1    3    3    0    0  0.13291730649E+02  0.62233359933E+01 -0.14219246661E+02  0.20434945318E+02  0.00000000000E+00 0. -1.
         11    1    5    5    0    0  0.16049741419E+02  0.33490580138E+01  0.24693197024E+03  0.24747567216E+03  0.00000000000E+00 0. -1.
        -12    1    5    5    0    0 -0.27508560060E+02  0.16110953815E+02  0.44946093071E+02  0.55103856414E+02  0.00000000000E+00 0.  1.
          5    1    4    4  501    0  0.30013541758E+01  0.45183922560E+02  0.31454065137E+02  0.55293992426E+02  0.41800000000E+01 0. -1.
         -5    1    4    4    0  501 -0.35128266260E+01 -0.83233019557E+02  0.24608944380E+02  0.86966361537E+02  0.41800000000E+01 0. -1.
</event>
<event>
11    1  0.8974665E-009  0.2373796E+03  0.7561462E-02  0.1030846E+00
         22   -1    0    0    0    0  0.00000000000E+00  0.00000000000E+00  0.41277800837E+03  0.41277800837E+03  0.00000000000E+00 0. -1.
         22   -1    0    0    0    0 -0.00000000000E+00 -0.00000000000E+00 -0.90974829275E+03  0.90974829275E+03  0.00000000000E+00 0. -1.
         24    2    1    2    0    0  0.32992578836E+02 -0.20982542442E+02 -0.69327726732E+03  0.69894860459E+03  0.79793515522E+02 0.  0.
         25    2    1    2    0    0 -0.20694012625E+03  0.10953466142E+03 -0.78494531643E+02  0.27682349187E+03  0.12509115177E+03 0.  0.
        -24    2    1    2    0    0  0.17394754741E+03 -0.88552118981E+02  0.27480151458E+03  0.34675420466E+03  0.81384144696E+02 0.  0.
        -13    1    3    3    0    0 -0.20055741801E+02 -0.30827811674E+01 -0.39126258667E+03  0.39178839703E+03  0.00000000000E+00 0.  1.
         14    1    3    3    0    0  0.53048320637E+02 -0.17899761275E+02 -0.30201468065E+03  0.30716020755E+03  0.00000000000E+00 0. -1.
         11    1    5    5    0    0  0.16436534451E+03 -0.64146715446E+02  0.19605796190E+03  0.26376029269E+03  0.00000000000E+00 0. -1.
        -12    1    5    5    0    0  0.95822028997E+01 -0.24405403535E+02  0.78743552689E+02  0.82993911971E+02  0.00000000000E+00 0.  1.
          5    1    4    4  501    0 -0.13801020210E+03  0.12482891221E+03 -0.24294130637E+02  0.18771454496E+03  0.41800000000E+01 0. -1.
         -5    1    4    4    0  501 -0.68929924153E+02 -0.15294250787E+02 -0.54200401006E+02  0.89108946914E+02  0.41800000000E+01 0. -1.
</event>
<event>
11    1  0.8974665E-009  0.1507858E+03  0.7561462E-02  0.1096079E+00
         22   -1    0    0    0    0  0.00000000000E+00  0.00000000000E+00  0.10264587647E+04  0.10264587647E+04  0.00000000000E+00 0. -1.
         22   -1    0    0    0    0 -0.00000000000E+00 -0.00000000000E+00 -0.19792471523E+03  0.19792471523E+03  0.00000000000E+00 0.  1.
        -24    2    1    2    0    0 -0.74469858662E+00  0.92041391872E+02 -0.11388519793E+03  0.16645791317E+03  0.79159498205E+02 0.  0.
         25    2    1    2    0    0 -0.21746754352E+02 -0.57557922875E+02  0.32004360280E+02  0.14303084332E+03  0.12509079603E+03 0.  0.
         24    2    1    2    0    0  0.22491452939E+02 -0.34483468996E+02  0.91041488711E+03  0.91489472343E+03  0.80511571786E+02 0.  0.
        -11    1    5    5    0    0  0.24424690298E+02  0.10065445892E+02  0.10590782886E+03  0.10915286029E+03  0.00000000000E+00 0.  1.
         12    1    5    5    0    0 -0.19332373586E+01 -0.44548914888E+02  0.80450705825E+03  0.80574186313E+03  0.00000000000E+00 0. -1.
         11    1    3    3    0    0  0.26908818059E+02  0.56191570217E+02 -0.25829964871E+02  0.67444526375E+02  0.00000000000E+00 0. -1.
        -12    1    3    3    0    0 -0.27653516646E+02  0.35849821655E+02 -0.88055233062E+02  0.99013386798E+02  0.00000000000E+00 0.  1.
          5    1    4    4  501    0 -0.32714585899E+02  0.32637555912E+02 -0.61188810890E+00  0.46403674354E+02  0.41800000000E+01 0.  1.
         -5    1    4    4    0  501  0.10967831546E+02 -0.90195478788E+02  0.32616248389E+02  0.96627168962E+02  0.41800000000E+01 0.  1.
</event>
<event>
11    1  0.8974665E-009  0.1298356E+03  0.7561462E-02  0.1119471E+00
         22   -1    0    0    0    0  0.00000000000E+00  0.00000000000E+00  0.14608910426E+03  0.14608910426E+03  0.00000000000E+00 0. -1.
         22   -1    0    0    0    0 -0.00000000000E+00 -0.00000000000E+00 -0.11624389956E+04  0.11624389956E+04  0.00000000000E+00 0.  1.
        -24    2    1    2    0    0 -0.13326503363E+02  0.41973297449E+02 -0.10657172944E+04  0.10697101589E+04  0.81161068282E+02 0.  0.
         25    2    1    2    0    0  0.42244085104E+02 -0.18161100953E+02 -0.11051231796E+01  0.13327713316E+03  0.12508870698E+03 0.  0.
         24    2    1    2    0    0 -0.28917581741E+02 -0.23812196496E+02  0.50472526301E+02  0.10554080777E+03  0.84782893075E+02 0.  0.
        -11    1    5    5    0    0 -0.14996002937E+02  0.25899401298E+02 -0.43449745629E+01  0.30241327610E+02  0.00000000000E+00 0.  1.
         12    1    5    5    0    0 -0.13921578805E+02 -0.49711597793E+02  0.54817500864E+02  0.75299480161E+02  0.00000000000E+00 0. -1.
         11    1    3    3    0    0  0.22750480319E+02  0.47938699892E+02 -0.49872970431E+03  0.50154463536E+03  0.00000000000E+00 0. -1.
        -12    1    3    3    0    0 -0.36076983682E+02 -0.59654024429E+01 -0.56698759012E+03  0.56816552353E+03  0.00000000000E+00 0.  1.
          5    1    4    4  501    0  0.76350349121E+00 -0.67303960820E+02  0.90313940179E+01  0.68040021734E+02  0.41800000000E+01 0.  1.
         -5    1    4    4    0  501  0.41480581613E+02  0.49142859867E+02 -0.10136517198E+02  0.65237111430E+02  0.41800000000E+01 0.  1.
</event>
<event>
11    1  0.8974665E-009  0.1329822E+03  0.7561462E-02  0.1115658E+00
         22   -1    0    0    0    0  0.00000000000E+00  0.00000000000E+00  0.12171730934E+04  0.12171730934E+04  0.00000000000E+00 0. -1.
         22   -1    0    0    0    0 -0.00000000000E+00 -0.00000000000E+00 -0.42342974011E+03  0.42342974011E+03  0.00000000000E+00 0. -1.
         24    2    1    2    0    0 -0.36936710263E+02 -0.24469634017E+02 -0.37677112572E+03  0.38798903415E+03  0.81338342032E+02 0.  0.
         25    2    1    2    0    0  0.67365857239E+02  0.14249544832E+02  0.90251777364E+02  0.16891861629E+03  0.12508759875E+03 0.  0.
        -24    2    1    2    0    0 -0.30429146976E+02  0.10220089185E+02  0.10802627017E+04  0.10836951831E+04  0.79983510905E+02 0.  0.
        -11    1    3    3    0    0  0.21113028857E+02 -0.26582362609E+02 -0.11852569556E+03  0.12329121014E+03  0.00000000000E+00 0.  1.
         12    1    3    3    0    0 -0.58049739120E+02  0.21127285914E+01 -0.25824543017E+03  0.26469782401E+03  0.00000000000E+00 0. -1.
         13    1    5    5    0    0 -0.40558175848E+01  0.35870962936E+02  0.82558671365E+03  0.82637557890E+03  0.00000000000E+00 0. -1.
        -14    1    5    5    0    0 -0.26373329391E+02 -0.25650873750E+02  0.25467598801E+03  0.25731960418E+03  0.00000000000E+00 0.  1.
          5    1    4    4  501    0  0.48444729414E+01 -0.24874479576E+02 -0.22484324744E+02  0.34135405542E+02  0.41800000000E+01 0.  1.
         -5    1    4    4    0  501  0.62521384297E+02  0.39124024408E+02  0.11273610211E+03  0.13478321075E+03  0.41800000000E+01 0.  1.
</event>
<event>
11    1  0.8974665E-009  0.2023365E+03  0.7561462E-02  0.1052884E+00
         22   -1    0    0    0    0  0.00000000000E+00  0.00000000000E+00  0.47803529599E+03  0.47803529599E+03  0.00000000000E+00 0. -1.
         22   -1    0    0    0    0 -0.00000000000E+00 -0.00000000000E+00 -0.28504894583E+04  0.28504894583E+04  0.00000000000E+00 0. -1.
         24    2    1    2    0    0  0.37847548892E+02 -0.19080501747E+02 -0.22554151923E+04  0.22572367732E+04  0.80147726790E+02 0.  0.
         25    2    1    2    0    0 -0.18385691459E+03 -0.41889254628E+02 -0.55463123518E+03  0.59901729558E+03  0.12509132130E+03 0.  0.
        -24    2    1    2    0    0  0.14600936570E+03  0.60969756375E+02  0.43759226521E+03  0.47227068547E+03  0.80725235979E+02 0.  0.
        -13    1    3    3    0    0  0.45276931005E+02 -0.29458161225E+01 -0.59531873687E+03  0.59704528872E+03  0.00000000000E+00 0.  1.
         14    1    3    3    0    0 -0.74293821122E+01 -0.16134685625E+02 -0.16600964554E+04  0.16601914845E+04  0.00000000000E+00 0. -1.
         13    1    5    5    0    0  0.13117157768E+03  0.44380252181E+02  0.27231260956E+03  0.30549917659E+03  0.00000000000E+00 0. -1.
        -14    1    5    5    0    0  0.14837788021E+02  0.16589504193E+02  0.16527965565E+03  0.16677150888E+03  0.00000000000E+00 0.  1.
          5    1    4    4  501    0 -0.19084685488E+03 -0.76306906561E+01 -0.47172803873E+03  0.50894554166E+03  0.41800000000E+01 0. -1.
         -5    1    4    4    0  501  0.69899402897E+01 -0.34258563971E+02 -0.82903196455E+02  0.90071753914E+02  0.41800000000E+01 0. -1.
</event>
<event>
11    1  0.8974665E-009  0.2364849E+03  0.7561462E-02  0.1031356E+00
         22   -1    0    0    0    0  0.00000000000E+00  0.00000000000E+00  0.58528650089E+03  0.58528650089E+03  0.00000000000E+00 0.  1.
         22   -1    0    0    0    0 -0.00000000000E+00 -0.00000000000E+00 -0.25309396730E+03  0.25309396730E+03  0.00000000000E+00 0. -1.
         24    2    1    2    0    0  0.16065410141E+03 -0.12188777637E+03 -0.92219779988E+02  0.24136001532E+03  0.95308965191E+02 0.  0.
         25    2    1    2    0    0 -0.17922409225E+03  0.90451566680E+02  0.94062534759E+02  0.25455439333E+03  0.12508963810E+03 0.  0.
        -24    2    1    2    0    0  0.18569990843E+02  0.31436209694E+02  0.33034977882E+03  0.34246605954E+03  0.82576907999E+02 0.  0.
        -11    1    3    3    0    0 -0.12699022578E+02 -0.10936856299E+02 -0.11259202204E+02  0.20190335173E+02  0.00000000000E+00 0.  1.
         12    1    3    3    0    0  0.17335312399E+03 -0.11095092008E+03 -0.80960577784E+02  0.22116968015E+03  0.00000000000E+00 0. -1.
         13    1    5    5    0    0 -0.25971184978E+02 -0.60136850811E+01  0.56120135440E+02  0.62129996452E+02  0.00000000000E+00 0. -1.
        -14    1    5    5    0    0  0.44541175821E+02  0.37449894775E+02  0.27422964338E+03  0.28033606309E+03  0.00000000000E+00 0.  1.
          5    1    4    4  501    0 -0.11186915747E+03 -0.13297104163E+02  0.42558241793E+02  0.12049978306E+03  0.41800000000E+01 0.  1.
         -5    1    4    4    0  501 -0.67354934782E+02  0.10374867084E+03  0.51504292965E+02  0.13405461027E+03  0.41800000000E+01 0.  1.
</event>
<event>
11    1  0.8974665E-009  0.3000321E+03  0.7561462E-02  0.1000178E+00
         22   -1    0    0    0    0  0.00000000000E+00  0.00000000000E+00  0.84324521470E+03  0.84324521470E+03  0.00000000000E+00 0. -1.
         22   -1    0    0    0    0 -0.00000000000E+00 -0.00000000000E+00 -0.28288626755E+04  0.28288626755E+04  0.00000000000E+00 0. -1.
        -24    2    1    2    0    0 -0.12368731618E+03 -0.23971855236E+03 -0.26729572164E+04  0.26878032465E+04  0.82598273763E+02 0.  0.
         25    2    1    2    0    0  0.20729576992E+03  0.34930175680E+03  0.19653769654E+03  0.46824940202E+03  0.12508869973E+03 0.  0.
         24    2    1    2    0    0 -0.83608453742E+02 -0.10958320444E+03  0.49080205904E+03  0.51605524166E+03  0.80171684812E+02 0.  0.
        -13    1    5    5    0    0 -0.35056671279E+02 -0.73478141495E+02  0.39066892957E+03  0.39906167444E+03  0.00000000000E+00 0.  1.
         14    1    5    5    0    0 -0.48551782464E+02 -0.36105062945E+02  0.10013312948E+03  0.11699356721E+03  0.00000000000E+00 0. -1.
         11    1    3    3    0    0 -0.13278171963E+03 -0.19144587045E+03 -0.22113307124E+04  0.22235705579E+04  0.00000000000E+00 0. -1.
        -12    1    3    3    0    0  0.90944034549E+01 -0.48272681915E+02 -0.46162650397E+03  0.46423268859E+03  0.00000000000E+00 0.  1.
          5    1    4    4  501    0  0.39643331984E+02  0.79279225265E+02 -0.98165344048E+01  0.89278362873E+02  0.41800000000E+01 0.  1.
         -5    1    4    4    0  501  0.16765243794E+03  0.27002253154E+03  0.20635423095E+03  0.37897103915E+03  0.41800000000E+01 0.  1.
</event>
<event>
11    1  0.8974665E-009  0.1299648E+03  0.7561462E-02  0.1119312E+00
         22   -1    0    0    0    0  0.00000000000E+00  0.00000000000E+00  0.16486481087E+03  0.16486481087E+03  0.00000000000E+00 0. -1.
         22   -1    0    0    0    0 -0.00000000000E+00 -0.00000000000E+00 -0.59748118586E+03  0.59748118586E+03  0.00000000000E+00 0. -1.
         24    2    1    2    0    0  0.36533408411E+02 -0.37213416050E+01 -0.37239584257E+03  0.38572903524E+03  0.93593198188E+02 0.  0.
         25    2    1    2    0    0 -0.31302843508E+02 -0.34480209178E+01 -0.18634384099E+03  0.22663080160E+03  0.12508291769E+03 0.  0.
        -24    2    1    2    0    0 -0.52305649036E+01  0.71693625228E+01  0.12612330857E+03  0.14998615990E+03  0.80684574899E+02 0.  0.
        -13    1    3    3    0    0 -0.31256070339E+02  0.65575570920E+01 -0.12337758604E+03  0.12744399643E+03  0.00000000000E+00 0.  1.
         14    1    3    3    0    0  0.67789478750E+02 -0.10278898697E+02 -0.24901825653E+03  0.25828503881E+03  0.00000000000E+00 0. -1.
         13    1    5    5    0    0  0.11867098674E+02  0.15057808543E+02  0.12945243189E+03  0.13086442508E+03  0.00000000000E+00 0. -1.
        -14    1    5    5    0    0 -0.17097663578E+02 -0.78884460198E+01 -0.33291233149E+01  0.19121734819E+02  0.00000000000E+00 0.  1.
          5    1    4    4  501    0  0.32481518575E+02  0.25397385440E+02 -0.19812070244E+02  0.45935463027E+02  0.41800000000E+01 0. -1.
         -5    1    4    4    0  501 -0.63784362083E+02 -0.28845406357E+02 -0.16653177074E+03  0.18069533857E+03  0.41800000000E+01 0. -1.
</event>
<event>
11    1  0.8974665E-009  0.1573055E+03  0.7561462E-02  0.1089639E+00
         22   -1    0    0    0    0  0.00000000000E+00  0.00000000000E+00  0.19597177253E+03  0.19597177253E+03  0.00000000000E+00 0.  1.
         22   -1    0    0    0    0 -0.00000000000E+00 -0.00000000000E+00 -0.44922889116E+03  0.44922889116E+03  0.00000000000E+00 0.  1.
        -24    2    1    2    0    0  0.87745385513E+02 -0.85367934312E+02 -0.24617218436E+03  0.28664558090E+03  0.81104918524E+02 0.  0.
         25    2    1    2    0    0 -0.68407564756E+02 -0.22785339376E+01 -0.12595734102E+03  0.19025674756E+03  0.12509033378E+03 0.  0.
         24    2    1    2    0    0 -0.19337820757E+02  0.87646468250E+02  0.11887240675E+03  0.16829833522E+03  0.78344277672E+02 0.  0.
        -11    1    5    5    0    0 -0.73112047980E+00  0.62238562370E+02  0.12168564234E+03  0.13668053532E+03  0.00000000000E+00 0.  1.
         12    1    5    5    0    0 -0.18606700277E+02  0.25407905880E+02 -0.28132355896E+01  0.31617799905E+02  0.00000000000E+00 0. -1.
         11    1    3    3    0    0  0.82424419405E+02 -0.91292315551E+02 -0.16876214969E+03  0.20882704557E+03  0.00000000000E+00 0. -1.
        -12    1    3    3    0    0  0.53209661081E+01  0.59243812391E+01 -0.77410034670E+02  0.77818535330E+02  0.00000000000E+00 0.  1.
          5    1    4    4  501    0  0.25657654994E+02 -0.32620957161E+02 -0.52427548002E+02  0.66996733468E+02  0.41800000000E+01 0. -1.
         -5    1    4    4    0  501 -0.94065219750E+02  0.30342423223E+02 -0.73529793017E+02  0.12326001410E+03  0.41800000000E+01 0. -1.
</event>
<event>
11    1  0.8974665E-009  0.1642798E+03  0.7561462E-02  0.1083120E+00
         22   -1    0    0    0    0  0.00000000000E+00  0.00000000000E+00  0.44913570791E+03  0.44913570791E+03  0.00000000000E+00 0. -1.
         22   -1    0    0    0    0 -0.00000000000E+00 -0.00000000000E+00 -0.11387423172E+04  0.11387423172E+04  0.00000000000E+00 0.  1.
        -24    2    1    2    0    0  0.41021321170E+02  0.91939226427E+02 -0.10626945673E+04  0.10705042889E+04  0.80772018564E+02 0.  0.
         25    2    1    2    0    0  0.55962334771E+02 -0.12429806173E+02  0.27020123071E+02  0.14024122003E+03  0.12510487501E+03 0.  0.
         24    2    1    2    0    0 -0.96983655942E+02 -0.79509420254E+02  0.34606783497E+03  0.37713251617E+03  0.82087824460E+02 0.  0.
        -11    1    5    5    0    0 -0.19029215136E+01 -0.50097735596E+02  0.12589249853E+03  0.13550765812E+03  0.00000000000E+00 0.  1.
         12    1    5    5    0    0 -0.95080734428E+02 -0.29411684658E+02  0.22017533644E+03  0.24162485806E+03  0.00000000000E+00 0. -1.
         13    1    3    3    0    0  0.17599028100E+02 -0.78921030049E+01 -0.72761471799E+02  0.75274450236E+02  0.00000000000E+00 0. -1.
        -14    1    3    3    0    0  0.23422293070E+02  0.99831329432E+02 -0.98993309549E+03  0.99522983862E+03  0.00000000000E+00 0.  1.
          5    1    4    4  501    0 -0.33212421858E+02 -0.23651810652E+02 -0.11192292001E+02  0.42487797225E+02  0.41800000000E+01 0. -1.
         -5    1    4    4    0  501  0.89174756630E+02  0.11222004479E+02  0.38212415073E+02  0.97753422805E+02  0.41800000000E+01 0. -1.
</event>
<event>
11    1  0.8974665E-009  0.2011131E+03  0.7561462E-02  0.1053739E+00
         22   -1    0    0    0    0  0.00000000000E+00  0.00000000000E+00  0.13950007505E+04  0.13950007505E+04  0.00000000000E+00 0. -1.
         22   -1    0    0    0    0 -0.00000000000E+00 -0.00000000000E+00 -0.12793789210E+03  0.12793789210E+03  0.00000000000E+00 0.  1.
         24    2    1    2    0    0  0.15967603957E+03 -0.49640702196E+02 -0.24661935701E+02  0.18728869196E+03  0.80673453722E+02 0.  0.
         25    2    1    2    0    0 -0.90764930390E+02  0.75695426284E+02  0.37662530969E+03  0.41407178374E+03  0.12506297630E+03 0.  0.
        -24    2    1    2    0    0 -0.68911109184E+02 -0.26054724088E+02  0.91509948444E+03  0.92157816693E+03  0.80446638954E+02 0.  0.
        -11    1    3    3    0    0  0.15249480771E+03 -0.18399392965E+02 -0.20167345585E+02  0.15491909459E+03  0.00000000000E+00 0.  1.
         12    1    3    3    0    0  0.71812318595E+01 -0.31241309231E+02 -0.44945901164E+01  0.32369597369E+02  0.00000000000E+00 0. -1.
         13    1    5    5    0    0 -0.21691846927E+02  0.13463255529E+02  0.59863713807E+03  0.59918129021E+03  0.00000000000E+00 0. -1.
        -14    1    5    5    0    0 -0.47219262257E+02 -0.39517979618E+02  0.31646234638E+03  0.32239687671E+03  0.00000000000E+00 0.  1.
          5    1    4    4  501    0 -0.86740210644E+01  0.46846523000E+01  0.23665842535E+03  0.23690054305E+03  0.41800000000E+01 0.  1.
         -5    1    4    4    0  501 -0.82090909326E+02  0.71010773984E+02  0.13996688434E+03  0.17717124069E+03  0.41800000000E+01 0.  1.
</event>
<event>
11    1  0.8974665E-009  0.1624839E+03  0.7561462E-02  0.1084764E+00
         22   -1    0    0    0    0  0.00000000000E+00  0.00000000000E+00  0.62622838724E+03  0.62622838724E+03  0.00000000000E+00 0.  1.
         22   -1    0    0    0    0 -0.00000000000E+00 -0.00000000000E+00 -0.21760077905E+03  0.21760077905E+03  0.00000000000E+00 0.  1.
         24    2    1    2    0    0  0.91635897721E+02  0.43953232199E+02 -0.15855499216E+03  0.20464605962E+03  0.80070592634E+02 0.  0.
         25    2    1    2    0    0 -0.10953929605E+03 -0.64753727471E+02  0.22712447730E+03  0.28883444663E+03  0.12509159353E+03 0.  0.
        -24    2    1    2    0    0  0.17903398327E+02  0.20800495272E+02  0.34005812305E+03  0.35034866004E+03  0.79696074362E+02 0.  0.
        -13    1    3    3    0    0  0.81359145162E+02  0.56110087834E+02 -0.16062352081E+03  0.18859365815E+03  0.00000000000E+00 0.  1.
         14    1    3    3    0    0  0.10276752559E+02 -0.12156855634E+02  0.20685286434E+01  0.16052401466E+02  0.00000000000E+00 0. -1.
         11    1    5    5    0    0 -0.18622356197E+02 -0.84559926327E+01  0.27314222095E+02  0.34122759126E+02  0.00000000000E+00 0. -1.
        -12    1    5    5    0    0  0.36525754524E+02  0.29256487904E+02  0.31274390095E+03  0.31622590092E+03  0.00000000000E+00 0.  1.
          5    1    4    4  501    0 -0.10893121011E+03 -0.31148718320E+02  0.22834664862E+03  0.25494296524E+03  0.41800000000E+01 0. -1.
         -5    1    4    4    0  501 -0.60808593809E+00 -0.33605009151E+02 -0.12221713150E+01  0.33891481397E+02  0.41800000000E+01 0. -1.
</event>
<event>
11    1  0.8974665E-009  0.1388084E+03  0.7561462E-02  0.1108896E+00
         22   -1    0    0    0    0  0.00000000000E+00  0.00000000000E+00  0.11705409377E+04  0.11705409377E+04  0.00000000000E+00 0.  1.
         22   -1    0    0    0    0 -0.00000000000E+00 -0.00000000000E+00 -0.13384320648E+03  0.13384320648E+03  0.00000000000E+00 0. -1.
        -24    2    1    2    0    0 -0.35771075085E+02  0.46130626140E+02 -0.78178414107E+02  0.12633610263E+03  0.80257971031E+02 0.  0.
         25    2    1    2    0    0  0.17961160544E+02 -0.78686266711E+02  0.15874240959E+03  0.21762245791E+03  0.12508497004E+03 0.  0.
         24    2    1    2    0    0  0.17809914541E+02  0.32555640570E+02  0.95613373570E+03  0.96042558360E+03  0.82755775142E+02 0.  0.
        -13    1    5    5    0    0 -0.32427474312E+01  0.57761828981E+02  0.60812722680E+03  0.61087287406E+03  0.00000000000E+00 0.  1.
         14    1    5    5    0    0  0.21052661972E+02 -0.25206188410E+02  0.34800650890E+03  0.34955270954E+03  0.00000000000E+00 0. -1.
         11    1    3    3    0    0 -0.60300139014E+02  0.20705870688E+02 -0.46861270387E+02  0.79125334176E+02  0.00000000000E+00 0. -1.
        -12    1    3    3    0    0  0.24529063929E+02  0.25424755452E+02 -0.31317143720E+02  0.47210768452E+02  0.00000000000E+00 0.  1.
          5    1    4    4  501    0 -0.12322466791E+02 -0.47245412416E+02 -0.39117118862E+01  0.49160411634E+02  0.41800000000E+01 0.  1.
         -5    1    4    4    0  501  0.30283627335E+02 -0.31440854295E+02  0.16265412148E+03  0.16846204628E+03  0.41800000000E+01 0.  1.
</event>
<event>
11    1  0.8974665E-009  0.1495350E+03  0.7561462E-02  0.1097355E+00
         22   -1    0    0    0    0  0.00000000000E+00  0.00000000000E+00  0.38361363779E+03  0.38361363779E+03  0.00000000000E+00 0.  1.
         22   -1    0    0    0    0 -0.00000000000E+00 -0.00000000000E+00 -0.26468752290E+03  0.26468752290E+03  0.00000000000E+00 0.  1.
         24    2    1    2    0    0 -0.69376508536E+02 -0.43962087230E+02 -0.12706404503E+03  0.17106824384E+03  0.79832997304E+02 0.  0.
         25    2    1    2    0    0  0.91148832334E+02  0.68415267674E+00 -0.53448688508E+02  0.16374692579E+03  0.12509082981E+03 0.  0.
        -24    2    1    2    0    0 -0.21772323799E+02  0.43277934553E+02  0.29943884843E+03  0.31348599105E+03  0.79138037206E+02 0.  0.
        -13    1    3    3    0    0 -0.46016698283E+02 -0.51920352869E+02 -0.12883408419E+03  0.14632662373E+03  0.00000000000E+00 0.  1.
         14    1    3    3    0    0 -0.23359810253E+02  0.79582656390E+01  0.17700391536E+01  0.24741620109E+02  0.00000000000E+00 0. -1.
         11    1    5    5    0    0 -0.20618655290E+02  0.21936362402E+02  0.27706253231E+02  0.40914171255E+02  0.00000000000E+00 0. -1.
        -12    1    5    5    0    0 -0.11536685088E+01  0.21341572152E+02  0.27173259520E+03  0.27257181980E+03  0.00000000000E+00 0.  1.
          5    1    4    4  501    0 -0.45626368172E+01 -0.20069599285E+02 -0.61892834250E+02  0.65359022344E+02  0.41800000000E+01 0.  1.
         -5    1    4    4    0  501  0.95711469151E+02  0.20753751962E+02  0.84441457422E+01  0.98387903448E+02  0.41800000000E+01 0.  1.
</event>
<event>
11    1  0.8974665E-009  0.1410561E+03  0.7561462E-02  0.1106385E+00
         22   -1    0    0    0    0  0.00000000000E+00  0.00000000000E+00  0.36010026685E+03  0.36010026685E+03  0.00000000000E+00 0. -1.
         22   -1    0    0    0    0 -0.00000000000E+00 -0.00000000000E+00 -0.29642286573E+03  0.29642286573E+03  0.00000000000E+00 0. -1.
         24    2    1    2    0    0 -0.55801729001E+02  0.18410795194E+02 -0.17885229135E+03  0.20418613430E+03  0.79063550253E+02 0.  0.
         25    2    1    2    0    0  0.95807666951E+02 -0.22521314456E+02 -0.32759396337E+02  0.16249996705E+03  0.12508694013E+03 0.  0.
        -24    2    1    2    0    0 -0.40005937950E+02  0.41105192619E+01  0.27528908881E+03  0.28983703123E+03  0.81265311259E+02 0.  0.
        -13    1    3    3    0    0 -0.34536689003E+02 -0.90581745517E+01 -0.18691680227E+02  0.40301517629E+02  0.00000000000E+00 0.  1.
         14    1    3    3    0    0 -0.21265039999E+02  0.27468969746E+02 -0.16016061112E+03  0.16388461667E+03  0.00000000000E+00 0. -1.
         13    1    5    5    0    0 -0.32085318079E+02 -0.17420379666E+02  0.25933751493E+03  0.26189479551E+03  0.00000000000E+00 0. -1.
        -14    1    5    5    0    0 -0.79206198705E+01  0.21530898928E+02  0.15951573877E+02  0.27942235718E+02  0.00000000000E+00 0.  1.
          5    1    4    4  501    0  0.11606875824E+03 -0.65065150881E+00 -0.51485926006E+02  0.12704586952E+03  0.41800000000E+01 0. -1.
         -5    1    4    4    0  501 -0.20261091288E+02 -0.21870662947E+02  0.18726529670E+02  0.35454097526E+02  0.41800000000E+01 0. -1.
</event>
<event>
11    1  0.8974665E-009  0.1618045E+03  0.7561462E-02  0.1085392E+00
         22   -1    0    0    0    0  0.00000000000E+00  0.00000000000E+00  0.10813592272E+04  0.10813592272E+04  0.00000000000E+00 0.  1.
         22   -1    0    0    0    0 -0.00000000000E+00 -0.00000000000E+00 -0.20192073022E+03  0.20192073022E+03  0.00000000000E+00 0.  1.
        -24    2    1    2    0    0  0.55064877662E+02 -0.80834032452E+02 -0.14093917535E+03  0.18735747692E+03  0.75317271947E+02 0.  0.
         25    2    1    2    0    0 -0.77781683839E+02  0.16905151516E+03  0.35769128036E+03  0.42215865723E+03  0.12508586935E+03 0.  0.
         24    2    1    2    0    0  0.22716806176E+02 -0.88217482712E+02  0.66268639197E+03  0.67376382328E+03  0.80660138323E+02 0.  0.
        -13    1    5    5    0    0 -0.16355290509E+01 -0.26324928755E+02  0.45332218134E+03  0.45408884255E+03  0.00000000000E+00 0.  1.
         14    1    5    5    0    0  0.24352335227E+02 -0.61892553957E+02  0.20936421063E+03  0.21967498073E+03  0.00000000000E+00 0. -1.
         11    1    3    3    0    0  0.11834553995E+02 -0.24953207019E+02  0.22276037112E+01  0.27707064570E+02  0.00000000000E+00 0. -1.
        -12    1    3    3    0    0  0.43230323667E+02 -0.55880825434E+02 -0.14316677906E+03  0.15965041235E+03  0.00000000000E+00 0.  1.
          5    1    4    4  501    0  0.80625455250E+01  0.16289480012E+01 -0.71276819095E+01  0.11659089216E+02  0.41800000000E+01 0.  1.
         -5    1    4    4    0  501 -0.85844229364E+02  0.16742256716E+03  0.36481896227E+03  0.41049956802E+03  0.41800000000E+01 0.  1.
</event>
<event>
11    1  0.8974665E-009  0.1300415E+03  0.7561462E-02  0.1119218E+00
         22   -1    0    0    0    0  0.00000000000E+00  0.00000000000E+00  0.46199232001E+03  0.46199232001E+03  0.00000000000E+00 0.  1.
         22   -1    0    0    0    0 -0.00000000000E+00 -0.00000000000E+00 -0.17195579343E+03  0.17195579343E+03  0.00000000000E+00 0. -1.
         24    2    1    2    0    0 -0.36092588044E+02  0.86820232734E+01 -0.13033953205E+03  0.15755011092E+03  0.80346694986E+02 0.  0.
         25    2    1    2    0    0  0.12124386815E+02 -0.68738966621E+01  0.16848943705E+03  0.21031202637E+03  0.12509279286E+03 0.  0.
        -24    2    1    2    0    0  0.23968201228E+02 -0.18081266113E+01  0.25188662158E+03  0.26608597616E+03  0.82323341697E+02 0.  0.
        -11    1    3    3    0    0  0.13049455117E+01 -0.22592919421E+02 -0.51585316953E+01  0.23211060725E+02  0.00000000000E+00 0.  1.
         12    1    3    3    0    0 -0.37397533556E+02  0.31274942694E+02 -0.12518100036E+03  0.13433905019E+03  0.00000000000E+00 0. -1.
         11    1    5    5    0    0  0.19820635724E+02 -0.37002611719E+01  0.72802912435E+01  0.21437168046E+02  0.00000000000E+00 0. -1.
        -12    1    5    5    0    0  0.41475655041E+01  0.18921345606E+01  0.24460633033E+03  0.24464880811E+03  0.00000000000E+00 0.  1.
          5    1    4    4  501    0 -0.56248845138E+01 -0.64552728389E+02  0.96006978622E+02  0.11590300433E+03  0.41800000000E+01 0. -1.
         -5    1    4    4    0  501  0.17749271329E+02  0.57678831727E+02  0.72482458428E+02  0.94409022037E+02  0.41800000000E+01 0. -1.
</event>
<event>
11    1  0.8974665E-009  0.1460772E+03  0.7561462E-02  0.1100956E+00
         22   -1    0    0    0    0  0.00000000000E+00  0.00000000000E+00  0.11977677540E+04  0.11977677540E+04  0.00000000000E+00 0. -1.
         22   -1    0    0    0    0 -0.00000000000E+00 -0.00000000000E+00 -0.31721537555E+03  0.31721537555E+03  0.00000000000E+00 0. -1.
        -24    2    1    2    0    0 -0.64843648653E+02 -0.34799001083E+02 -0.27086201544E+03  0.29205215847E+03  0.80700449902E+02 0.  0.
         25    2    1    2    0    0  0.11229379168E+03  0.29967997534E+02  0.18330515820E+03  0.25051101933E+03  0.12508802203E+03 0.  0.
         24    2    1    2    0    0 -0.47450143029E+02  0.48310035490E+01  0.96810923564E+03  0.97241995171E+03  0.78039833868E+02 0.  0.
        -13    1    5    5    0    0 -0.20421731088E+02 -0.19107552470E+02  0.10829223072E+03  0.11184521848E+03  0.00000000000E+00 0.  1.
         14    1    5    5    0    0 -0.27028411940E+02  0.23938556019E+02  0.85981700492E+03  0.86057473323E+03  0.00000000000E+00 0. -1.
         13    1    3    3    0    0 -0.27285598270E+02 -0.42690480551E+02 -0.23187234058E+03  0.23734313415E+03  0.00000000000E+00 0. -1.
        -14    1    3    3    0    0 -0.37558050383E+02  0.78914794683E+01 -0.38989674862E+02  0.54709024325E+02  0.00000000000E+00 0.  1.
          5    1    4    4  501    0  0.12435667948E+03  0.28312102813E+02  0.89592062912E+02  0.15591782783E+03  0.41800000000E+01 0.  1.
         -5    1    4    4    0  501 -0.12062887801E+02  0.16558947213E+01  0.93713095289E+02  0.94593191500E+02  0.41800000000E+01 0.  1.
</event>
<event>
11    1  0.8974665E-009  0.2979752E+03  0.7561462E-02  0.1001052E+00
         22   -1    0    0    0    0  0.00000000000E+00  0.00000000000E+00  0.29698127754E+03  0.29698127754E+03  0.00000000000E+00 0.  1.
         22   -1    0    0    0    0 -0.00000000000E+00 -0.00000000000E+00 -0.22197735843E+04  0.22197735843E+04  0.00000000000E+00 0. -1.
        -24    2    1    2    0    0 -0.20701699486E+03 -0.17550752783E+03 -0.16451366228E+04  0.16693480355E+04  0.81175288183E+02 0.  0.
         25    2    1    2    0    0  0.26135216352E+03  0.99200936606E+02 -0.50400526369E+03  0.58975936580E+03  0.12509606117E+03 0.  0.
         24    2    1    2    0    0 -0.54335168658E+02  0.76306591226E+02  0.22634957974E+03  0.25764746055E+03  0.79831543025E+02 0.  0.
        -11    1    5    5    0    0 -0.68366636809E+02  0.48161728507E+02  0.19941772719E+03  0.21624287049E+03  0.00000000000E+00 0.  1.
         12    1    5    5    0    0  0.14031468150E+02  0.28144862719E+02  0.26931852544E+02  0.41404590052E+02  0.00000000000E+00 0. -1.
         13    1    3    3    0    0 -0.16706269413E+03 -0.13920287558E+03 -0.14724207879E+04  0.14883918708E+04  0.00000000000E+00 0. -1.
        -14    1    3    3    0    0 -0.39954300737E+02 -0.36304652252E+02 -0.17271583490E+03  0.18095616471E+03  0.00000000000E+00 0.  1.
          5    1    4    4  501    0  0.21080010884E+03  0.21990370519E+02 -0.37993727049E+03  0.43507478000E+03  0.41800000000E+01 0.  1.
         -5    1    4    4    0  501  0.50552054679E+02  0.77210566087E+02 -0.12406799320E+03  0.15468458580E+03  0.41800000000E+01 0.  1.
</event>
<event>
11    1  0.8974665E-009  0.1741616E+03  0.7561462E-02  0.1074466E+00
         22   -1    0    0    0    0  0.00000000000E+00  0.00000000000E+00  0.11100120411E+03  0.11100120411E+03  0.00000000000E+00 0.  1.
         22   -1    0    0    0    0 -0.00000000000E+00 -0.00000000000E+00 -0.29356954815E+04  0.29356954815E+04  0.00000000000E+00 0.  1.
         24    2    1    2    0    0 -0.87020863300E+02 -0.85593171327E+02 -0.22915577114E+04  0.22961753742E+04  0.79282927903E+02 0.  0.
         25    2    1    2    0    0  0.12457376006E+03  0.35631607491E+02 -0.60189483563E+03  0.62826179182E+03  0.12508897938E+03 0.  0.
        -24    2    1    2    0    0 -0.37552896760E+02  0.49961563835E+02  0.68758269635E+02  0.12225951962E+03  0.79456356432E+02 0.  0.
        -13    1    3    3    0    0 -0.97180895658E+02 -0.91701469904E+02 -0.20831547739E+04  0.20874355315E+04  0.00000000000E+00 0.  1.
         14    1    3    3    0    0  0.10160032358E+02  0.61082985773E+01 -0.20840293747E+03  0.20873984266E+03  0.00000000000E+00 0. -1.
         13    1    5    5    0    0 -0.22728636099E+02  0.90674527522E+01 -0.14413438168E+02  0.28399943629E+02  0.00000000000E+00 0. -1.
        -14    1    5    5    0    0 -0.14824260661E+02  0.40894111083E+02  0.83171707803E+02  0.93859575986E+02  0.00000000000E+00 0.  1.
          5    1    4    4  501    0  0.73285837318E+02 -0.14815518155E+01 -0.51748117928E+03  0.52266361290E+03  0.41800000000E+01 0.  1.
         -5    1    4    4    0  501  0.51287922742E+02  0.37113159307E+02 -0.84413656351E+02  0.10559817892E+03  0.41800000000E+01 0.  1.
</event>
<event>
11    1  0.8974665E-009  0.2186964E+03  0.7561462E-02  0.1042037E+00
         22   -1    0    0    0    0  0.00000000000E+00  0.00000000000E+00  0.44868103035E+03  0.44868103035E+03  0.00000000000E+00 0. -1.
         22   -1    0    0    0    0 -0.00000000000E+00 -0.00000000000E+00 -0.50838575661E+03  0.50838575661E+03  0.00000000000E+00 0.  1.
        -24    2    1    2    0    0 -0.27724181780E+02 -0.94816016407E+01 -0.32682465382E+03  0.33772085052E+03  0.79890471942E+02 0.  0.
         25    2    1    2    0    0 -0.11629817012E+03  0.12042574338E+03 -0.76350890686E+02  0.22249900482E+03  0.12509486238E+03 0.  0.
         24    2    1    2    0    0  0.14402235190E+03 -0.11094414174E+03  0.34347081825E+03  0.39684693162E+03  0.80400520578E+02 0.  0.
        -11    1    5    5    0    0  0.16563487318E+02  0.53327129464E+01  0.70665343348E+01  0.18780917097E+02  0.00000000000E+00 0.  1.
         12    1    5    5    0    0  0.12745886458E+03 -0.11627685468E+03  0.33640428392E+03  0.37806601452E+03  0.00000000000E+00 0. -1.
         13    1    3    3    0    0 -0.10837945071E+02 -0.40809109967E+02 -0.10692563557E+03  0.11496058477E+03  0.00000000000E+00 0. -1.
        -14    1    3    3    0    0 -0.16886236709E+02  0.31327508326E+02 -0.21989901825E+03  0.22276026575E+03  0.00000000000E+00 0.  1.
          5    1    4    4  501    0 -0.90502706706E+02  0.11342902161E+03 -0.39661279607E+01  0.14522425912E+03  0.41800000000E+01 0.  1.
         -5    1    4    4    0  501 -0.25795463415E+02  0.69967217649E+01 -0.72384762725E+02  0.77274745700E+02  0.41800000000E+01 0.  1.
</event>
<event>
11    1  0.8974665E-009  0.1468135E+03  0.7561462E-02  0.1100180E+00
         22   -1    0    0    0    0  0.00000000000E+00  0.00000000000E+00  0.11685594591E+04  0.11685594591E+04  0.00000000000E+00 0.  1.
         22   -1    0    0    0    0 -0.00000000000E+00 -0.00000000000E+00 -0.50942906575E+03  0.50942906575E+03  0.00000000000E+00 0.  1.
         24    2    1    2    0    0  0.16861240939E+02 -0.75863922948E+02 -0.44544673198E+03  0.45929906385E+03  0.80580411836E+02 0.  0.
         25    2    1    2    0    0 -0.40899058034E+02  0.57378541755E+02  0.39346276636E+02  0.14886270619E+03  0.12508775243E+03 0.  0.
        -24    2    1    2    0    0  0.24037817095E+02  0.18485381193E+02  0.10652308487E+04  0.10698267548E+04  0.94302695291E+02 0.  0.
        -13    1    3    3    0    0 -0.10414585482E+02 -0.31797757112E+02 -0.34164176094E+03  0.34327635188E+03  0.00000000000E+00 0.  1.
         14    1    3    3    0    0  0.27275826421E+02 -0.44066165836E+02 -0.10380497104E+03  0.11602271197E+03  0.00000000000E+00 0. -1.
         11    1    5    5    0    0  0.40752475737E+02  0.18736874081E+02  0.22487206285E+03  0.22930172127E+03  0.00000000000E+00 0. -1.
        -12    1    5    5    0    0 -0.16714658642E+02 -0.25149288786E+00  0.84035878588E+03  0.84052503357E+03  0.00000000000E+00 0.  1.
          5    1    4    4  501    0 -0.16321646023E+02  0.65966618409E+02  0.77070688015E+02  0.10283654129E+03  0.41800000000E+01 0. -1.
         -5    1    4    4    0  501 -0.24577412010E+02 -0.85880766543E+01 -0.37724411379E+02  0.46026164903E+02  0.41800000000E+01 0. -1.
</event>
<event>
11    1  0.8974665E-009  0.1310810E+03  0.7561462E-02  0.1117948E+00
         22   -1    0    0    0    0  0.00000000000E+00  0.00000000000E+00  0.13256883254E+04  0.13256883254E+04  0.00000000000E+00 0. -1.
         22   -1    0    0    0    0 -0.00000000000E+00 -0.00000000000E+00 -0.19266817620E+03  0.19266817620E+03  0.00000000000E+00 0. -1.
        -24    2    1    2    0    0 -0.26341965484E+02  0.57699248039E+01 -0.16443943940E+03  0.18512611749E+03  0.80648366193E+02 0.  0.
         25    2    1    2    0    0 -0.10152671847E+02 -0.25195287357E+02  0.24103250027E+03  0.27291669335E+03  0.12509586752E+03 0.  0.
         24    2    1    2    0    0  0.36494637331E+02  0.19425362553E+02  0.10564270884E+04  0.10603136908E+04  0.80732438375E+02 0.  0.
        -11    1    5    5    0    0  0.31968219060E+02  0.10953449537E+02  0.14693243622E+03  0.15076831862E+03  0.00000000000E+00 0.  1.
         12    1    5    5    0    0  0.45264182706E+01  0.84719130164E+01  0.90949465215E+03  0.90954537219E+03  0.00000000000E+00 0. -1.
         11    1    3    3    0    0 -0.35526086080E+02  0.33572277237E+02 -0.13512318402E+03  0.14369229434E+03  0.00000000000E+00 0. -1.
        -12    1    3    3    0    0  0.91841205961E+01 -0.27802352433E+02 -0.29316255373E+02  0.41433823152E+02  0.00000000000E+00 0.  1.
          5    1    4    4  501    0 -0.26376338852E+02 -0.72268388539E+02  0.12916628999E+03  0.15039891656E+03  0.41800000000E+01 0. -1.
         -5    1    4    4    0  501  0.16223667005E+02  0.47073101183E+02  0.11186621029E+03  0.12251777679E+03  0.41800000000E+01 0. -1.
</event>
<event>
11    1  0.8974665E-009  0.1342384E+03  0.7561462E-02  0.1114168E+00
         22   -1    0    0    0    0  0.00000000000E+00  0.00000000000E+00  0.54661613377E+03  0.54661613377E+03  0.00000000000E+00 0. -1.
         22   -1    0    0    0    0 -0.00000000000E+00 -0.00000000000E+00 -0.13064217445E+04  0.13064217445E+04  0.00000000000E+00 0.  1.
         24    2    1    2    0    0 -0.37811732477E+02 -0.30465271003E+02 -0.11542230292E+04  0.11580351803E+04  0.80354326923E+02 0.  0.
         25    2    1    2    0    0  0.20757348138E+02  0.55484847609E+02 -0.11384922591E+03  0.17921344671E+03  0.12508548048E+03 0.  0.
        -24    2    1    2    0    0  0.17054384339E+02 -0.25019576606E+02  0.50826664433E+03  0.51578925128E+03  0.82381665181E+02 0.  0.
        -11    1    3    3    0    0 -0.29949393440E+02 -0.87170982295E+00 -0.10168329632E+04  0.10172742998E+04  0.00000000000E+00 0.  1.
         12    1    3    3    0    0 -0.78623390374E+01 -0.29593561180E+02 -0.13739006598E+03  0.14076088046E+03  0.00000000000E+00 0. -1.
         11    1    5    5    0    0  0.29381778847E+02 -0.50893798498E+02  0.31956575898E+03  0.32492420958E+03  0.00000000000E+00 0. -1.
        -12    1    5    5    0    0 -0.12327394508E+02  0.25874221892E+02  0.18870088535E+03  0.19086504171E+03  0.00000000000E+00 0.  1.
          5    1    4    4  501    0  0.37776238335E+02 -0.21163500620E+02 -0.84956965033E+02  0.95446824195E+02  0.41800000000E+01 0. -1.
         -5    1    4    4    0  501 -0.17018890197E+02  0.76648348230E+02 -0.28892260873E+02  0.83766622519E+02  0.41800000000E+01 0. -1.
</event>
<event>
11    1  0.8974665E-009  0.1262520E+03  0.7561462E-02  0.1123962E+00
         22   -1    0    0    0    0  0.00000000000E+00  0.00000000000E+00  0.10229764864E+03  0.10229764864E+03  0.00000000000E+00 0.  1.
         22   -1    0    0    0    0 -0.00000000000E+00 -0.00000000000E+00 -0.84332773435E+03  0.84332773435E+03  0.00000000000E+00 0. -1.
        -24    2    1    2    0    0  0.30768943360E+01  0.29006109647E+02 -0.69711228283E+03  0.70241861136E+03  0.81089759166E+02 0.  0.
         25    2    1    2    0    0 -0.19486577877E+02 -0.21586318583E+02 -0.77129070402E+02  0.14980485834E+03  0.12508759417E+03 0.  0.
         24    2    1    2    0    0  0.16409683541E+02 -0.74197910644E+01  0.33211267523E+02  0.93401913282E+02  0.85420127025E+02 0.  0.
        -11    1    5    5    0    0  0.24146644516E+02  0.35452895428E+02  0.22933943967E+02  0.48640867811E+02  0.00000000000E+00 0.  1.
         12    1    5    5    0    0 -0.77369609746E+01 -0.42872686492E+02  0.10277323556E+02  0.44761045471E+02  0.00000000000E+00 0. -1.
         11    1    3    3    0    0  0.13171273654E+01  0.57377374066E+02 -0.49535433456E+03  0.49866804053E+03  0.00000000000E+00 0. -1.
        -12    1    3    3    0    0  0.17597669706E+01 -0.28371264419E+02 -0.20175794827E+03  0.20375057083E+03  0.00000000000E+00 0.  1.
          5    1    4    4  501    0 -0.34664314041E+02  0.46717040145E+02 -0.34282920584E+02  0.67652698036E+02  0.41800000000E+01 0.  1.
         -5    1    4    4    0  501  0.15177736164E+02 -0.68303358727E+02 -0.42846149819E+02  0.82152160305E+02  0.41800000000E+01 0.  1.
</event>
<event>
11    1  0.8974665E-009  0.1373309E+03  0.7561462E-02  0.1110576E+00
         22   -1    0    0    0    0  0.00000000000E+00  0.00000000000E+00  0.12878579317E+04  0.12878579317E+04  0.00000000000E+00 0.  1.
         22   -1    0    0    0    0 -0.00000000000E+00 -0.00000000000E+00 -0.14071631396E+03  0.14071631396E+03  0.00000000000E+00 0. -1.
         24    2    1    2    0    0  0.37024512405E+02  0.28204324627E+02 -0.10570040325E+03  0.14064665590E+03  0.80265859011E+02 0.  0.
         25    2    1    2    0    0  0.37388013277E+01 -0.68388587951E+02  0.32614085553E+03  0.35595818211E+03  0.12508953659E+03 0.  0.
        -24    2    1    2    0    0 -0.40763313732E+02  0.40184263324E+02  0.92670116550E+03  0.93196940771E+03  0.80718671944E+02 0.  0.
        -13    1    3    3    0    0  0.16809283178E+02 -0.26617504242E+02 -0.21358964348E+02  0.38042724548E+02  0.00000000000E+00 0.  1.
         14    1    3    3    0    0  0.20215229227E+02  0.54821828870E+02 -0.84341438898E+02  0.10260393135E+03  0.00000000000E+00 0. -1.
         13    1    5    5    0    0 -0.18504253971E+02 -0.54484558787E+01  0.47002209520E+02  0.50806503385E+02  0.00000000000E+00 0. -1.
        -14    1    5    5    0    0 -0.22259059762E+02  0.45632719203E+02  0.87969895598E+03  0.88116290432E+03  0.00000000000E+00 0.  1.
          5    1    4    4  501    0  0.31415079425E+02  0.17463251448E+02  0.32123057069E+02  0.48386315854E+02  0.41800000000E+01 0.  1.
         -5    1    4    4    0  501 -0.27676278097E+02 -0.85851839400E+02  0.29401779846E+03  0.30757186625E+03  0.41800000000E+01 0.  1.
</event>
<event>
11    1  0.8974665E-009  0.1585588E+03  0.7561462E-02  0.1088441E+00
         22   -1    0    0    0    0  0.00000000000E+00  0.00000000000E+00  0.27583637619E+03  0.27583637619E+03  0.00000000000E+00 0.  1.
         22   -1    0    0    0    0 -0.00000000000E+00 -0.00000000000E+00 -0.15008856259E+04  0.15008856259E+04  0.00000000000E+00 0. -1.
        -24    2    1    2    0    0 -0.41622013524E+02 -0.18222876441E+02 -0.10900149971E+04  0.10939934045E+04  0.81390479551E+02 0.  0.
         25    2    1    2    0    0 -0.36847488437E+02 -0.42195535412E+02 -0.38194579739E+03  0.40579757716E+03  0.12510348065E+03 0.  0.
         24    2    1    2    0    0  0.78469501961E+02  0.60418411853E+02  0.24691154475E+03  0.27693102036E+03  0.76926145601E+02 0.  0.
        -11    1    5    5    0    0  0.87236390262E+02  0.28620031178E+02  0.16908944519E+03  0.19240720996E+03  0.00000000000E+00 0.  1.
         12    1    5    5    0    0 -0.87668883012E+01  0.31798380675E+02  0.77822099562E+02  0.84523810398E+02  0.00000000000E+00 0. -1.
         13    1    3    3    0    0 -0.40972631973E+02  0.25131513794E+02 -0.46548952433E+03  0.46796457859E+03  0.00000000000E+00 0. -1.
        -14    1    3    3    0    0 -0.64938155137E+00 -0.43354390235E+02 -0.62452547272E+03  0.62602882596E+03  0.00000000000E+00 0.  1.
          5    1    4    4  501    0  0.13990728296E+02 -0.62338114199E+02 -0.30288053059E+03  0.30957368940E+03  0.41800000000E+01 0. -1.
         -5    1    4    4    0  501 -0.50838216733E+02  0.20142578786E+02 -0.79065266799E+02  0.96223887755E+02  0.41800000000E+01 0. -1.
</event>
<event>
11    1  0.8974665E-009  0.1309601E+03  0.7561462E-02  0.1118095E+00
         22   -1    0    0    0    0  0.00000000000E+00  0.00000000000E+00  0.55367093007E+03  0.55367093007E+03  0.00000000000E+00 0.  1.
         22   -1    0    0    0    0 -0.00000000000E+00 -0.00000000000E+00 -0.88325897433E+03  0.88325897433E+03  0.00000000000E+00 0.  1.
        -24    2    1    2    0    0  0.26486470512E+02 -0.28434810225E+02 -0.82193596420E+03  0.82674724453E+03  0.80138664501E+02 0.  0.
         25    2    1    2    0    0 -0.12128363068E+02  0.37896280032E+02  0.21969143952E+02  0.13308936311E+03  0.12508760952E+03 0.  0.
         24    2    1    2    0    0 -0.14358107444E+02 -0.94614698071E+01  0.47037877598E+03  0.47709329676E+03  0.77885468817E+02 0.  0.
        -11    1    5    5    0    0 -0.16299955057E+02 -0.44404020938E+00  0.46697741587E+03  0.46726201712E+03  0.00000000000E+00 0.  1.
         12    1    5    5    0    0  0.19418476133E+01 -0.90174295977E+01  0.34013601116E+01  0.98312796376E+01  0.00000000000E+00 0. -1.
         11    1    3    3    0    0  0.23160623369E+02 -0.14467025652E+02 -0.77455557027E+02  0.82128391074E+02  0.00000000000E+00 0. -1.
        -12    1    3    3    0    0  0.33258471430E+01 -0.13967784573E+02 -0.74448040717E+03  0.74461885346E+03  0.00000000000E+00 0.  1.
          5    1    4    4  501    0  0.38762235720E+02  0.43814048628E+01  0.51909382007E+02  0.65067380207E+02  0.41800000000E+01 0.  1.
         -5    1    4    4    0  501 -0.50890598788E+02  0.33514875169E+02 -0.29940238055E+02  0.68021982898E+02  0.41800000000E+01 0.  1.
</event>
<event>
11    1  0.8974665E-009  0.1297348E+03  0.7561462E-02  0.1119595E+00
         22   -1    0    0    0    0  0.00000000000E+00  0.00000000000E+00  0.15486799254E+04  0.15486799254E+04  0.00000000000E+00 0.  1.
         22   -1    0    0    0    0 -0.00000000000E+00 -0.00000000000E+00 -0.16326982899E+03  0.16326982899E+03  0.00000000000E+00 0. -1.
        -24    2    1    2    0    0  0.38677771210E+02  0.44336018369E+01 -0.13376137293E+03  0.15966448166E+03  0.78006506170E+02 0.  0.
         25    2    1    2    0    0 -0.10503006113E+02 -0.28161256711E+02  0.26088204279E+03  0.29087653528E+03  0.12508536689E+03 0.  0.
         24    2    1    2    0    0 -0.28174765097E+02  0.23727654874E+02  0.12582894266E+04  0.12614087375E+04  0.80640578749E+02 0.  0.
        -11    1    5    5    0    0 -0.31575814124E+02  0.25460477623E+02  0.12565662726E+04  0.12572207703E+04  0.00000000000E+00 0.  1.
         12    1    5    5    0    0  0.34010490270E+01 -0.17328227485E+01  0.17231540092E+01  0.41879671562E+01  0.00000000000E+00 0. -1.
         11    1    3    3    0    0  0.56261549567E+02  0.14410110217E+02 -0.12459618678E+03  0.13746717061E+03  0.00000000000E+00 0. -1.
        -12    1    3    3    0    0 -0.17583778357E+02 -0.99765083800E+01 -0.91651861569E+01  0.22197311054E+02  0.00000000000E+00 0.  1.
          5    1    4    4  501    0  0.31691537006E+02  0.37513609015E+02  0.82215194603E+02  0.95856324793E+02  0.41800000000E+01 0. -1.
         -5    1    4    4    0  501 -0.42194543119E+02 -0.65674865726E+02  0.17866684819E+03  0.19502021049E+03  0.41800000000E+01 0. -1.
</event>
<event>
11    1  0.8974665E-009  0.1794246E+03  0.7561462E-02  0.1070109E+00
         22   -1    0    0    0    0  0.00000000000E+00  0.00000000000E+00  0.22302003796E+04  0.22302003796E+04  0.00000000000E+00 0.  1.
         22   -1    0    0    0    0 -0.00000000000E+00 -0.00000000000E+00 -0.62275071617E+03  0.62275071617E+03  0.00000000000E+00 0. -1.
        -24    2    1    2    0    0 -0.96856984110E+01  0.13294610960E+03 -0.55258261604E+03  0.57392887205E+03  0.79235861901E+02 0.  0.
         25    2    1    2    0    0 -0.69109548915E+02 -0.80877051531E+02  0.59422824608E+02  0.17462939335E+03  0.12508847158E+03 0.  0.
         24    2    1    2    0    0  0.78795247326E+02 -0.52069058072E+02  0.21006094549E+04  0.21043928304E+04  0.83601583803E+02 0.  0.
        -11    1    5    5    0    0  0.70199554213E+02 -0.67980605076E+02  0.19824876644E+04  0.19848946268E+04  0.00000000000E+00 0.  1.
         12    1    5    5    0    0  0.85956931126E+01  0.15911547004E+02  0.11812179053E+03  0.11949820361E+03  0.00000000000E+00 0. -1.
         11    1    3    3    0    0  0.19036908531E+02  0.11970362172E+03 -0.39397960337E+03  0.41220297041E+03  0.00000000000E+00 0. -1.
        -12    1    3    3    0    0 -0.28722606942E+02  0.13242487882E+02 -0.15860301267E+03  0.16172590165E+03  0.00000000000E+00 0.  1.
          5    1    4    4  501    0 -0.74307178436E+02 -0.11076686053E+03  0.51065155951E+02  0.14288448730E+03  0.41800000000E+01 0. -1.
         -5    1    4    4    0  501  0.51976295216E+01  0.29889809000E+02  0.83576686570E+01  0.31744906050E+02  0.41800000000E+01 0. -1.
</event>
<event>
11    1  0.8974665E-009  0.3549968E+03  0.7561462E-02  0.9792750E-01
         22   -1    0    0    0    0  0.00000000000E+00  0.00000000000E+00  0.11726582498E+04  0.11726582498E+04  0.00000000000E+00 0.  1.
         22   -1    0    0    0    0 -0.00000000000E+00 -0.00000000000E+00 -0.55841912939E+03  0.55841912939E+03  0.00000000000E+00 0.  1.
         24    2    1    2    0    0  0.47325080308E+02  0.49815761992E+02 -0.44657670883E+03  0.45916115974E+03  0.81712547228E+02 0.  0.
         25    2    1    2    0    0  0.92472958116E+02 -0.33546447285E+03  0.62719742253E+03  0.72808755657E+03  0.12508885913E+03 0.  0.
        -24    2    1    2    0    0 -0.13979803842E+03  0.28564871086E+03  0.43361840674E+03  0.54382866292E+03  0.81154262863E+02 0.  0.
        -13    1    3    3    0    0  0.52972962151E+02  0.68064419384E+02 -0.39078590732E+03  0.40019061117E+03  0.00000000000E+00 0.  1.
         14    1    3    3    0    0 -0.56478818435E+01 -0.18248657392E+02 -0.55790801510E+02  0.58970548573E+02  0.00000000000E+00 0. -1.
         11    1    5    5    0    0 -0.13721310972E+02  0.26112116935E+02  0.97401820196E+01  0.31064258745E+02  0.00000000000E+00 0. -1.
        -12    1    5    5    0    0 -0.12607672745E+03  0.25953659392E+03  0.42387822472E+03  0.51276440417E+03  0.00000000000E+00 0.  1.
          5    1    4    4  501    0  0.64982159045E+02 -0.25595964141E+03  0.56403284585E+03  0.62280698665E+03  0.41800000000E+01 0.  1.
         -5    1    4    4    0  501  0.27490799071E+02 -0.79504831438E+02  0.63164576682E+02  0.10528056992E+03  0.41800000000E+01 0.  1.
</event>
<event>
11    1  0.8974665E-009  0.1929636E+03  0.7561462E-02  0.1059614E+00
         22   -1    0    0    0    0  0.00000000000E+00  0.00000000000E+00  0.91218777552E+03  0.91218777552E+03  0.00000000000E+00 0. -1.
         22   -1    0    0    0    0 -0.00000000000E+00 -0.00000000000E+00 -0.77573418841E+03  0.77573418841E+03  0.00000000000E+00 0.  1.
        -24    2    1    2    0    0 -0.68308617185E+00  0.69319226020E+02 -0.57386938430E+03  0.58381241120E+03  0.81885526932E+02 0.  0.
         25    2    1    2    0    0 -0.14537220964E+03 -0.50217937744E+02 -0.13656791559E+03  0.24073726011E+03  0.12509481296E+03 0.  0.
         24    2    1    2    0    0  0.14605529581E+03 -0.19101288276E+02  0.84689088701E+03  0.86337229262E+03  0.80563841285E+02 0.  0.
        -11    1    5    5    0    0  0.51690129437E+01  0.11750412306E+02  0.18483896947E+02  0.22504340259E+02  0.00000000000E+00 0.  1.
         12    1    5    5    0    0  0.14088628287E+03 -0.30851700582E+02  0.82840699006E+03  0.84086795237E+03  0.00000000000E+00 0. -1.
         11    1    3    3    0    0  0.27443425263E+02  0.87793670911E+01 -0.72456110035E+02  0.77975039327E+02  0.00000000000E+00 0. -1.
        -12    1    3    3    0    0 -0.28126511435E+02  0.60539858929E+02 -0.50141327427E+03  0.50583737187E+03  0.00000000000E+00 0.  1.
          5    1    4    4  501    0 -0.10144653835E+03 -0.68062528542E+02 -0.32776465520E+02  0.12655306012E+03  0.41800000000E+01 0.  1.
         -5    1    4    4    0  501 -0.43925671290E+02  0.17844590798E+02 -0.10379145007E+03  0.11418419999E+03  0.41800000000E+01 0.  1.
</event>
<event>
11    1  0.8974665E-009  0.1864599E+03  0.7561462E-02  0.1064534E+00
         22   -1    0    0    0    0  0.00000000000E+00  0.00000000000E+00  0.10670511457E+03  0.10670511457E+03  0.00000000000E+00 0. -1.
         22   -1    0    0    0    0 -0.00000000000E+00 -0.00000000000E+00 -0.14459494070E+04  0.14459494070E+04  0.00000000000E+00 0.  1.
         24    2    1    2    0    0 -0.10917320599E+03 -0.37597221373E+02 -0.62612981152E+03  0.64175624649E+03  0.80499683688E+02 0.  0.
         25    2    1    2    0    0  0.10214681582E+03  0.17225083195E+03 -0.71574202581E+03  0.75368344828E+03  0.12509105325E+03 0.  0.
        -24    2    1    2    0    0  0.70263901670E+01 -0.13465361058E+03  0.26275449287E+01  0.15721482678E+03  0.80799955238E+02 0.  0.
        -13    1    3    3    0    0 -0.63111785639E+02 -0.32869410600E+02 -0.53322514267E+03  0.53795218041E+03  0.00000000000E+00 0.  1.
         14    1    3    3    0    0 -0.46061420350E+02 -0.47278107728E+01 -0.92904668858E+02  0.10380406608E+03  0.00000000000E+00 0. -1.
         13    1    5    5    0    0  0.13128374234E+02 -0.10472472922E+03 -0.32718637639E+02  0.11049946773E+03  0.00000000000E+00 0. -1.
        -14    1    5    5    0    0 -0.61019840666E+01 -0.29928881361E+02  0.35346182568E+02  0.46715359050E+02  0.00000000000E+00 0.  1.
          5    1    4    4  501    0  0.15397059247E+02  0.10506764946E+03 -0.20104659914E+03  0.22740599777E+03  0.41800000000E+01 0.  1.
         -5    1    4    4    0  501  0.86749756574E+02  0.67183182493E+02 -0.51469542667E+03  0.52627745051E+03  0.41800000000E+01 0.  1.
</event>
<event>
11    1  0.8974665E-009  0.1579850E+03  0.7561462E-02  0.1088988E+00
         22   -1    0    0    0    0  0.00000000000E+00  0.00000000000E+00  0.64021972130E+03  0.64021972130E+03  0.00000000000E+00 0.  1.
         22   -1    0    0    0    0 -0.00000000000E+00 -0.00000000000E+00 -0.42209488525E+03  0.42209488525E+03  0.00000000000E+00 0. -1.
        -24    2    1    2    0    0  0.72198046652E+02 -0.45755303508E+02 -0.23801583355E+03  0.26460048177E+03  0.77818842127E+02 0.  0.
         25    2    1    2    0    0 -0.13376871051E+03  0.52023520556E+02 -0.11180627469E+03  0.22079680371E+03  0.12510024327E+03 0.  0.
         24    2    1    2    0    0  0.61570663857E+02 -0.62682170478E+01  0.56794694428E+03  0.57691732107E+03  0.80247284332E+02 0.  0.
        -11    1    5    5    0    0  0.77007020093E+02 -0.43827736928E+01  0.53444317529E+03  0.53998036766E+03  0.00000000000E+00 0.  1.
         12    1    5    5    0    0 -0.15436356236E+02 -0.18854433551E+01  0.33503768993E+02  0.36936953410E+02  0.00000000000E+00 0. -1.
         13    1    3    3    0    0  0.21154950555E+02 -0.52204555830E+02 -0.17147330098E+03  0.18048806202E+03  0.00000000000E+00 0. -1.
        -14    1    3    3    0    0  0.51043096097E+02  0.64492523213E+01 -0.66542532573E+02  0.84112419748E+02  0.00000000000E+00 0.  1.
          5    1    4    4  501    0 -0.39755491973E+02 -0.19075989220E+02 -0.90756047675E+02  0.10098774726E+03  0.41800000000E+01 0.  1.
         -5    1    4    4    0  501 -0.94013218536E+02  0.71099509777E+02 -0.21050227011E+02  0.11980905645E+03  0.41800000000E+01 0.  1.
</event>
<event>
11    1  0.8974665E-009  0.1341393E+03  0.7561462E-02  0.1114285E+00
         22   -1    0    0    0    0  0.00000000000E+00  0.00000000000E+00  0.88667287877E+02  0.88667287877E+02  0.00000000000E+00 0. -1.
         22   -1    0    0    0    0 -0.00000000000E+00 -0.00000000000E+00 -0.12392624552E+04  0.12392624552E+04  0.00000000000E+00 0. -1.
         24    2    1    2    0    0 -0.15645580985E+02  0.46838127855E+02 -0.87350721782E+03  0.87866825546E+03  0.81267762001E+02 0.  0.
         25    2    1    2    0    0 -0.53758580205E+01 -0.46993159604E+02 -0.32583639482E+03  0.35221415637E+03  0.12509276102E+03 0.  0.
        -24    2    1    2    0    0  0.21021439005E+02  0.15503174896E+00  0.48748445325E+02  0.97047331240E+02  0.81239452525E+02 0.  0.
        -11    1    3    3    0    0 -0.90781453673E+00 -0.22558018520E+02 -0.28684381293E+03  0.28773088354E+03  0.00000000000E+00 0.  1.
         12    1    3    3    0    0 -0.14737766448E+02  0.69396146375E+02 -0.58666340489E+03  0.59093737192E+03  0.00000000000E+00 0. -1.
         11    1    5    5    0    0  0.32797295200E+02 -0.26771203401E+02  0.52474367439E+02  0.67423431699E+02  0.00000000000E+00 0. -1.
        -12    1    5    5    0    0 -0.11775856195E+02  0.26926235150E+02 -0.37259221134E+01  0.29623899542E+02  0.00000000000E+00 0.  1.
          5    1    4    4  501    0  0.20245242808E+01 -0.79859360574E+02 -0.29727554205E+03  0.30785034752E+03  0.41800000000E+01 0.  1.
         -5    1    4    4    0  501 -0.74003823014E+01  0.32866200970E+02 -0.28560852771E+02  0.44363808847E+02  0.41800000000E+01 0.  1.
</event>
<event>
11    1  0.8974665E-009  0.1543664E+03  0.7561462E-02  0.1092499E+00
         22   -1    0    0    0    0  0.00000000000E+00  0.00000000000E+00  0.53131135258E+02  0.53131135258E+02  0.00000000000E+00 0. -1.
         22   -1    0    0    0    0 -0.00000000000E+00 -0.00000000000E+00 -0.18403503002E+04  0.18403503002E+04  0.00000000000E+00 0.  1.
         24    2    1    2    0    0  0.40240560608E+01 -0.25718851018E+02 -0.12457231213E+04  0.12485515240E+04  0.79857127323E+02 0.  0.
         25    2    1    2    0    0 -0.42187323416E+02  0.10338879475E+03 -0.48599352513E+03  0.51410724879E+03  0.12509014212E+03 0.  0.
        -24    2    1    2    0    0  0.38163267355E+02 -0.77669943735E+02 -0.55502518587E+02  0.13082266275E+03  0.80901077776E+02 0.  0.
        -13    1    3    3    0    0  0.43946379770E+00  0.21373822987E+02 -0.80893580674E+03  0.80921824798E+03  0.00000000000E+00 0.  1.
         14    1    3    3    0    0  0.35845922631E+01 -0.47092674004E+02 -0.43678731452E+03  0.43933327597E+03  0.00000000000E+00 0. -1.
         11    1    5    5    0    0  0.22402858013E+02 -0.92003961232E+02 -0.55013845803E+02  0.10951319628E+03  0.00000000000E+00 0. -1.
        -12    1    5    5    0    0  0.15760409342E+02  0.14334017497E+02 -0.48867278334E+00  0.21309466472E+02  0.00000000000E+00 0.  1.
          5    1    4    4  501    0 -0.80794751645E+02  0.78759474096E+02 -0.41019326613E+03  0.42544898006E+03  0.41800000000E+01 0.  1.
         -5    1    4    4    0  501  0.38607428230E+02  0.24629320656E+02 -0.75800258996E+02  0.88658268731E+02  0.41800000000E+01 0.  1.
</event>
<event>
11    1  0.8974665E-009  0.1318348E+03  0.7561462E-02  0.1117035E+00
         22   -1    0    0    0    0  0.00000000000E+00  0.00000000000E+00  0.70579164397E+03  0.70579164397E+03  0.00000000000E+00 0. -1.
         22   -1    0    0    0    0 -0.00000000000E+00 -0.00000000000E+00 -0.72649064177E+03  0.72649064177E+03  0.00000000000E+00 0. -1.
         24    2    1    2    0    0 -0.41011035440E+02  0.65927788220E+01 -0.48298340928E+03  0.49153449587E+03  0.81288481576E+02 0.  0.
         25    2    1    2    0    0  0.80101178403E+02  0.59211035385E+01 -0.21196098241E+03  0.25889320201E+03  0.12508786404E+03 0.  0.
        -24    2    1    2    0    0 -0.39090142963E+02 -0.12513882360E+02  0.67424539388E+03  0.68185458786E+03  0.92920349164E+02 0.  0.
        -13    1    3    3    0    0 -0.20111899311E+02 -0.33498972019E+01 -0.22093298855E+02  0.30063668429E+02  0.00000000000E+00 0.  1.
         14    1    3    3    0    0 -0.20899136129E+02  0.99426760240E+01 -0.46089011042E+03  0.46147082744E+03  0.00000000000E+00 0. -1.
         11    1    5    5    0    0 -0.10190053984E+02  0.61046872771E+01  0.59911004174E+03  0.59922779185E+03  0.00000000000E+00 0. -1.
        -12    1    5    5    0    0 -0.28900088978E+02 -0.18618569638E+02  0.75135352137E+02  0.82626796011E+02  0.00000000000E+00 0.  1.
          5    1    4    4  501    0 -0.19284472043E+02  0.19233984108E+02 -0.11881486087E+03  0.12196835889E+03  0.41800000000E+01 0. -1.
         -5    1    4    4    0  501  0.99385650446E+02 -0.13312880569E+02 -0.93146121544E+02  0.13692484312E+03  0.41800000000E+01 0. -1.
</event>
<event>
11    1  0.8974665E-009  0.1963872E+03  0.7561462E-02  0.1057108E+00
         22   -1    0    0    0    0  0.00000000000E+00  0.00000000000E+00  0.52377329153E+03  0.52377329153E+03  0.00000000000E+00 0. -1.
         22   -1    0    0    0    0 -0.00000000000E+00 -0.00000000000E+00 -0.17360845157E+04  0.17360845157E+04  0.00000000000E+00 0. -1.
         24    2    1    2    0    0 -0.15458009415E+03 -0.67019506695E+01 -0.15000795081E+04  0.15101832919E+04  0.80468147207E+02 0.  0.
         25    2    1    2    0    0  0.12827284413E+03 -0.18028264815E+01 -0.19187842373E+03  0.26253072375E+03  0.12509148131E+03 0.  0.
        -24    2    1    2    0    0  0.26307250021E+02  0.85047771509E+01  0.47964670769E+03  0.48714379159E+03  0.80521468225E+02 0.  0.
        -13    1    3    3    0    0 -0.67143940030E+02 -0.42992975626E+02 -0.68248907003E+03  0.68713028993E+03  0.00000000000E+00 0.  1.
         14    1    3    3    0    0 -0.87436154119E+02  0.36291024956E+02 -0.81759043809E+03  0.82305300193E+03  0.00000000000E+00 0. -1.
         11    1    5    5    0    0 -0.21293572938E+02  0.13834693240E+02  0.30477147190E+03  0.30582750868E+03  0.00000000000E+00 0. -1.
        -12    1    5    5    0    0  0.47600822959E+02 -0.53299160894E+01  0.17487523579E+03  0.18131628290E+03  0.00000000000E+00 0.  1.
          5    1    4    4  501    0  0.71991896782E+02  0.19266086101E+02 -0.15615958854E+02  0.76258414925E+02  0.41800000000E+01 0.  1.
         -5    1    4    4    0  501  0.56280947346E+02 -0.21068912583E+02 -0.17626246487E+03  0.18627230883E+03  0.41800000000E+01 0.  1.
</event>
<event>
11    1  0.8974665E-009  0.1979687E+03  0.7561462E-02  0.1055969E+00
         22   -1    0    0    0    0  0.00000000000E+00  0.00000000000E+00  0.11747367717E+04  0.11747367717E+04  0.00000000000E+00 0.  1.
         22   -1    0    0    0    0 -0.00000000000E+00 -0.00000000000E+00 -0.30049575159E+04  0.30049575159E+04  0.00000000000E+00 0. -1.
         24    2    1    2    0    0  0.78943503576E+01 -0.17717432956E+02 -0.20591014350E+04  0.20607953498E+04  0.81255929693E+02 0.  0.
         25    2    1    2    0    0 -0.15302169075E+03 -0.32063799310E+02 -0.92790135623E+03  0.94925893564E+03  0.12509146631E+03 0.  0.
        -24    2    1    2    0    0  0.14512734039E+03  0.49781232266E+02  0.11567820469E+04  0.11696400022E+04  0.79830537155E+02 0.  0.
        -13    1    3    3    0    0 -0.18828333027E+02  0.11227389159E+02 -0.18716088268E+03  0.18844032582E+03  0.00000000000E+00 0.  1.
         14    1    3    3    0    0  0.26722683385E+02 -0.28944822115E+02 -0.18719405523E+04  0.18723550240E+04  0.00000000000E+00 0. -1.
         13    1    5    5    0    0  0.72702128895E+02  0.66523374198E+02  0.64231937998E+03  0.64983470572E+03  0.00000000000E+00 0. -1.
        -14    1    5    5    0    0  0.72425211497E+02 -0.16742141932E+02  0.51446266693E+03  0.51980529647E+03  0.00000000000E+00 0.  1.
          5    1    4    4  501    0 -0.15119849062E+03 -0.58149968937E+02 -0.64207993099E+03  0.66221334374E+03  0.41800000000E+01 0.  1.
         -5    1    4    4    0  501 -0.18232001338E+01  0.26086169627E+02 -0.28582142524E+03  0.28704559190E+03  0.41800000000E+01 0.  1.
</event>
<event>
11    1  0.8974665E-009  0.1548189E+03  0.7561462E-02  0.1092054E+00
         22   -1    0    0    0    0  0.00000000000E+00  0.00000000000E+00  0.10179048401E+04  0.10179048401E+04  0.00000000000E+00 0. -1.
         22   -1    0    0    0    0 -0.00000000000E+00 -0.00000000000E+00 -0.26119131598E+03  0.26119131598E+03  0.00000000000E+00 0.  1.
         24    2    1    2    0    0 -0.77059985306E+02 -0.21099579007E+02 -0.18746593881E+03  0.21935321429E+03  0.81172167855E+02 0.  0.
         25    2    1    2    0    0  0.13636243197E+03 -0.44459239599E+02  0.11573300103E+03  0.22273906535E+03  0.12508887587E+03 0.  0.
        -24    2    1    2    0    0 -0.59302446664E+02  0.65558818606E+02  0.82844646185E+03  0.83700387640E+03  0.80232225922E+02 0.  0.
        -13    1    3    3    0    0 -0.38770140375E+02 -0.20242476769E+02 -0.17295119166E+03  0.17839561751E+03  0.00000000000E+00 0.  1.
         14    1    3    3    0    0 -0.38289844931E+02 -0.85710223835E+00 -0.14514747156E+02  0.40957596781E+02  0.00000000000E+00 0. -1.
         11    1    5    5    0    0 -0.62873374122E+02  0.23392362524E+02  0.65683854831E+03  0.66025536146E+03  0.00000000000E+00 0. -1.
        -12    1    5    5    0    0  0.35709274578E+01  0.42166456082E+02  0.17160791355E+03  0.17674851494E+03  0.00000000000E+00 0.  1.
          5    1    4    4  501    0  0.78549488201E+02 -0.62961129682E+02  0.10656021707E+02  0.10131707233E+03  0.41800000000E+01 0. -1.
         -5    1    4    4    0  501  0.57812943769E+02  0.18501890083E+02  0.10507697933E+03  0.12142199302E+03  0.41800000000E+01 0. -1.
</event>
<event>
11    1  0.8974665E-009  0.1571146E+03  0.7561462E-02  0.1089823E+00
         22   -1    0    0    0    0  0.00000000000E+00  0.00000000000E+00  0.85011197620E+02  0.85011197620E+02  0.00000000000E+00 0.  1.
         22   -1    0    0    0    0 -0.00000000000E+00 -0.00000000000E+00 -0.17502633197E+04  0.17502633197E+04  0.00000000000E+00 0. -1.
        -24    2    1    2    0    0 -0.47538746578E+02  0.63967262309E+02 -0.11671990619E+04  0.11725868977E+04  0.79086279492E+02 0.  0.
         25    2    1    2    0    0  0.13597922690E+03 -0.77145009367E+02 -0.50482198443E+03  0.54307938550E+03  0.12509308681E+03 0.  0.
         24    2    1    2    0    0 -0.88440480320E+02  0.13177747058E+02  0.67689242555E+01  0.11960823407E+03  0.79151372346E+02 0.  0.
        -11    1    5    5    0    0 -0.74784936853E+02 -0.22882182635E+02  0.16302094277E+02  0.79888292885E+02  0.00000000000E+00 0.  1.
         12    1    5    5    0    0 -0.13655543467E+02  0.36059929693E+02 -0.95331700218E+01  0.39719941182E+02  0.00000000000E+00 0. -1.
         13    1    3    3    0    0 -0.49505484306E+01  0.65279850490E+02 -0.54239394236E+03  0.54633062839E+03  0.00000000000E+00 0. -1.
        -14    1    3    3    0    0 -0.42588198148E+02 -0.13125881803E+01 -0.62480511949E+03  0.62625626931E+03  0.00000000000E+00 0.  1.
          5    1    4    4  501    0  0.72357334650E+01 -0.67798756063E+02 -0.21960453126E+03  0.22998402056E+03  0.41800000000E+01 0. -1.
         -5    1    4    4    0  501  0.12874349343E+03 -0.93462533035E+01 -0.28521745317E+03  0.31309536494E+03  0.41800000000E+01 0. -1.
</event>
<event>
11    1  0.8974665E-009  0.1873942E+03  0.7561462E-02  0.1063814E+00
         22   -1    0    0    0    0  0.00000000000E+00  0.00000000000E+00  0.38348553042E+03  0.38348553042E+03  0.00000000000E+00 0. -1.
         22   -1    0    0    0    0 -0.00000000000E+00 -0.00000000000E+00 -0.16818093926E+04  0.16818093926E+04  0.00000000000E+00 0.  1.
         24    2    1    2    0    0  0.20308924179E+02  0.13542963539E+03 -0.15372410619E+04  0.15454756815E+04  0.81433170292E+02 0.  0.
         25    2    1    2    0    0 -0.13937107453E+02 -0.21824131605E+03 -0.29121721586E+01  0.25194885210E+03  0.12508488451E+03 0.  0.
        -24    2    1    2    0    0 -0.63718167261E+01  0.82811680657E+02  0.24182937184E+03  0.26787038943E+03  0.79841880910E+02 0.  0.
        -13    1    3    3    0    0  0.21541253991E+02  0.89353590260E+02 -0.13299335055E+04  0.13331058543E+04  0.00000000000E+00 0.  1.
         14    1    3    3    0    0 -0.12323298120E+01  0.46076045134E+02 -0.20730755642E+03  0.21236982724E+03  0.00000000000E+00 0. -1.
         13    1    5    5    0    0 -0.77678287837E+01  0.28151216236E+02  0.19098680079E+03  0.19320659465E+03  0.00000000000E+00 0. -1.
        -14    1    5    5    0    0  0.13960120576E+01  0.54660464421E+02  0.50842571054E+02  0.74663794785E+02  0.00000000000E+00 0.  1.
          5    1    4    4  501    0  0.19443000686E+02 -0.17218963643E+03 -0.47309369075E+02  0.17967456685E+03  0.41800000000E+01 0. -1.
         -5    1    4    4    0  501 -0.33380108139E+02 -0.46051679623E+02  0.44397196916E+02  0.72274285257E+02  0.41800000000E+01 0. -1.
</event>
<event>
11    1  0.8974665E-009  0.1640689E+03  0.7561462E-02  0.1083312E+00
         22   -1    0    0    0    0  0.00000000000E+00  0.00000000000E+00  0.46375520283E+03  0.46375520283E+03  0.00000000000E+00 0. -1.
         22   -1    0    0    0    0 -0.00000000000E+00 -0.00000000000E+00 -0.11025758615E+04  0.11025758615E+04  0.00000000000E+00 0. -1.
        -24    2    1    2    0    0 -0.54980137339E+02  0.65482596937E+02 -0.42746469225E+03  0.44321859265E+03  0.80036689999E+02 0.  0.
         25    2    1    2    0    0  0.83203958883E+02 -0.11478497062E+03 -0.64826138118E+03  0.67526956426E+03  0.12509067845E+03 0.  0.
         24    2    1    2    0    0 -0.28223821544E+02  0.49302373681E+02  0.43690541474E+03  0.44784290744E+03  0.80309527221E+02 0.  0.
        -11    1    5    5    0    0 -0.29758945100E+02 -0.14616317372E+02  0.18517500319E+03  0.18811967827E+03  0.00000000000E+00 0.  1.
         12    1    5    5    0    0  0.15351235557E+01  0.63918691053E+02  0.25173041155E+03  0.25972322917E+03  0.00000000000E+00 0. -1.
         11    1    3    3    0    0 -0.70624707077E+02  0.27090256567E+02 -0.27233885429E+03  0.28264851460E+03  0.00000000000E+00 0. -1.
        -12    1    3    3    0    0  0.15644569738E+02  0.38392340369E+02 -0.15512583797E+03  0.16057007805E+03  0.00000000000E+00 0.  1.
          5    1    4    4  501    0  0.44968327393E+02 -0.10994853860E+03 -0.26973277174E+03  0.29476104247E+03  0.41800000000E+01 0. -1.
         -5    1    4    4    0  501  0.38235631490E+02 -0.48364320199E+01 -0.37852860944E+03  0.38050852179E+03  0.41800000000E+01 0. -1.
</event>
<event>
11    1  0.8974665E-009  0.1493722E+03  0.7561462E-02  0.1097522E+00
         22   -1    0    0    0    0  0.00000000000E+00  0.00000000000E+00  0.16386586211E+04  0.16386586211E+04  0.00000000000E+00 0.  1.
         22   -1    0    0    0    0 -0.00000000000E+00 -0.00000000000E+00 -0.82302049300E+03  0.82302049300E+03  0.00000000000E+00 0. -1.
         24    2    1    2    0    0 -0.57076574720E+02  0.56280056843E+02 -0.76395641753E+03  0.77280720309E+03  0.84713547224E+02 0.  0.
         25    2    1    2    0    0  0.10204178942E+03 -0.89541671801E+02  0.10776441461E+03  0.21375269164E+03  0.12508719500E+03 0.  0.
        -24    2    1    2    0    0 -0.44965214697E+02  0.33261614958E+02  0.14718301311E+04  0.14751192194E+04  0.81022041330E+02 0.  0.
        -11    1    3    3    0    0 -0.31507374117E+02 -0.79641548751E+01 -0.97501566392E+02  0.10277498643E+03  0.00000000000E+00 0.  1.
         12    1    3    3    0    0 -0.25569200603E+02  0.64244211718E+02 -0.66645485114E+03  0.67003221666E+03  0.00000000000E+00 0. -1.
         13    1    5    5    0    0  0.32616572945E+01  0.29105397678E+02  0.17875457916E+03  0.18113796442E+03  0.00000000000E+00 0. -1.
        -14    1    5    5    0    0 -0.48226871991E+02  0.41562172801E+01  0.12930755519E+04  0.12939812550E+04  0.00000000000E+00 0.  1.
          5    1    4    4  501    0  0.38349361275E+02 -0.96219766674E+02  0.10782503970E+03  0.14957482607E+03  0.41800000000E+01 0.  1.
         -5    1    4    4    0  501  0.63692428142E+02  0.66780948724E+01 -0.60625091948E-01  0.64177865570E+02  0.41800000000E+01 0.  1.
</event>
<event>
11    1  0.8974665E-009  0.1602934E+03  0.7561462E-02  0.1086802E+00
         22   -1    0    0    0    0  0.00000000000E+00  0.00000000000E+00  0.64293487071E+02  0.64293487071E+02  0.00000000000E+00 0.  1.
         22   -1    0    0    0    0 -0.00000000000E+00 -0.00000000000E+00 -0.33651958689E+04  0.33651958689E+04  0.00000000000E+00 0.  1.
        -24    2    1    2    0    0 -0.10513449131E+03 -0.65361643324E+02 -0.20719433920E+04  0.20772541047E+04  0.81913307953E+02 0.  0.
         25    2    1    2    0    0  0.33966569560E+02  0.61108644965E+02 -0.12319325660E+04  0.12402395317E+04  0.12509298288E+03 0.  0.
         24    2    1    2    0    0  0.71167921750E+02  0.42529983587E+01  0.29735761460E+01  0.11199571968E+03  0.86320553693E+02 0.  0.
        -13    1    5    5    0    0  0.45279059864E+02 -0.22570734606E+02  0.36078365295E+02  0.62139196689E+02  0.00000000000E+00 0.  1.
         14    1    5    5    0    0  0.25888861885E+02  0.26823732965E+02 -0.33104789149E+02  0.49856522988E+02  0.00000000000E+00 0. -1.
         11    1    3    3    0    0 -0.34768778551E+01 -0.30805790192E+02 -0.21669740850E+03  0.21890375109E+03  0.00000000000E+00 0. -1.
        -12    1    3    3    0    0 -0.10165761345E+03 -0.34555853132E+02 -0.18552459835E+04  0.18583503536E+04  0.00000000000E+00 0.  1.
          5    1    4    4  501    0 -0.34333128372E+02  0.12075164797E+02 -0.75827376063E+03  0.75915817968E+03  0.41800000000E+01 0. -1.
         -5    1    4    4    0  501  0.68299697932E+02  0.49033480168E+02 -0.47365880537E+03  0.48108135197E+03  0.41800000000E+01 0. -1.
</event>
<event>
11    1  0.8974665E-009  0.1647673E+03  0.7561462E-02  0.1082677E+00
         22   -1    0    0    0    0  0.00000000000E+00  0.00000000000E+00  0.88332492322E+02  0.88332492322E+02  0.00000000000E+00 0.  1.
         22   -1    0    0    0    0 -0.00000000000E+00 -0.00000000000E+00 -0.17256319735E+04  0.17256319735E+04  0.00000000000E+00 0.  1.
        -24    2    1    2    0    0 -0.84844422282E+02  0.23705143168E+02 -0.69571783812E+03  0.70580541956E+03  0.79859064597E+02 0.  0.
         25    2    1    2    0    0  0.11846920143E+03 -0.92058717765E+02 -0.97434725404E+03  0.99373466082E+03  0.12508495295E+03 0.  0.
         24    2    1    2    0    0 -0.33624779149E+02  0.68353574597E+02  0.32765610950E+02  0.11442438547E+03  0.78844897090E+02 0.  0.
        -13    1    5    5    0    0 -0.32770585108E+02  0.85472025937E+02  0.32935660652E+02  0.97283792117E+02  0.00000000000E+00 0.  1.
         14    1    5    5    0    0 -0.85419404108E+00 -0.17118451340E+02 -0.17004970184E+00  0.17140593357E+02  0.00000000000E+00 0. -1.
         11    1    3    3    0    0 -0.17749551643E+02 -0.93485598709E+01 -0.31208689261E+02  0.37100194616E+02  0.00000000000E+00 0. -1.
        -12    1    3    3    0    0 -0.67094870639E+02  0.33053703039E+02 -0.66450914886E+03  0.66870522494E+03  0.00000000000E+00 0.  1.
          5    1    4    4  501    0 -0.19779516444E+02  0.58047013193E+01 -0.54594156114E+02  0.58505710063E+02  0.41800000000E+01 0. -1.
         -5    1    4    4    0  501  0.13824871787E+03 -0.97863419084E+02 -0.91975309793E+03  0.93522895076E+03  0.41800000000E+01 0. -1.
</event>
<event>
11    1  0.8974665E-009  0.1833334E+03  0.7561462E-02  0.1066978E+00
         22   -1    0    0    0    0  0.00000000000E+00  0.00000000000E+00  0.13425771229E+04  0.13425771229E+04  0.00000000000E+00 0. -1.
         22   -1    0    0    0    0 -0.00000000000E+00 -0.00000000000E+00 -0.47606086540E+02  0.47606086540E+02  0.00000000000E+00 0. -1.
         24    2    1    2    0    0 -0.13580909151E+03  0.79528277965E+02  0.23125331017E+03  0.29184065521E+03  0.83210685809E+02 0.  0.
         25    2    1    2    0    0  0.61737891177E+02 -0.69476116539E+02  0.48703731969E+03  0.51136324693E+03  0.12509405085E+03 0.  0.
        -24    2    1    2    0    0  0.74071200336E+02 -0.10052161426E+02  0.57668040647E+03  0.58697930728E+03  0.79980168165E+02 0.  0.
        -11    1    3    3    0    0 -0.49007410588E+02 -0.12622860034E+02  0.53828823264E+02  0.73882373418E+02  0.00000000000E+00 0.  1.
         12    1    3    3    0    0 -0.86801680926E+02  0.92151137999E+02  0.17742448691E+03  0.21795828179E+03  0.00000000000E+00 0. -1.
         11    1    5    5    0    0  0.38483009115E+02  0.34908439343E+02  0.25759653489E+03  0.26278416223E+03  0.00000000000E+00 0. -1.
        -12    1    5    5    0    0  0.35588191222E+02 -0.44960600769E+02  0.31908387158E+03  0.32419514505E+03  0.00000000000E+00 0.  1.
          5    1    4    4  501    0 -0.10339207036E+01  0.27184170960E+02  0.20217904681E+03  0.20404383723E+03  0.41800000000E+01 0.  1.
         -5    1    4    4    0  501  0.62771811881E+02 -0.96660287499E+02  0.28485827289E+03  0.30731940970E+03  0.41800000000E+01 0.  1.
</event>
<event>
11    1  0.8974665E-009  0.1702095E+03  0.7561462E-02  0.1077850E+00
         22   -1    0    0    0    0  0.00000000000E+00  0.00000000000E+00  0.66682750142E+03  0.66682750142E+03  0.00000000000E+00 0. -1.
         22   -1    0    0    0    0 -0.00000000000E+00 -0.00000000000E+00 -0.20712129182E+03  0.20712129182E+03  0.00000000000E+00 0.  1.
         24    2    1    2    0    0  0.44259727123E+02  0.73792886855E+01 -0.11606186122E+03  0.14797857700E+03  0.80086991920E+02 0.  0.
         25    2    1    2    0    0 -0.15339611927E+03 -0.19942736780E+02  0.84676626210E+02  0.21620790938E+03  0.12509055478E+03 0.  0.
        -24    2    1    2    0    0  0.10913639215E+03  0.12563448094E+02  0.49109144461E+03  0.50976230686E+03  0.81352382951E+02 0.  0.
        -13    1    3    3    0    0  0.71709453108E+01 -0.17196754255E+02 -0.98335575730E+02  0.10008514509E+03  0.00000000000E+00 0.  1.
         14    1    3    3    0    0  0.37088781813E+02  0.24576042940E+02 -0.17726285491E+02  0.47893431911E+02  0.00000000000E+00 0. -1.
         13    1    5    5    0    0  0.80692115483E+02 -0.92592429700E+01  0.19121156354E+03  0.20774699303E+03  0.00000000000E+00 0. -1.
        -14    1    5    5    0    0  0.28444276663E+02  0.21822691064E+02  0.29987988107E+03  0.30201531383E+03  0.00000000000E+00 0.  1.
          5    1    4    4  501    0 -0.16244383687E+03  0.13513482744E+02  0.61328406486E+02  0.17421039061E+03  0.41800000000E+01 0.  1.
         -5    1    4    4    0  501  0.90477176046E+01 -0.33456219524E+02  0.23348219724E+02  0.41997518772E+02  0.41800000000E+01 0.  1.
</event>
<event>
11    1  0.8974665E-009  0.2167183E+03  0.7561462E-02  0.1043293E+00
         22   -1    0    0    0    0  0.00000000000E+00  0.00000000000E+00  0.63265274945E+03  0.63265274945E+03  0.00000000000E+00 0. -1.
         22   -1    0    0    0    0 -0.00000000000E+00 -0.00000000000E+00 -0.82345027324E+03  0.82345027324E+03  0.00000000000E+00 0. -1.
         24    2    1    2    0    0 -0.36802935086E+02 -0.39749617607E+02 -0.63186192454E+03  0.64003623097E+03  0.86385167379E+02 0.  0.
         25    2    1    2    0    0  0.89990620864E+02 -0.13188561360E+03 -0.10711802276E+03  0.22937705829E+03  0.12508971640E+03 0.  0.
        -24    2    1    2    0    0 -0.53187685777E+02  0.17163523121E+03  0.54818242351E+03  0.58668973343E+03  0.10683300685E+03 0.  0.
        -11    1    3    3    0    0 -0.40364562545E+02  0.44304174361E+00 -0.12043486320E+03  0.12701988218E+03  0.00000000000E+00 0.  1.
         12    1    3    3    0    0  0.35616274585E+01 -0.40192659351E+02 -0.51142706134E+03  0.51301634879E+03  0.00000000000E+00 0. -1.
         13    1    5    5    0    0 -0.49182277828E+02  0.11810076094E+03  0.49445945781E+03  0.51074146259E+03  0.00000000000E+00 0. -1.
        -14    1    5    5    0    0 -0.40054079498E+01  0.53534470271E+02  0.53722965699E+02  0.75948270840E+02  0.00000000000E+00 0.  1.
          5    1    4    4  501    0 -0.17351030270E+02 -0.82105404234E+02 -0.37322241784E+02  0.91938989486E+02  0.41800000000E+01 0. -1.
         -5    1    4    4    0  501  0.10734165113E+03 -0.49780209367E+02 -0.69795780980E+02  0.13743806880E+03  0.41800000000E+01 0. -1.
</event>
<event>
11    1  0.8974665E-009  0.1292335E+03  0.7561462E-02  0.1120214E+00
         22   -1    0    0    0    0  0.00000000000E+00  0.00000000000E+00  0.88839130171E+03  0.88839130171E+03  0.00000000000E+00 0.  1.
         22   -1    0    0    0    0 -0.00000000000E+00 -0.00000000000E+00 -0.64857262802E+03  0.64857262802E+03  0.00000000000E+00 0.  1.
        -24    2    1    2    0    0 -0.14896310170E+02 -0.25314731628E+02 -0.61979369254E+03  0.62566337280E+03  0.80297565760E+02 0.  0.
         25    2    1    2    0    0 -0.17734156696E+02  0.32366575147E+02  0.16152358128E+03  0.20759442013E+03  0.12507390000E+03 0.  0.
         24    2    1    2    0    0  0.32630466866E+02 -0.70518435182E+01  0.69808878495E+03  0.70370613679E+03  0.82218607481E+02 0.  0.
        -11    1    5    5    0    0  0.36573153726E+02  0.32308424639E+02  0.35287067329E+03  0.35622905825E+03  0.00000000000E+00 0.  1.
         12    1    5    5    0    0 -0.39426868600E+01 -0.39360268157E+02  0.34521811166E+03  0.34747707854E+03  0.00000000000E+00 0. -1.
         11    1    3    3    0    0 -0.28150284776E+02  0.61662501430E+01 -0.84458200669E+02  0.89239278539E+02  0.00000000000E+00 0. -1.
        -12    1    3    3    0    0  0.13253974606E+02 -0.31480981771E+02 -0.53533549187E+03  0.53642409427E+03  0.00000000000E+00 0.  1.
          5    1    4    4  501    0 -0.22177111380E+02  0.73806921069E+02  0.59965735797E+02  0.97737647489E+02  0.41800000000E+01 0.  1.
         -5    1    4    4    0  501  0.44429546839E+01 -0.41440345923E+02  0.10155784549E+03  0.10985677265E+03  0.41800000000E+01 0.  1.
</event>
<event>
11    1  0.8974665E-009  0.1645394E+03  0.7561462E-02  0.1082884E+00
         22   -1    0    0    0    0  0.00000000000E+00  0.00000000000E+00  0.29695032688E+03  0.29695032688E+03  0.00000000000E+00 0.  1.
         22   -1    0    0    0    0 -0.00000000000E+00 -0.00000000000E+00 -0.27041737869E+03  0.27041737869E+03  0.00000000000E+00 0.  1.
         24    2    1    2    0    0 -0.10151279884E+03 -0.40107043083E+02 -0.16891583991E+03  0.21679808169E+03  0.80965573055E+02 0.  0.
         25    2    1    2    0    0  0.10547141567E+03 -0.77374070064E+01  0.39262997304E+02  0.16844286047E+03  0.12508927730E+03 0.  0.
        -24    2    1    2    0    0 -0.39586168251E+01  0.47844450089E+02  0.15618579079E+03  0.18212676340E+03  0.80444979024E+02 0.  0.
        -11    1    3    3    0    0 -0.75128353162E+02  0.12788242148E+01 -0.14241059463E+03  0.16101764594E+03  0.00000000000E+00 0.  1.
         12    1    3    3    0    0 -0.26384445680E+02 -0.41385867297E+02 -0.26505245278E+02  0.55780435756E+02  0.00000000000E+00 0. -1.
         11    1    5    5    0    0  0.29206196975E+02  0.67304000459E+01  0.19937867635E+02  0.35997483139E+02  0.00000000000E+00 0. -1.
        -12    1    5    5    0    0 -0.33164813800E+02  0.41114050043E+02  0.13624792316E+03  0.14612928026E+03  0.00000000000E+00 0.  1.
          5    1    4    4  501    0 -0.18789752248E+02  0.17401970095E+02  0.32261254185E+02  0.41402225475E+02  0.41800000000E+01 0. -1.
         -5    1    4    4    0  501  0.12426116792E+03 -0.25139377101E+02  0.70017431193E+01  0.12704063499E+03  0.41800000000E+01 0. -1.
</event>
<event>
11    1  0.8974665E-009  0.1308184E+03  0.7561462E-02  0.1118267E+00
         22   -1    0    0    0    0  0.00000000000E+00  0.00000000000E+00  0.29783625947E+03  0.29783625947E+03  0.00000000000E+00 0.  1.
         22   -1    0    0    0    0 -0.00000000000E+00 -0.00000000000E+00 -0.44189062591E+03  0.44189062591E+03  0.00000000000E+00 0. -1.
         24    2    1    2    0    0 -0.55517393888E+01 -0.15819391461E+02 -0.36267400115E+03  0.37057643145E+03  0.74252174905E+02 0.  0.
         25    2    1    2    0    0 -0.31825737657E+02  0.31788087310E+01 -0.39089175111E+01  0.12917258831E+03  0.12508915034E+03 0.  0.
        -24    2    1    2    0    0  0.37377477045E+02  0.12640582729E+02  0.22252855223E+03  0.23997786562E+03  0.80706624932E+02 0.  0.
        -13    1    3    3    0    0  0.25728197075E+02 -0.15342600528E+02 -0.68754580129E+02  0.74996851963E+02  0.00000000000E+00 0.  1.
         14    1    3    3    0    0 -0.31279936464E+02 -0.47679093222E+00 -0.29391942103E+03  0.29557957949E+03  0.00000000000E+00 0. -1.
         13    1    5    5    0    0  0.57003258299E+02  0.10941732492E+01  0.97944516123E+02  0.11333003534E+03  0.00000000000E+00 0. -1.
        -14    1    5    5    0    0 -0.19625781254E+02  0.11546409480E+02  0.12458403611E+03  0.12664783028E+03  0.00000000000E+00 0.  1.
          5    1    4    4  501    0 -0.47930469226E+02 -0.50271274683E+02  0.12800601322E+02  0.70752093486E+02  0.41800000000E+01 0. -1.
         -5    1    4    4    0  501  0.16104731569E+02  0.53450083414E+02 -0.16709518833E+02  0.58420494824E+02  0.41800000000E+01 0. -1.
</event>
<event>
11    1  0.8974665E-009  0.1371274E+03  0.7561462E-02  0.1110809E+00
         22   -1    0    0    0    0  0.00000000000E+00  0.00000000000E+00  0.31758518771E+03  0.31758518771E+03  0.00000000000E+00 0.  1.
         22   -1    0    0    0    0 -0.00000000000E+00 -0.00000000000E+00 -0.16256443044E+04  0.16256443044E+04  0.00000000000E+00 0. -1.
        -24    2    1    2    0    0 -0.52170655495E+02 -0.49874661376E+02 -0.99566376831E+03  0.10014668350E+04  0.79876297617E+02 0.  0.
         25    2    1    2    0    0  0.18578521786E+02  0.99870780615E+01 -0.61333340309E+03  0.62631452259E+03  0.12508842737E+03 0.  0.
         24    2    1    2    0    0  0.33592133709E+02  0.39887583315E+02  0.30093805467E+03  0.31544813457E+03  0.78894626594E+02 0.  0.
        -11    1    5    5    0    0  0.50209227575E+02  0.13712871500E+02  0.25342259105E+03  0.25871223209E+03  0.00000000000E+00 0.  1.
         12    1    5    5    0    0 -0.16617093866E+02  0.26174711815E+02  0.47515463616E+02  0.56735902476E+02  0.00000000000E+00 0. -1.
         13    1    3    3    0    0 -0.18545777866E+02 -0.15601784774E+02 -0.78609034910E+03  0.78646385710E+03  0.00000000000E+00 0. -1.
        -14    1    3    3    0    0 -0.33624877629E+02 -0.34272876602E+02 -0.20957341921E+03  0.21500297790E+03  0.00000000000E+00 0.  1.
          5    1    4    4  501    0  0.60835865936E+02  0.41153431673E+02 -0.38728450813E+03  0.39420980475E+03  0.41800000000E+01 0.  1.
         -5    1    4    4    0  501 -0.42257344149E+02 -0.31166353612E+02 -0.22604889496E+03  0.23210471784E+03  0.41800000000E+01 0.  1.
</event>
<event>
11    1  0.8974665E-009  0.1812450E+03  0.7561462E-02  0.1068640E+00
         22   -1    0    0    0    0  0.00000000000E+00  0.00000000000E+00  0.51917524720E+03  0.51917524720E+03  0.00000000000E+00 0.  1.
         22   -1    0    0    0    0 -0.00000000000E+00 -0.00000000000E+00 -0.21537715902E+03  0.21537715902E+03  0.00000000000E+00 0.  1.
        -24    2    1    2    0    0  0.11556127386E+03 -0.91573815628E+02 -0.10479724689E+03  0.19806031999E+03  0.80655165215E+02 0.  0.
         25    2    1    2    0    0 -0.10135742019E+03  0.11800833253E+02  0.62974964615E+02  0.17328102289E+03  0.12509148825E+03 0.  0.
         24    2    1    2    0    0 -0.14203853669E+02  0.79772982375E+02  0.34562037045E+03  0.36321106334E+03  0.76833312336E+02 0.  0.
        -13    1    5    5    0    0  0.19929415496E+02  0.45136164729E+01  0.14196483592E+03  0.14342792257E+03  0.00000000000E+00 0.  1.
         14    1    5    5    0    0 -0.34133269165E+02  0.75259365902E+02  0.20365553454E+03  0.21978314077E+03  0.00000000000E+00 0. -1.
         11    1    3    3    0    0  0.26760805037E+02 -0.29503381989E+02  0.91054792217E+01  0.40859515255E+02  0.00000000000E+00 0. -1.
        -12    1    3    3    0    0  0.88800468819E+02 -0.62070433639E+02 -0.11390272611E+03  0.15720080473E+03  0.00000000000E+00 0.  1.
          5    1    4    4  501    0 -0.61676097864E+01 -0.47182994309E+02  0.30246653749E+02  0.56538542831E+02  0.41800000000E+01 0. -1.
         -5    1    4    4    0  501 -0.95189810400E+02  0.58983827562E+02  0.32728310866E+02  0.11674248006E+03  0.41800000000E+01 0. -1.
</event>
<event>
11    1  0.8974665E-009  0.1521874E+03  0.7561462E-02  0.1094664E+00
         22   -1    0    0    0    0  0.00000000000E+00  0.00000000000E+00  0.20285694983E+04  0.20285694983E+04  0.00000000000E+00 0. -1.
         22   -1    0    0    0    0 -0.00000000000E+00 -0.00000000000E+00 -0.31832682621E+03  0.31832682621E+03  0.00000000000E+00 0.  1.
        -24    2    1    2    0    0 -0.54358136162E+02 -0.20465182905E+02 -0.28930706387E+03  0.30589295141E+03  0.80611970799E+02 0.  0.
         25    2    1    2    0    0  0.10717180424E+03 -0.45737461944E+02  0.37357828066E+03  0.41083558415E+03  0.12508970531E+03 0.  0.
         24    2    1    2    0    0 -0.52813668076E+02  0.66202644848E+02  0.16259714553E+04  0.16301677890E+04  0.80571539391E+02 0.  0.
        -11    1    5    5    0    0 -0.91342235321E+01  0.76536136331E+01  0.26813788324E+02  0.29342649598E+02  0.00000000000E+00 0.  1.
         12    1    5    5    0    0 -0.43679444544E+02  0.58549031215E+02  0.15991576670E+04  0.16008251394E+04  0.00000000000E+00 0. -1.
         11    1    3    3    0    0  0.19024374703E+01 -0.35971748580E+02 -0.67186081368E+02  0.76233558843E+02  0.00000000000E+00 0. -1.
        -12    1    3    3    0    0 -0.56260573632E+02  0.15506565676E+02 -0.22212098250E+03  0.22965939256E+03  0.00000000000E+00 0.  1.
          5    1    4    4  501    0  0.80505221325E+02 -0.17153179043E+01  0.83047514966E+02  0.11575143679E+03  0.41800000000E+01 0. -1.
         -5    1    4    4    0  501  0.26666582914E+02 -0.44022144039E+02  0.29053076570E+03  0.29508414737E+03  0.41800000000E+01 0. -1.
</event>
<event>
11    1  0.8974665E-009  0.1535988E+03  0.7561462E-02  0.1093257E+00
         22   -1    0    0    0    0  0.00000000000E+00  0.00000000000E+00  0.27410461771E+03  0.27410461771E+03  0.00000000000E+00 0.  1.
         22   -1    0    0    0    0 -0.00000000000E+00 -0.00000000000E+00 -0.13906742219E+04  0.13906742219E+04  0.00000000000E+00 0. -1.
        -24    2    1    2    0    0 -0.40698969370E+02  0.23275633487E+02 -0.13140525342E+04  0.13173577123E+04  0.80617108290E+02 0.  0.
         25    2    1    2    0    0  0.59809490530E+02 -0.98941917221E+02  0.91491372927E+02  0.19335233567E+03  0.12509107182E+03 0.  0.
         24    2    1    2    0    0 -0.19110521160E+02  0.75666283734E+02  0.10599155708E+03  0.15406879170E+03  0.80077361925E+02 0.  0.
        -11    1    5    5    0    0 -0.37859626881E+02  0.56670105069E+02  0.31770492449E+02  0.75194523382E+02  0.00000000000E+00 0.  1.
         12    1    5    5    0    0  0.18749105721E+02  0.18996178665E+02  0.74221064626E+02  0.78874268323E+02  0.00000000000E+00 0. -1.
         11    1    3    3    0    0 -0.52402138400E+02  0.12544658635E+02 -0.12565060216E+04  0.12576608187E+04  0.00000000000E+00 0. -1.
        -12    1    3    3    0    0  0.11703169030E+02  0.10730974852E+02 -0.57546512580E+02  0.59696893527E+02  0.00000000000E+00 0.  1.
          5    1    4    4  501    0 -0.16908775230E+02 -0.85900527265E+02  0.70932734465E+02  0.11275518827E+03  0.41800000000E+01 0. -1.
         -5    1    4    4    0  501  0.76718265760E+02 -0.13041389956E+02  0.20558638462E+02  0.80597147397E+02  0.41800000000E+01 0. -1.
</event>
<event>
11    1  0.8974665E-009  0.1471227E+03  0.7561462E-02  0.1099856E+00
         22   -1    0    0    0    0  0.00000000000E+00  0.00000000000E+00  0.30017047336E+03  0.30017047336E+03  0.00000000000E+00 0.  1.
         22   -1    0    0    0    0 -0.00000000000E+00 -0.00000000000E+00 -0.10124909056E+04  0.10124909056E+04  0.00000000000E+00 0. -1.
        -24    2    1    2    0    0  0.19536812434E+02  0.25243679969E+02 -0.90449688328E+03  0.90980521631E+03  0.92800804672E+02 0.  0.
         25    2    1    2    0    0 -0.55747438393E+02  0.45100232154E+02 -0.34800598158E+02  0.14832564585E+03  0.12509039834E+03 0.  0.
         24    2    1    2    0    0  0.36210625959E+02 -0.70343912123E+02  0.22697704922E+03  0.25453051678E+03  0.83712171741E+02 0.  0.
        -13    1    5    5    0    0  0.34814515716E+02 -0.65361097183E+02  0.23420899700E+03  0.24563789977E+03  0.00000000000E+00 0.  1.
         14    1    5    5    0    0  0.13961102433E+01 -0.49828149402E+01 -0.72319477832E+01  0.88926170095E+01  0.00000000000E+00 0. -1.
         13    1    3    3    0    0  0.89866537046E+01  0.60459121340E+02 -0.53266390366E+03  0.53615939753E+03  0.00000000000E+00 0. -1.
        -14    1    3    3    0    0  0.10550158729E+02 -0.35215441371E+02 -0.37183297962E+03  0.37364581878E+03  0.00000000000E+00 0.  1.
          5    1    4    4  501    0  0.23013058061E+02  0.31807440732E+02  0.26502165916E+02  0.47551564911E+02  0.41800000000E+01 0.  1.
         -5    1    4    4    0  501 -0.78760496454E+02  0.13292791422E+02 -0.61302764074E+02  0.10077408094E+03  0.41800000000E+01 0.  1.
</event>
<event>
11    1  0.8974665E-009  0.1669636E+03  0.7561462E-02  0.1080705E+00
         22   -1    0    0    0    0  0.00000000000E+00  0.00000000000E+00  0.18181907929E+04  0.18181907929E+04  0.00000000000E+00 0. -1.
         22   -1    0    0    0    0 -0.00000000000E+00 -0.00000000000E+00 -0.16662470772E+04  0.16662470772E+04  0.00000000000E+00 0.  1.
         24    2    1    2    0    0 -0.61858218894E+02 -0.63938136964E+01 -0.15205121601E+04  0.15237958010E+04  0.78288529950E+02 0.  0.
         25    2    1    2    0    0  0.41792763647E+02  0.11522862430E+03 -0.87154928460E+02  0.19562354285E+03  0.12509323728E+03 0.  0.
        -24    2    1    2    0    0  0.20065455247E+02 -0.10883481060E+03  0.17596108043E+04  0.17650185262E+04  0.82538336306E+02 0.  0.
        -13    1    3    3    0    0 -0.41051206755E+01  0.22293195512E+02 -0.82222675322E+03  0.82253916156E+03  0.00000000000E+00 0.  1.
         14    1    3    3    0    0 -0.57753098218E+02 -0.28687009208E+02 -0.69828540687E+03  0.70125663940E+03  0.00000000000E+00 0. -1.
         11    1    5    5    0    0  0.17421823437E+02 -0.10897015847E+03  0.11244324303E+04  0.11298346364E+04  0.00000000000E+00 0. -1.
        -12    1    5    5    0    0  0.26436318103E+01  0.13534787325E+00  0.63517837399E+03  0.63518388982E+03  0.00000000000E+00 0.  1.
          5    1    4    4  501    0  0.79758393199E+02  0.10758927432E+03 -0.79883760493E+02  0.15599916931E+03  0.41800000000E+01 0.  1.
         -5    1    4    4    0  501 -0.37965629552E+02  0.76393499784E+01 -0.72711679671E+01  0.39624373547E+02  0.41800000000E+01 0.  1.
</event>
<event>
11    1  0.8974665E-009  0.1546177E+03  0.7561462E-02  0.1092252E+00
         22   -1    0    0    0    0  0.00000000000E+00  0.00000000000E+00  0.91038026036E+03  0.91038026036E+03  0.00000000000E+00 0.  1.
         22   -1    0    0    0    0 -0.00000000000E+00 -0.00000000000E+00 -0.49905630755E+03  0.49905630755E+03  0.00000000000E+00 0.  1.
         24    2    1    2    0    0 -0.77934406702E+02  0.43613967455E+02 -0.40805174124E+03  0.42514171205E+03  0.79141025360E+02 0.  0.
         25    2    1    2    0    0  0.85861489746E+02 -0.64288337010E+02  0.41461444433E+01  0.16483260106E+03  0.12508960853E+03 0.  0.
        -24    2    1    2    0    0 -0.79270830441E+01  0.20674369555E+02  0.81522954961E+03  0.81946225479E+03  0.80180423213E+02 0.  0.
        -13    1    3    3    0    0 -0.74315441743E+02  0.13542331789E+02 -0.18176243399E+03  0.19683435179E+03  0.00000000000E+00 0.  1.
         14    1    3    3    0    0 -0.36189649590E+01  0.30071635667E+02 -0.22628930725E+03  0.22830736027E+03  0.00000000000E+00 0. -1.
         13    1    5    5    0    0 -0.18944732288E+01  0.54093873963E+01  0.20050489376E+01  0.60721266505E+01  0.00000000000E+00 0. -1.
        -14    1    5    5    0    0 -0.60326098153E+01  0.15264982159E+02  0.81322450067E+03  0.81339012814E+03  0.00000000000E+00 0.  1.
          5    1    4    4  501    0  0.79346455923E+01  0.13447128927E+02  0.44639713430E+02  0.47475891695E+02  0.41800000000E+01 0.  1.
         -5    1    4    4    0  501  0.77926844154E+02 -0.77735465937E+02 -0.40493568987E+02  0.11735670937E+03  0.41800000000E+01 0.  1.
</event>
<event>
11    1  0.8974665E-009  0.1432399E+03  0.7561462E-02  0.1103994E+00
         22   -1    0    0    0    0  0.00000000000E+00  0.00000000000E+00  0.17439671160E+04  0.17439671160E+04  0.00000000000E+00 0.  1.
         22   -1    0    0    0    0 -0.00000000000E+00 -0.00000000000E+00 -0.20122080513E+04  0.20122080513E+04  0.00000000000E+00 0. -1.
        -24    2    1    2    0    0  0.68512117995E+02  0.15563756203E+02 -0.19661418635E+04  0.19690602698E+04  0.80922046777E+02 0.  0.
         25    2    1    2    0    0 -0.39932850078E+02  0.36113333406E+01  0.55883436292E+02  0.14274889563E+03  0.12508642815E+03 0.  0.
         24    2    1    2    0    0 -0.28579267917E+02 -0.19175089544E+02  0.16420174920E+04  0.16443660019E+04  0.80830970212E+02 0.  0.
        -13    1    5    5    0    0 -0.36710125186E+02 -0.41457932421E+02  0.14211566008E+04  0.14222350289E+04  0.00000000000E+00 0.  1.
         14    1    5    5    0    0  0.81308572687E+01  0.22282842877E+02  0.22086089114E+03  0.22213097299E+03  0.00000000000E+00 0. -1.
         11    1    3    3    0    0  0.84965063907E+02  0.99233013645E+00 -0.16104347155E+04  0.16126748028E+04  0.00000000000E+00 0. -1.
        -12    1    3    3    0    0 -0.16452945911E+02  0.14571426067E+02 -0.35570714805E+03  0.35638546696E+03  0.00000000000E+00 0.  1.
          5    1    4    4  501    0  0.36806815219E+02 -0.81565060761E+01 -0.11739840263E+02  0.39706000646E+02  0.41800000000E+01 0.  1.
         -5    1    4    4    0  501 -0.76739665297E+02  0.11767839417E+02  0.67623276555E+02  0.10304289498E+03  0.41800000000E+01 0.  1.
</event>
<event>
11    1  0.8974665E-009  0.1725175E+03  0.7561462E-02  0.1075861E+00
         22   -1    0    0    0    0  0.00000000000E+00  0.00000000000E+00  0.15784777115E+04  0.15784777115E+04  0.00000000000E+00 0. -1.
         22   -1    0    0    0    0 -0.00000000000E+00 -0.00000000000E+00 -0.14404291062E+04  0.14404291062E+04  0.00000000000E+00 0. -1.
         24    2    1    2    0    0 -0.77476370674E+02  0.74329339699E+02 -0.13378515191E+04  0.13444723848E+04  0.78942178313E+02 0.  0.
         25    2    1    2    0    0 -0.56624291525E+00 -0.16359097395E+03  0.15004690571E+02  0.20648268504E+03  0.12509049162E+03 0.  0.
        -24    2    1    2    0    0  0.78042613589E+02  0.89261634247E+02  0.14608954339E+04  0.14679517479E+04  0.81293151113E+02 0.  0.
        -11    1    3    3    0    0 -0.69068042170E+02  0.71428724535E+02 -0.74993343788E+03  0.75648702460E+03  0.00000000000E+00 0.  1.
         12    1    3    3    0    0 -0.84083285035E+01  0.29006151643E+01 -0.58791808126E+03  0.58798536022E+03  0.00000000000E+00 0. -1.
         11    1    5    5    0    0  0.57636330769E+02  0.97585703758E+02  0.97646397964E+03  0.98301923671E+03  0.00000000000E+00 0. -1.
        -12    1    5    5    0    0  0.20406282820E+02 -0.83240695106E+01  0.48443145427E+03  0.48493251118E+03  0.00000000000E+00 0.  1.
          5    1    4    4  501    0  0.14135742540E+02 -0.18166707616E+03  0.13123245172E+02  0.18273597823E+03  0.41800000000E+01 0.  1.
         -5    1    4    4    0  501 -0.14701985456E+02  0.18076102211E+02  0.18814453994E+01  0.23746706809E+02  0.41800000000E+01 0.  1.
</event>
<event>
11    1  0.8974665E-009  0.1631861E+03  0.7561462E-02  0.1084118E+00
         22   -1    0    0    0    0  0.00000000000E+00  0.00000000000E+00  0.13176357969E+04  0.13176357969E+04  0.00000000000E+00 0. -1.
         22   -1    0    0    0    0 -0.00000000000E+00 -0.00000000000E+00 -0.23896176839E+03  0.23896176839E+03  0.00000000000E+00 0. -1.
        -24    2    1    2    0    0  0.29989980597E+02  0.73862443662E+02 -0.18897761211E+03  0.22043700404E+03  0.80776700554E+02 0.  0.
         25    2    1    2    0    0 -0.56295551189E+02  0.36568614178E+02  0.14097461673E+03  0.20006958046E+03  0.12509013486E+03 0.  0.
         24    2    1    2    0    0  0.26305570591E+02 -0.11043105784E+03  0.11266770239E+04  0.11360909808E+04  0.91731122860E+02 0.  0.
        -13    1    5    5    0    0 -0.28718339179E+02 -0.42091206488E+02  0.59961239411E+03  0.60177357523E+03  0.00000000000E+00 0.  1.
         14    1    5    5    0    0  0.55023909770E+02 -0.68339851352E+02  0.52706462977E+03  0.53431740556E+03  0.00000000000E+00 0. -1.
         11    1    3    3    0    0  0.47635857824E+02  0.57015869838E+02 -0.17949263852E+03  0.19426165769E+03  0.00000000000E+00 0. -1.
        -12    1    3    3    0    0 -0.17645877227E+02  0.16846573824E+02 -0.94849735839E+01  0.26175346351E+02  0.00000000000E+00 0.  1.
          5    1    4    4  501    0  0.27359845128E+02  0.45026038577E+02  0.80950352922E+02  0.96676456874E+02  0.41800000000E+01 0.  1.
         -5    1    4    4    0  501 -0.83655396317E+02 -0.84574243995E+01  0.60024263803E+02  0.10339312359E+03  0.41800000000E+01 0.  1.
</event>
<event>
11    1  0.8974665E-009  0.1324350E+03  0.7561462E-02  0.1116313E+00
         22   -1    0    0    0    0  0.00000000000E+00  0.00000000000E+00  0.53305851396E+03  0.53305851396E+03  0.00000000000E+00 0.  1.
         22   -1    0    0    0    0 -0.00000000000E+00 -0.00000000000E+00 -0.31944547721E+03  0.31944547721E+03  0.00000000000E+00 0. -1.
         24    2    1    2    0    0  0.15751553430E+02 -0.14645500095E+02 -0.20421404449E+03  0.22060717318E+03  0.80632169662E+02 0.  0.
         25    2    1    2    0    0 -0.23771529156E+02  0.56657656216E+02 -0.55234319422E+02  0.14991014278E+03  0.12508814996E+03 0.  0.
        -24    2    1    2    0    0  0.80199757251E+01 -0.42012156122E+02  0.47306140067E+03  0.48198667521E+03  0.81821299254E+02 0.  0.
        -13    1    3    3    0    0 -0.11001088124E+02  0.24726811455E+02 -0.31872491019E+02  0.41812615660E+02  0.00000000000E+00 0.  1.
         14    1    3    3    0    0  0.26752641554E+02 -0.39372311549E+02 -0.17234155347E+03  0.17879455752E+03  0.00000000000E+00 0. -1.
         13    1    5    5    0    0 -0.64936137298E+01 -0.41688268169E+01  0.54574293551E+00  0.77358885497E+01  0.00000000000E+00 0. -1.
        -14    1    5    5    0    0  0.14513589455E+02 -0.37843329305E+02  0.47251565773E+03  0.47425078667E+03  0.00000000000E+00 0.  1.
          5    1    4    4  501    0  0.14837529640E+02 -0.29380279452E+02  0.10592247329E+02  0.34828454028E+02  0.41800000000E+01 0. -1.
         -5    1    4    4    0  501 -0.38609058796E+02  0.86037935668E+02 -0.65826566751E+02  0.11508168875E+03  0.41800000000E+01 0. -1.
</event>
<event>
11    1  0.8974665E-009  0.2637693E+03  0.7561462E-02  0.1016809E+00
         22   -1    0    0    0    0  0.00000000000E+00  0.00000000000E+00  0.75254034888E+03  0.75254034888E+03  0.00000000000E+00 0. -1.
         22   -1    0    0    0    0 -0.00000000000E+00 -0.00000000000E+00 -0.37098760470E+03  0.37098760470E+03  0.00000000000E+00 0.  1.
         24    2    1    2    0    0  0.19600107088E+03 -0.19670770346E+01 -0.21942778144E+03  0.30492487724E+03  0.80064600878E+02 0.  0.
         25    2    1    2    0    0 -0.20153940450E+03 -0.21620622407E+03  0.32021232731E+03  0.45337217611E+03  0.12508849914E+03 0.  0.
        -24    2    1    2    0    0  0.55383336204E+01  0.21817330110E+03  0.28076819831E+03  0.36523090022E+03  0.83262037215E+02 0.  0.
        -13    1    3    3    0    0  0.18830533346E+03  0.95775501096E+01 -0.22151485913E+03  0.29089424349E+03  0.00000000000E+00 0.  1.
         14    1    3    3    0    0  0.76957374139E+01 -0.11544627144E+02  0.20870776899E+01  0.14030633754E+02  0.00000000000E+00 0. -1.
         11    1    5    5    0    0  0.39803918411E+02  0.15191889598E+03  0.21155355101E+03  0.26347411224E+03  0.00000000000E+00 0. -1.
        -12    1    5    5    0    0 -0.34265584791E+02  0.66254405123E+02  0.69214647305E+02  0.10175678798E+03  0.00000000000E+00 0.  1.
          5    1    4    4  501    0 -0.83694191501E+02 -0.17802766703E+03  0.18782187302E+03  0.27201672063E+03  0.41800000000E+01 0.  1.
         -5    1    4    4    0  501 -0.11784521300E+03 -0.38178557042E+02  0.13239045429E+03  0.18135545548E+03  0.41800000000E+01 0.  1.
</event>
<event>
11    1  0.8974665E-009  0.2072729E+03  0.7561462E-02  0.1049497E+00
         22   -1    0    0    0    0  0.00000000000E+00  0.00000000000E+00  0.12818632539E+04  0.12818632539E+04  0.00000000000E+00 0. -1.
         22   -1    0    0    0    0 -0.00000000000E+00 -0.00000000000E+00 -0.70101802828E+03  0.70101802828E+03  0.00000000000E+00 0. -1.
         24    2    1    2    0    0  0.10322184080E+03  0.12780945328E+03 -0.64199196871E+03  0.66886163440E+03  0.90731435149E+02 0.  0.
         25    2    1    2    0    0 -0.80728753087E+02 -0.17575527192E+03  0.26317407196E+03  0.34973564982E+03  0.12508950964E+03 0.  0.
        -24    2    1    2    0    0 -0.22493087708E+02  0.47945818636E+02  0.95966312236E+03  0.96428399794E+03  0.78010125983E+02 0.  0.
        -11    1    3    3    0    0 -0.52633756227E+01  0.57966057484E+02 -0.22153064577E+03  0.22904932647E+03  0.00000000000E+00 0.  1.
         12    1    3    3    0    0  0.10848521642E+03  0.69843395796E+02 -0.42046132294E+03  0.43981230793E+03  0.00000000000E+00 0. -1.
         13    1    5    5    0    0  0.14796015030E+02  0.53299505101E+02  0.64681508273E+03  0.64917602432E+03  0.00000000000E+00 0. -1.
        -14    1    5    5    0    0 -0.37289102739E+02 -0.53536864647E+01  0.31284803963E+03  0.31510797363E+03  0.00000000000E+00 0.  1.
          5    1    4    4  501    0 -0.86965136098E+02 -0.13190209345E+03  0.11617443947E+03  0.19615063074E+03  0.41800000000E+01 0. -1.
         -5    1    4    4    0  501  0.62363830110E+01 -0.43853178466E+02  0.14699963249E+03  0.15358501908E+03  0.41800000000E+01 0. -1.
</event>
<event>
11    1  0.8974665E-009  0.1671116E+03  0.7561462E-02  0.1080573E+00
         22   -1    0    0    0    0  0.00000000000E+00  0.00000000000E+00  0.11538962030E+03  0.11538962030E+03  0.00000000000E+00 0. -1.
         22   -1    0    0    0    0 -0.00000000000E+00 -0.00000000000E+00 -0.40402537327E+03  0.40402537327E+03  0.00000000000E+00 0. -1.
        -24    2    1    2    0    0 -0.65356310130E+02 -0.92035632199E+02 -0.20970543401E+03  0.25229012065E+03  0.83258219148E+02 0.  0.
         25    2    1    2    0    0  0.56779492369E+02  0.89612423363E+02 -0.86186863957E+02  0.18528520836E+03  0.12509250875E+03 0.  0.
         24    2    1    2    0    0  0.85768177611E+01  0.24232088363E+01  0.72565449957E+01  0.81839664564E+02  0.81028633869E+02 0.  0.
        -11    1    5    5    0    0  0.14282534883E+02  0.40281119641E+02  0.83147829174E+01  0.43539579892E+02  0.00000000000E+00 0.  1.
         12    1    5    5    0    0 -0.57057171217E+01 -0.37857910805E+02 -0.10582379217E+01  0.38300084672E+02  0.00000000000E+00 0. -1.
         13    1    3    3    0    0  0.14317321661E+02  0.36330710341E+01 -0.32735136796E+02  0.35913424868E+02  0.00000000000E+00 0. -1.
        -14    1    3    3    0    0 -0.79673631791E+02 -0.95668703233E+02 -0.17697029721E+03  0.21637669578E+03  0.00000000000E+00 0.  1.
          5    1    4    4  501    0  0.14607294882E+02 -0.41710013110E+00 -0.84406522941E+02  0.85764098265E+02  0.41800000000E+01 0. -1.
         -5    1    4    4    0  501  0.42172197487E+02  0.90029523494E+02 -0.17803410168E+01  0.99521110100E+02  0.41800000000E+01 0. -1.
</event>
<event>
11    1  0.8974665E-009  0.1569806E+03  0.7561462E-02  0.1089952E+00
         22   -1    0    0    0    0  0.00000000000E+00  0.00000000000E+00  0.82388520426E+03  0.82388520426E+03  0.00000000000E+00 0. -1.
         22   -1    0    0    0    0 -0.00000000000E+00 -0.00000000000E+00 -0.51472016536E+03  0.51472016536E+03  0.00000000000E+00 0. -1.
        -24    2    1    2    0    0  0.70235957695E+02 -0.58990245908E+02 -0.45029652983E+03  0.47117124287E+03  0.10403093993E+03 0.  0.
         25    2    1    2    0    0 -0.18383893741E+03  0.67818250890E+02  0.25781600905E+03  0.34715078018E+03  0.12509396307E+03 0.  0.
         24    2    1    2    0    0  0.11360297971E+03 -0.88280049820E+01  0.50164555968E+03  0.52028334657E+03  0.77864770607E+02 0.  0.
        -11    1    5    5    0    0  0.75928010528E+02  0.31725599397E+02  0.31821813183E+03  0.32868580113E+03  0.00000000000E+00 0.  1.
         12    1    5    5    0    0  0.37674969185E+02 -0.40553604379E+02  0.18342742785E+03  0.19159754544E+03  0.00000000000E+00 0. -1.
         11    1    3    3    0    0  0.63778760645E+02  0.41450425383E+01 -0.31901299903E+03  0.32535243235E+03  0.00000000000E+00 0. -1.
        -12    1    3    3    0    0  0.64571970495E+01 -0.63135288447E+02 -0.13128353080E+03  0.14581881052E+03  0.00000000000E+00 0.  1.
          5    1    4    4  501    0 -0.17521606213E+02  0.54781846534E+02  0.30740440882E+02  0.65349097159E+02  0.41800000000E+01 0.  1.
         -5    1    4    4    0  501 -0.16631733119E+03  0.13036404357E+02  0.22707556817E+03  0.28180168302E+03  0.41800000000E+01 0.  1.
</event>
<event>
11    1  0.8974665E-009  0.1499329E+03  0.7561462E-02  0.1096947E+00
         22   -1    0    0    0    0  0.00000000000E+00  0.00000000000E+00  0.16224372057E+03  0.16224372057E+03  0.00000000000E+00 0.  1.
         22   -1    0    0    0    0 -0.00000000000E+00 -0.00000000000E+00 -0.84662377854E+03  0.84662377854E+03  0.00000000000E+00 0. -1.
         24    2    1    2    0    0 -0.16672605994E+02 -0.10840445245E+02 -0.70462362565E+03  0.70952886674E+03  0.80878105058E+02 0.  0.
         25    2    1    2    0    0  0.90131019069E+02  0.37903757911E+02 -0.49851774192E+02  0.16641289105E+03  0.12509098870E+03 0.  0.
        -24    2    1    2    0    0 -0.73458413075E+02 -0.27063312666E+02  0.70095341868E+02  0.13292574131E+03  0.81408441875E+02 0.  0.
        -13    1    3    3    0    0 -0.10274266404E+02 -0.37105440705E+02 -0.17362987651E+03  0.17784742983E+03  0.00000000000E+00 0.  1.
         14    1    3    3    0    0 -0.63983395894E+01  0.26264995459E+02 -0.53099374913E+03  0.53168143691E+03  0.00000000000E+00 0. -1.
         11    1    5    5    0    0 -0.63690704384E+02 -0.58978536360E+01  0.54371210921E+01  0.64193868774E+02  0.00000000000E+00 0. -1.
        -12    1    5    5    0    0 -0.97677086915E+01 -0.21165459030E+02  0.64658220776E+02  0.68731872541E+02  0.00000000000E+00 0.  1.
          5    1    4    4  501    0 -0.32582500090E+01  0.39921230854E+01  0.35039942804E+02  0.35662630744E+02  0.41800000000E+01 0.  1.
         -5    1    4    4    0  501  0.93389269078E+02  0.33911634826E+02 -0.84891716996E+02  0.13075026031E+03  0.41800000000E+01 0.  1.
</event>
<event>
11    1  0.8974665E-009  0.1350562E+03  0.7561462E-02  0.1113208E+00
         22   -1    0    0    0    0  0.00000000000E+00  0.00000000000E+00  0.14678894846E+04  0.14678894846E+04  0.00000000000E+00 0. -1.
         22   -1    0    0    0    0 -0.00000000000E+00 -0.00000000000E+00 -0.34068127045E+03  0.34068127045E+03  0.00000000000E+00 0. -1.
         24    2    1    2    0    0 -0.51215569869E+02  0.71663162877E+01 -0.31064385343E+03  0.32498502036E+03  0.80257517415E+02 0.  0.
         25    2    1    2    0    0  0.31018414663E+02  0.82125904078E+01  0.17345400012E+03  0.21624549199E+03  0.12508490700E+03 0.  0.
        -24    2    1    2    0    0  0.20197155206E+02 -0.15378906696E+02  0.12643980675E+04  0.12673402427E+04  0.82488677660E+02 0.  0.
        -11    1    3    3    0    0 -0.21906493123E+01  0.37670501722E+02 -0.12189464314E+03  0.12760160528E+03  0.00000000000E+00 0.  1.
         12    1    3    3    0    0 -0.49024920557E+02 -0.30504185434E+02 -0.18874921029E+03  0.19738341508E+03  0.00000000000E+00 0. -1.
         11    1    5    5    0    0  0.31998368732E+02 -0.23822134586E+02  0.12195681251E+04  0.12202203905E+04  0.00000000000E+00 0. -1.
        -12    1    5    5    0    0 -0.11801213526E+02  0.84432278905E+01  0.44829942426E+02  0.47119852248E+02  0.00000000000E+00 0.  1.
          5    1    4    4  501    0 -0.38307134718E+02 -0.18973088675E+02  0.23968438219E+02  0.49187123263E+02  0.41800000000E+01 0.  1.
         -5    1    4    4    0  501  0.69325549381E+02  0.27185679083E+02  0.14948556190E+03  0.16705836873E+03  0.41800000000E+01 0.  1.
</event>
<event>
11    1  0.8974665E-009  0.3427317E+03  0.7561462E-02  0.9835701E-01
         22   -1    0    0    0    0  0.00000000000E+00  0.00000000000E+00  0.80682239289E+03  0.80682239289E+03  0.00000000000E+00 0. -1.
         22   -1    0    0    0    0 -0.00000000000E+00 -0.00000000000E+00 -0.82618920843E+03  0.82618920843E+03  0.00000000000E+00 0. -1.
         24    2    1    2    0    0  0.26627943122E+02 -0.31881453669E+03 -0.69608376674E+03  0.77012430946E+03  0.78785059123E+02 0.  0.
         25    2    1    2    0    0 -0.60340123837E+02  0.30773415487E+03  0.23201706976E+03  0.40965606122E+03  0.12507968349E+03 0.  0.
        -24    2    1    2    0    0  0.33712180715E+02  0.11080381825E+02  0.44469988144E+03  0.45323123064E+03  0.80007986350E+02 0.  0.
        -13    1    3    3    0    0  0.23895431115E+02 -0.92111441455E+02 -0.13687751394E+03  0.16670621793E+03  0.00000000000E+00 0.  1.
         14    1    3    3    0    0  0.27325120071E+01 -0.22670309524E+03 -0.55920625279E+03  0.60341809152E+03  0.00000000000E+00 0. -1.
         13    1    5    5    0    0  0.58897189085E+02  0.37392393828E+01  0.35106962948E+03  0.35599542910E+03  0.00000000000E+00 0. -1.
        -14    1    5    5    0    0 -0.25185008370E+02  0.73411424422E+01  0.93630251957E+02  0.97235801537E+02  0.00000000000E+00 0.  1.
          5    1    4    4  501    0 -0.84304527048E+02  0.11482960245E+03  0.85451818257E+02  0.16617032384E+03  0.41800000000E+01 0.  1.
         -5    1    4    4    0  501  0.23964403211E+02  0.19290455242E+03  0.14656525150E+03  0.24348573739E+03  0.41800000000E+01 0.  1.
</event>
<event>
11    1  0.8974665E-009  0.1429575E+03  0.7561462E-02  0.1104300E+00
         22   -1    0    0    0    0  0.00000000000E+00  0.00000000000E+00  0.29416498062E+03  0.29416498062E+03  0.00000000000E+00 0. -1.
         22   -1    0    0    0    0 -0.00000000000E+00 -0.00000000000E+00 -0.50936853359E+03  0.50936853359E+03  0.00000000000E+00 0. -1.
         24    2    1    2    0    0  0.69244400763E+02  0.16874004926E+00 -0.44351324175E+03  0.45624803123E+03  0.81629987655E+02 0.  0.
         25    2    1    2    0    0 -0.68518891255E+02  0.17523833947E+01  0.48205263885E+02  0.15056477124E+03  0.12509234016E+03 0.  0.
        -24    2    1    2    0    0 -0.72550950831E+00 -0.19211234440E+01  0.18010442488E+03  0.19672071174E+03  0.79102575714E+02 0.  0.
        -11    1    3    3    0    0  0.21864854323E+02  0.40174334856E+01 -0.19478380622E+02  0.29557045488E+02  0.00000000000E+00 0.  1.
         12    1    3    3    0    0  0.47379546441E+02 -0.38486934364E+01 -0.42403486113E+03  0.42669098574E+03  0.00000000000E+00 0. -1.
         13    1    5    5    0    0 -0.17922751321E+01 -0.39977006628E+01  0.18822257288E+03  0.18827355312E+03  0.00000000000E+00 0. -1.
        -14    1    5    5    0    0  0.10667656237E+01  0.20765772188E+01 -0.81181479986E+01  0.84471586211E+01  0.00000000000E+00 0.  1.
          5    1    4    4  501    0  0.12167383434E+02  0.15200641537E+01 -0.33342010731E+02  0.35770349372E+02  0.41800000000E+01 0.  1.
         -5    1    4    4    0  501 -0.80686274689E+02  0.23231924102E+00  0.81547274616E+02  0.11479442187E+03  0.41800000000E+01 0.  1.
</event>
<event>
11    1  0.8974665E-009  0.1561118E+03  0.7561462E-02  0.1090792E+00
         22   -1    0    0    0    0  0.00000000000E+00  0.00000000000E+00  0.23343935899E+02  0.23343935899E+02  0.00000000000E+00 0. -1.
         22   -1    0    0    0    0 -0.00000000000E+00 -0.00000000000E+00 -0.21974523825E+04  0.21974523825E+04  0.00000000000E+00 0. -1.
        -24    2    1    2    0    0 -0.54102545890E+01  0.10036520520E+02 -0.12407916564E+04  0.12427397269E+04  0.68615536326E+02 0.  0.
         25    2    1    2    0    0 -0.40573281832E+02 -0.89187054592E+02 -0.65535662391E+03  0.67434435327E+03  0.12508988919E+03 0.  0.
         24    2    1    2    0    0  0.45983536421E+02  0.79150534072E+02 -0.27796016633E+03  0.30371223819E+03  0.81240241835E+02 0.  0.
        -13    1    5    5    0    0 -0.42257319338E+01  0.67420812534E+02 -0.19125165180E+03  0.20283149925E+03  0.00000000000E+00 0.  1.
         14    1    5    5    0    0  0.50209268355E+02  0.11729721538E+02 -0.86708514531E+02  0.10088073894E+03  0.00000000000E+00 0. -1.
         11    1    3    3    0    0 -0.37091639326E+02  0.57393108466E+01 -0.69388156231E+03  0.69489592884E+03  0.00000000000E+00 0. -1.
        -12    1    3    3    0    0  0.31681384737E+02  0.42972096731E+01 -0.54691009406E+03  0.54784379811E+03  0.00000000000E+00 0.  1.
          5    1    4    4  501    0 -0.18366606110E+02 -0.10283589074E+02 -0.98019871281E+01  0.23593129845E+02  0.41800000000E+01 0. -1.
         -5    1    4    4    0  501 -0.22206675722E+02 -0.78903465518E+02 -0.64555463678E+03  0.65075122343E+03  0.41800000000E+01 0. -1.
</event>
<event>
11    1  0.8974665E-009  0.1699118E+03  0.7561462E-02  0.1078108E+00
         22   -1    0    0    0    0  0.00000000000E+00  0.00000000000E+00  0.16549602203E+03  0.16549602203E+03  0.00000000000E+00 0. -1.
         22   -1    0    0    0    0 -0.00000000000E+00 -0.00000000000E+00 -0.10656596225E+04  0.10656596225E+04  0.00000000000E+00 0. -1.
        -24    2    1    2    0    0  0.12081500679E+02 -0.31165866684E+02 -0.59217320452E+03  0.59867648786E+03  0.81407364900E+02 0.  0.
         25    2    1    2    0    0  0.10020943444E+03  0.54815511277E+00 -0.42199752213E+03  0.45141039910E+03  0.12508880252E+03 0.  0.
         24    2    1    2    0    0 -0.11229093511E+03  0.30617711571E+02  0.11400712613E+03  0.18106875761E+03  0.79003618926E+02 0.  0.
        -11    1    5    5    0    0 -0.23093142133E+02  0.67950157903E+01 -0.10336510419E+02  0.26197497987E+02  0.00000000000E+00 0.  1.
         12    1    5    5    0    0 -0.89197792981E+02  0.23822695781E+02  0.12434363655E+03  0.15487125962E+03  0.00000000000E+00 0. -1.
         11    1    3    3    0    0  0.34643425279E+02 -0.14726978463E+02 -0.51893383128E+03  0.52029738809E+03  0.00000000000E+00 0. -1.
        -12    1    3    3    0    0 -0.22561924601E+02 -0.16438888221E+02 -0.73239373239E+02  0.78379099766E+02  0.00000000000E+00 0.  1.
          5    1    4    4  501    0  0.11658491728E+03  0.31282786233E+02 -0.36520992279E+03  0.38466402971E+03  0.41800000000E+01 0.  1.
         -5    1    4    4    0  501 -0.16375482845E+02 -0.30734631120E+02 -0.56787599336E+02  0.66746369391E+02  0.41800000000E+01 0.  1.
</event>
<event>
11    1  0.8974665E-009  0.1539291E+03  0.7561462E-02  0.1092930E+00
         22   -1    0    0    0    0  0.00000000000E+00  0.00000000000E+00  0.24058636348E+03  0.24058636348E+03  0.00000000000E+00 0.  1.
         22   -1    0    0    0    0 -0.00000000000E+00 -0.00000000000E+00 -0.19453213688E+03  0.19453213688E+03  0.00000000000E+00 0. -1.
        -24    2    1    2    0    0 -0.28130656951E+02  0.64710833644E+02 -0.70339919095E+02  0.12740871668E+03  0.79413166518E+02 0.  0.
         25    2    1    2    0    0 -0.61041110905E+02 -0.83325978451E+02  0.56305174109E+02  0.17171611598E+03  0.12508763308E+03 0.  0.
         24    2    1    2    0    0  0.89171767856E+02  0.18615144807E+02  0.60088971584E+02  0.13599366770E+03  0.81150880148E+02 0.  0.
        -13    1    5    5    0    0  0.66898131908E+02  0.40387136867E+02  0.12528658609E+02  0.79141949456E+02  0.00000000000E+00 0.  1.
         14    1    5    5    0    0  0.22273635947E+02 -0.21771992060E+02  0.47560312975E+02  0.56851718240E+02  0.00000000000E+00 0. -1.
         11    1    3    3    0    0 -0.49447894472E+01  0.73106902872E+02 -0.28059625774E+02  0.78462811502E+02  0.00000000000E+00 0. -1.
        -12    1    3    3    0    0 -0.23185867504E+02 -0.83960692285E+01 -0.42280293321E+02  0.48945905178E+02  0.00000000000E+00 0.  1.
          5    1    4    4  501    0  0.36875893715E+02 -0.27676430255E+02  0.13188686455E+01  0.46314448539E+02  0.41800000000E+01 0. -1.
         -5    1    4    4    0  501 -0.97917004620E+02 -0.55649548196E+02  0.54986305464E+02  0.12540166744E+03  0.41800000000E+01 0. -1.
</event>
<event>
11    1  0.8974665E-009  0.1370774E+03  0.7561462E-02  0.1110867E+00
         22   -1    0    0    0    0  0.00000000000E+00  0.00000000000E+00  0.39770490576E+03  0.39770490576E+03  0.00000000000E+00 0. -1.
         22   -1    0    0    0    0 -0.00000000000E+00 -0.00000000000E+00 -0.25719027732E+04  0.25719027732E+04  0.00000000000E+00 0.  1.
        -24    2    1    2    0    0 -0.61358667098E+02  0.19416086854E+02 -0.19305236874E+04  0.19332895609E+04  0.80900854962E+02 0.  0.
         25    2    1    2    0    0  0.28073076247E+01 -0.37192198444E+02 -0.62668075004E+03  0.64013057804E+03  0.12508898379E+03 0.  0.
         24    2    1    2    0    0  0.58551359473E+02  0.17776111590E+02  0.38300656996E+03  0.39618754004E+03  0.80785409667E+02 0.  0.
        -13    1    5    5    0    0  0.27489728539E+02  0.13904314783E+02  0.34396765728E+02  0.46175238357E+02  0.00000000000E+00 0.  1.
         14    1    5    5    0    0  0.31061630934E+02  0.38717968071E+01  0.34860980423E+03  0.35001230168E+03  0.00000000000E+00 0. -1.
         13    1    3    3    0    0 -0.14940077958E+02 -0.13998601234E+02 -0.11132252156E+03  0.11318953384E+03  0.00000000000E+00 0. -1.
        -14    1    3    3    0    0 -0.46418589140E+02  0.33414688088E+02 -0.18192011658E+04  0.18201000270E+04  0.00000000000E+00 0.  1.
          5    1    4    4  501    0  0.14076207110E+01  0.31253402036E+02 -0.48307811844E+02  0.57705057145E+02  0.41800000000E+01 0.  1.
         -5    1    4    4    0  501  0.13996869136E+01 -0.68445600480E+02 -0.57837293820E+03  0.58242552089E+03  0.41800000000E+01 0.  1.
</event>
<event>
11    1  0.8974665E-009  0.2032878E+03  0.7561462E-02  0.1052223E+00
         22   -1    0    0    0    0  0.00000000000E+00  0.00000000000E+00  0.15787751967E+04  0.15787751967E+04  0.00000000000E+00 0.  1.
         22   -1    0    0    0    0 -0.00000000000E+00 -0.00000000000E+00 -0.56279986896E+03  0.56279986896E+03  0.00000000000E+00 0. -1.
        -24    2    1    2    0    0 -0.21920491969E+02  0.42863577243E+02 -0.50986381331E+03  0.51841944749E+03  0.80497336512E+02 0.  0.
         25    2    1    2    0    0 -0.12017104700E+03 -0.11662281081E+03  0.21410789312E+03  0.29921801502E+03  0.12508904859E+03 0.  0.
         24    2    1    2    0    0  0.14209153896E+03  0.73759233567E+02  0.13117312480E+04  0.13239376032E+04  0.80879417991E+02 0.  0.
        -11    1    5    5    0    0  0.12271754881E+03  0.60432827445E+02  0.79581526075E+03  0.80748600772E+03  0.00000000000E+00 0.  1.
         12    1    5    5    0    0  0.19373990156E+02  0.13326406122E+02  0.51591598722E+03  0.51645159547E+03  0.00000000000E+00 0. -1.
         11    1    3    3    0    0 -0.75269701613E+01  0.42316033811E+02 -0.49774026330E+03  0.49959250566E+03  0.00000000000E+00 0. -1.
        -12    1    3    3    0    0 -0.14393521808E+02  0.54754343194E+00 -0.12123550012E+02  0.18826941832E+02  0.00000000000E+00 0.  1.
          5    1    4    4  501    0 -0.13294701637E+03 -0.52570686708E+02  0.13663386005E+03  0.19780007679E+03  0.41800000000E+01 0. -1.
         -5    1    4    4    0  501  0.12775969376E+02 -0.64052124103E+02  0.77474033065E+02  0.10141793823E+03  0.41800000000E+01 0. -1.
</event>
<event>
11    1  0.8974665E-009  0.5598906E+03  0.7561462E-02  0.9268830E-01
         22   -1    0    0    0    0  0.00000000000E+00  0.00000000000E+00  0.25249007140E+04  0.25249007140E+04  0.00000000000E+00 0.  1.
         22   -1    0    0    0    0 -0.00000000000E+00 -0.00000000000E+00 -0.18193570453E+04  0.18193570453E+04  0.00000000000E+00 0.  1.
        -24    2    1    2    0    0 -0.47460373261E+03 -0.28111739886E+03 -0.13459171648E+04  0.14575877359E+04  0.93772588852E+02 0.  0.
         25    2    1    2    0    0  0.41428846422E+03  0.33214897026E+03 -0.23753905445E+03  0.59500339865E+03  0.12508545873E+03 0.  0.
         24    2    1    2    0    0  0.60315268394E+02 -0.51031571401E+02  0.22889998880E+04  0.22916666248E+04  0.77286990599E+02 0.  0.
        -13    1    5    5    0    0  0.63194641832E+02 -0.14342921386E+02  0.18473102475E+04  0.18484464916E+04  0.00000000000E+00 0.  1.
         14    1    5    5    0    0 -0.28793734383E+01 -0.36688650015E+02  0.44168964054E+03  0.44322013311E+03  0.00000000000E+00 0. -1.
         11    1    3    3    0    0 -0.27457712065E+02 -0.39392657245E+02 -0.78235890658E+02  0.91796307026E+02  0.00000000000E+00 0. -1.
        -12    1    3    3    0    0 -0.44714602055E+03 -0.24172474161E+03 -0.12676812742E+04  0.13657914289E+04  0.00000000000E+00 0.  1.
          5    1    4    4  501    0  0.34803566104E+02  0.32845431854E+02 -0.67055618108E+02  0.82486598470E+02  0.41800000000E+01 0. -1.
         -5    1    4    4    0  501  0.37948489811E+03  0.29930353841E+03 -0.17048343634E+03  0.51251680018E+03  0.41800000000E+01 0. -1.
</event>
<event>
11    1  0.8974665E-009  0.2703263E+03  0.7561462E-02  0.1013596E+00
         22   -1    0    0    0    0  0.00000000000E+00  0.00000000000E+00  0.10313615908E+04  0.10313615908E+04  0.00000000000E+00 0.  1.
         22   -1    0    0    0    0 -0.00000000000E+00 -0.00000000000E+00 -0.57938034538E+03  0.57938034538E+03  0.00000000000E+00 0.  1.
        -24    2    1    2    0    0  0.24227739703E+03  0.40263643983E+02 -0.51052854909E+03  0.57198112500E+03  0.78762362702E+02 0.  0.
         25    2    1    2    0    0 -0.17482342341E+03  0.12135489774E+02  0.32278477251E+03  0.38800496364E+03  0.12508933989E+03 0.  0.
         24    2    1    2    0    0 -0.67453973627E+02 -0.52399133757E+02  0.63972502203E+03  0.65075584757E+03  0.83302830450E+02 0.  0.
        -13    1    5    5    0    0 -0.81314926195E+02 -0.47255226441E+02  0.61335860888E+03  0.62052716036E+03  0.00000000000E+00 0.  1.
         14    1    5    5    0    0  0.13860952568E+02 -0.51439073157E+01  0.26366413145E+02  0.30228687214E+02  0.00000000000E+00 0. -1.
         13    1    3    3    0    0  0.73141582485E+02 -0.24001840385E+02 -0.15034306735E+03  0.16890475816E+03  0.00000000000E+00 0. -1.
        -14    1    3    3    0    0  0.16913581455E+03  0.64265484368E+02 -0.36018548174E+03  0.40307636683E+03  0.00000000000E+00 0.  1.
          5    1    4    4  501    0 -0.17756570601E+03  0.35741511500E+02  0.31362579461E+03  0.36219559224E+03  0.41800000000E+01 0.  1.
         -5    1    4    4    0  501  0.27422826023E+01 -0.23606021726E+02  0.91589779083E+01  0.25809371397E+02  0.41800000000E+01 0.  1.
</event>
<event>
11    1  0.8974665E-009  0.1297363E+03  0.7561462E-02  0.1119593E+00
         22   -1    0    0    0    0  0.00000000000E+00  0.00000000000E+00  0.24171282418E+04  0.24171282418E+04  0.00000000000E+00 0.  1.
         22   -1    0    0    0    0 -0.00000000000E+00 -0.00000000000E+00 -0.18954277503E+04  0.18954277503E+04  0.00000000000E+00 0. -1.
        -24    2    1    2    0    0 -0.45552804747E+02 -0.72703993945E+01 -0.18749775623E+04  0.18772610814E+04  0.80252051680E+02 0.  0.
         25    2    1    2    0    0  0.72716178718E+02  0.24134456770E+02  0.27715763912E+03  0.31358338845E+03  0.12509224570E+03 0.  0.
         24    2    1    2    0    0 -0.27163373972E+02 -0.16864057375E+02  0.21195204147E+04  0.21217115223E+04  0.90943665287E+02 0.  0.
        -13    1    5    5    0    0 -0.61030995400E+02 -0.10768450879E+02  0.13804408593E+04  0.13818312878E+04  0.00000000000E+00 0.  1.
         14    1    5    5    0    0  0.33867621428E+02 -0.60956064957E+01  0.73907955538E+03  0.73988023448E+03  0.00000000000E+00 0. -1.
         11    1    3    3    0    0 -0.29231522436E+02  0.29978433348E+02 -0.13732018397E+04  0.13738400492E+04  0.00000000000E+00 0. -1.
        -12    1    3    3    0    0 -0.16321282310E+02 -0.37248832743E+02 -0.50177572263E+03  0.50342103215E+03  0.00000000000E+00 0.  1.
          5    1    4    4  501    0  0.17816408239E+02  0.34287456384E+02  0.93342260794E+01  0.39970667299E+02  0.41800000000E+01 0. -1.
         -5    1    4    4    0  501  0.54899770479E+02 -0.10152999615E+02  0.26782341304E+03  0.27361272115E+03  0.41800000000E+01 0. -1.
</event>
<event>
11    1  0.8974665E-009  0.1385437E+03  0.7561462E-02  0.1109196E+00
         22   -1    0    0    0    0  0.00000000000E+00  0.00000000000E+00  0.39328544388E+04  0.39328544388E+04  0.00000000000E+00 0.  1.
         22   -1    0    0    0    0 -0.00000000000E+00 -0.00000000000E+00 -0.51788317039E+02  0.51788317039E+02  0.00000000000E+00 0. -1.
         24    2    1    2    0    0 -0.47456486942E+02 -0.38432395462E+02  0.18488310602E+02  0.10336112785E+03  0.81317513166E+02 0.  0.
         25    2    1    2    0    0  0.12990041032E+02  0.86310480580E+02  0.67386095820E+03  0.69090920949E+03  0.12509478227E+03 0.  0.
        -24    2    1    2    0    0  0.34466445910E+02 -0.47878085118E+02  0.31887168530E+04  0.31903724185E+04  0.84147212880E+02 0.  0.
        -13    1    3    3    0    0 -0.15697293105E+02  0.21786349332E+02 -0.11193069470E+02  0.29091834459E+02  0.00000000000E+00 0.  1.
         14    1    3    3    0    0 -0.31759193838E+02 -0.60218744794E+02  0.29681380072E+02  0.74269293391E+02  0.00000000000E+00 0. -1.
         11    1    5    5    0    0  0.33452390725E+02  0.21940474010E+01  0.46990863408E+03  0.47110296186E+03  0.00000000000E+00 0. -1.
        -12    1    5    5    0    0  0.10140551850E+01 -0.50072132519E+02  0.27188082189E+04  0.27192694567E+04  0.00000000000E+00 0.  1.
          5    1    4    4  501    0  0.30600662077E+02  0.16288447628E+02  0.40675768619E+02  0.53606945431E+02  0.41800000000E+01 0. -1.
         -5    1    4    4    0  501 -0.17610621045E+02  0.70022032952E+02  0.63318518958E+03  0.63730226406E+03  0.41800000000E+01 0. -1.
</event>
<event>
11    1  0.8974665E-009  0.1291891E+03  0.7561462E-02  0.1120269E+00
         22   -1    0    0    0    0  0.00000000000E+00  0.00000000000E+00  0.60301760275E+03  0.60301760275E+03  0.00000000000E+00 0. -1.
         22   -1    0    0    0    0 -0.00000000000E+00 -0.00000000000E+00 -0.72243100709E+03  0.72243100709E+03  0.00000000000E+00 0.  1.
         24    2    1    2    0    0 -0.95092088844E+01 -0.29299044814E+02 -0.40861758529E+03  0.41790928752E+03  0.82042565234E+02 0.  0.
         25    2    1    2    0    0 -0.22858620488E+02  0.29931751727E+02 -0.29193222412E+03  0.31982907210E+03  0.12509110915E+03 0.  0.
        -24    2    1    2    0    0  0.32367829373E+02 -0.63270691293E+00  0.58113640507E+03  0.58771025022E+03  0.81460052921E+02 0.  0.
        -11    1    3    3    0    0  0.26820896993E+01 -0.32525187839E+02 -0.40262754538E+03  0.40394804338E+03  0.00000000000E+00 0.  1.
         12    1    3    3    0    0 -0.12191298584E+02  0.32261430249E+01 -0.59900399066E+01  0.13961244144E+02  0.00000000000E+00 0. -1.
         13    1    5    5    0    0  0.20718152375E+02 -0.18091703841E+02  0.54663183477E+03  0.54732340930E+03  0.00000000000E+00 0. -1.
        -14    1    5    5    0    0  0.11649676997E+02  0.17458996928E+02  0.34504570295E+02  0.40386840915E+02  0.00000000000E+00 0.  1.
          5    1    4    4  501    0  0.24911519961E+01  0.18697964090E+02  0.62690027674E+01  0.20312372955E+02  0.41800000000E+01 0.  1.
         -5    1    4    4    0  501 -0.25349772484E+02  0.11233787637E+02 -0.29820122689E+03  0.29951669915E+03  0.41800000000E+01 0.  1.
</event>
<event>
11    1  0.8974665E-009  0.1824094E+03  0.7561462E-02  0.1067710E+00
         22   -1    0    0    0    0  0.00000000000E+00  0.00000000000E+00  0.12573324763E+03  0.12573324763E+03  0.00000000000E+00 0.  1.
         22   -1    0    0    0    0 -0.00000000000E+00 -0.00000000000E+00 -0.28833262682E+04  0.28833262682E+04  0.00000000000E+00 0. -1.
        -24    2    1    2    0    0  0.31545125928E+02  0.12681093964E+03 -0.24144705655E+04  0.24193810431E+04  0.81611340197E+02 0.  0.
         25    2    1    2    0    0 -0.16980236825E+02 -0.15136890093E+03 -0.42693706207E+03  0.47023819143E+03  0.12509128309E+03 0.  0.
         24    2    1    2    0    0 -0.14564889104E+02  0.24557961284E+02  0.83814606979E+02  0.11944028128E+03  0.80161480733E+02 0.  0.
        -13    1    5    5    0    0 -0.15621457506E+02 -0.21127909728E+02  0.27983226527E+01  0.26424403753E+02  0.00000000000E+00 0.  1.
         14    1    5    5    0    0  0.10565684017E+01  0.45685871011E+02  0.81016284326E+02  0.93015877531E+02  0.00000000000E+00 0. -1.
         13    1    3    3    0    0  0.29579815102E+02  0.13253036178E+03 -0.23978928075E+04  0.24017346187E+04  0.00000000000E+00 0. -1.
        -14    1    3    3    0    0  0.19653108265E+01 -0.57194221351E+01 -0.16577757984E+02  0.17646424453E+02  0.00000000000E+00 0.  1.
          5    1    4    4  501    0 -0.47368317407E+02 -0.42890695145E+02 -0.26694929265E+03  0.27452279772E+03  0.41800000000E+01 0. -1.
         -5    1    4    4    0  501  0.30388080582E+02 -0.10847820578E+03 -0.15998776942E+03  0.19571539371E+03  0.41800000000E+01 0. -1.
</event>
<event>
11    1  0.8974665E-009  0.1445454E+03  0.7561462E-02  0.1102586E+00
         22   -1    0    0    0    0  0.00000000000E+00  0.00000000000E+00  0.90433479764E+03  0.90433479764E+03  0.00000000000E+00 0.  1.
         22   -1    0    0    0    0 -0.00000000000E+00 -0.00000000000E+00 -0.63785783294E+03  0.63785783294E+03  0.00000000000E+00 0. -1.
         24    2    1    2    0    0 -0.60968168828E+02  0.38574820513E+02 -0.59855152572E+03  0.60783437721E+03  0.77418129595E+02 0.  0.
         25    2    1    2    0    0  0.59051718850E+02 -0.61460875152E+02  0.14529479070E+03  0.20981897386E+03  0.12509548718E+03 0.  0.
        -24    2    1    2    0    0  0.19164499779E+01  0.22886054639E+02  0.71973369971E+03  0.72453927951E+03  0.80081987830E+02 0.  0.
        -11    1    3    3    0    0 -0.27770391124E+01  0.48811446151E+01 -0.99651822294E-01  0.56167116243E+01  0.00000000000E+00 0.  1.
         12    1    3    3    0    0 -0.58191129716E+02  0.33693675898E+02 -0.59845187389E+03  0.60221766558E+03  0.00000000000E+00 0. -1.
         13    1    5    5    0    0  0.11167840145E+02 -0.18684278650E+02  0.67637024093E+02  0.71053430250E+02  0.00000000000E+00 0. -1.
        -14    1    5    5    0    0 -0.92513901676E+01  0.41570333289E+02  0.65209667562E+03  0.65348584926E+03  0.00000000000E+00 0.  1.
          5    1    4    4  501    0  0.15567067556E+01 -0.34308816507E+02  0.14184621697E+03  0.14600458861E+03  0.41800000000E+01 0. -1.
         -5    1    4    4    0  501  0.57495012095E+02 -0.27152058645E+02  0.34485737371E+01  0.63814385253E+02  0.41800000000E+01 0. -1.
</event>
<event>
11    1  0.8974665E-009  0.1287091E+03  0.7561462E-02  0.1120865E+00
         22   -1    0    0    0    0  0.00000000000E+00  0.00000000000E+00  0.65861634122E+03  0.65861634122E+03  0.00000000000E+00 0. -1.
         22   -1    0    0    0    0 -0.00000000000E+00 -0.00000000000E+00 -0.34485160978E+03  0.34485160978E+03  0.00000000000E+00 0. -1.
         24    2    1    2    0    0 -0.23701509884E+02  0.14096793637E+02 -0.20774197127E+03  0.22432848396E+03  0.80037871837E+02 0.  0.
         25    2    1    2    0    0  0.43797475729E+02 -0.38703123316E+01 -0.91083438302E+02  0.16089960954E+03  0.12513709849E+03 0.  0.
        -24    2    1    2    0    0 -0.20095965844E+02 -0.10226481305E+02  0.61259014102E+03  0.61823985751E+03  0.80283321892E+02 0.  0.
        -13    1    3    3    0    0  0.14315188015E+02  0.17293150572E+02 -0.13119285899E+02  0.26001794690E+02  0.00000000000E+00 0.  1.
         14    1    3    3    0    0 -0.38016697900E+02 -0.31963569345E+01 -0.19462268537E+03  0.19832668927E+03  0.00000000000E+00 0. -1.
         11    1    5    5    0    0  0.21497287173E+02 -0.22694633857E+02  0.40234889660E+03  0.40356141337E+03  0.00000000000E+00 0. -1.
        -12    1    5    5    0    0 -0.41593253018E+02  0.12468152552E+02  0.21024124441E+03  0.21467844414E+03  0.00000000000E+00 0.  1.
          5    1    4    4  501    0  0.17252199561E+02 -0.32182656403E+02  0.20918986680E+02  0.42289929848E+02  0.41800000000E+01 0.  1.
         -5    1    4    4    0  501  0.26545276168E+02  0.28312344072E+02 -0.11200242498E+03  0.11860967969E+03  0.41800000000E+01 0.  1.
</event>
<event>
11    1  0.8974665E-009  0.1508291E+03  0.7561462E-02  0.1096035E+00
         22   -1    0    0    0    0  0.00000000000E+00  0.00000000000E+00  0.59146362984E+02  0.59146362984E+02  0.00000000000E+00 0. -1.
         22   -1    0    0    0    0 -0.00000000000E+00 -0.00000000000E+00 -0.32616372430E+04  0.32616372430E+04  0.00000000000E+00 0.  1.
         24    2    1    2    0    0 -0.34239444161E+01  0.81587479446E+02 -0.16154595578E+04  0.16197019056E+04  0.84002619266E+02 0.  0.
         25    2    1    2    0    0  0.48007492141E+02 -0.82903290565E+02 -0.16007782478E+04  0.16085136279E+04  0.12508963727E+03 0.  0.
        -24    2    1    2    0    0 -0.44583547725E+02  0.13158111193E+01  0.13746925574E+02  0.92568072540E+02  0.79940265225E+02 0.  0.
        -13    1    3    3    0    0  0.19781344752E+02  0.77880107415E+02 -0.14829060003E+04  0.14850814181E+04  0.00000000000E+00 0.  1.
         14    1    3    3    0    0 -0.23205289168E+02  0.37073720308E+01 -0.13255355750E+03  0.13462048751E+03  0.00000000000E+00 0. -1.
         11    1    5    5    0    0 -0.14448235043E+02  0.23611415151E+02  0.38667174149E+02  0.47554187807E+02  0.00000000000E+00 0. -1.
        -12    1    5    5    0    0 -0.30135312683E+02 -0.22295604032E+02 -0.24920248576E+02  0.45013884733E+02  0.00000000000E+00 0.  1.
          5    1    4    4  501    0  0.86958548229E+01  0.22667693024E+02 -0.83632731336E+02  0.87185711839E+02  0.41800000000E+01 0.  1.
         -5    1    4    4    0  501  0.39311637318E+02 -0.10557098359E+03 -0.15171455165E+04  0.15213279160E+04  0.41800000000E+01 0.  1.
</event>
<event>
11    1  0.8974665E-009  0.1591079E+03  0.7561462E-02  0.1087919E+00
         22   -1    0    0    0    0  0.00000000000E+00  0.00000000000E+00  0.55149695132E+03  0.55149695132E+03  0.00000000000E+00 0. -1.
         22   -1    0    0    0    0 -0.00000000000E+00 -0.00000000000E+00 -0.61085867098E+02  0.61085867098E+02  0.00000000000E+00 0.  1.
         24    2    1    2    0    0  0.14054173288E+02  0.11765061550E+03  0.15937697215E+03  0.20780106950E+03  0.61164353335E+02 0.  0.
         25    2    1    2    0    0 -0.97543214110E+01 -0.78748984681E+02  0.21808973214E+03  0.26364362757E+03  0.12509309222E+03 0.  0.
        -24    2    1    2    0    0 -0.42998518769E+01 -0.38901630817E+02  0.11294437994E+03  0.14113812135E+03  0.75044724879E+02 0.  0.
        -13    1    3    3    0    0 -0.23584125484E+02  0.56141945832E+02  0.65640606679E+02  0.89536686904E+02  0.00000000000E+00 0.  1.
         14    1    3    3    0    0  0.37638298772E+02  0.61508669667E+02  0.93736365469E+02  0.11826438259E+03  0.00000000000E+00 0. -1.
         13    1    5    5    0    0 -0.10492889359E+02  0.16963080532E+02  0.62530309059E+02  0.65634490775E+02  0.00000000000E+00 0. -1.
        -14    1    5    5    0    0  0.61930374824E+01 -0.55864711350E+02  0.50414070881E+02  0.75503630576E+02  0.00000000000E+00 0.  1.
          5    1    4    4  501    0  0.25501907860E+02 -0.10106593043E+03  0.17339684146E+03  0.20235762063E+03  0.41800000000E+01 0. -1.
         -5    1    4    4    0  501 -0.35256229271E+02  0.22316945750E+02  0.44692890678E+02  0.61286006945E+02  0.41800000000E+01 0. -1.
</event>
<event>
11    1  0.8974665E-009  0.1756300E+03  0.7561462E-02  0.1073234E+00
         22   -1    0    0    0    0  0.00000000000E+00  0.00000000000E+00  0.12605979674E+04  0.12605979674E+04  0.00000000000E+00 0.  1.
         22   -1    0    0    0    0 -0.00000000000E+00 -0.00000000000E+00 -0.17236754280E+03  0.17236754280E+03  0.00000000000E+00 0. -1.
         24    2    1    2    0    0  0.12865228910E+03  0.20307359322E+02 -0.11264929058E+03  0.18929617792E+03  0.78609032398E+02 0.  0.
         25    2    1    2    0    0 -0.72933464870E+02  0.31753474596E+02  0.28673255138E+03  0.32278523469E+03  0.12508868161E+03 0.  0.
        -24    2    1    2    0    0 -0.55718824231E+02 -0.52060833918E+02  0.91414716377E+03  0.92088409755E+03  0.80917033394E+02 0.  0.
        -11    1    3    3    0    0  0.95959360330E+02  0.77277983808E+01 -0.32135065423E+02  0.10149177372E+03  0.00000000000E+00 0.  1.
         12    1    3    3    0    0  0.32692928772E+02  0.12579560942E+02 -0.80514225157E+02  0.87804404205E+02  0.00000000000E+00 0. -1.
         13    1    5    5    0    0 -0.15244314957E+02  0.96778572768E+01  0.49195682650E+03  0.49228809573E+03  0.00000000000E+00 0. -1.
        -14    1    5    5    0    0 -0.40474509273E+02 -0.61738691195E+02  0.42219033727E+03  0.42859600182E+03  0.00000000000E+00 0.  1.
          5    1    4    4  501    0 -0.52100358613E+01 -0.43774857716E+02  0.62078654250E+02  0.76253618637E+02  0.41800000000E+01 0.  1.
         -5    1    4    4    0  501 -0.67723429009E+02  0.75528332312E+02  0.22465389713E+03  0.24653161605E+03  0.41800000000E+01 0.  1.
</event>
<event>
11    1  0.8974665E-009  0.1948129E+03  0.7561462E-02  0.1058254E+00
         22   -1    0    0    0    0  0.00000000000E+00  0.00000000000E+00  0.16277161699E+04  0.16277161699E+04  0.00000000000E+00 0. -1.
         22   -1    0    0    0    0 -0.00000000000E+00 -0.00000000000E+00 -0.26185784734E+03  0.26185784734E+03  0.00000000000E+00 0.  1.
         24    2    1    2    0    0  0.93234550858E+02  0.11950913262E+03 -0.18971936188E+03  0.25453405039E+03  0.76282581781E+02 0.  0.
         25    2    1    2    0    0 -0.10225167740E+03 -0.89924295365E+02  0.18418895440E+03  0.26098629733E+03  0.12508593864E+03 0.  0.
        -24    2    1    2    0    0  0.90171265447E+01 -0.29584837254E+02  0.13713887301E+04  0.13740536696E+04  0.79748772103E+02 0.  0.
        -11    1    3    3    0    0  0.44347410947E+02  0.92235194880E+02 -0.16309168560E+03  0.19254329888E+03  0.00000000000E+00 0.  1.
         12    1    3    3    0    0  0.48887139911E+02  0.27273937739E+02 -0.26627676277E+02  0.61990751506E+02  0.00000000000E+00 0. -1.
         11    1    5    5    0    0  0.44212189127E+02 -0.13455317798E+02  0.82676176938E+03  0.82805240568E+03  0.00000000000E+00 0. -1.
        -12    1    5    5    0    0 -0.35195062582E+02 -0.16129519457E+02  0.54462696071E+03  0.54600126388E+03  0.00000000000E+00 0.  1.
          5    1    4    4  501    0 -0.70996493318E+02  0.92025975104E+01  0.36846179546E+02  0.80624457900E+02  0.41800000000E+01 0. -1.
         -5    1    4    4    0  501 -0.31255184084E+02 -0.99126892875E+02  0.14734277485E+03  0.18036183943E+03  0.41800000000E+01 0. -1.
</event>
<event>
11    1  0.1781472E-008  0.1616157E+03  0.7561462E-02  0.1085567E+00
         22   -1    0    0    0    0  0.00000000000E+00  0.00000000000E+00  0.58318784506E+03  0.58318784506E+03  0.00000000000E+00 0. -1.
         22   -1    0    0    0    0 -0.00000000000E+00 -0.00000000000E+00 -0.37350083746E+03  0.37350083746E+03  0.00000000000E+00 0.  1.
         24    2    1    2    0    0 -0.11216178416E+00 -0.56331831164E+02 -0.23445794674E+03  0.25416559470E+03  0.80351309630E+02 0.  0.
         25    2    1    2    0    0  0.10106890256E+03  0.69415897778E+02 -0.57505655094E+02  0.18435814639E+03  0.12509011089E+03 0.  0.
        -24    2    1    2    0    0 -0.10095674078E+03 -0.13084066614E+02  0.50165060943E+03  0.51816494143E+03  0.80486745965E+02 0.  0.
        -13    1    3    3    0    0 -0.10166642756E+02 -0.42755024971E+02 -0.23311116503E+03  0.23721755425E+03  0.00000000000E+00 0.  1.
         14    1    3    3    0    0  0.10054480972E+02 -0.13576806193E+02 -0.13467817073E+01  0.16948040446E+02  0.00000000000E+00 0. -1.
         13    1    5    5    0    0 -0.97207117648E+02 -0.27934172872E+02  0.48543497548E+03  0.49585951352E+03  0.00000000000E+00 0. -1.
        -14    1    5    5    0    0 -0.37496231318E+01  0.14850106258E+02  0.16215633953E+02  0.22305427904E+02  0.00000000000E+00 0.  1.
          5    1    4    4  501    0  0.11540177414E+03  0.88242162756E+02 -0.64974830384E+02  0.15919626172E+03  0.41800000000E+01 0. -1.
         -5    1    4    4    0  501 -0.14332871574E+02 -0.18826264978E+02  0.74691752898E+01  0.25161884669E+02  0.41800000000E+01 0. -1.
</event>
<event>
11    1  0.8974665E-009  0.1559398E+03  0.7561462E-02  0.1090959E+00
         22   -1    0    0    0    0  0.00000000000E+00  0.00000000000E+00  0.13855235500E+03  0.13855235500E+03  0.00000000000E+00 0. -1.
         22   -1    0    0    0    0 -0.00000000000E+00 -0.00000000000E+00 -0.31998037433E+03  0.31998037433E+03  0.00000000000E+00 0. -1.
         24    2    1    2    0    0  0.23123962354E+02 -0.47075790438E+02 -0.12799348441E+03  0.15913538724E+03  0.78682219984E+02 0.  0.
         25    2    1    2    0    0  0.73380224849E+02  0.63482249371E+01 -0.78616708736E+02  0.16508843467E+03  0.12509455228E+03 0.  0.
        -24    2    1    2    0    0 -0.96504187203E+02  0.40727565501E+02  0.25182173816E+02  0.13430890742E+03  0.80205660619E+02 0.  0.
        -13    1    3    3    0    0  0.27444757884E+02  0.15152215558E+02 -0.53138538929E+02  0.61696909900E+02  0.00000000000E+00 0.  1.
         14    1    3    3    0    0 -0.43207955302E+01 -0.62228005996E+02 -0.74854945476E+02  0.97438477341E+02  0.00000000000E+00 0. -1.
         13    1    5    5    0    0 -0.67520879789E+02  0.12478337318E+02  0.51674712132E+02  0.85936336806E+02  0.00000000000E+00 0. -1.
        -14    1    5    5    0    0 -0.28983307414E+02  0.28249228182E+02 -0.26492538315E+02  0.48372570615E+02  0.00000000000E+00 0.  1.
          5    1    4    4  501    0  0.68929259035E+02 -0.23087565269E+02  0.81438872564E+01  0.73267139434E+02  0.41800000000E+01 0.  1.
         -5    1    4    4    0  501  0.44509658141E+01  0.29435790206E+02 -0.86760595992E+02  0.91821295235E+02  0.41800000000E+01 0.  1.
</event>
<event>
11    1  0.8974665E-009  0.1281833E+03  0.7561462E-02  0.1121521E+00
         22   -1    0    0    0    0  0.00000000000E+00  0.00000000000E+00  0.42466065971E+03  0.42466065971E+03  0.00000000000E+00 0.  1.
         22   -1    0    0    0    0 -0.00000000000E+00 -0.00000000000E+00 -0.29088205967E+03  0.29088205967E+03  0.00000000000E+00 0. -1.
        -24    2    1    2    0    0 -0.17260391086E+02  0.27460968865E-01 -0.24830158150E+03  0.26117018446E+03  0.79109215778E+02 0.  0.
         25    2    1    2    0    0 -0.13966509266E+02 -0.25707820406E+00  0.10560328651E+03  0.16430196606E+03  0.12509177615E+03 0.  0.
         24    2    1    2    0    0  0.31226900352E+02  0.22961723520E+00  0.27647689503E+03  0.29007056886E+03  0.82013958572E+02 0.  0.
        -11    1    5    5    0    0  0.39372729135E+02 -0.33975259525E+02  0.18108928468E+03  0.18840875533E+03  0.00000000000E+00 0.  1.
         12    1    5    5    0    0 -0.81458287827E+01  0.34204876760E+02  0.95387610352E+02  0.10166181353E+03  0.00000000000E+00 0. -1.
         11    1    3    3    0    0 -0.48634066973E+02  0.91340417201E+00 -0.16970175847E+03  0.17653553072E+03  0.00000000000E+00 0. -1.
        -12    1    3    3    0    0  0.31373675887E+02 -0.88594320315E+00 -0.78599823026E+02  0.84634653740E+02  0.00000000000E+00 0.  1.
          5    1    4    4  501    0 -0.26109309735E+01 -0.10184970079E+02 -0.27783967671E+02  0.29999530589E+02  0.41800000000E+01 0. -1.
         -5    1    4    4    0  501 -0.11355578293E+02  0.99278918746E+01  0.13338725418E+03  0.13430243547E+03  0.41800000000E+01 0. -1.
</event>
<event>
11    1  0.8974665E-009  0.1654659E+03  0.7561462E-02  0.1082046E+00
         22   -1    0    0    0    0  0.00000000000E+00  0.00000000000E+00  0.34470262143E+03  0.34470262143E+03  0.00000000000E+00 0.  1.
         22   -1    0    0    0    0 -0.00000000000E+00 -0.00000000000E+00 -0.78639196200E+03  0.78639196200E+03  0.00000000000E+00 0.  1.
        -24    2    1    2    0    0  0.86427415656E+02 -0.70495780424E+02 -0.72944607142E+03  0.74224528178E+03  0.79982085282E+02 0.  0.
         25    2    1    2    0    0 -0.50561340892E+02  0.12133925990E+02  0.84299631333E+02  0.15955426930E+03  0.12508979037E+03 0.  0.
         24    2    1    2    0    0 -0.35866074764E+02  0.58361854434E+02  0.20345709952E+03  0.22929503236E+03  0.80553951772E+02 0.  0.
        -13    1    5    5    0    0 -0.57027192598E+01  0.63264862819E+02  0.17967263418E+03  0.19057077255E+03  0.00000000000E+00 0.  1.
         14    1    5    5    0    0 -0.30163355504E+02 -0.49030083853E+01  0.23784465339E+02  0.38724259812E+02  0.00000000000E+00 0. -1.
         13    1    3    3    0    0  0.35689671649E+02  0.10719349870E+02 -0.13143892203E+03  0.13661935203E+03  0.00000000000E+00 0. -1.
        -14    1    3    3    0    0  0.50737744007E+02 -0.81215130293E+02 -0.59800714939E+03  0.60562592975E+03  0.00000000000E+00 0.  1.
          5    1    4    4  501    0 -0.13068238516E+02  0.13125552299E+02  0.11145526431E+03  0.11306107785E+03  0.41800000000E+01 0. -1.
         -5    1    4    4    0  501 -0.37493102376E+02 -0.99162630954E+00 -0.27155632981E+02  0.46493191449E+02  0.41800000000E+01 0. -1.
</event>
<event>
11    1  0.8974665E-009  0.1568855E+03  0.7561462E-02  0.1090044E+00
         22   -1    0    0    0    0  0.00000000000E+00  0.00000000000E+00  0.11653810392E+04  0.11653810392E+04  0.00000000000E+00 0.  1.
         22   -1    0    0    0    0 -0.00000000000E+00 -0.00000000000E+00 -0.84709397395E+03  0.84709397395E+03  0.00000000000E+00 0. -1.
        -24    2    1    2    0    0  0.90135965168E+01 -0.15877403959E+02 -0.69736802900E+03  0.70209439731E+03  0.79252999897E+02 0.  0.
         25    2    1    2    0    0 -0.46190381444E+02  0.10249397028E+03 -0.94789219871E+02  0.19305982870E+03  0.12509410846E+03 0.  0.
         24    2    1    2    0    0  0.37176784927E+02 -0.86616566317E+02  0.11104443141E+04  0.11173207871E+04  0.80216106433E+02 0.  0.
        -11    1    5    5    0    0  0.25346459229E+02 -0.98857039631E+02  0.10329260266E+04  0.10379553621E+04  0.00000000000E+00 0.  1.
         12    1    5    5    0    0  0.11830325699E+02  0.12240473314E+02  0.77518287477E+02  0.79365425006E+02  0.00000000000E+00 0. -1.
         11    1    3    3    0    0 -0.23654884886E+02 -0.28844845737E+02 -0.51634068336E+03  0.51768646882E+03  0.00000000000E+00 0. -1.
        -12    1    3    3    0    0  0.32668481403E+02  0.12967441779E+02 -0.18102734564E+03  0.18440792849E+03  0.00000000000E+00 0.  1.
          5    1    4    4  501    0  0.18399138943E+02  0.93125327447E+02 -0.83905079339E+02  0.12676115203E+03  0.41800000000E+01 0.  1.
         -5    1    4    4    0  501 -0.64589520387E+02  0.93686428290E+01 -0.10884140532E+02  0.66298676664E+02  0.41800000000E+01 0.  1.
</event>
<event>
11    1  0.8974665E-009  0.1811359E+03  0.7561462E-02  0.1068728E+00
         22   -1    0    0    0    0  0.00000000000E+00  0.00000000000E+00  0.10327805771E+04  0.10327805771E+04  0.00000000000E+00 0.  1.
         22   -1    0    0    0    0 -0.00000000000E+00 -0.00000000000E+00 -0.18045937164E+03  0.18045937164E+03  0.00000000000E+00 0. -1.
        -24    2    1    2    0    0  0.60324073086E+02  0.17485287760E+02 -0.97739185288E+02  0.14379709937E+03  0.84734457960E+02 0.  0.
         25    2    1    2    0    0 -0.12786689795E+03  0.92224527491E+02  0.13970558311E+03  0.24499119820E+03  0.12509088768E+03 0.  0.
         24    2    1    2    0    0  0.67542824866E+02 -0.10970981525E+03  0.81035480768E+03  0.82445165121E+03  0.80295293170E+02 0.  0.
        -13    1    5    5    0    0  0.49865718043E+02 -0.12007990631E+03  0.73217200079E+03  0.74362733441E+03  0.00000000000E+00 0.  1.
         14    1    5    5    0    0  0.17677106823E+02  0.10370091058E+02  0.78182806892E+02  0.80824316809E+02  0.00000000000E+00 0. -1.
         11    1    3    3    0    0  0.80505781600E+01  0.37557213258E+02 -0.73191417807E+02  0.82657968261E+02  0.00000000000E+00 0. -1.
        -12    1    3    3    0    0  0.52273494926E+02 -0.20071925497E+02 -0.24547767481E+02  0.61139131114E+02  0.00000000000E+00 0.  1.
          5    1    4    4  501    0 -0.10827244499E+03  0.57257927116E+02  0.15864136516E+03  0.20046433024E+03  0.41800000000E+01 0.  1.
         -5    1    4    4    0  501 -0.19594452967E+02  0.34966600375E+02 -0.18935782043E+02  0.44526867961E+02  0.41800000000E+01 0.  1.
</event>
<event>
11    1  0.8974665E-009  0.1437793E+03  0.7561462E-02  0.1103410E+00
         22   -1    0    0    0    0  0.00000000000E+00  0.00000000000E+00  0.72694751496E+03  0.72694751496E+03  0.00000000000E+00 0. -1.
         22   -1    0    0    0    0 -0.00000000000E+00 -0.00000000000E+00 -0.68546333146E+03  0.68546333146E+03  0.00000000000E+00 0. -1.
         24    2    1    2    0    0 -0.24404398289E+02 -0.68735319079E+02 -0.64091935339E+03  0.65011384744E+03  0.80933789861E+02 0.  0.
         25    2    1    2    0    0  0.14614512090E+02  0.16944106828E+02  0.74878095858E+02  0.14750278236E+03  0.12509858051E+03 0.  0.
        -24    2    1    2    0    0  0.97898861989E+01  0.51791212251E+02  0.60752544103E+03  0.61479421661E+03  0.78144710252E+02 0.  0.
        -13    1    3    3    0    0 -0.46123145427E+02 -0.19854826819E+02 -0.41091863911E+03  0.41397546625E+03  0.00000000000E+00 0.  1.
         14    1    3    3    0    0  0.21718747138E+02 -0.48880492260E+02 -0.23000071428E+03  0.23613838119E+03  0.00000000000E+00 0. -1.
         11    1    5    5    0    0  0.29065774205E+02  0.20753532710E+01  0.37950860078E+03  0.38062567490E+03  0.00000000000E+00 0. -1.
        -12    1    5    5    0    0 -0.19275888006E+02  0.49715858980E+02  0.22801684024E+03  0.23416854171E+03  0.00000000000E+00 0.  1.
          5    1    4    4  501    0 -0.48786582782E+02 -0.11062555203E+02  0.75144148936E+01  0.50758739330E+02  0.41800000000E+01 0.  1.
         -5    1    4    4    0  501  0.63401094872E+02  0.28006662031E+02  0.67363680964E+02  0.96744043032E+02  0.41800000000E+01 0.  1.
</event>
<event>
11    1  0.8974665E-009  0.1329059E+03  0.7561462E-02  0.1115749E+00
         22   -1    0    0    0    0  0.00000000000E+00  0.00000000000E+00  0.12764018348E+04  0.12764018348E+04  0.00000000000E+00 0. -1.
         22   -1    0    0    0    0 -0.00000000000E+00 -0.00000000000E+00 -0.72717478973E+03  0.72717478973E+03  0.00000000000E+00 0.  1.
        -24    2    1    2    0    0  0.11652541668E+02 -0.40801750213E+02 -0.49123943488E+03  0.49945756444E+03  0.79631097906E+02 0.  0.
         25    2    1    2    0    0  0.10153068012E+02  0.61655263917E+02 -0.20909424025E+03  0.25153667931E+03  0.12508334570E+03 0.  0.
         24    2    1    2    0    0 -0.21805609680E+02 -0.20853513704E+02  0.12495607202E+04  0.12525823808E+04  0.81549209066E+02 0.  0.
        -13    1    5    5    0    0  0.13865074433E+01  0.21349024042E+02  0.11332944972E+03  0.11533112071E+03  0.00000000000E+00 0.  1.
         14    1    5    5    0    0 -0.23192117123E+02 -0.42202537747E+02  0.11362312705E+04  0.11372512601E+04  0.00000000000E+00 0. -1.
         13    1    3    3    0    0  0.36035317508E+01  0.12311277654E+00  0.22228356364E+01  0.42357521293E+01  0.00000000000E+00 0. -1.
        -14    1    3    3    0    0  0.80490099173E+01 -0.40924862989E+02 -0.49346227051E+03  0.49522181231E+03  0.00000000000E+00 0.  1.
          5    1    4    4  501    0 -0.21241505953E+01  0.34322588279E+02 -0.21741681608E+03  0.22015925235E+03  0.41800000000E+01 0. -1.
         -5    1    4    4    0  501  0.12277218607E+02  0.27332675639E+02  0.83225758240E+01  0.31377426960E+02  0.41800000000E+01 0. -1.
</event>
<event>
11    1  0.8974665E-009  0.1493637E+03  0.7561462E-02  0.1097531E+00
         22   -1    0    0    0    0  0.00000000000E+00  0.00000000000E+00  0.97855414445E+02  0.97855414445E+02  0.00000000000E+00 0. -1.
         22   -1    0    0    0    0 -0.00000000000E+00 -0.00000000000E+00 -0.13553830254E+04  0.13553830254E+04  0.00000000000E+00 0. -1.
         24    2    1    2    0    0  0.38297832586E+02  0.83266484260E+02 -0.10469215213E+04  0.10548389066E+04  0.90776735522E+02 0.  0.
         25    2    1    2    0    0  0.18452953413E+02 -0.48948114905E+02 -0.25218436535E+03  0.28632361057E+03  0.12509127230E+03 0.  0.
        -24    2    1    2    0    0 -0.56750785998E+02 -0.34318369355E+02  0.41578275684E+02  0.11207592269E+03  0.80211328694E+02 0.  0.
        -13    1    3    3    0    0  0.23696248461E+01 -0.19354080851E+02 -0.12195686162E+03  0.12350575559E+03  0.00000000000E+00 0.  1.
         14    1    3    3    0    0  0.35928207740E+02  0.10262056511E+03 -0.92496465965E+03  0.93133315097E+03  0.00000000000E+00 0. -1.
         11    1    5    5    0    0 -0.46429020309E+02 -0.47614313014E+02  0.58233562243E+02  0.88396405482E+02  0.00000000000E+00 0. -1.
        -12    1    5    5    0    0 -0.10321765689E+02  0.13295943659E+02 -0.16655286559E+02  0.23679517205E+02  0.00000000000E+00 0.  1.
          5    1    4    4  501    0  0.70037849866E+02 -0.34775424235E+02 -0.18072022243E+03  0.19695659862E+03  0.41800000000E+01 0. -1.
         -5    1    4    4    0  501 -0.51584896454E+02 -0.14172690670E+02 -0.71464142914E+02  0.89367011953E+02  0.41800000000E+01 0. -1.
</event>
<event>
11    1  0.8974665E-009  0.2473702E+03  0.7561462E-02  0.1025310E+00
         22   -1    0    0    0    0  0.00000000000E+00  0.00000000000E+00  0.29944722920E+03  0.29944722920E+03  0.00000000000E+00 0.  1.
         22   -1    0    0    0    0 -0.00000000000E+00 -0.00000000000E+00 -0.11113915545E+04  0.11113915545E+04  0.00000000000E+00 0. -1.
         24    2    1    2    0    0  0.87344373269E+00 -0.21322305521E+03 -0.83731290455E+03  0.86773575422E+03  0.80047516096E+02 0.  0.
         25    2    1    2    0    0  0.68944165232E+02  0.21237984970E+03 -0.17914170858E+03  0.31240761818E+03  0.12509304403E+03 0.  0.
        -24    2    1    2    0    0 -0.69817608965E+02  0.84320551467E+00  0.20451028785E+03  0.23069541129E+03  0.80750885030E+02 0.  0.
        -13    1    3    3    0    0 -0.74967808857E+01 -0.77615160340E+02 -0.17433124790E+03  0.19097564984E+03  0.00000000000E+00 0.  1.
         14    1    3    3    0    0  0.83702246184E+01 -0.13560789487E+03 -0.66298165665E+03  0.67676010437E+03  0.00000000000E+00 0. -1.
         13    1    5    5    0    0 -0.38153310104E+01 -0.17589192585E+02  0.35137485209E+01  0.18338017210E+02  0.00000000000E+00 0. -1.
        -14    1    5    5    0    0 -0.66002277954E+02  0.18432398100E+02  0.20099653933E+03  0.21235739408E+03  0.00000000000E+00 0.  1.
          5    1    4    4  501    0 -0.85526062511E+01 -0.78273059439E+01 -0.37144249416E+02  0.39135424575E+02  0.41800000000E+01 0.  1.
         -5    1    4    4    0  501  0.77496771483E+02  0.22020715564E+03 -0.14199745916E+03  0.27327219360E+03  0.41800000000E+01 0.  1.
</event>
<event>
11    1  0.8974665E-009  0.1609020E+03  0.7561462E-02  0.1086232E+00
         22   -1    0    0    0    0  0.00000000000E+00  0.00000000000E+00  0.21992572554E+03  0.21992572554E+03  0.00000000000E+00 0.  1.
         22   -1    0    0    0    0 -0.00000000000E+00 -0.00000000000E+00 -0.15492169849E+04  0.15492169849E+04  0.00000000000E+00 0. -1.
         24    2    1    2    0    0 -0.16967673619E+02 -0.32465262636E+02 -0.38017533747E+03  0.39030599419E+03  0.80396434356E+02 0.  0.
         25    2    1    2    0    0  0.82725671487E+02  0.10862735800E+03 -0.11364358170E+04  0.11514210671E+04  0.12506265624E+03 0.  0.
        -24    2    1    2    0    0 -0.65757997868E+02 -0.76162095367E+02  0.18731989516E+03  0.22741564909E+03  0.80649583246E+02 0.  0.
        -13    1    3    3    0    0  0.78907988063E+01  0.20380041173E+01 -0.40251676434E+00  0.81596682732E+01  0.00000000000E+00 0.  1.
         14    1    3    3    0    0 -0.24858472425E+02 -0.34503266753E+02 -0.37977282070E+03  0.38214632592E+03  0.00000000000E+00 0. -1.
         13    1    5    5    0    0 -0.34275184457E+02 -0.43316693486E+01  0.14186052664E+02  0.37346963988E+02  0.00000000000E+00 0. -1.
        -14    1    5    5    0    0 -0.31482813411E+02 -0.71830426018E+02  0.17313384249E+03  0.19006868511E+03  0.00000000000E+00 0.  1.
          5    1    4    4  501    0  0.11767487418E+02  0.97587195403E+02 -0.86641710734E+03  0.87198498310E+03  0.41800000000E+01 0. -1.
         -5    1    4    4    0  501  0.70958184069E+02  0.11040162599E+02 -0.27001870969E+03  0.27943608403E+03  0.41800000000E+01 0. -1.
</event>
<event>
11    1  0.8974665E-009  0.2378710E+03  0.7561462E-02  0.1030566E+00
         22   -1    0    0    0    0  0.00000000000E+00  0.00000000000E+00  0.89987131386E+03  0.89987131386E+03  0.00000000000E+00 0.  1.
         22   -1    0    0    0    0 -0.00000000000E+00 -0.00000000000E+00 -0.36149285205E+03  0.36149285205E+03  0.00000000000E+00 0. -1.
         24    2    1    2    0    0 -0.65242035984E+02 -0.19634942287E+03 -0.28453627674E+03  0.36076558434E+03  0.79883007831E+02 0.  0.
         25    2    1    2    0    0  0.80652180075E+02  0.14631997068E+03  0.27973888457E+03  0.34902150838E+03  0.12509141379E+03 0.  0.
        -24    2    1    2    0    0 -0.15410144090E+02  0.50029452189E+02  0.54317585398E+03  0.55157707319E+03  0.80354469064E+02 0.  0.
        -11    1    3    3    0    0  0.15268672378E+02 -0.87126233499E+01 -0.20972622673E+02  0.27365910612E+02  0.00000000000E+00 0.  1.
         12    1    3    3    0    0 -0.80510708362E+02 -0.18763679952E+03 -0.26356365407E+03  0.33339967372E+03  0.00000000000E+00 0. -1.
         11    1    5    5    0    0 -0.37372289644E+01  0.33061470362E+02  0.65581334070E+02  0.73538691049E+02  0.00000000000E+00 0. -1.
        -12    1    5    5    0    0 -0.11672915126E+02  0.16967981827E+02  0.47759451991E+03  0.47803838214E+03  0.00000000000E+00 0.  1.
          5    1    4    4  501    0  0.22530770410E+02  0.99453726465E+02  0.63461616677E+02  0.12018123196E+03  0.41800000000E+01 0.  1.
         -5    1    4    4    0  501  0.58121409664E+02  0.46866244213E+02  0.21627726789E+03  0.22884027643E+03  0.41800000000E+01 0.  1.
</event>
<event>
11    1  0.8974665E-009  0.2869070E+03  0.7561462E-02  0.1005890E+00
         22   -1    0    0    0    0  0.00000000000E+00  0.00000000000E+00  0.31770067223E+03  0.31770067223E+03  0.00000000000E+00 0. -1.
         22   -1    0    0    0    0 -0.00000000000E+00 -0.00000000000E+00 -0.41369090404E+03  0.41369090404E+03  0.00000000000E+00 0.  1.
        -24    2    1    2    0    0  0.45127699979E+02 -0.38333839864E+02 -0.12460548378E+03  0.16018884270E+03  0.81412199040E+02 0.  0.
         25    2    1    2    0    0  0.11737044401E+03  0.23708616577E+03 -0.35592326744E+02  0.29478833107E+03  0.12509066825E+03 0.  0.
         24    2    1    2    0    0 -0.16249814399E+03 -0.19875232591E+03  0.64207578717E+02  0.27641440250E+03  0.79838429939E+02 0.  0.
        -13    1    5    5    0    0 -0.73149295045E+02 -0.65277395031E+02 -0.11745299406E+02  0.98741631169E+02  0.00000000000E+00 0.  1.
         14    1    5    5    0    0 -0.89348848941E+02 -0.13347493088E+03  0.75952878123E+02  0.17767277134E+03  0.00000000000E+00 0. -1.
         13    1    3    3    0    0 -0.27288615100E+01  0.22643916035E+02 -0.34122091989E+02  0.41042792062E+02  0.00000000000E+00 0. -1.
        -14    1    3    3    0    0  0.47856561489E+02 -0.60977755898E+02 -0.90483391794E+02  0.11914605064E+03  0.00000000000E+00 0.  1.
          5    1    4    4  501    0  0.96679182733E+02  0.23541059953E+03 -0.60981605900E+02  0.26172742195E+03  0.41800000000E+01 0.  1.
         -5    1    4    4    0  501  0.20691261274E+02  0.16755662433E+01  0.25389279155E+02  0.33060909113E+02  0.41800000000E+01 0.  1.
</event>
<event>
11    1  0.8974665E-009  0.1441450E+03  0.7561462E-02  0.1103016E+00
         22   -1    0    0    0    0  0.00000000000E+00  0.00000000000E+00  0.24564369118E+03  0.24564369118E+03  0.00000000000E+00 0.  1.
         22   -1    0    0    0    0 -0.00000000000E+00 -0.00000000000E+00 -0.12092821449E+04  0.12092821449E+04  0.00000000000E+00 0. -1.
         24    2    1    2    0    0  0.53026179480E+01  0.75403236949E+02 -0.55087790135E+03  0.56197089800E+03  0.81431333698E+02 0.  0.
         25    2    1    2    0    0  0.31163164652E+02 -0.64576773621E+02 -0.63584387218E+03  0.65198559564E+03  0.12508590890E+03 0.  0.
        -24    2    1    2    0    0 -0.36465782599E+02 -0.10826463328E+02  0.22308331979E+03  0.24096934247E+03  0.82783397071E+02 0.  0.
        -11    1    3    3    0    0 -0.63188276819E+01  0.64725382948E+01 -0.28227831780E+01  0.94757290021E+01  0.00000000000E+00 0.  1.
         12    1    3    3    0    0  0.11621445630E+02  0.68930698654E+02 -0.54805511817E+03  0.55249516900E+03  0.00000000000E+00 0. -1.
         11    1    5    5    0    0  0.17238077472E+02 -0.29264709748E+02  0.73366091657E+02  0.80846508623E+02  0.00000000000E+00 0. -1.
        -12    1    5    5    0    0 -0.53703860072E+02  0.18438246420E+02  0.14971722813E+03  0.16012283384E+03  0.00000000000E+00 0.  1.
          5    1    4    4  501    0  0.47717856434E+02 -0.79153895779E+02 -0.26919882619E+03  0.28465384849E+03  0.41800000000E+01 0. -1.
         -5    1    4    4    0  501 -0.16554691782E+02  0.14577122158E+02 -0.36664504600E+03  0.36733174715E+03  0.41800000000E+01 0. -1.
</event>
<event>
11    1  0.8974665E-009  0.3075520E+03  0.7561462E-02  0.9970448E-01
         22   -1    0    0    0    0  0.00000000000E+00  0.00000000000E+00  0.10604680148E+04  0.10604680148E+04  0.00000000000E+00 0. -1.
         22   -1    0    0    0    0 -0.00000000000E+00 -0.00000000000E+00 -0.16800174393E+04  0.16800174393E+04  0.00000000000E+00 0. -1.
        -24    2    1    2    0    0 -0.23978727337E+03  0.11095150435E+03 -0.14042128187E+04  0.14310616407E+04  0.79470791020E+02 0.  0.
         25    2    1    2    0    0  0.45556682682E+03  0.48802945027E+02 -0.14643417055E+01  0.47494135198E+03  0.12507710576E+03 0.  0.
         24    2    1    2    0    0 -0.21577955345E+03 -0.15975444938E+03  0.78612773594E+03  0.83448246143E+03  0.79258194818E+02 0.  0.
        -13    1    5    5    0    0 -0.59718159667E+02 -0.78113979624E+02  0.20701904969E+03  0.22918320039E+03  0.00000000000E+00 0.  1.
         14    1    5    5    0    0 -0.15606139378E+03 -0.81640469752E+02  0.57910868625E+03  0.60529926104E+03  0.00000000000E+00 0. -1.
         11    1    3    3    0    0 -0.19344558285E+03  0.51075739172E+02 -0.10369775932E+04  0.10561024824E+04  0.00000000000E+00 0. -1.
        -12    1    3    3    0    0 -0.46341690524E+02  0.59875765177E+02 -0.36723522552E+03  0.37495915831E+03  0.00000000000E+00 0.  1.
          5    1    4    4  501    0 -0.63330663064E+01  0.33722864357E+01  0.67807622802E+01  0.10720596147E+02  0.41800000000E+01 0.  1.
         -5    1    4    4    0  501  0.46189989313E+03  0.45430658591E+02 -0.82451039856E+01  0.46422075584E+03  0.41800000000E+01 0.  1.
</event>
<event>
11    1  0.8974665E-009  0.1872506E+03  0.7561462E-02  0.1063924E+00
         22   -1    0    0    0    0  0.00000000000E+00  0.00000000000E+00  0.65476568158E+03  0.65476568158E+03  0.00000000000E+00 0. -1.
         22   -1    0    0    0    0 -0.00000000000E+00 -0.00000000000E+00 -0.36145670120E+03  0.36145670120E+03  0.00000000000E+00 0.  1.
         24    2    1    2    0    0  0.46877780508E+01  0.62777766027E+02 -0.19344967281E+03  0.21789769800E+03  0.78061563595E+02 0.  0.
         25    2    1    2    0    0  0.46381330819E+02 -0.18790284046E+03 -0.52193762045E+02  0.23628576064E+03  0.12509223230E+03 0.  0.
        -24    2    1    2    0    0 -0.51069108870E+02  0.12512507444E+03  0.53895241524E+03  0.56203892415E+03  0.84579596983E+02 0.  0.
        -13    1    3    3    0    0 -0.30743743425E+02  0.43185679845E+02 -0.14706958635E+03  0.15633183916E+03  0.00000000000E+00 0.  1.
         14    1    3    3    0    0  0.35431521475E+02  0.19592086181E+02 -0.46380086458E+02  0.61565858841E+02  0.00000000000E+00 0. -1.
         11    1    5    5    0    0  0.80000565914E+01  0.89089660754E+02  0.33123786426E+03  0.34310274158E+03  0.00000000000E+00 0. -1.
        -12    1    5    5    0    0 -0.59069165461E+02  0.36035413681E+02  0.20771455099E+03  0.21893618257E+03  0.00000000000E+00 0.  1.
          5    1    4    4  501    0 -0.17577477876E+02 -0.58062828066E+02 -0.67298094321E+02  0.90701519451E+02  0.41800000000E+01 0.  1.
         -5    1    4    4    0  501  0.63958808695E+02 -0.12984001240E+03  0.15104332276E+02  0.14558424119E+03  0.41800000000E+01 0.  1.
</event>
<event>
11    1  0.8974665E-009  0.2139507E+03  0.7561462E-02  0.1045074E+00
         22   -1    0    0    0    0  0.00000000000E+00  0.00000000000E+00  0.24058449862E+03  0.24058449862E+03  0.00000000000E+00 0.  1.
         22   -1    0    0    0    0 -0.00000000000E+00 -0.00000000000E+00 -0.16356814680E+04  0.16356814680E+04  0.00000000000E+00 0. -1.
        -24    2    1    2    0    0  0.88860901804E+01 -0.84080753158E+01 -0.13962266609E+04  0.13984968622E+04  0.78707856532E+02 0.  0.
         25    2    1    2    0    0  0.63760454316E+02 -0.15187194275E+03 -0.13076528023E+03  0.24469811117E+03  0.12508846697E+03 0.  0.
         24    2    1    2    0    0 -0.72646544496E+02  0.16028001807E+03  0.13189497173E+03  0.23307099326E+03  0.77191966624E+02 0.  0.
        -11    1    5    5    0    0 -0.72150050649E+02  0.16738440599E+03  0.13329717897E+03  0.22581254859E+03  0.00000000000E+00 0.  1.
         12    1    5    5    0    0 -0.49649384666E+00 -0.71043879227E+01 -0.14022072408E+01  0.72584446710E+01  0.00000000000E+00 0. -1.
         11    1    3    3    0    0  0.18798566291E+02 -0.39001121926E+02 -0.10124042459E+04  0.10133295765E+04  0.00000000000E+00 0. -1.
        -12    1    3    3    0    0 -0.99124761103E+01  0.30593046611E+02 -0.38382241503E+03  0.38516728568E+03  0.00000000000E+00 0.  1.
          5    1    4    4  501    0  0.23986431227E+01 -0.13760344199E+03 -0.11556009982E+03  0.17975558352E+03  0.41800000000E+01 0. -1.
         -5    1    4    4    0  501  0.61361811193E+02 -0.14268500766E+02 -0.15205180408E+02  0.64942527655E+02  0.41800000000E+01 0. -1.
</event>
<event>
11    1  0.8974665E-009  0.1850526E+03  0.7561462E-02  0.1065628E+00
         22   -1    0    0    0    0  0.00000000000E+00  0.00000000000E+00  0.83694292222E+03  0.83694292222E+03  0.00000000000E+00 0. -1.
         22   -1    0    0    0    0 -0.00000000000E+00 -0.00000000000E+00 -0.98368734986E+03  0.98368734986E+03  0.00000000000E+00 0. -1.
        -24    2    1    2    0    0 -0.68912003066E+02 -0.10611093458E+03 -0.87680593078E+03  0.88960558966E+03  0.81246971077E+02 0.  0.
         25    2    1    2    0    0 -0.37467314704E+02  0.42055690374E+01 -0.44908617268E+02  0.13815461425E+03  0.12509367311E+03 0.  0.
         24    2    1    2    0    0  0.10637931777E+03  0.10190536554E+03  0.77497012041E+03  0.79287006816E+03  0.79768381534E+02 0.  0.
        -11    1    5    5    0    0  0.68170659604E+02  0.73753145622E+02  0.31899608068E+03  0.33443275080E+03  0.00000000000E+00 0.  1.
         12    1    5    5    0    0  0.38208658166E+02  0.28152219917E+02  0.45597403973E+03  0.45843731737E+03  0.00000000000E+00 0. -1.
         11    1    3    3    0    0 -0.73391039173E+02 -0.97634697983E+02 -0.58368352355E+03  0.59632644964E+03  0.00000000000E+00 0. -1.
        -12    1    3    3    0    0  0.44790361070E+01 -0.84762365926E+01 -0.29312240723E+03  0.29327914002E+03  0.00000000000E+00 0.  1.
          5    1    4    4  501    0  0.94587682382E+01  0.52578441044E+02 -0.46000340664E+02  0.70621983124E+02  0.41800000000E+01 0.  1.
         -5    1    4    4    0  501 -0.46926082943E+02 -0.48372872007E+02  0.10917233962E+01  0.67532631124E+02  0.41800000000E+01 0.  1.
</event>
<event>
11    1  0.8974665E-009  0.1276185E+03  0.7561462E-02  0.1122230E+00
         22   -1    0    0    0    0  0.00000000000E+00  0.00000000000E+00  0.11418044224E+04  0.11418044224E+04  0.00000000000E+00 0. -1.
         22   -1    0    0    0    0 -0.00000000000E+00 -0.00000000000E+00 -0.82661857248E+02  0.82661857248E+02  0.00000000000E+00 0. -1.
         24    2    1    2    0    0  0.16531108819E+02 -0.19206470151E+02 -0.41419685286E+02  0.95866362145E+02  0.82659560895E+02 0.  0.
         25    2    1    2    0    0  0.12749507366E+02  0.40775124774E+02  0.36450794633E+03  0.38773563896E+03  0.12509085517E+03 0.  0.
        -24    2    1    2    0    0 -0.29280616185E+02 -0.21568654622E+02  0.73605430415E+03  0.74086427858E+03  0.76035381719E+02 0.  0.
        -13    1    3    3    0    0 -0.56519601174E+01 -0.27917395462E+01  0.24026687471E+02  0.24839890775E+02  0.00000000000E+00 0.  1.
         14    1    3    3    0    0  0.22183068936E+02 -0.16414730605E+02 -0.65446372757E+02  0.71026471370E+02  0.00000000000E+00 0. -1.
         13    1    5    5    0    0  0.22406149516E+02 -0.23143777157E+02  0.31658503322E+03  0.31821966189E+03  0.00000000000E+00 0. -1.
        -14    1    5    5    0    0 -0.51686765701E+02  0.15751225347E+01  0.41946927093E+03  0.42264461668E+03  0.00000000000E+00 0.  1.
          5    1    4    4  501    0  0.39057351796E+02  0.26049951762E+02  0.35148257660E+03  0.35462875063E+03  0.41800000000E+01 0. -1.
         -5    1    4    4    0  501 -0.26307844431E+02  0.14725173011E+02  0.13025369727E+02  0.33106888336E+02  0.41800000000E+01 0. -1.
</event>
<event>
11    1  0.8974665E-009  0.1549541E+03  0.7561462E-02  0.1091921E+00
         22   -1    0    0    0    0  0.00000000000E+00  0.00000000000E+00  0.88872552739E+02  0.88872552739E+02  0.00000000000E+00 0. -1.
         22   -1    0    0    0    0 -0.00000000000E+00 -0.00000000000E+00 -0.87321646191E+03  0.87321646191E+03  0.00000000000E+00 0. -1.
        -24    2    1    2    0    0  0.92229645049E+01 -0.92605536569E+01 -0.52004397584E+03  0.52682517090E+03  0.83235827361E+02 0.  0.
         25    2    1    2    0    0 -0.32278578486E+02  0.95855425502E+02 -0.27106043696E+03  0.31520050143E+03  0.12508967340E+03 0.  0.
         24    2    1    2    0    0  0.23055613981E+02 -0.86594871846E+02  0.67605036218E+01  0.12006334232E+03  0.79619523954E+02 0.  0.
        -13    1    5    5    0    0  0.32831666581E+02 -0.53922527513E+02 -0.30019705431E+02  0.69905221679E+02  0.00000000000E+00 0.  1.
         14    1    5    5    0    0 -0.97760525995E+01 -0.32672344332E+02  0.36780209053E+02  0.50158120644E+02  0.00000000000E+00 0. -1.
         11    1    3    3    0    0  0.15240277573E+02  0.33169826577E+02 -0.32980469515E+03  0.33181868603E+03  0.00000000000E+00 0. -1.
        -12    1    3    3    0    0 -0.60173130683E+01 -0.42430380234E+02 -0.19023928069E+03  0.19500648486E+03  0.00000000000E+00 0.  1.
          5    1    4    4  501    0 -0.25741062231E+02  0.10574963210E+02  0.27851203651E+01  0.28278285434E+02  0.41800000000E+01 0. -1.
         -5    1    4    4    0  501 -0.65375162552E+01  0.85280462292E+02 -0.27384555732E+03  0.28692221600E+03  0.41800000000E+01 0. -1.
</event>
<event>
11    1  0.8974665E-009  0.1459761E+03  0.7561462E-02  0.1101063E+00
         22   -1    0    0    0    0  0.00000000000E+00  0.00000000000E+00  0.19361977435E+03  0.19361977435E+03  0.00000000000E+00 0. -1.
         22   -1    0    0    0    0 -0.00000000000E+00 -0.00000000000E+00 -0.20921401498E+04  0.20921401498E+04  0.00000000000E+00 0.  1.
        -24    2    1    2    0    0  0.32508386210E+02 -0.54039716613E+02 -0.15893183042E+04  0.15926041605E+04  0.80487601491E+02 0.  0.
         25    2    1    2    0    0 -0.42582353176E+02  0.12673615953E+03 -0.46792349506E+03  0.50246887339E+03  0.12508901053E+03 0.  0.
         24    2    1    2    0    0  0.10073966966E+02 -0.72696442914E+02  0.15872142381E+03  0.19068689021E+03  0.76044342969E+02 0.  0.
        -11    1    5    5    0    0 -0.17632950225E+02  0.44617864605E+01  0.58184999367E+02  0.60961648792E+02  0.00000000000E+00 0.  1.
         12    1    5    5    0    0  0.27706917192E+02 -0.77158229374E+02  0.10053642444E+03  0.12972524142E+03  0.00000000000E+00 0. -1.
         13    1    3    3    0    0  0.11099584134E+02  0.20820931460E+02 -0.46018325551E+03  0.46078773921E+03  0.00000000000E+00 0. -1.
        -14    1    3    3    0    0  0.21408802076E+02 -0.74860648073E+02 -0.11291350487E+04  0.11318164213E+04  0.00000000000E+00 0.  1.
          5    1    4    4  501    0 -0.32995713434E+02  0.11680491478E+03 -0.47208628327E+03  0.48745772788E+03  0.41800000000E+01 0.  1.
         -5    1    4    4    0  501 -0.95866397421E+01  0.99312447469E+01  0.41627882027E+01  0.15011145506E+02  0.41800000000E+01 0.  1.
</event>
<event>
11    1  0.1012889E-008  0.1291168E+03  0.7561462E-02  0.1120359E+00
         22   -1    0    0    0    0  0.00000000000E+00  0.00000000000E+00  0.64327929129E+03  0.64327929129E+03  0.00000000000E+00 0.  1.
         22   -1    0    0    0    0 -0.00000000000E+00 -0.00000000000E+00 -0.25150332695E+04  0.25150332695E+04  0.00000000000E+00 0. -1.
         24    2    1    2    0    0 -0.28285583297E+02 -0.31788746670E+02 -0.21039748755E+04  0.21071709361E+04  0.10792811797E+03 0.  0.
         25    2    1    2    0    0 -0.18317188228E+02 -0.33625333076E+02 -0.39377330495E+03  0.41492759602E+03  0.12506523035E+03 0.  0.
        -24    2    1    2    0    0  0.46602771525E+02  0.65414079746E+02  0.62599420217E+03  0.63621402872E+03  0.80303978998E+02 0.  0.
        -11    1    3    3    0    0  0.98513323600E+00 -0.52704654781E+02 -0.49593108271E+03  0.49872476370E+03  0.00000000000E+00 0.  1.
         12    1    3    3    0    0 -0.29270716533E+02  0.20915908111E+02 -0.16080437927E+04  0.16084461724E+04  0.00000000000E+00 0. -1.
         11    1    5    5    0    0  0.12713787790E+02  0.39303488698E+02  0.96183549150E+02  0.10467893652E+03  0.00000000000E+00 0. -1.
        -12    1    5    5    0    0  0.33888983735E+02  0.26110591048E+02  0.52981065302E+03  0.53153509220E+03  0.00000000000E+00 0.  1.
          5    1    4    4  501    0 -0.12553828739E+01 -0.35248918495E+02 -0.20046705568E+02  0.40784862944E+02  0.41800000000E+01 0.  1.
         -5    1    4    4    0  501 -0.17061805354E+02  0.16235854188E+01 -0.37372659938E+03  0.37414273308E+03  0.41800000000E+01 0.  1.
</event>
<event>
11    1  0.8974665E-009  0.2061259E+03  0.7561462E-02  0.1050274E+00
         22   -1    0    0    0    0  0.00000000000E+00  0.00000000000E+00  0.87951853342E+03  0.87951853342E+03  0.00000000000E+00 0. -1.
         22   -1    0    0    0    0 -0.00000000000E+00 -0.00000000000E+00 -0.80150611699E+03  0.80150611699E+03  0.00000000000E+00 0.  1.
        -24    2    1    2    0    0  0.33770565607E+02  0.14976293880E+03 -0.46931559534E+03  0.50026202114E+03  0.80222022071E+02 0.  0.
         25    2    1    2    0    0  0.58407081708E+01 -0.19693562689E+03 -0.27010316392E+03  0.35696109278E+03  0.12509095726E+03 0.  0.
         24    2    1    2    0    0 -0.39611273777E+02  0.47172688083E+02  0.81743117569E+03  0.82380153649E+03  0.81614514769E+02 0.  0.
        -13    1    5    5    0    0 -0.70835313339E+01 -0.17106643807E+02  0.56250511158E+02  0.59219369163E+02  0.00000000000E+00 0.  1.
         14    1    5    5    0    0 -0.32527742443E+02  0.64279331890E+02  0.76118066453E+03  0.76458216733E+03  0.00000000000E+00 0. -1.
         13    1    3    3    0    0  0.56232343103E+02  0.72178464080E+02 -0.27523767148E+03  0.29004755281E+03  0.00000000000E+00 0. -1.
        -14    1    3    3    0    0 -0.22461777496E+02  0.77584474725E+02 -0.19407792385E+03  0.21021446833E+03  0.00000000000E+00 0.  1.
          5    1    4    4  501    0 -0.45230481333E+02 -0.16903240803E+03 -0.20184005023E+03  0.26716030709E+03  0.41800000000E+01 0. -1.
         -5    1    4    4    0  501  0.51071189504E+02 -0.27903218855E+02 -0.68263113695E+02  0.89800785694E+02  0.41800000000E+01 0. -1.
</event>
<event>
11    1  0.8974665E-009  0.1546222E+03  0.7561462E-02  0.1092247E+00
         22   -1    0    0    0    0  0.00000000000E+00  0.00000000000E+00  0.66434496034E+03  0.66434496034E+03  0.00000000000E+00 0. -1.
         22   -1    0    0    0    0 -0.00000000000E+00 -0.00000000000E+00 -0.21546771402E+04  0.21546771402E+04  0.00000000000E+00 0. -1.
         24    2    1    2    0    0 -0.44513611155E-01  0.26585541400E+02 -0.18316788234E+04  0.18336593977E+04  0.80948635916E+02 0.  0.
         25    2    1    2    0    0 -0.75601682728E+02 -0.76484300902E+02 -0.29482125084E+03  0.33783716164E+03  0.12509562389E+03 0.  0.
        -24    2    1    2    0    0  0.75646196339E+02  0.49898759502E+02  0.63616789440E+03  0.64752554119E+03  0.79796637832E+02 0.  0.
        -11    1    3    3    0    0 -0.37908112228E+02  0.10392659068E+01 -0.10104267605E+04  0.10111381426E+04  0.00000000000E+00 0.  1.
         12    1    3    3    0    0  0.37863598617E+02  0.25546275494E+02 -0.82125206291E+03  0.82252125512E+03  0.00000000000E+00 0. -1.
         13    1    5    5    0    0 -0.16101998134E+02  0.13541561746E+02  0.14738276514E+03  0.14887688772E+03  0.00000000000E+00 0. -1.
        -14    1    5    5    0    0  0.91748194473E+02  0.36357197756E+02  0.48878512926E+03  0.49864865347E+03  0.00000000000E+00 0.  1.
          5    1    4    4  501    0 -0.84319887313E+02 -0.79502719211E+02 -0.30324573253E+03  0.32466285968E+03  0.41800000000E+01 0.  1.
         -5    1    4    4    0  501  0.87182045858E+01  0.30184183085E+01  0.84244816869E+01  0.13174301954E+02  0.41800000000E+01 0.  1.
</event>
<event>
11    1  0.8974665E-009  0.1689085E+03  0.7561462E-02  0.1078985E+00
         22   -1    0    0    0    0  0.00000000000E+00  0.00000000000E+00  0.19725049641E+03  0.19725049641E+03  0.00000000000E+00 0. -1.
         22   -1    0    0    0    0 -0.00000000000E+00 -0.00000000000E+00 -0.12127587188E+04  0.12127587188E+04  0.00000000000E+00 0.  1.
         24    2    1    2    0    0  0.13152039848E+03  0.68054046261E+01 -0.93007588575E+03  0.94289971386E+03  0.81699378173E+02 0.  0.
         25    2    1    2    0    0 -0.60768629894E+02  0.42184286842E+01 -0.24055076366E+03  0.27788925339E+03  0.12508855155E+03 0.  0.
        -24    2    1    2    0    0 -0.70751768589E+02 -0.11023833310E+02  0.15511842704E+03  0.18922024796E+03  0.81334114434E+02 0.  0.
        -13    1    3    3    0    0  0.11046960769E+03  0.38448290175E+02 -0.69867649183E+03  0.70840006033E+03  0.00000000000E+00 0.  1.
         14    1    3    3    0    0  0.21050790798E+02 -0.31642885549E+02 -0.23139939391E+03  0.23449965352E+03  0.00000000000E+00 0. -1.
         13    1    5    5    0    0 -0.72781100005E+02 -0.22466189263E+02  0.15953700174E+03  0.17678764975E+03  0.00000000000E+00 0. -1.
        -14    1    5    5    0    0  0.20293314156E+01  0.11442355952E+02 -0.44185747082E+01  0.12432598207E+02  0.00000000000E+00 0.  1.
          5    1    4    4  501    0 -0.29805384543E+02 -0.37408841070E+02 -0.21265498051E+02  0.52511676276E+02  0.41800000000E+01 0.  1.
         -5    1    4    4    0  501 -0.30963245351E+02  0.41627269755E+02 -0.21928526561E+03  0.22537757711E+03  0.41800000000E+01 0.  1.
</event>
<event>
11    1  0.8974665E-009  0.1697202E+03  0.7561462E-02  0.1078275E+00
         22   -1    0    0    0    0  0.00000000000E+00  0.00000000000E+00  0.58862492969E+03  0.58862492969E+03  0.00000000000E+00 0.  1.
         22   -1    0    0    0    0 -0.00000000000E+00 -0.00000000000E+00 -0.10074555300E+04  0.10074555300E+04  0.00000000000E+00 0.  1.
         24    2    1    2    0    0 -0.25863514328E+02  0.26956768088E+02 -0.86888414934E+03  0.87328825229E+03  0.79228264509E+02 0.  0.
         25    2    1    2    0    0 -0.20091811932E+02 -0.13096359124E+03 -0.61662548260E+02  0.19236651157E+03  0.12508981484E+03 0.  0.
        -24    2    1    2    0    0  0.45955326260E+02  0.10400682315E+03  0.51171609731E+03  0.53042569581E+03  0.81047783805E+02 0.  0.
        -13    1    3    3    0    0 -0.50678253093E+02  0.33544832618E+02 -0.67072867216E+03  0.67347642333E+03  0.00000000000E+00 0.  1.
         14    1    3    3    0    0  0.24814738764E+02 -0.65880645293E+01 -0.19815547718E+03  0.19981182896E+03  0.00000000000E+00 0. -1.
         13    1    5    5    0    0  0.19347283971E+02  0.14667231346E+02  0.24945732292E+02  0.34809978914E+02  0.00000000000E+00 0. -1.
        -14    1    5    5    0    0  0.26608042289E+02  0.89339591802E+02  0.48677036502E+03  0.49561571690E+03  0.00000000000E+00 0.  1.
          5    1    4    4  501    0 -0.69121644207E+02 -0.56301004809E+02 -0.11912565183E+02  0.90038805243E+02  0.41800000000E+01 0. -1.
         -5    1    4    4    0  501  0.49029832275E+02 -0.74662586427E+02 -0.49749983077E+02  0.10232770632E+03  0.41800000000E+01 0. -1.
</event>
<event>
11    1  0.8974665E-009  0.1437533E+03  0.7561462E-02  0.1103438E+00
         22   -1    0    0    0    0  0.00000000000E+00  0.00000000000E+00  0.78285355059E+03  0.78285355059E+03  0.00000000000E+00 0.  1.
         22   -1    0    0    0    0 -0.00000000000E+00 -0.00000000000E+00 -0.74216645368E+03  0.74216645368E+03  0.00000000000E+00 0.  1.
        -24    2    1    2    0    0 -0.36865609381E+02 -0.70603030405E+02 -0.61121894603E+03  0.62167854035E+03  0.80942859372E+02 0.  0.
         25    2    1    2    0    0 -0.24474052794E+02  0.25521275266E+02 -0.86877867241E+02  0.15634851074E+03  0.12508708263E+03 0.  0.
         24    2    1    2    0    0  0.61339662175E+02  0.45081755139E+02  0.73878391018E+03  0.74699295318E+03  0.80011795101E+02 0.  0.
        -13    1    5    5    0    0  0.20296741213E+02  0.86972875666E+01  0.54895690951E+03  0.54940084548E+03  0.00000000000E+00 0.  1.
         14    1    5    5    0    0  0.41042920962E+02  0.36384467572E+02  0.18982700068E+03  0.19759210771E+03  0.00000000000E+00 0. -1.
         13    1    3    3    0    0  0.37786106533E+01 -0.22090945346E+02 -0.32319288252E+02  0.39329685453E+02  0.00000000000E+00 0. -1.
        -14    1    3    3    0    0 -0.40644220034E+02 -0.48512085059E+02 -0.57889965778E+03  0.58234885489E+03  0.00000000000E+00 0.  1.
          5    1    4    4  501    0 -0.95416322517E+01 -0.42959358207E+02 -0.72136924086E+02  0.84603530778E+02  0.41800000000E+01 0. -1.
         -5    1    4    4    0  501 -0.14932420542E+02  0.68480633473E+02 -0.14740943155E+02  0.71744979959E+02  0.41800000000E+01 0. -1.
</event>
<event>
11    1  0.8974665E-009  0.1370875E+03  0.7561462E-02  0.1110855E+00
         22   -1    0    0    0    0  0.00000000000E+00  0.00000000000E+00  0.51616672249E+03  0.51616672249E+03  0.00000000000E+00 0. -1.
         22   -1    0    0    0    0 -0.00000000000E+00 -0.00000000000E+00 -0.16592828952E+03  0.16592828952E+03  0.00000000000E+00 0. -1.
        -24    2    1    2    0    0 -0.57192039120E+02 -0.15988965572E+02 -0.95238687566E+02  0.13771778057E+03  0.79807287360E+02 0.  0.
         25    2    1    2    0    0  0.39426649633E+02  0.12131411768E+02  0.50063111342E+02  0.14090996393E+03  0.12509065098E+03 0.  0.
         24    2    1    2    0    0  0.17765389487E+02  0.38575538034E+01  0.39541400919E+03  0.40346726752E+03  0.78122388037E+02 0.  0.
        -13    1    5    5    0    0 -0.22123605200E+02  0.17263254081E+00  0.39237483445E+02  0.45045130882E+02  0.00000000000E+00 0.  1.
         14    1    5    5    0    0  0.39888994687E+02  0.36849212626E+01  0.35617652574E+03  0.35842213664E+03  0.00000000000E+00 0. -1.
         11    1    3    3    0    0 -0.57670217635E+02 -0.24581362118E+02 -0.10647789924E+03  0.12356229357E+03  0.00000000000E+00 0. -1.
        -12    1    3    3    0    0  0.47817851551E+00  0.85923965463E+01  0.11239211672E+02  0.14155486997E+02  0.00000000000E+00 0.  1.
          5    1    4    4  501    0  0.23642400790E+02 -0.25681569476E+02 -0.32985928972E+02  0.48208402131E+02  0.41800000000E+01 0.  1.
         -5    1    4    4    0  501  0.15784248844E+02  0.37812981244E+02  0.83049040314E+02  0.92701561795E+02  0.41800000000E+01 0.  1.
</event>
<event>
11    1  0.8974665E-009  0.1362008E+03  0.7561462E-02  0.1111877E+00
         22   -1    0    0    0    0  0.00000000000E+00  0.00000000000E+00  0.15582427621E+03  0.15582427621E+03  0.00000000000E+00 0.  1.
         22   -1    0    0    0    0 -0.00000000000E+00 -0.00000000000E+00 -0.10192104101E+04  0.10192104101E+04  0.00000000000E+00 0.  1.
        -24    2    1    2    0    0 -0.55997939934E+01 -0.39557819995E+02 -0.91838279287E+03  0.92271490186E+03  0.79872755391E+02 0.  0.
         25    2    1    2    0    0 -0.36187650565E+02  0.63982968146E+02  0.51865487033E+01  0.14518257947E+03  0.12509082631E+03 0.  0.
         24    2    1    2    0    0  0.41787444558E+02 -0.24425148151E+02  0.49810110284E+02  0.10713720497E+03  0.81575457196E+02 0.  0.
        -13    1    5    5    0    0  0.36338582935E+02 -0.14589629662E+02  0.72170312477E+02  0.82109097586E+02  0.00000000000E+00 0.  1.
         14    1    5    5    0    0  0.54488616233E+01 -0.98355184895E+01 -0.22360202193E+02  0.25028107381E+02  0.00000000000E+00 0. -1.
         13    1    3    3    0    0  0.17381045875E+02 -0.22895739101E+02 -0.10577353285E+03  0.10961001722E+03  0.00000000000E+00 0. -1.
        -14    1    3    3    0    0 -0.22980839868E+02 -0.16662080895E+02 -0.81260926002E+03  0.81310488463E+03  0.00000000000E+00 0.  1.
          5    1    4    4  501    0 -0.50736014851E+01  0.93661667254E+02 -0.18818933837E+02  0.95759459144E+02  0.41800000000E+01 0. -1.
         -5    1    4    4    0  501 -0.31114049080E+02 -0.29678699108E+02  0.24005482540E+02  0.49423120327E+02  0.41800000000E+01 0. -1.
</event>
<event>
11    1  0.8974665E-009  0.1308588E+03  0.7561462E-02  0.1118218E+00
         22   -1    0    0    0    0  0.00000000000E+00  0.00000000000E+00  0.40055298516E+03  0.40055298516E+03  0.00000000000E+00 0. -1.
         22   -1    0    0    0    0 -0.00000000000E+00 -0.00000000000E+00 -0.37923899988E+03  0.37923899988E+03  0.00000000000E+00 0. -1.
         24    2    1    2    0    0 -0.14085441174E+02  0.20835181958E+02 -0.30440800241E+03  0.31570677780E+03  0.79837542266E+02 0.  0.
         25    2    1    2    0    0 -0.76768230258E+01 -0.51524106374E+02  0.90855491114E+01  0.13581002531E+03  0.12509256022E+03 0.  0.
        -24    2    1    2    0    0  0.21762264200E+02  0.30688924417E+02  0.31663643857E+03  0.32827518194E+03  0.78042005496E+02 0.  0.
        -11    1    3    3    0    0 -0.35599895879E+02 -0.10666594239E+02 -0.81700884154E+02  0.89756132330E+02  0.00000000000E+00 0.  1.
         12    1    3    3    0    0  0.21514454705E+02  0.31501776197E+02 -0.22270711826E+03  0.22595064547E+03  0.00000000000E+00 0. -1.
         11    1    5    5    0    0  0.16617351010E+02  0.53854269491E+02  0.27142528933E+03  0.27721491011E+03  0.00000000000E+00 0. -1.
        -12    1    5    5    0    0  0.51449131899E+01 -0.23165345074E+02  0.45211149243E+02  0.51060271836E+02  0.00000000000E+00 0.  1.
          5    1    4    4  501    0  0.19378825916E+02  0.34574528577E+02 -0.14542447409E+02  0.42425135202E+02  0.41800000000E+01 0. -1.
         -5    1    4    4    0  501 -0.27055648942E+02 -0.86098634952E+02  0.23627996521E+02  0.93384890104E+02  0.41800000000E+01 0. -1.
</event>
<event>
11    1  0.8974665E-009  0.1729017E+03  0.7561462E-02  0.1075534E+00
         22   -1    0    0    0    0  0.00000000000E+00  0.00000000000E+00  0.56690351830E+02  0.56690351830E+02  0.00000000000E+00 0. -1.
         22   -1    0    0    0    0 -0.00000000000E+00 -0.00000000000E+00 -0.25691123960E+04  0.25691123960E+04  0.00000000000E+00 0.  1.
        -24    2    1    2    0    0  0.13115256556E+02  0.35146897416E+02 -0.20630490540E+04  0.20650595913E+04  0.83020491613E+02 0.  0.
         25    2    1    2    0    0  0.10504104183E+03  0.10465689956E+02 -0.33197594772E+03  0.37013058022E+03  0.12508183486E+03 0.  0.
         24    2    1    2    0    0 -0.11815629839E+03 -0.45612587373E+02 -0.11739704244E+03  0.19061257631E+03  0.80682524114E+02 0.  0.
        -13    1    5    5    0    0 -0.37939594561E+01 -0.10377670235E+02 -0.54137801595E+02  0.55253884293E+02  0.00000000000E+00 0.  1.
         14    1    5    5    0    0 -0.11436233893E+03 -0.35234917138E+02 -0.63259240847E+02  0.13535869202E+03  0.00000000000E+00 0. -1.
         11    1    3    3    0    0  0.42697507992E+02  0.70851800787E+01 -0.14557442617E+04  0.14563875282E+04  0.00000000000E+00 0. -1.
        -12    1    3    3    0    0 -0.29582251437E+02  0.28061717338E+02 -0.60730479230E+03  0.60867206304E+03  0.00000000000E+00 0.  1.
          5    1    4    4  501    0  0.20621356349E+01  0.51821279017E+02 -0.91699473933E+02  0.10543226869E+03  0.41800000000E+01 0.  1.
         -5    1    4    4    0  501  0.10297890620E+03 -0.41355589060E+02 -0.24027647378E+03  0.26469831152E+03  0.41800000000E+01 0.  1.
</event>
<event>
11    1  0.8974665E-009  0.1450460E+03  0.7561462E-02  0.1102051E+00
         22   -1    0    0    0    0  0.00000000000E+00  0.00000000000E+00  0.77101799652E+03  0.77101799652E+03  0.00000000000E+00 0.  1.
         22   -1    0    0    0    0 -0.00000000000E+00 -0.00000000000E+00 -0.12643680055E+04  0.12643680055E+04  0.00000000000E+00 0. -1.
         24    2    1    2    0    0  0.65940905259E+02 -0.32257030713E+02 -0.12013880344E+04  0.12064838767E+04  0.82954303025E+02 0.  0.
         25    2    1    2    0    0 -0.70399711544E+02  0.23508630659E+02  0.32853316697E+02  0.14912080641E+03  0.12509556101E+03 0.  0.
        -24    2    1    2    0    0  0.44588062848E+01  0.87484000539E+01  0.67518470873E+03  0.67978131896E+03  0.78306035770E+02 0.  0.
        -11    1    3    3    0    0  0.91559197657E+01  0.20394646811E+01 -0.11924216802E+02  0.15171592840E+02  0.00000000000E+00 0.  1.
         12    1    3    3    0    0  0.56784985494E+02 -0.34296495394E+02 -0.11894638176E+04  0.11913122838E+04  0.00000000000E+00 0. -1.
         11    1    5    5    0    0 -0.30322454127E+02  0.47835641868E+01  0.13424290446E+03  0.13770799218E+03  0.00000000000E+00 0. -1.
        -12    1    5    5    0    0  0.34781260411E+02  0.39648358672E+01  0.54094180427E+03  0.54207332678E+03  0.00000000000E+00 0.  1.
          5    1    4    4  501    0  0.30560043504E+01 -0.44757790241E+02  0.87008737733E+01  0.45888741041E+02  0.41800000000E+01 0.  1.
         -5    1    4    4    0  501 -0.73455715895E+02  0.68266420901E+02  0.24152442924E+02  0.10323206536E+03  0.41800000000E+01 0.  1.
</event>
<event>
11    1  0.8974665E-009  0.1422013E+03  0.7561462E-02  0.1105125E+00
         22   -1    0    0    0    0  0.00000000000E+00  0.00000000000E+00  0.31856985074E+03  0.31856985074E+03  0.00000000000E+00 0.  1.
         22   -1    0    0    0    0 -0.00000000000E+00 -0.00000000000E+00 -0.61854724342E+03  0.61854724342E+03  0.00000000000E+00 0. -1.
         24    2    1    2    0    0 -0.17423630518E+02  0.67206738904E+02 -0.41503533173E+03  0.42833087047E+03  0.79954232887E+02 0.  0.
         25    2    1    2    0    0  0.49980304590E+02 -0.47381545611E+02 -0.16371683186E+03  0.21724198781E+03  0.12509132072E+03 0.  0.
        -24    2    1    2    0    0 -0.32556674072E+02 -0.19825193293E+02  0.27877477092E+03  0.29154423588E+03  0.76352427989E+02 0.  0.
        -11    1    3    3    0    0  0.23478161591E+02  0.16918030392E+02 -0.51607631481E+02  0.59167486435E+02  0.00000000000E+00 0.  1.
         12    1    3    3    0    0 -0.40901792108E+02  0.50288708512E+02 -0.36342770025E+03  0.36916338404E+03  0.00000000000E+00 0. -1.
         11    1    5    5    0    0 -0.12626824347E+02 -0.87669283045E+01  0.40781537810E+01  0.15903680808E+02  0.00000000000E+00 0. -1.
        -12    1    5    5    0    0 -0.19929849725E+02 -0.11058264989E+02  0.27469661714E+03  0.27564055507E+03  0.00000000000E+00 0.  1.
          5    1    4    4  501    0  0.32918579542E+02 -0.27883348644E+00  0.11372373341E+02  0.35078681597E+02  0.41800000000E+01 0. -1.
         -5    1    4    4    0  501  0.17061725047E+02 -0.47102712124E+02 -0.17508920520E+03  0.18216330621E+03  0.41800000000E+01 0. -1.
</event>
<event>
11    1  0.8974665E-009  0.2128040E+03  0.7561462E-02  0.1045821E+00
         22   -1    0    0    0    0  0.00000000000E+00  0.00000000000E+00  0.45204334665E+03  0.45204334665E+03  0.00000000000E+00 0. -1.
         22   -1    0    0    0    0 -0.00000000000E+00 -0.00000000000E+00 -0.96095668716E+03  0.96095668716E+03  0.00000000000E+00 0. -1.
         24    2    1    2    0    0  0.45146782709E+02  0.55307438962E+02 -0.84700924473E+03  0.85436591127E+03  0.86135387033E+02 0.  0.
         25    2    1    2    0    0  0.11894978268E+03 -0.12177448359E+03  0.61846483818E+02  0.22010138768E+03  0.12506621304E+03 0.  0.
        -24    2    1    2    0    0 -0.16409656539E+03  0.66467044625E+02  0.27624942039E+03  0.33853273486E+03  0.83337383644E+02 0.  0.
        -11    1    3    3    0    0 -0.19609055977E+02  0.11584376283E+02 -0.74197086248E+02  0.77613919228E+02  0.00000000000E+00 0.  1.
         12    1    3    3    0    0  0.64755838686E+02  0.43723062679E+02 -0.77281215848E+03  0.77675199205E+03  0.00000000000E+00 0. -1.
         11    1    5    5    0    0 -0.16257662937E+03  0.58235503983E+02  0.21059484707E+03  0.27234669808E+03  0.00000000000E+00 0. -1.
        -12    1    5    5    0    0 -0.15199360140E+01  0.82315406414E+01  0.65654573320E+02  0.66186036780E+02  0.00000000000E+00 0.  1.
          5    1    4    4  501    0  0.10048450068E+03 -0.31331208843E+02 -0.59309020051E+01  0.10550558053E+03  0.41800000000E+01 0.  1.
         -5    1    4    4    0  501  0.18465281994E+02 -0.90443274744E+02  0.67777385824E+02  0.11459580714E+03  0.41800000000E+01 0.  1.
</event>
<event>
11    1  0.8974665E-009  0.1434587E+03  0.7561462E-02  0.1103757E+00
         22   -1    0    0    0    0  0.00000000000E+00  0.00000000000E+00  0.10525142450E+04  0.10525142450E+04  0.00000000000E+00 0. -1.
         22   -1    0    0    0    0 -0.00000000000E+00 -0.00000000000E+00 -0.20166864341E+03  0.20166864341E+03  0.00000000000E+00 0.  1.
         24    2    1    2    0    0 -0.54417676206E+02 -0.44028741700E+02 -0.13329429810E+03  0.17061701208E+03  0.80268183765E+02 0.  0.
         25    2    1    2    0    0  0.86650830670E+01  0.96938987379E+02  0.88015493906E+02  0.18129001436E+03  0.12508833359E+03 0.  0.
        -24    2    1    2    0    0  0.45752593139E+02 -0.52910245679E+02  0.89612440581E+03  0.90227586201E+03  0.78549262276E+02 0.  0.
        -11    1    3    3    0    0 -0.23529207026E+02  0.16337036018E+02 -0.78089095917E+02  0.83177095587E+02  0.00000000000E+00 0.  1.
         12    1    3    3    0    0 -0.30888469179E+02 -0.60365777718E+02 -0.55205202182E+02  0.87439916490E+02  0.00000000000E+00 0. -1.
         11    1    5    5    0    0  0.14447766791E+02 -0.60717210851E+02  0.75194277577E+03  0.75452849892E+03  0.00000000000E+00 0. -1.
        -12    1    5    5    0    0  0.31304826347E+02  0.78069651724E+01  0.14418163004E+03  0.14774736309E+03  0.00000000000E+00 0.  1.
          5    1    4    4  501    0  0.37982620391E+02 -0.61807738192E+01  0.58269558212E+02  0.69954951440E+02  0.41800000000E+01 0.  1.
         -5    1    4    4    0  501 -0.29317537324E+02  0.10311976120E+03  0.29745935694E+02  0.11133506292E+03  0.41800000000E+01 0.  1.
</event>
<event>
11    1  0.8974665E-009  0.1523680E+03  0.7561462E-02  0.1094483E+00
         22   -1    0    0    0    0  0.00000000000E+00  0.00000000000E+00  0.24951410227E+04  0.24951410227E+04  0.00000000000E+00 0.  1.
         22   -1    0    0    0    0 -0.00000000000E+00 -0.00000000000E+00 -0.10450226637E+04  0.10450226637E+04  0.00000000000E+00 0. -1.
         24    2    1    2    0    0  0.14123435303E+02 -0.10786799513E+02 -0.56755817257E+03  0.57362108906E+03  0.81259141572E+02 0.  0.
         25    2    1    2    0    0  0.66907575134E+02 -0.21019480201E+02 -0.46212703886E+03  0.48386690958E+03  0.12508934401E+03 0.  0.
        -24    2    1    2    0    0 -0.81031010437E+02  0.31806279714E+02  0.24798035705E+04  0.24826756878E+04  0.81701643096E+02 0.  0.
        -11    1    3    3    0    0  0.26785173527E+02 -0.18960294688E+02 -0.89521771365E+02  0.95347185821E+02  0.00000000000E+00 0.  1.
         12    1    3    3    0    0 -0.12661738224E+02  0.81734951748E+01 -0.47803640121E+03  0.47827390324E+03  0.00000000000E+00 0. -1.
         13    1    5    5    0    0 -0.48836210089E+02  0.20102251129E+02  0.22194384866E+04  0.22200667269E+04  0.00000000000E+00 0. -1.
        -14    1    5    5    0    0 -0.32194800348E+02  0.11704028585E+02  0.26036508382E+03  0.26260896086E+03  0.00000000000E+00 0.  1.
          5    1    4    4  501    0  0.65583519464E+01 -0.63466703067E+02 -0.28222696334E+03  0.28937962197E+03  0.41800000000E+01 0.  1.
         -5    1    4    4    0  501  0.60349223188E+02  0.42447222867E+02 -0.17990007552E+03  0.19448728761E+03  0.41800000000E+01 0.  1.
</event>
<event>
11    1  0.8974665E-009  0.1477682E+03  0.7561462E-02  0.1099181E+00
         22   -1    0    0    0    0  0.00000000000E+00  0.00000000000E+00  0.30789908342E+04  0.30789908342E+04  0.00000000000E+00 0.  1.
         22   -1    0    0    0    0 -0.00000000000E+00 -0.00000000000E+00 -0.20587526348E+03  0.20587526348E+03  0.00000000000E+00 0.  1.
        -24    2    1    2    0    0  0.78449317175E+02 -0.12024376588E+02 -0.18357714619E+03  0.21519386463E+03  0.79428897606E+02 0.  0.
         25    2    1    2    0    0 -0.44192501846E+02 -0.35250727445E+02  0.87571978159E+03  0.88641469059E+03  0.12510106642E+03 0.  0.
         24    2    1    2    0    0 -0.34256815329E+02  0.47275104033E+02  0.21809729353E+04  0.21832575424E+04  0.81006710965E+02 0.  0.
        -13    1    5    5    0    0  0.10448098519E+02 -0.17953453683E+02  0.44740572981E+03  0.44788768272E+03  0.00000000000E+00 0.  1.
         14    1    5    5    0    0 -0.44704913848E+02  0.65228557716E+02  0.17335672055E+04  0.17353698597E+04  0.00000000000E+00 0. -1.
         11    1    3    3    0    0 -0.13042497140E+02  0.60870046932E+01 -0.82161184232E+01  0.16572958689E+02  0.00000000000E+00 0. -1.
        -12    1    3    3    0    0  0.91491814314E+02 -0.18111381281E+02 -0.17536102777E+03  0.19862090594E+03  0.00000000000E+00 0.  1.
          5    1    4    4  501    0 -0.36786356621E+02 -0.70058119676E+02  0.32461424632E+03  0.33414556331E+03  0.41800000000E+01 0. -1.
         -5    1    4    4    0  501 -0.74061452249E+01  0.34807392231E+02  0.55110553526E+03  0.55226912727E+03  0.41800000000E+01 0. -1.
</event>
<event>
11    1  0.8974665E-009  0.1544089E+03  0.7561462E-02  0.1092457E+00
         22   -1    0    0    0    0  0.00000000000E+00  0.00000000000E+00  0.19923521001E+04  0.19923521001E+04  0.00000000000E+00 0. -1.
         22   -1    0    0    0    0 -0.00000000000E+00 -0.00000000000E+00 -0.11163872147E+03  0.11163872147E+03  0.00000000000E+00 0. -1.
        -24    2    1    2    0    0  0.42058067228E+00 -0.90549106078E+02 -0.52041587014E+02  0.12246189998E+03  0.63947421130E+02 0.  0.
         25    2    1    2    0    0 -0.29268344035E+00  0.90347426739E+02  0.23037702357E+03  0.27727884366E+03  0.12508893225E+03 0.  0.
         24    2    1    2    0    0 -0.12789723193E+00  0.20167933946E+00  0.17023779420E+04  0.17042500779E+04  0.79859961447E+02 0.  0.
        -11    1    5    5    0    0  0.97156631871E+01 -0.62205800478E+01  0.35434040246E+02  0.37264741183E+02  0.00000000000E+00 0.  1.
         12    1    5    5    0    0 -0.98435604190E+01  0.64222593872E+01  0.16669439018E+04  0.16669853367E+04  0.00000000000E+00 0. -1.
         13    1    3    3    0    0  0.31471914820E+02 -0.53808523950E+02 -0.34584514033E+02  0.71287637659E+02  0.00000000000E+00 0. -1.
        -14    1    3    3    0    0 -0.31051334148E+02 -0.36740582128E+02 -0.17457072981E+02  0.51174262325E+02  0.00000000000E+00 0.  1.
          5    1    4    4  501    0 -0.50251124876E+02  0.88557289340E+02  0.13111569235E+03  0.16606133273E+03  0.41800000000E+01 0.  1.
         -5    1    4    4    0  501  0.49958441435E+02  0.17901373993E+01  0.99261331226E+02  0.11121751094E+03  0.41800000000E+01 0.  1.
</event>
<event>
11    1  0.8974665E-009  0.1805980E+03  0.7561462E-02  0.1069160E+00
         22   -1    0    0    0    0  0.00000000000E+00  0.00000000000E+00  0.27197713962E+03  0.27197713962E+03  0.00000000000E+00 0. -1.
         22   -1    0    0    0    0 -0.00000000000E+00 -0.00000000000E+00 -0.60743608483E+03  0.60743608483E+03  0.00000000000E+00 0. -1.
         24    2    1    2    0    0 -0.35929145145E+02 -0.63045114797E+02 -0.44490577509E+03  0.45795628741E+03  0.80729316274E+02 0.  0.
         25    2    1    2    0    0  0.12789737778E+03 -0.33924564723E+02 -0.59656615100E+02  0.19161430227E+03  0.12509401973E+03 0.  0.
        -24    2    1    2    0    0 -0.91968232639E+02  0.96969679521E+02  0.16910344498E+03  0.22984263477E+03  0.79814704748E+02 0.  0.
        -13    1    3    3    0    0 -0.16070666760E+02  0.17504121500E+02 -0.13822131165E+03  0.14024903420E+03  0.00000000000E+00 0.  1.
         14    1    3    3    0    0 -0.19858478385E+02 -0.80549236297E+02 -0.30668446343E+03  0.31770725321E+03  0.00000000000E+00 0. -1.
         13    1    5    5    0    0 -0.91405377023E+02  0.77047377074E+02  0.17224592216E+03  0.20966616075E+03  0.00000000000E+00 0. -1.
        -14    1    5    5    0    0 -0.56285561543E+00  0.19922302446E+02 -0.31424771790E+01  0.20176474024E+02  0.00000000000E+00 0.  1.
          5    1    4    4  501    0  0.12940077595E+03  0.13061626401E+02 -0.23662669435E+02  0.13225944664E+03  0.41800000000E+01 0.  1.
         -5    1    4    4    0  501 -0.15033981637E+01 -0.46986191124E+02 -0.35993945665E+02  0.59354855631E+02  0.41800000000E+01 0.  1.
</event>
<event>
11    1  0.8974665E-009  0.1357689E+03  0.7561462E-02  0.1112377E+00
         22   -1    0    0    0    0  0.00000000000E+00  0.00000000000E+00  0.10162188330E+03  0.10162188330E+03  0.00000000000E+00 0.  1.
         22   -1    0    0    0    0 -0.00000000000E+00 -0.00000000000E+00 -0.50885805363E+03  0.50885805363E+03  0.00000000000E+00 0.  1.
         24    2    1    2    0    0  0.48063478608E+02  0.86726239262E+00 -0.17342821880E+03  0.19048342123E+03  0.62415835867E+02 0.  0.
         25    2    1    2    0    0 -0.85309938338E+02  0.31463314966E+02 -0.27586268116E+03  0.31625223349E+03  0.12509008979E+03 0.  0.
        -24    2    1    2    0    0  0.37246459730E+02 -0.32330577358E+02  0.42054729626E+02  0.10374428221E+03  0.81004387611E+02 0.  0.
        -11    1    3    3    0    0  0.40109411698E+02  0.50363781650E+01 -0.17643982200E+03  0.18101143831E+03  0.00000000000E+00 0.  1.
         12    1    3    3    0    0  0.79540669103E+01 -0.41691157724E+01  0.30116031935E+01  0.94719829250E+01  0.00000000000E+00 0. -1.
         11    1    5    5    0    0 -0.25598001280E+02 -0.40365980618E+01  0.11904975561E+02  0.28518068597E+02  0.00000000000E+00 0. -1.
        -12    1    5    5    0    0  0.62844461009E+02 -0.28293979297E+02  0.30149754065E+02  0.75226213611E+02  0.00000000000E+00 0.  1.
          5    1    4    4  501    0 -0.40041568799E+02  0.94209129723E+01 -0.26004438578E+03  0.26331091092E+03  0.41800000000E+01 0.  1.
         -5    1    4    4    0  501 -0.45268369539E+02  0.22042401994E+02 -0.15818295373E+02  0.52941322564E+02  0.41800000000E+01 0.  1.
</event>
<event>
11    1  0.8974665E-009  0.1546510E+03  0.7561462E-02  0.1092219E+00
         22   -1    0    0    0    0  0.00000000000E+00  0.00000000000E+00  0.46831413522E+03  0.46831413522E+03  0.00000000000E+00 0.  1.
         22   -1    0    0    0    0 -0.00000000000E+00 -0.00000000000E+00 -0.92580037677E+03  0.92580037677E+03  0.00000000000E+00 0.  1.
        -24    2    1    2    0    0 -0.35326649688E+02  0.39150483365E+02 -0.82346959601E+03  0.82813331942E+03  0.70156159169E+02 0.  0.
         25    2    1    2    0    0  0.78048008842E+02 -0.11374129548E+03  0.57547492558E+01  0.18628178865E+03  0.12505684173E+03 0.  0.
         24    2    1    2    0    0 -0.42721359154E+02  0.74590812111E+02  0.36022860520E+03  0.37969940392E+03  0.83774014784E+02 0.  0.
        -11    1    5    5    0    0 -0.32601535386E+02  0.79294086299E+02  0.35825003475E+03  0.36836598598E+03  0.00000000000E+00 0.  1.
         12    1    5    5    0    0 -0.10119823768E+02 -0.47032741888E+01  0.19785704563E+01  0.11333417941E+02  0.00000000000E+00 0. -1.
         13    1    3    3    0    0 -0.15561156448E+02 -0.17099119114E+02 -0.12472696421E+03  0.12685166560E+03  0.00000000000E+00 0. -1.
        -14    1    3    3    0    0 -0.19765493240E+02  0.56249602478E+02 -0.69874263179E+03  0.70128165382E+03  0.00000000000E+00 0.  1.
          5    1    4    4  501    0 -0.34406315008E+02 -0.30466590788E+02  0.33519925885E+01  0.46267871369E+02  0.41800000000E+01 0. -1.
         -5    1    4    4    0  501  0.11245432385E+03 -0.83274704688E+02  0.24027566673E+01  0.14001391728E+03  0.41800000000E+01 0. -1.
</event>
<event>
11    1  0.8974665E-009  0.1460811E+03  0.7561462E-02  0.1100952E+00
         22   -1    0    0    0    0  0.00000000000E+00  0.00000000000E+00  0.30998504684E+04  0.30998504684E+04  0.00000000000E+00 0. -1.
         22   -1    0    0    0    0 -0.00000000000E+00 -0.00000000000E+00 -0.31243571916E+03  0.31243571916E+03  0.00000000000E+00 0. -1.
         24    2    1    2    0    0  0.34311637850E+02  0.65808785105E+02 -0.27746649866E+03  0.29826989829E+03  0.80431272887E+02 0.  0.
         25    2    1    2    0    0 -0.93123518260E+02 -0.79092206825E+02  0.30146524076E+03  0.34850764656E+03  0.12509484998E+03 0.  0.
        -24    2    1    2    0    0  0.58811880410E+02  0.13283421719E+02  0.27634160071E+04  0.27655086427E+04  0.89077145381E+02 0.  0.
        -11    1    3    3    0    0  0.18610408962E+02  0.10302428891E+02 -0.80448153771E+01  0.22742172658E+02  0.00000000000E+00 0.  1.
         12    1    3    3    0    0  0.15701228888E+02  0.55506356215E+02 -0.26942168328E+03  0.27552772563E+03  0.00000000000E+00 0. -1.
         11    1    5    5    0    0  0.34593193882E+02 -0.26674701998E+02  0.20977560588E+04  0.20982108357E+04  0.00000000000E+00 0. -1.
        -12    1    5    5    0    0  0.24218686528E+02  0.39958123717E+02  0.66565994834E+03  0.66729780702E+03  0.00000000000E+00 0.  1.
          5    1    4    4  501    0  0.43560924941E+01 -0.76719016124E+02  0.12272905460E+03  0.14486088575E+03  0.41800000000E+01 0. -1.
         -5    1    4    4    0  501 -0.97479610754E+02 -0.23731907007E+01  0.17873618617E+03  0.20364676082E+03  0.41800000000E+01 0. -1.
</event>
<event>
11    1  0.8974665E-009  0.1294233E+03  0.7561462E-02  0.1119980E+00
         22   -1    0    0    0    0  0.00000000000E+00  0.00000000000E+00  0.46561662890E+02  0.46561662890E+02  0.00000000000E+00 0. -1.
         22   -1    0    0    0    0 -0.00000000000E+00 -0.00000000000E+00 -0.85829664717E+03  0.85829664717E+03  0.00000000000E+00 0.  1.
         24    2    1    2    0    0 -0.18882753733E+02  0.32244006923E+02 -0.54439370179E+03  0.55150755741E+03  0.79999055998E+02 0.  0.
         25    2    1    2    0    0 -0.13186109966E+02 -0.21226546040E+02 -0.21741186566E+03  0.25207223493E+03  0.12509217618E+03 0.  0.
        -24    2    1    2    0    0  0.32068863699E+02 -0.11017460883E+02 -0.49929416832E+02  0.10127851772E+03  0.81330160601E+02 0.  0.
        -11    1    3    3    0    0 -0.30490554876E+02  0.45007910950E+02 -0.51134346325E+03  0.51422516799E+03  0.00000000000E+00 0.  1.
         12    1    3    3    0    0  0.11607801143E+02 -0.12763904027E+02 -0.33050238540E+02  0.37282389421E+02  0.00000000000E+00 0. -1.
         11    1    5    5    0    0  0.13213814728E+02 -0.78263633036E+01  0.22011365123E+02  0.26839468266E+02  0.00000000000E+00 0. -1.
        -12    1    5    5    0    0  0.18855048970E+02 -0.31910975792E+01 -0.71940781955E+02  0.74439049455E+02  0.00000000000E+00 0.  1.
          5    1    4    4  501    0  0.64702249386E+01 -0.40746490246E+02 -0.22005881704E+03  0.22393189955E+03  0.41800000000E+01 0.  1.
         -5    1    4    4    0  501 -0.19656334904E+02  0.19519944205E+02  0.26469513833E+01  0.28140335380E+02  0.41800000000E+01 0.  1.
</event>
<event>
11    1  0.8974665E-009  0.1994204E+03  0.7561462E-02  0.1054934E+00
         22   -1    0    0    0    0  0.00000000000E+00  0.00000000000E+00  0.20398940283E+04  0.20398940283E+04  0.00000000000E+00 0.  1.
         22   -1    0    0    0    0 -0.00000000000E+00 -0.00000000000E+00 -0.78187555648E+03  0.78187555648E+03  0.00000000000E+00 0. -1.
         24    2    1    2    0    0  0.10756128753E+03  0.10982676892E+03 -0.73749563686E+03  0.75751898638E+03  0.79396792083E+02 0.  0.
         25    2    1    2    0    0 -0.19492642837E+03 -0.20420359826E+03  0.77459286304E+03  0.83386941899E+03  0.12509469387E+03 0.  0.
        -24    2    1    2    0    0  0.87365140840E+02  0.94376829345E+02  0.12209212457E+04  0.12303811794E+04  0.81544496047E+02 0.  0.
        -11    1    3    3    0    0  0.96559593606E+02  0.10769979149E+03 -0.52024319274E+03  0.53997775861E+03  0.00000000000E+00 0.  1.
         12    1    3    3    0    0  0.11001693921E+02  0.21269774260E+01 -0.21725244412E+03  0.21754122777E+03  0.00000000000E+00 0. -1.
         13    1    5    5    0    0 -0.35910313288E+01  0.89967164314E+01  0.39250281213E+03  0.39262232990E+03  0.00000000000E+00 0. -1.
        -14    1    5    5    0    0  0.90956172169E+02  0.85380112914E+02  0.82841843355E+03  0.83775884954E+03  0.00000000000E+00 0.  1.
          5    1    4    4  501    0 -0.15612067586E+03 -0.17078848396E+03  0.45817483099E+03  0.51330694505E+03  0.41800000000E+01 0. -1.
         -5    1    4    4    0  501 -0.38805752508E+02 -0.33415114304E+02  0.31641803206E+03  0.32056247394E+03  0.41800000000E+01 0. -1.
</event>
<event>
11    1  0.8974666E-009  0.1769072E+03  0.7561462E-02  0.1072172E+00
         22   -1    0    0    0    0  0.00000000000E+00  0.00000000000E+00  0.80327258160E+03  0.80327258160E+03  0.00000000000E+00 0. -1.
         22   -1    0    0    0    0 -0.00000000000E+00 -0.00000000000E+00 -0.28177392547E+03  0.28177392547E+03  0.00000000000E+00 0.  1.
        -24    2    1    2    0    0  0.87340217786E+02  0.11581168122E+03 -0.20667697074E+03  0.26972078999E+03  0.94832880193E+02 0.  0.
         25    2    1    2    0    0 -0.30595276232E+02 -0.38284104464E+02  0.82567858047E+02  0.15769795181E+03  0.12509775873E+03 0.  0.
         24    2    1    2    0    0 -0.56744941554E+02 -0.77527576760E+02  0.64560776882E+03  0.65762776527E+03  0.80214543182E+02 0.  0.
        -11    1    5    5    0    0 -0.29399326328E+02  0.10223513175E+02  0.11600211951E+03  0.12010550504E+03  0.00000000000E+00 0.  1.
         12    1    5    5    0    0 -0.27345615226E+02 -0.87751089936E+02  0.52960564932E+03  0.53752226023E+03  0.00000000000E+00 0. -1.
         11    1    3    3    0    0 -0.16805830611E+02  0.41457219646E+02 -0.63750642943E+02  0.77879917045E+02  0.00000000000E+00 0. -1.
        -12    1    3    3    0    0  0.10414604840E+03  0.74354461579E+02 -0.14292632780E+03  0.19184087294E+03  0.00000000000E+00 0.  1.
          5    1    4    4  501    0  0.24899899462E+02  0.21784379454E+02  0.66295776515E+02  0.74210286114E+02  0.41800000000E+01 0.  1.
         -5    1    4    4    0  501 -0.55495175694E+02 -0.60068483918E+02  0.16272081532E+02  0.83487665693E+02  0.41800000000E+01 0.  1.
</event>
<event>
11    1  0.8974665E-009  0.2244366E+03  0.7561462E-02  0.1038473E+00
         22   -1    0    0    0    0  0.00000000000E+00  0.00000000000E+00  0.74847348991E+03  0.74847348991E+03  0.00000000000E+00 0. -1.
         22   -1    0    0    0    0 -0.00000000000E+00 -0.00000000000E+00 -0.39895938153E+04  0.39895938153E+04  0.00000000000E+00 0. -1.
        -24    2    1    2    0    0 -0.58091648219E+02 -0.11865870973E+02 -0.38284814692E+04  0.38297889093E+04  0.80605778089E+02 0.  0.
         25    2    1    2    0    0  0.19127887580E+03  0.13500220945E+03 -0.23236068339E+02  0.26645907855E+03  0.12508925128E+03 0.  0.
         24    2    1    2    0    0 -0.13318722758E+03 -0.12313633848E+03  0.61059721217E+03  0.64181931732E+03  0.78750778567E+02 0.  0.
        -13    1    5    5    0    0 -0.29646646723E+02 -0.12557529102E+02  0.39433629137E+02  0.50908018092E+02  0.00000000000E+00 0.  1.
         14    1    5    5    0    0 -0.10354058085E+03 -0.11057880938E+03  0.57116358303E+03  0.59091129922E+03  0.00000000000E+00 0. -1.
         11    1    3    3    0    0 -0.48218807888E+02  0.14477721731E+02 -0.34058722385E+04  0.34062443193E+04  0.00000000000E+00 0. -1.
        -12    1    3    3    0    0 -0.98728403310E+01 -0.26343592705E+02 -0.42260923072E+03  0.42354459003E+03  0.00000000000E+00 0.  1.
          5    1    4    4  501    0  0.95711887544E+01 -0.21438534746E+02  0.67434840412E+01  0.24782360728E+02  0.41800000000E+01 0. -1.
         -5    1    4    4    0  501  0.18170768704E+03  0.15644074420E+03 -0.29979552380E+02  0.24167671782E+03  0.41800000000E+01 0. -1.
</event>
<event>
11    1  0.8974665E-009  0.2158910E+03  0.7561462E-02  0.1043822E+00
         22   -1    0    0    0    0  0.00000000000E+00  0.00000000000E+00  0.64270692748E+03  0.64270692748E+03  0.00000000000E+00 0. -1.
         22   -1    0    0    0    0 -0.00000000000E+00 -0.00000000000E+00 -0.44547356058E+03  0.44547356058E+03  0.00000000000E+00 0.  1.
         24    2    1    2    0    0  0.45566733125E+01 -0.78875586325E+01 -0.27727447932E+03  0.28902035092E+03  0.81047205466E+02 0.  0.
         25    2    1    2    0    0  0.17170882659E+03  0.14578195054E+02 -0.67948571963E+02  0.22351876006E+03  0.12508869959E+03 0.  0.
        -24    2    1    2    0    0 -0.17626549990E+03 -0.66906364216E+01  0.54245641818E+03  0.57564137708E+03  0.77393399676E+02 0.  0.
        -13    1    3    3    0    0  0.12999184391E+02 -0.34660034552E+02 -0.23732200133E+03  0.24019165078E+03  0.00000000000E+00 0.  1.
         14    1    3    3    0    0 -0.84425110785E+01  0.26772475919E+02 -0.39952477988E+02  0.48828700142E+02  0.00000000000E+00 0. -1.
         11    1    5    5    0    0 -0.13911737844E+03 -0.92418326245E+01  0.50044378561E+03  0.51950268431E+03  0.00000000000E+00 0. -1.
        -12    1    5    5    0    0 -0.37148121464E+02  0.25511962029E+01  0.42012632573E+02  0.56138692771E+02  0.00000000000E+00 0.  1.
          5    1    4    4  501    0  0.41573829986E+02  0.52538216970E+02 -0.55911955272E+02  0.87362845217E+02  0.41800000000E+01 0. -1.
         -5    1    4    4    0  501  0.13013499660E+03 -0.37960021916E+02 -0.12036616691E+02  0.13615591484E+03  0.41800000000E+01 0. -1.
</event>
<event>
11    1  0.8974665E-009  0.1482427E+03  0.7561462E-02  0.1098688E+00
         22   -1    0    0    0    0  0.00000000000E+00  0.00000000000E+00  0.62386682908E+03  0.62386682908E+03  0.00000000000E+00 0. -1.
         22   -1    0    0    0    0 -0.00000000000E+00 -0.00000000000E+00 -0.11913523056E+03  0.11913523056E+03  0.00000000000E+00 0.  1.
         24    2    1    2    0    0  0.68120957031E+01 -0.13449431291E+02 -0.68027471835E+02  0.10785245521E+03  0.82323285415E+02 0.  0.
         25    2    1    2    0    0  0.71461618282E+02 -0.12788333090E+02  0.21219853473E+03  0.25679961829E+03  0.12509005339E+03 0.  0.
        -24    2    1    2    0    0 -0.78273713985E+02  0.26237764381E+02  0.36056053563E+03  0.37834998615E+03  0.79558893816E+02 0.  0.
        -13    1    3    3    0    0  0.17313100879E+02 -0.42808193399E+02 -0.59895780296E+02  0.75629289177E+02  0.00000000000E+00 0.  1.
         14    1    3    3    0    0 -0.10501005176E+02  0.29358762108E+02 -0.81316915388E+01  0.32223166037E+02  0.00000000000E+00 0. -1.
         11    1    5    5    0    0 -0.74039431943E+02  0.50697316862E+02  0.28858344243E+03  0.30221260508E+03  0.00000000000E+00 0. -1.
        -12    1    5    5    0    0 -0.42342820420E+01 -0.24459552481E+02  0.71977093191E+02  0.76137381070E+02  0.00000000000E+00 0.  1.
          5    1    4    4  501    0  0.18105247701E+02  0.51787722432E+02  0.50685635977E+02  0.74808250102E+02  0.41800000000E+01 0. -1.
         -5    1    4    4    0  501  0.53356370581E+02 -0.64576055522E+02  0.16151289876E+03  0.18199136818E+03  0.41800000000E+01 0. -1.
</event>
<event>
11    1  0.8974665E-009  0.1337342E+03  0.7561462E-02  0.1114764E+00
         22   -1    0    0    0    0  0.00000000000E+00  0.00000000000E+00  0.14791980767E+04  0.14791980767E+04  0.00000000000E+00 0. -1.
         22   -1    0    0    0    0 -0.00000000000E+00 -0.00000000000E+00 -0.42255413949E+02  0.42255413949E+02  0.00000000000E+00 0.  1.
         24    2    1    2    0    0 -0.48003411812E+02  0.12187258370E+02  0.71739356132E+02  0.11798151483E+03  0.79499973656E+02 0.  0.
         25    2    1    2    0    0  0.28269108691E+02 -0.42254221761E+02  0.24440380218E+03  0.27922614239E+03  0.12509779499E+03 0.  0.
        -24    2    1    2    0    0  0.19734303121E+02  0.30066963391E+02  0.11207995044E+04  0.11242458334E+04  0.80272659272E+02 0.  0.
        -13    1    3    3    0    0 -0.69041298579E+02  0.16089488778E+01  0.60826596733E+02  0.92028063633E+02  0.00000000000E+00 0.  1.
         14    1    3    3    0    0  0.21037886767E+02  0.10578309492E+02  0.10912759399E+02  0.25953451197E+02  0.00000000000E+00 0. -1.
         13    1    5    5    0    0  0.99982574681E+01  0.19654630594E+02  0.10908913309E+04  0.10911141854E+04  0.00000000000E+00 0. -1.
        -14    1    5    5    0    0  0.97360456525E+01  0.10412332797E+02  0.29908173489E+02  0.33131648022E+02  0.00000000000E+00 0.  1.
          5    1    4    4  501    0  0.60311652436E+02 -0.67803332513E+02  0.13893094307E+03  0.16599417659E+03  0.41800000000E+01 0. -1.
         -5    1    4    4    0  501 -0.32042543744E+02  0.25549110752E+02  0.10547285912E+03  0.11323196581E+03  0.41800000000E+01 0. -1.
</event>
<event>
11    1  0.2009551E-008  0.1733357E+03  0.7561462E-02  0.1075165E+00
         22   -1    0    0    0    0  0.00000000000E+00  0.00000000000E+00  0.50957350311E+03  0.50957350311E+03  0.00000000000E+00 0. -1.
         22   -1    0    0    0    0 -0.00000000000E+00 -0.00000000000E+00 -0.91979166126E+03  0.91979166126E+03  0.00000000000E+00 0.  1.
        -24    2    1    2    0    0  0.23222750958E+02 -0.60790873214E+01 -0.57949179327E+03  0.58532145927E+03  0.78830328831E+02 0.  0.
         25    2    1    2    0    0  0.41660045034E+02  0.10729256964E+03 -0.30438660085E+03  0.34863539827E+03  0.12509269882E+03 0.  0.
         24    2    1    2    0    0 -0.64882795993E+02 -0.10121348232E+03  0.47366023597E+03  0.49540830684E+03  0.81372139707E+02 0.  0.
        -13    1    5    5    0    0 -0.51064657431E+02 -0.91828305965E+01  0.15646323123E+03  0.16484133687E+03  0.00000000000E+00 0.  1.
         14    1    5    5    0    0 -0.13818138562E+02 -0.92030651723E+02  0.31719700475E+03  0.33056696996E+03  0.00000000000E+00 0. -1.
         11    1    3    3    0    0  0.28235292826E+02  0.14073300693E+02 -0.89637933695E+02  0.95027620777E+02  0.00000000000E+00 0. -1.
        -12    1    3    3    0    0 -0.50125418678E+01 -0.20152388015E+02 -0.48985385958E+03  0.49029383849E+03  0.00000000000E+00 0.  1.
          5    1    4    4  501    0 -0.34423264380E+02  0.76355253833E+02 -0.11654788079E+03  0.14358261327E+03  0.41800000000E+01 0. -1.
         -5    1    4    4    0  501  0.76083309414E+02  0.30937315808E+02 -0.18783872006E+03  0.20505278500E+03  0.41800000000E+01 0. -1.
</event>
<event>
11    1  0.8974665E-009  0.1390305E+03  0.7561462E-02  0.1108646E+00
         22   -1    0    0    0    0  0.00000000000E+00  0.00000000000E+00  0.73137245043E+03  0.73137245043E+03  0.00000000000E+00 0. -1.
         22   -1    0    0    0    0 -0.00000000000E+00 -0.00000000000E+00 -0.20938735465E+03  0.20938735465E+03  0.00000000000E+00 0.  1.
        -24    2    1    2    0    0  0.31114403838E+01 -0.35883223836E+02 -0.13476745636E+03  0.16035938619E+03  0.79092215999E+02 0.  0.
         25    2    1    2    0    0  0.36575797200E+02 -0.12566264898E+02  0.16463757853E+02  0.13196083727E+03  0.12508759849E+03 0.  0.
         24    2    1    2    0    0 -0.39687237584E+02  0.48449488734E+02  0.64028879428E+03  0.64843958162E+03  0.81127807484E+02 0.  0.
        -11    1    5    5    0    0  0.11321313916E+02 -0.16385424521E+02  0.11477065314E+03  0.11648586656E+03  0.00000000000E+00 0.  1.
         12    1    5    5    0    0 -0.51008551499E+02  0.64834913255E+02  0.52551814114E+03  0.53195371507E+03  0.00000000000E+00 0. -1.
         11    1    3    3    0    0  0.38205605644E+02 -0.39397389884E+01 -0.48130595181E+02  0.61577138927E+02  0.00000000000E+00 0. -1.
        -12    1    3    3    0    0 -0.35094165261E+02 -0.31943484848E+02 -0.86636861176E+02  0.98782247261E+02  0.00000000000E+00 0.  1.
          5    1    4    4  501    0 -0.16050992086E+02  0.47721690601E+02  0.10517537146E+02  0.51605087815E+02  0.41800000000E+01 0. -1.
         -5    1    4    4    0  501  0.52626789286E+02 -0.60287955500E+02  0.59462207077E+01  0.80355749450E+02  0.41800000000E+01 0. -1.
</event>
<event>
11    1  0.8974665E-009  0.3480354E+03  0.7561462E-02  0.9816896E-01
         22   -1    0    0    0    0  0.00000000000E+00  0.00000000000E+00  0.12172262154E+04  0.12172262154E+04  0.00000000000E+00 0. -1.
         22   -1    0    0    0    0 -0.00000000000E+00 -0.00000000000E+00 -0.62334580102E+03  0.62334580102E+03  0.00000000000E+00 0.  1.
         24    2    1    2    0    0  0.16103101126E+03  0.22719341769E+03 -0.63854228116E+02  0.29688807581E+03  0.80729991218E+02 0.  0.
         25    2    1    2    0    0 -0.28064012428E+03 -0.22990901830E+03 -0.35426106093E+03  0.52226914013E+03  0.12508844626E+03 0.  0.
        -24    2    1    2    0    0  0.11960911301E+03  0.27156006130E+01  0.10119957034E+04  0.10214148005E+04  0.69564189591E+02 0.  0.
        -11    1    3    3    0    0  0.16805939393E+03  0.20237315955E+03 -0.50574168812E+02  0.26787422822E+03  0.00000000000E+00 0.  1.
         12    1    3    3    0    0 -0.70283826655E+01  0.24820258140E+02 -0.13280059304E+02  0.29013847593E+02  0.00000000000E+00 0. -1.
         11    1    5    5    0    0  0.29426723884E+02 -0.13667855628E+02  0.51613577055E+03  0.51715459584E+03  0.00000000000E+00 0. -1.
        -12    1    5    5    0    0  0.90182389128E+02  0.16383456241E+02  0.49585993287E+03  0.50426020463E+03  0.00000000000E+00 0.  1.
          5    1    4    4  501    0 -0.15735791142E+03 -0.20003065028E+03 -0.26254370632E+03  0.36567805986E+03  0.41800000000E+01 0. -1.
         -5    1    4    4    0  501 -0.12328221285E+03 -0.29878368027E+02 -0.91717354607E+02  0.15659108026E+03  0.41800000000E+01 0. -1.
</event>
<event>
11    1  0.8974665E-009  0.1488492E+03  0.7561462E-02  0.1098061E+00
         22   -1    0    0    0    0  0.00000000000E+00  0.00000000000E+00  0.26910978126E+03  0.26910978126E+03  0.00000000000E+00 0. -1.
         22   -1    0    0    0    0 -0.00000000000E+00 -0.00000000000E+00 -0.48973994527E+03  0.48973994527E+03  0.00000000000E+00 0. -1.
         24    2    1    2    0    0  0.47820285938E+02  0.72651317920E+02 -0.33705496286E+03  0.35734822418E+03  0.80788065937E+02 0.  0.
         25    2    1    2    0    0 -0.53455080854E+01 -0.64099768128E+02 -0.97115005625E+02  0.17092811333E+03  0.12509093044E+03 0.  0.
        -24    2    1    2    0    0 -0.42474777852E+02 -0.85515497923E+01  0.21353980447E+03  0.23057338902E+03  0.75416204303E+02 0.  0.
        -13    1    3    3    0    0  0.42669306395E+02  0.14841579362E+02 -0.64913423781E+02  0.79086628283E+02  0.00000000000E+00 0.  1.
         14    1    3    3    0    0  0.51509795427E+01  0.57809738558E+02 -0.27214153908E+03  0.27826159590E+03  0.00000000000E+00 0. -1.
         11    1    5    5    0    0  0.12866750421E+02 -0.10701874236E+02  0.12516252367E+03  0.12627644559E+03  0.00000000000E+00 0. -1.
        -12    1    5    5    0    0 -0.55341528273E+02  0.21503244436E+01  0.88377280795E+02  0.10429694342E+03  0.00000000000E+00 0.  1.
          5    1    4    4  501    0  0.19459007774E+02 -0.96290447398E+02 -0.56901132734E+02  0.11360332103E+03  0.41800000000E+01 0.  1.
         -5    1    4    4    0  501 -0.24804515859E+02  0.32190679270E+02 -0.40213872891E+02  0.57324792296E+02  0.41800000000E+01 0.  1.
</event>
<event>
11    1  0.8974665E-009  0.1908984E+03  0.7561462E-02  0.1061153E+00
         22   -1    0    0    0    0  0.00000000000E+00  0.00000000000E+00  0.73053638276E+02  0.73053638276E+02  0.00000000000E+00 0.  1.
         22   -1    0    0    0    0 -0.00000000000E+00 -0.00000000000E+00 -0.17241836231E+04  0.17241836231E+04  0.00000000000E+00 0. -1.
        -24    2    1    2    0    0  0.13805457355E+03 -0.52839383321E+02 -0.13572892737E+04  0.13678669909E+04  0.83515667240E+02 0.  0.
         25    2    1    2    0    0 -0.12869563055E+03  0.16125045888E+02 -0.28856164898E+03  0.34020428268E+03  0.12509414959E+03 0.  0.
         24    2    1    2    0    0 -0.93589429990E+01  0.36714337433E+02 -0.52790621432E+01  0.89165987763E+02  0.80542985352E+02 0.  0.
        -11    1    5    5    0    0  0.79630194315E+01 -0.24180304558E+01  0.31597244256E+02  0.32674797541E+02  0.00000000000E+00 0.  1.
         12    1    5    5    0    0 -0.17321962431E+02  0.39132367889E+02 -0.36876306399E+02  0.56491190222E+02  0.00000000000E+00 0. -1.
         11    1    3    3    0    0  0.88032788576E+02 -0.66185261825E+02 -0.70781566363E+03  0.71633321466E+03  0.00000000000E+00 0. -1.
        -12    1    3    3    0    0  0.50021784974E+02  0.13345878504E+02 -0.64947361007E+03  0.65153377627E+03  0.00000000000E+00 0.  1.
          5    1    4    4  501    0 -0.52183916332E+02 -0.45264985181E+01 -0.24316459836E+03  0.24877729922E+03  0.41800000000E+01 0. -1.
         -5    1    4    4    0  501 -0.76511714219E+02  0.20651544406E+02 -0.45397050621E+02  0.91426983458E+02  0.41800000000E+01 0. -1.
</event>
<event>
11    1  0.8974665E-009  0.1635660E+03  0.7561462E-02  0.1083770E+00
         22   -1    0    0    0    0  0.00000000000E+00  0.00000000000E+00  0.81595137669E+03  0.81595137669E+03  0.00000000000E+00 0.  1.
         22   -1    0    0    0    0 -0.00000000000E+00 -0.00000000000E+00 -0.35503483295E+03  0.35503483295E+03  0.00000000000E+00 0.  1.
        -24    2    1    2    0    0 -0.66460046857E+01  0.27738074596E+02 -0.16495973069E+03  0.18693545356E+03  0.83184018229E+02 0.  0.
         25    2    1    2    0    0 -0.57807434041E+02  0.56703885847E+02 -0.14133598912E+03  0.20537424363E+03  0.12508272473E+03 0.  0.
         24    2    1    2    0    0  0.64453438727E+02 -0.84441960443E+02  0.76721226355E+03  0.77867651244E+03  0.80235673134E+02 0.  0.
        -13    1    5    5    0    0  0.41542615969E+02 -0.93833723923E+02  0.69005399770E+03  0.69764251335E+03  0.00000000000E+00 0.  1.
         14    1    5    5    0    0  0.22910822758E+02  0.93917634794E+01  0.77158265843E+02  0.81033999091E+02  0.00000000000E+00 0. -1.
         13    1    3    3    0    0 -0.24985552288E+02  0.32979523034E+02 -0.31194594183E+02  0.51817269987E+02  0.00000000000E+00 0. -1.
        -14    1    3    3    0    0  0.18339547603E+02 -0.52414484380E+01 -0.13376513650E+03  0.13511818357E+03  0.00000000000E+00 0.  1.
          5    1    4    4  501    0  0.36780716714E+02 -0.28711599990E+01 -0.36400716822E+02  0.51995665847E+02  0.41800000000E+01 0. -1.
         -5    1    4    4    0  501 -0.94588150755E+02  0.59575045846E+02 -0.10493527230E+03  0.15337857779E+03  0.41800000000E+01 0. -1.
</event>
<event>
11    1  0.8974665E-009  0.2174851E+03  0.7561462E-02  0.1042804E+00
         22   -1    0    0    0    0  0.00000000000E+00  0.00000000000E+00  0.61809463006E+03  0.61809463006E+03  0.00000000000E+00 0. -1.
         22   -1    0    0    0    0 -0.00000000000E+00 -0.00000000000E+00 -0.12168623398E+03  0.12168623398E+03  0.00000000000E+00 0.  1.
        -24    2    1    2    0    0 -0.32571795489E+02 -0.35633013341E+02  0.24506494290E+01  0.93812578752E+02  0.80400004653E+02 0.  0.
         25    2    1    2    0    0  0.76246671362E+02 -0.14908914720E+03  0.23388446623E+03  0.31367157601E+03  0.12508711102E+03 0.  0.
         24    2    1    2    0    0 -0.43674875872E+02  0.18472216054E+03  0.26007328042E+03  0.33229670927E+03  0.82177980193E+02 0.  0.
        -13    1    5    5    0    0 -0.17537231719E+02  0.17146078599E+03  0.19103766397E+03  0.25729699703E+03  0.00000000000E+00 0.  1.
         14    1    5    5    0    0 -0.26137644154E+02  0.13261374549E+02  0.69035616456E+02  0.74999712241E+02  0.00000000000E+00 0. -1.
         13    1    3    3    0    0 -0.24386595733E+02 -0.59576976226E+01  0.38779189039E+02  0.46195516178E+02  0.00000000000E+00 0. -1.
        -14    1    3    3    0    0 -0.81851997563E+01 -0.29675315718E+02 -0.36328539610E+02  0.47617062574E+02  0.00000000000E+00 0.  1.
          5    1    4    4  501    0  0.54531878696E+02 -0.15518055175E+03  0.23900990911E+03  0.29016881033E+03  0.41800000000E+01 0. -1.
         -5    1    4    4    0  501  0.21714792665E+02  0.60914045481E+01 -0.51254428779E+01  0.23502765679E+02  0.41800000000E+01 0. -1.
</event>
<event>
11    1  0.8974665E-009  0.1522455E+03  0.7561462E-02  0.1094606E+00
         22   -1    0    0    0    0  0.00000000000E+00  0.00000000000E+00  0.16205593780E+04  0.16205593780E+04  0.00000000000E+00 0.  1.
         22   -1    0    0    0    0 -0.00000000000E+00 -0.00000000000E+00 -0.19687377527E+03  0.19687377527E+03  0.00000000000E+00 0.  1.
         24    2    1    2    0    0 -0.15521187278E+02 -0.64853094444E+02 -0.13986236365E+03  0.17470776550E+03  0.80712399576E+02 0.  0.
         25    2    1    2    0    0 -0.18567874654E+02 -0.19526955272E+02  0.73417284597E+02  0.14752379482E+03  0.12508838639E+03 0.  0.
        -24    2    1    2    0    0  0.34089061932E+02  0.84380049716E+02  0.14901306818E+04  0.14952015930E+04  0.82802764437E+02 0.  0.
        -13    1    3    3    0    0  0.31691612451E+02 -0.40741084475E+02 -0.65875170339E+02  0.83688304626E+02  0.00000000000E+00 0.  1.
         14    1    3    3    0    0 -0.47212799730E+02 -0.24112009969E+02 -0.73987193314E+02  0.91019460873E+02  0.00000000000E+00 0. -1.
         11    1    5    5    0    0  0.41512623907E+02  0.48313768431E+02  0.45733876220E+03  0.46175346407E+03  0.00000000000E+00 0. -1.
        -12    1    5    5    0    0 -0.74235619749E+01  0.36066281285E+02  0.10327919196E+04  0.10334481289E+04  0.00000000000E+00 0.  1.
          5    1    4    4  501    0  0.28889454260E+02  0.14360739061E+02  0.82200394435E+02  0.88403668697E+02  0.41800000000E+01 0.  1.
         -5    1    4    4    0  501 -0.47457328914E+02 -0.33887694333E+02 -0.87831098383E+01  0.59120126127E+02  0.41800000000E+01 0.  1.
</event>
<event>
11    1  0.8974665E-009  0.2268938E+03  0.7561462E-02  0.1036983E+00
         22   -1    0    0    0    0  0.00000000000E+00  0.00000000000E+00  0.27734549061E+04  0.27734549061E+04  0.00000000000E+00 0.  1.
         22   -1    0    0    0    0 -0.00000000000E+00 -0.00000000000E+00 -0.84725591349E+03  0.84725591349E+03  0.00000000000E+00 0. -1.
        -24    2    1    2    0    0  0.13264564010E+03 -0.20192238557E+03 -0.70114143383E+03  0.74572779863E+03  0.78378082226E+02 0.  0.
         25    2    1    2    0    0 -0.84651911103E+02  0.29782811581E+02 -0.71012083184E+02  0.16951890224E+03  0.12506390503E+03 0.  0.
         24    2    1    2    0    0 -0.47993728997E+02  0.17213957399E+03  0.26983525096E+04  0.27054641187E+04  0.80587843675E+02 0.  0.
        -13    1    5    5    0    0 -0.68937576856E+02  0.10796923205E+03  0.18507803939E+04  0.18552082932E+04  0.00000000000E+00 0.  1.
         14    1    5    5    0    0  0.20943847859E+02  0.64170341945E+02  0.84757211564E+03  0.85025582548E+03  0.00000000000E+00 0. -1.
         13    1    3    3    0    0  0.58662693967E+02 -0.15557946098E+03 -0.43905629922E+03  0.46948558469E+03  0.00000000000E+00 0. -1.
        -14    1    3    3    0    0  0.73982946134E+02 -0.46342924598E+02 -0.26208513461E+03  0.27624221394E+03  0.00000000000E+00 0.  1.
          5    1    4    4  501    0 -0.93426481751E+02  0.61114845348E+02 -0.77644488170E+02  0.13605025085E+03  0.41800000000E+01 0. -1.
         -5    1    4    4    0  501  0.87745706482E+01 -0.31332033766E+02  0.66324049855E+01  0.33468651390E+02  0.41800000000E+01 0. -1.
</event>
<event>
11    1  0.8974665E-009  0.2303927E+03  0.7561462E-02  0.1034896E+00
         22   -1    0    0    0    0  0.00000000000E+00  0.00000000000E+00  0.26093225154E+03  0.26093225154E+03  0.00000000000E+00 0. -1.
         22   -1    0    0    0    0 -0.00000000000E+00 -0.00000000000E+00 -0.17771614689E+04  0.17771614689E+04  0.00000000000E+00 0. -1.
        -24    2    1    2    0    0 -0.19496893389E+03  0.25589580959E+02 -0.15920005323E+04  0.16059618777E+04  0.77331402926E+02 0.  0.
         25    2    1    2    0    0  0.16522635810E+03 -0.37924012120E+01 -0.10324129720E+03  0.23156077062E+03  0.12508994094E+03 0.  0.
         24    2    1    2    0    0  0.29742575793E+02 -0.21797179747E+02  0.17901261215E+03  0.20057107212E+03  0.82604490230E+02 0.  0.
        -11    1    5    5    0    0  0.31397627694E+02 -0.30758595367E+02  0.34776503689E+02  0.56047367669E+02  0.00000000000E+00 0.  1.
         12    1    5    5    0    0 -0.16550519008E+01  0.89614156206E+01  0.14423610846E+03  0.14452370446E+03  0.00000000000E+00 0. -1.
         13    1    3    3    0    0 -0.15577608321E+03  0.30065613466E+02 -0.14476784006E+04  0.14563457285E+04  0.00000000000E+00 0. -1.
        -14    1    3    3    0    0 -0.39192850680E+02 -0.44760325079E+01 -0.14432213171E+03  0.14961614924E+03  0.00000000000E+00 0.  1.
          5    1    4    4  501    0  0.95702546309E+02  0.55146211237E+02 -0.82674278827E+02  0.13803112244E+03  0.41800000000E+01 0. -1.
         -5    1    4    4    0  501  0.69523811791E+02 -0.58938612449E+02 -0.20567018373E+02  0.93529648177E+02  0.41800000000E+01 0. -1.
</event>
<event>
11    1  0.8974665E-009  0.2128045E+03  0.7561462E-02  0.1045821E+00
         22   -1    0    0    0    0  0.00000000000E+00  0.00000000000E+00  0.21389502282E+03  0.21389502282E+03  0.00000000000E+00 0. -1.
         22   -1    0    0    0    0 -0.00000000000E+00 -0.00000000000E+00 -0.12583199554E+04  0.12583199554E+04  0.00000000000E+00 0.  1.
        -24    2    1    2    0    0  0.18395590525E+03 -0.10257097253E+02 -0.90034607054E+03  0.92303131735E+03  0.86132357181E+02 0.  0.
         25    2    1    2    0    0 -0.14132620239E+03 -0.51704793818E+02 -0.29955093887E+03  0.35780674222E+03  0.12509363939E+03 0.  0.
         24    2    1    2    0    0 -0.42629702866E+02  0.61961891071E+02  0.15547207688E+03  0.19137691860E+03  0.82443864382E+02 0.  0.
        -11    1    5    5    0    0  0.18567490032E+00 -0.14851271059E+02  0.58990300540E+02  0.60831326511E+02  0.00000000000E+00 0.  1.
         12    1    5    5    0    0 -0.42815377766E+02  0.76813162130E+02  0.96481776337E+02  0.13054559209E+03  0.00000000000E+00 0. -1.
         13    1    3    3    0    0  0.28927175376E+02  0.14067955472E+02 -0.59221334931E+02  0.67393288667E+02  0.00000000000E+00 0. -1.
        -14    1    3    3    0    0  0.15502872988E+03 -0.24325052725E+02 -0.84112473560E+03  0.85563802868E+03  0.00000000000E+00 0.  1.
          5    1    4    4  501    0 -0.11660819065E+03 -0.11958777801E+02 -0.10423302513E+03  0.15691551364E+03  0.41800000000E+01 0.  1.
         -5    1    4    4    0  501 -0.24718011740E+02 -0.39746016017E+02 -0.19531791374E+03  0.20089122858E+03  0.41800000000E+01 0.  1.
</event>
<event>
11    1  0.8974665E-009  0.1470428E+03  0.7561462E-02  0.1099939E+00
         22   -1    0    0    0    0  0.00000000000E+00  0.00000000000E+00  0.49864588413E+03  0.49864588413E+03  0.00000000000E+00 0. -1.
         22   -1    0    0    0    0 -0.00000000000E+00 -0.00000000000E+00 -0.11360658558E+04  0.11360658558E+04  0.00000000000E+00 0. -1.
         24    2    1    2    0    0  0.73796603895E+02  0.19964408668E+02 -0.10808005625E+04  0.10865458142E+04  0.81286125303E+02 0.  0.
         25    2    1    2    0    0  0.12014099370E+02  0.10206763155E+02  0.49551592788E+02  0.13548927672E+03  0.12511381683E+03 0.  0.
        -24    2    1    2    0    0 -0.85810703266E+02 -0.30171171822E+02  0.39382899805E+03  0.41267664897E+03  0.83228363572E+02 0.  0.
        -13    1    3    3    0    0  0.13903775874E+02  0.38796074108E+02 -0.24978844459E+03  0.25316539534E+03  0.00000000000E+00 0.  1.
         14    1    3    3    0    0  0.59892828021E+02 -0.18831665440E+02 -0.83101211792E+03  0.83338041889E+03  0.00000000000E+00 0. -1.
         11    1    5    5    0    0 -0.97238032102E+02 -0.70438117741E+01  0.31047522875E+03  0.32542236838E+03  0.00000000000E+00 0. -1.
        -12    1    5    5    0    0  0.11427328836E+02 -0.23127360048E+02  0.83353769295E+02  0.87254280599E+02  0.00000000000E+00 0.  1.
          5    1    4    4  501    0 -0.40201735489E+02 -0.36701703962E+02  0.12498627988E+02  0.56007880799E+02  0.41800000000E+01 0.  1.
         -5    1    4    4    0  501  0.52215834859E+02  0.46908467117E+02  0.37052964799E+02  0.79481395922E+02  0.41800000000E+01 0.  1.
</event>
<event>
11    1  0.8974665E-009  0.1389176E+03  0.7561462E-02  0.1108773E+00
         22   -1    0    0    0    0  0.00000000000E+00  0.00000000000E+00  0.41907000040E+03  0.41907000040E+03  0.00000000000E+00 0. -1.
         22   -1    0    0    0    0 -0.00000000000E+00 -0.00000000000E+00 -0.12892374324E+04  0.12892374324E+04  0.00000000000E+00 0.  1.
        -24    2    1    2    0    0  0.12303697335E+02  0.44328101075E+01 -0.12465254152E+04  0.12492715613E+04  0.81748347018E+02 0.  0.
         25    2    1    2    0    0  0.50317474636E+02  0.47113156122E+01  0.10972120194E+03  0.17389733388E+03  0.12508995094E+03 0.  0.
         24    2    1    2    0    0 -0.62621171970E+02 -0.91441257197E+01  0.26663678124E+03  0.28513853768E+03  0.78764118378E+02 0.  0.
        -11    1    5    5    0    0  0.53730565628E+01  0.16095480758E+02  0.13114308980E+02  0.21445730057E+02  0.00000000000E+00 0.  1.
         12    1    5    5    0    0 -0.67994228533E+02 -0.25239606478E+02  0.25352247226E+03  0.26369280762E+03  0.00000000000E+00 0. -1.
         11    1    3    3    0    0  0.23740263177E+02  0.26599137389E+02 -0.26024477868E+03  0.26267557754E+03  0.00000000000E+00 0. -1.
        -12    1    3    3    0    0 -0.11436565843E+02 -0.22166327281E+02 -0.98628063653E+03  0.98659598372E+03  0.00000000000E+00 0.  1.
          5    1    4    4  501    0  0.19914961623E+02 -0.54899329254E+02  0.83332814591E+02  0.10184484492E+03  0.41800000000E+01 0. -1.
         -5    1    4    4    0  501  0.30402513013E+02  0.59610644866E+02  0.26388387352E+02  0.72052488964E+02  0.41800000000E+01 0. -1.
</event>
<event>
11    1  0.8974665E-009  0.1364777E+03  0.7561462E-02  0.1111557E+00
         22   -1    0    0    0    0  0.00000000000E+00  0.00000000000E+00  0.76171802397E+02  0.76171802397E+02  0.00000000000E+00 0.  1.
         22   -1    0    0    0    0 -0.00000000000E+00 -0.00000000000E+00 -0.18867579699E+04  0.18867579699E+04  0.00000000000E+00 0.  1.
         24    2    1    2    0    0  0.30025122268E+01  0.17798538307E+02 -0.11144565382E+04  0.11175062756E+04  0.80505264376E+02 0.  0.
         25    2    1    2    0    0 -0.29206773018E+01 -0.71577783908E+02 -0.72981882532E+03  0.74391971306E+03  0.12509641153E+03 0.  0.
        -24    2    1    2    0    0 -0.81834925075E-01  0.53779245601E+02  0.33689196009E+02  0.10150378357E+03  0.79220213315E+02 0.  0.
        -11    1    3    3    0    0  0.26686851482E+02  0.16784698629E+02 -0.10057915705E+04  0.10062855447E+04  0.00000000000E+00 0.  1.
         12    1    3    3    0    0 -0.23684339255E+02  0.10138396779E+01 -0.10866496763E+03  0.11122073092E+03  0.00000000000E+00 0. -1.
         13    1    5    5    0    0 -0.13021380564E+02  0.17350140029E+02 -0.23814256300E+02  0.32213390289E+02  0.00000000000E+00 0. -1.
        -14    1    5    5    0    0  0.12939545639E+02  0.36429105572E+02  0.57503452308E+02  0.69290393284E+02  0.00000000000E+00 0.  1.
          5    1    4    4  501    0 -0.26477625546E+02 -0.14801967300E+01 -0.53219555381E+03  0.53287225066E+03  0.41800000000E+01 0. -1.
         -5    1    4    4    0  501  0.23556948244E+02 -0.70097587178E+02 -0.19762327152E+03  0.21104746240E+03  0.41800000000E+01 0. -1.
</event>
<event>
11    1  0.8974665E-009  0.1465545E+03  0.7561462E-02  0.1100452E+00
         22   -1    0    0    0    0  0.00000000000E+00  0.00000000000E+00  0.19949033400E+03  0.19949033400E+03  0.00000000000E+00 0. -1.
         22   -1    0    0    0    0 -0.00000000000E+00 -0.00000000000E+00 -0.73366850366E+03  0.73366850366E+03  0.00000000000E+00 0. -1.
         24    2    1    2    0    0  0.51404568146E+02 -0.42679226657E+02 -0.45408601043E+03  0.46647604328E+03  0.83317753596E+02 0.  0.
         25    2    1    2    0    0 -0.10808399263E+03  0.61313270368E+02 -0.22777031711E+03  0.28803934665E+03  0.12508349723E+03 0.  0.
        -24    2    1    2    0    0  0.56679424483E+02 -0.18634043711E+02  0.14767815788E+03  0.17864344773E+03  0.80900298882E+02 0.  0.
        -11    1    3    3    0    0  0.10096675035E+02  0.46631161418E+01 -0.36884053293E+01  0.11717159758E+02  0.00000000000E+00 0.  1.
         12    1    3    3    0    0  0.41307893111E+02 -0.47342342798E+02 -0.45039760510E+03  0.45475888352E+03  0.00000000000E+00 0. -1.
         11    1    5    5    0    0  0.72750850808E+02 -0.30057321452E+02  0.10160968084E+03  0.12853270442E+03  0.00000000000E+00 0. -1.
        -12    1    5    5    0    0 -0.16071426325E+02  0.11423277740E+02  0.46068477037E+02  0.50110743309E+02  0.00000000000E+00 0.  1.
          5    1    4    4  501    0 -0.24279533552E+02  0.60235932738E+02 -0.27037999853E+02  0.70472612967E+02  0.41800000000E+01 0.  1.
         -5    1    4    4    0  501 -0.83804459077E+02  0.10773376300E+01 -0.20073231725E+03  0.21756673369E+03  0.41800000000E+01 0.  1.
</event>
<event>
11    1  0.8974665E-009  0.1360849E+03  0.7561462E-02  0.1112011E+00
         22   -1    0    0    0    0  0.00000000000E+00  0.00000000000E+00  0.20443717452E+04  0.20443717452E+04  0.00000000000E+00 0. -1.
         22   -1    0    0    0    0 -0.00000000000E+00 -0.00000000000E+00 -0.50120927603E+02  0.50120927603E+02  0.00000000000E+00 0. -1.
         24    2    1    2    0    0  0.18789221464E+02  0.17689972129E+02  0.10130411689E+01  0.84434204707E+02  0.80387428837E+02 0.  0.
         25    2    1    2    0    0 -0.60170123627E+02 -0.41834025093E+02  0.79908971885E+03  0.81213576565E+03  0.12509833589E+03 0.  0.
        -24    2    1    2    0    0  0.41380902162E+02  0.24144052964E+02  0.11941480576E+04  0.11979227025E+04  0.82060363519E+02 0.  0.
        -13    1    3    3    0    0 -0.30507468630E+02  0.15776663374E+02 -0.51040061573E+01  0.34722609756E+02  0.00000000000E+00 0.  1.
         14    1    3    3    0    0  0.49296690094E+02  0.19133087551E+01  0.61170473263E+01  0.49711594951E+02  0.00000000000E+00 0. -1.
         13    1    5    5    0    0  0.59321048852E+02 -0.60218289799E+01  0.70485618692E+03  0.70737365904E+03  0.00000000000E+00 0. -1.
        -14    1    5    5    0    0 -0.17940146689E+02  0.30165881944E+02  0.48929187067E+03  0.49054904342E+03  0.00000000000E+00 0.  1.
          5    1    4    4  501    0 -0.86349046956E+02 -0.47030251764E+02  0.74702310091E+03  0.75347792814E+03  0.41800000000E+01 0. -1.
         -5    1    4    4    0  501  0.26178923330E+02  0.51962266709E+01  0.52066617936E+02  0.58657837512E+02  0.41800000000E+01 0. -1.
</event>
<event>
11    1  0.8974665E-009  0.1689817E+03  0.7561462E-02  0.1078921E+00
         22   -1    0    0    0    0  0.00000000000E+00  0.00000000000E+00  0.59717387889E+03  0.59717387889E+03  0.00000000000E+00 0.  1.
         22   -1    0    0    0    0 -0.00000000000E+00 -0.00000000000E+00 -0.15213623748E+03  0.15213623748E+03  0.00000000000E+00 0.  1.
        -24    2    1    2    0    0  0.55681396164E+02  0.87150561645E+01 -0.36445519870E+02  0.10367627224E+03  0.79019766035E+02 0.  0.
         25    2    1    2    0    0 -0.42176086982E+02  0.10588431764E+03  0.29301004502E+02  0.17174334888E+03  0.12508764122E+03 0.  0.
         24    2    1    2    0    0 -0.13505309183E+02 -0.11459937380E+03  0.45218215678E+03  0.47389049524E+03  0.82389858120E+02 0.  0.
        -13    1    5    5    0    0  0.32746888771E+02 -0.42617322015E+02  0.21924546731E+03  0.22573694823E+03  0.00000000000E+00 0.  1.
         14    1    5    5    0    0 -0.46252197954E+02 -0.71982051785E+02  0.23293668947E+03  0.24815354702E+03  0.00000000000E+00 0. -1.
         13    1    3    3    0    0  0.24475683480E+01  0.35746384268E+02 -0.22684111871E+02  0.42407116271E+02  0.00000000000E+00 0. -1.
        -14    1    3    3    0    0  0.53233827816E+02 -0.27031328104E+02 -0.13761407999E+02  0.61269155969E+02  0.00000000000E+00 0.  1.
          5    1    4    4  501    0  0.40788656454E+02  0.13424953133E+02  0.18617397011E+02  0.46989613037E+02  0.41800000000E+01 0.  1.
         -5    1    4    4    0  501 -0.82964743435E+02  0.92459364503E+02  0.10683607491E+02  0.12475373584E+03  0.41800000000E+01 0.  1.
</event>
<event>
11    1  0.8974665E-009  0.1542458E+03  0.7561462E-02  0.1092618E+00
         22   -1    0    0    0    0  0.00000000000E+00  0.00000000000E+00  0.79490330966E+03  0.79490330966E+03  0.00000000000E+00 0.  1.
         22   -1    0    0    0    0 -0.00000000000E+00 -0.00000000000E+00 -0.12411969370E+04  0.12411969370E+04  0.00000000000E+00 0.  1.
         24    2    1    2    0    0  0.70663295788E+01  0.97242937780E+02 -0.76362404274E+03  0.77428841182E+03  0.83034595571E+02 0.  0.
         25    2    1    2    0    0  0.52456894082E+02 -0.71611097881E+02 -0.45621708117E+03  0.48131432387E+03  0.12509827390E+03 0.  0.
        -24    2    1    2    0    0 -0.59523223661E+02 -0.25631839899E+02  0.77354749658E+03  0.78049751098E+03  0.81244260170E+02 0.  0.
        -11    1    3    3    0    0 -0.37643384293E+02  0.47193505827E+02 -0.39877575386E+03  0.40331917043E+03  0.00000000000E+00 0.  1.
         12    1    3    3    0    0  0.44709713872E+02  0.50049431953E+02 -0.36484828889E+03  0.37096924139E+03  0.00000000000E+00 0. -1.
         13    1    5    5    0    0 -0.80929811679E-01  0.62170940066E+00 -0.20698979268E+01  0.21627643517E+01  0.00000000000E+00 0. -1.
        -14    1    5    5    0    0 -0.59442293849E+02 -0.26253549300E+02  0.77561739450E+03  0.77833474662E+03  0.00000000000E+00 0.  1.
          5    1    4    4  501    0 -0.47539105035E+01 -0.89564817778E+02 -0.32137286821E+03  0.33368015984E+03  0.41800000000E+01 0. -1.
         -5    1    4    4    0  501  0.57210804585E+02  0.17953719898E+02 -0.13484421296E+03  0.14763416403E+03  0.41800000000E+01 0. -1.
</event>
<event>
11    1  0.8974665E-009  0.1437726E+03  0.7561462E-02  0.1103417E+00
         22   -1    0    0    0    0  0.00000000000E+00  0.00000000000E+00  0.75272286899E+03  0.75272286899E+03  0.00000000000E+00 0. -1.
         22   -1    0    0    0    0 -0.00000000000E+00 -0.00000000000E+00 -0.16570892925E+04  0.16570892925E+04  0.00000000000E+00 0.  1.
        -24    2    1    2    0    0 -0.36440440432E+02  0.28420318333E+02 -0.15696647343E+04  0.15723644186E+04  0.79667223641E+02 0.  0.
         25    2    1    2    0    0 -0.21365482095E+02 -0.70428425675E+02 -0.17527922983E+02  0.14619325160E+03  0.12509433145E+03 0.  0.
         24    2    1    2    0    0  0.57805922526E+02  0.42008107342E+02  0.68282623380E+03  0.69125449129E+03  0.80466765776E+02 0.  0.
        -13    1    5    5    0    0  0.65993516168E+02  0.11191039308E+02  0.31414337634E+03  0.32119533689E+03  0.00000000000E+00 0.  1.
         14    1    5    5    0    0 -0.81875936419E+01  0.30817068034E+02  0.36868285746E+03  0.37005915440E+03  0.00000000000E+00 0. -1.
         13    1    3    3    0    0  0.76702519961E+01 -0.30906008321E+00 -0.15387911570E+02  0.17196398062E+02  0.00000000000E+00 0. -1.
        -14    1    3    3    0    0 -0.44110692428E+02  0.28729378416E+02 -0.15542768227E+04  0.15551680205E+04  0.00000000000E+00 0.  1.
          5    1    4    4  501    0  0.51686679598E+02 -0.38202713296E+02 -0.15338945353E+02  0.66209635217E+02  0.41800000000E+01 0.  1.
         -5    1    4    4    0  501 -0.73052161693E+02 -0.32225712379E+02 -0.21889776306E+01  0.79983616381E+02  0.41800000000E+01 0.  1.
</event>
<event>
11    1  0.8974665E-009  0.1837091E+03  0.7561462E-02  0.1066681E+00
         22   -1    0    0    0    0  0.00000000000E+00  0.00000000000E+00  0.28743490176E+04  0.28743490176E+04  0.00000000000E+00 0.  1.
         22   -1    0    0    0    0 -0.00000000000E+00 -0.00000000000E+00 -0.65658887086E+03  0.65658887086E+03  0.00000000000E+00 0.  1.
        -24    2    1    2    0    0  0.34150080511E+02 -0.13043210519E+03 -0.63223670966E+03  0.65153263273E+03  0.81195765923E+02 0.  0.
         25    2    1    2    0    0 -0.17548394892E+02  0.11804080215E+03  0.52087791862E+03  0.54881954135E+03  0.12508999050E+03 0.  0.
         24    2    1    2    0    0 -0.16601685619E+02  0.12391303042E+02  0.23291189378E+04  0.23305857144E+04  0.80034901074E+02 0.  0.
        -11    1    5    5    0    0  0.28757668941E+02  0.21962528007E+02  0.10861406805E+04  0.10867432695E+04  0.00000000000E+00 0.  1.
         12    1    5    5    0    0 -0.45359354560E+02 -0.95712249643E+01  0.12429782574E+04  0.12438424449E+04  0.00000000000E+00 0. -1.
         11    1    3    3    0    0  0.40565617034E+02 -0.21986227384E+02 -0.24694118787E+03  0.25121487564E+03  0.00000000000E+00 0. -1.
        -12    1    3    3    0    0 -0.64155365233E+01 -0.10844587781E+03 -0.38529552180E+03  0.40031775709E+03  0.00000000000E+00 0.  1.
          5    1    4    4  501    0 -0.16205613161E+02  0.14161312531E+03  0.37917952205E+03  0.40510675322E+03  0.41800000000E+01 0. -1.
         -5    1    4    4    0  501 -0.13427817310E+01 -0.23572323164E+02  0.14169839657E+03  0.14371278813E+03  0.41800000000E+01 0. -1.
</event>
<event>
11    1  0.8974665E-009  0.1338783E+03  0.7561462E-02  0.1114593E+00
         22   -1    0    0    0    0  0.00000000000E+00  0.00000000000E+00  0.32193580025E+04  0.32193580025E+04  0.00000000000E+00 0.  1.
         22   -1    0    0    0    0 -0.00000000000E+00 -0.00000000000E+00 -0.38535996943E+02  0.38535996943E+02  0.00000000000E+00 0. -1.
        -24    2    1    2    0    0  0.30572309904E+02  0.29332753897E+02  0.21781112106E+02  0.89912537226E+02  0.76254645247E+02 0.  0.
         25    2    1    2    0    0 -0.57789288073E+02  0.10140041615E+02  0.15335862123E+04  0.15398004388E+04  0.12512513155E+03 0.  0.
         24    2    1    2    0    0  0.27216978169E+02 -0.39472795513E+02  0.16254546811E+04  0.16281810234E+04  0.81065769729E+02 0.  0.
        -13    1    5    5    0    0  0.36111992701E+02 -0.16518192359E+02  0.31474745085E+03  0.31724262720E+03  0.00000000000E+00 0.  1.
         14    1    5    5    0    0 -0.88950145317E+01 -0.22954603153E+02  0.13107072303E+04  0.13109383962E+04  0.00000000000E+00 0. -1.
         13    1    3    3    0    0  0.37883893708E+02  0.49344456182E+02  0.43089739256E+01  0.62358896837E+02  0.00000000000E+00 0. -1.
        -14    1    3    3    0    0 -0.73115838041E+01 -0.20011702285E+02  0.17472138181E+02  0.27553640389E+02  0.00000000000E+00 0.  1.
          5    1    4    4  501    0  0.33057310018E+02  0.27023140067E+02  0.35325617875E+03  0.35585170517E+03  0.41800000000E+01 0. -1.
         -5    1    4    4    0  501 -0.90846598091E+02 -0.16883098451E+02  0.11803300335E+04  0.11839487336E+04  0.41800000000E+01 0. -1.
</event>
<event>
11    1  0.8974665E-009  0.1334495E+03  0.7561462E-02  0.1115102E+00
         22   -1    0    0    0    0  0.00000000000E+00  0.00000000000E+00  0.87828879820E+02  0.87828879820E+02  0.00000000000E+00 0. -1.
         22   -1    0    0    0    0 -0.00000000000E+00 -0.00000000000E+00 -0.10547502252E+04  0.10547502252E+04  0.00000000000E+00 0. -1.
        -24    2    1    2    0    0  0.30292338075E+02 -0.36048414914E+02 -0.89861744390E+03  0.90349115197E+03  0.81029854032E+02 0.  0.
         25    2    1    2    0    0 -0.22236114742E+02  0.30509679381E+02 -0.83447835663E+02  0.15503757567E+03  0.12509125972E+03 0.  0.
         24    2    1    2    0    0 -0.80562233329E+01  0.55387355322E+01  0.15143934196E+02  0.84050377363E+02  0.82094743232E+02 0.  0.
        -13    1    5    5    0    0 -0.26931684051E+02  0.34284179519E+02 -0.54972985618E+01  0.43942472194E+02  0.00000000000E+00 0.  1.
         14    1    5    5    0    0  0.18875460718E+02 -0.28745443987E+02  0.20641232758E+02  0.40107905169E+02  0.00000000000E+00 0. -1.
         13    1    3    3    0    0  0.33244930890E+02 -0.59413105183E+02 -0.57467666637E+03  0.57869544094E+03  0.00000000000E+00 0. -1.
        -14    1    3    3    0    0 -0.29525928155E+01  0.23364690270E+02 -0.32394077753E+03  0.32479571103E+03  0.00000000000E+00 0.  1.
          5    1    4    4  501    0  0.36576192868E+02 -0.14035527815E+02 -0.69420863605E+02  0.79821943283E+02  0.41800000000E+01 0. -1.
         -5    1    4    4    0  501 -0.58812307610E+02  0.44545207196E+02 -0.14026972058E+02  0.75215632389E+02  0.41800000000E+01 0. -1.
</event>
<event>
11    1  0.8974665E-009  0.1644310E+03  0.7561462E-02  0.1082982E+00
         22   -1    0    0    0    0  0.00000000000E+00  0.00000000000E+00  0.38599348502E+04  0.38599348502E+04  0.00000000000E+00 0.  1.
         22   -1    0    0    0    0 -0.00000000000E+00 -0.00000000000E+00 -0.74698297069E+03  0.74698297069E+03  0.00000000000E+00 0.  1.
         24    2    1    2    0    0 -0.25879818894E+02 -0.10424444050E+03 -0.73327405400E+03  0.74836772693E+03  0.10405166045E+03 0.  0.
         25    2    1    2    0    0  0.15760039469E+01  0.33173480945E+02  0.80782145120E+03  0.81812389702E+03  0.12509296631E+03 0.  0.
        -24    2    1    2    0    0  0.24303814947E+02  0.71070959553E+02  0.30384044823E+04  0.30404261969E+04  0.81534681279E+02 0.  0.
        -11    1    3    3    0    0 -0.43846724344E+02 -0.96399636621E+02 -0.71036257963E+03  0.71821335251E+03  0.00000000000E+00 0.  1.
         12    1    3    3    0    0  0.17966905449E+02 -0.78448038766E+01 -0.22911474366E+02  0.30154374425E+02  0.00000000000E+00 0. -1.
         11    1    5    5    0    0 -0.25915380219E+02  0.31237424983E+01  0.63175995615E+03  0.63229898537E+03  0.00000000000E+00 0. -1.
        -12    1    5    5    0    0  0.50219195166E+02  0.67947217054E+02  0.24066445261E+04  0.24081272116E+04  0.00000000000E+00 0.  1.
          5    1    4    4  501    0 -0.11809016748E+02  0.11804441426E+02  0.10026962395E+02  0.19920092590E+02  0.41800000000E+01 0. -1.
         -5    1    4    4    0  501  0.13385020695E+02  0.21369039520E+02  0.79779448881E+03  0.79820380443E+03  0.41800000000E+01 0. -1.
</event>
<event>
11    1  0.8974665E-009  0.1306876E+03  0.7561462E-02  0.1118427E+00
         22   -1    0    0    0    0  0.00000000000E+00  0.00000000000E+00  0.12966096745E+04  0.12966096745E+04  0.00000000000E+00 0. -1.
         22   -1    0    0    0    0 -0.00000000000E+00 -0.00000000000E+00 -0.32046051334E+03  0.32046051334E+03  0.00000000000E+00 0. -1.
         24    2    1    2    0    0 -0.16594053593E+02  0.33432405461E+02 -0.28059547341E+03  0.29328439969E+03  0.76738719399E+02 0.  0.
         25    2    1    2    0    0  0.12839542564E+02 -0.49396329361E+02  0.11079701288E+03  0.17471800988E+03  0.12508218780E+03 0.  0.
        -24    2    1    2    0    0  0.37545110294E+01  0.15963923900E+02  0.11459476217E+04  0.11490677783E+04  0.83017252220E+02 0.  0.
        -11    1    3    3    0    0 -0.40024371769E+00  0.43114686081E+02 -0.72623489093E+02  0.84458318235E+02  0.00000000000E+00 0.  1.
         12    1    3    3    0    0 -0.16193809876E+02 -0.96822806204E+01 -0.20797198432E+03  0.20882608146E+03  0.00000000000E+00 0. -1.
         11    1    5    5    0    0  0.16837614177E+02 -0.27983080140E+02  0.70181587975E+03  0.70257532485E+03  0.00000000000E+00 0. -1.
        -12    1    5    5    0    0 -0.13083103148E+02  0.43947004041E+02  0.44413174198E+03  0.44649245345E+03  0.00000000000E+00 0.  1.
          5    1    4    4  501    0  0.11591547137E+02 -0.24824645733E+02  0.13626868701E+03  0.13905845699E+03  0.41800000000E+01 0. -1.
         -5    1    4    4    0  501  0.12479954266E+01 -0.24571683628E+02 -0.25471674133E+02  0.35659552887E+02  0.41800000000E+01 0. -1.
</event>
<event>
11    1  0.8974665E-009  0.2174378E+03  0.7561462E-02  0.1042834E+00
         22   -1    0    0    0    0  0.00000000000E+00  0.00000000000E+00  0.64776329092E+03  0.64776329092E+03  0.00000000000E+00 0. -1.
         22   -1    0    0    0    0 -0.00000000000E+00 -0.00000000000E+00 -0.11292566717E+04  0.11292566717E+04  0.00000000000E+00 0.  1.
         24    2    1    2    0    0 -0.15455900155E+01 -0.62942239522E+02 -0.94836526398E+03  0.95382139813E+03  0.80090394262E+02 0.  0.
         25    2    1    2    0    0 -0.17579212080E+03  0.72309259214E+02 -0.81223945686E+02  0.24161398469E+03  0.12509392287E+03 0.  0.
        -24    2    1    2    0    0  0.17733771082E+03 -0.93670196924E+01  0.54809582885E+03  0.58158457984E+03  0.79342177753E+02 0.  0.
        -13    1    3    3    0    0 -0.49508606285E+01 -0.59590936762E+02 -0.94695328599E+03  0.94883935237E+03  0.00000000000E+00 0.  1.
         14    1    3    3    0    0  0.34052706130E+01 -0.33513027602E+01 -0.14119779908E+01  0.49820457630E+01  0.00000000000E+00 0. -1.
         11    1    5    5    0    0  0.31994349479E+02 -0.68907096053E+01  0.22404734854E+03  0.22642511933E+03  0.00000000000E+00 0. -1.
        -12    1    5    5    0    0  0.14534336134E+03 -0.24763100871E+01  0.32404848031E+03  0.35515946051E+03  0.00000000000E+00 0.  1.
          5    1    4    4  501    0 -0.10213145776E+03  0.36504437957E+00  0.11661005956E+02  0.10288060741E+03  0.41800000000E+01 0. -1.
         -5    1    4    4    0  501 -0.73660663046E+02  0.71944214835E+02 -0.92884951643E+02  0.13873337728E+03  0.41800000000E+01 0. -1.
</event>
<event>
11    1  0.8974665E-009  0.1354216E+03  0.7561462E-02  0.1112781E+00
         22   -1    0    0    0    0  0.00000000000E+00  0.00000000000E+00  0.42772334587E+03  0.42772334587E+03  0.00000000000E+00 0. -1.
         22   -1    0    0    0    0 -0.00000000000E+00 -0.00000000000E+00 -0.44162275402E+03  0.44162275402E+03  0.00000000000E+00 0.  1.
        -24    2    1    2    0    0  0.29758452504E+01  0.51002245543E+02 -0.39060266795E+03  0.40232676208E+03  0.81769765629E+02 0.  0.
         25    2    1    2    0    0  0.20530313206E+02 -0.71456159179E+02  0.97703735533E+02  0.17527298585E+03  0.12508846144E+03 0.  0.
         24    2    1    2    0    0 -0.23506158456E+02  0.20453913636E+02  0.27899952426E+03  0.29174635196E+03  0.79399604992E+02 0.  0.
        -11    1    5    5    0    0  0.28532578706E+02  0.15366003183E+02  0.12402245787E+03  0.12818655218E+03  0.00000000000E+00 0.  1.
         12    1    5    5    0    0 -0.52038737162E+02  0.50879104529E+01  0.15497706639E+03  0.16355979978E+03  0.00000000000E+00 0. -1.
         13    1    3    3    0    0  0.39857840959E+02  0.16949501339E+02 -0.13287129020E+03  0.13975232678E+03  0.00000000000E+00 0. -1.
        -14    1    3    3    0    0 -0.36881995709E+02  0.34052744204E+02 -0.25773137775E+03  0.26257443530E+03  0.00000000000E+00 0.  1.
          5    1    4    4  501    0  0.31713557075E+02 -0.86624285184E+02  0.11627832288E+03  0.14848446807E+03  0.41800000000E+01 0. -1.
         -5    1    4    4    0  501 -0.11183243870E+02  0.15168126005E+02 -0.18574587344E+02  0.26788517782E+02  0.41800000000E+01 0. -1.
</event>
<event>
11    1  0.8974665E-009  0.1294421E+03  0.7561462E-02  0.1119956E+00
         22   -1    0    0    0    0  0.00000000000E+00  0.00000000000E+00  0.16531132236E+03  0.16531132236E+03  0.00000000000E+00 0.  1.
         22   -1    0    0    0    0 -0.00000000000E+00 -0.00000000000E+00 -0.59644643040E+03  0.59644643040E+03  0.00000000000E+00 0.  1.
         24    2    1    2    0    0 -0.22372966237E+02 -0.94279522386E+00 -0.44942116407E+03  0.45495858933E+03  0.67130446246E+02 0.  0.
         25    2    1    2    0    0  0.50776102424E+02 -0.12026923250E+02 -0.93892318247E+02  0.16487905585E+03  0.12508587519E+03 0.  0.
        -24    2    1    2    0    0 -0.28403136188E+02  0.12969718474E+02  0.11217837427E+03  0.14192010758E+03  0.81131852799E+02 0.  0.
        -13    1    3    3    0    0 -0.28834658495E+02  0.28263699321E+02 -0.23162578787E+03  0.23511865055E+03  0.00000000000E+00 0.  1.
         14    1    3    3    0    0  0.64616922585E+01 -0.29206494545E+02 -0.21779537620E+03  0.21983993878E+03  0.00000000000E+00 0. -1.
         11    1    5    5    0    0 -0.41976544028E+02 -0.19760288316E+02  0.86514005797E+02  0.98169101259E+02  0.00000000000E+00 0. -1.
        -12    1    5    5    0    0  0.13573407840E+02  0.32730006790E+02  0.25664368474E+02  0.43751006321E+02  0.00000000000E+00 0.  1.
          5    1    4    4  501    0  0.76501019781E+02 -0.18072798871E+02 -0.10877005067E+03  0.13426625939E+03  0.41800000000E+01 0.  1.
         -5    1    4    4    0  501 -0.25724917357E+02  0.60458756201E+01  0.14877732426E+02  0.30612796461E+02  0.41800000000E+01 0.  1.
</event>
<event>
11    1  0.8974665E-009  0.1369009E+03  0.7561462E-02  0.1111069E+00
         22   -1    0    0    0    0  0.00000000000E+00  0.00000000000E+00  0.43709890395E+03  0.43709890395E+03  0.00000000000E+00 0. -1.
         22   -1    0    0    0    0 -0.00000000000E+00 -0.00000000000E+00 -0.27081742703E+03  0.27081742703E+03  0.00000000000E+00 0.  1.
        -24    2    1    2    0    0  0.27995357510E+02 -0.23145347124E+02 -0.11303781489E+03  0.14358094621E+03  0.80737187132E+02 0.  0.
         25    2    1    2    0    0 -0.69074470478E+02 -0.13958478026E+02 -0.98468258666E+02  0.17410295613E+03  0.12509884007E+03 0.  0.
         24    2    1    2    0    0  0.41079112968E+02  0.37103825150E+02  0.37778755047E+03  0.39023242864E+03  0.80583669020E+02 0.  0.
        -13    1    5    5    0    0  0.47589219237E+01  0.11664657529E+02  0.31582543399E+01  0.12987922991E+02  0.00000000000E+00 0.  1.
         14    1    5    5    0    0  0.36320191044E+02  0.25439167621E+02  0.37462929613E+03  0.37724450565E+03  0.00000000000E+00 0. -1.
         11    1    3    3    0    0 -0.25694743250E+01  0.85157063123E+01  0.97186936559E+01  0.13174690079E+02  0.00000000000E+00 0. -1.
        -12    1    3    3    0    0  0.30564831835E+02 -0.31661053436E+02 -0.12275650854E+03  0.13040625613E+03  0.00000000000E+00 0.  1.
          5    1    4    4  501    0 -0.48274980972E+02  0.53242884490E+02 -0.60603582954E+02  0.94103906420E+02  0.41800000000E+01 0.  1.
         -5    1    4    4    0  501 -0.20799489506E+02 -0.67201362516E+02 -0.37864675712E+02  0.79999049710E+02  0.41800000000E+01 0.  1.
</event>
<event>
11    1  0.8974665E-009  0.1344035E+03  0.7561462E-02  0.1113974E+00
         22   -1    0    0    0    0  0.00000000000E+00  0.00000000000E+00  0.15603368269E+03  0.15603368269E+03  0.00000000000E+00 0.  1.
         22   -1    0    0    0    0 -0.00000000000E+00 -0.00000000000E+00 -0.29529530338E+03  0.29529530338E+03  0.00000000000E+00 0. -1.
         24    2    1    2    0    0 -0.49623682892E+02  0.21559932559E+02 -0.18699905461E+03  0.20882789962E+03  0.75585082122E+02 0.  0.
         25    2    1    2    0    0  0.20874250034E+02 -0.16546807716E+02 -0.26700088606E+02  0.13063879711E+03  0.12507625442E+03 0.  0.
        -24    2    1    2    0    0  0.28749432858E+02 -0.50131248423E+01  0.74437522526E+02  0.11186228933E+03  0.78234044407E+02 0.  0.
        -11    1    3    3    0    0  0.72464424523E+01 -0.18115622040E+02 -0.19696561910E+02  0.27724379907E+02  0.00000000000E+00 0.  1.
         12    1    3    3    0    0 -0.56870125345E+02  0.39675554599E+02 -0.16730249270E+03  0.18110351972E+03  0.00000000000E+00 0. -1.
         13    1    5    5    0    0  0.44563042608E+02 -0.22191246486E+02  0.21932688053E+02  0.54399990738E+02  0.00000000000E+00 0. -1.
        -14    1    5    5    0    0 -0.15813609750E+02  0.17178121643E+02  0.52504834473E+02  0.57462298593E+02  0.00000000000E+00 0.  1.
          5    1    4    4  501    0  0.16655468579E+02 -0.35736273827E+02  0.42771625070E+02  0.58321267233E+02  0.41800000000E+01 0. -1.
         -5    1    4    4    0  501  0.42187814556E+01  0.19189466110E+02 -0.69471713676E+02  0.72317529878E+02  0.41800000000E+01 0. -1.
</event>
<event>
11    1  0.8974665E-009  0.1454419E+03  0.7561462E-02  0.1101629E+00
         22   -1    0    0    0    0  0.00000000000E+00  0.00000000000E+00  0.84193369973E+03  0.84193369973E+03  0.00000000000E+00 0. -1.
         22   -1    0    0    0    0 -0.00000000000E+00 -0.00000000000E+00 -0.24869437124E+03  0.24869437124E+03  0.00000000000E+00 0. -1.
        -24    2    1    2    0    0 -0.60700301469E+02  0.32400591160E+02 -0.17199859980E+03  0.20206142406E+03  0.80690618141E+02 0.  0.
         25    2    1    2    0    0  0.11974675712E+03 -0.34257872714E+02  0.76379223240E+02  0.19234604970E+03  0.12510127660E+03 0.  0.
         24    2    1    2    0    0 -0.59046455652E+02  0.18572815536E+01  0.68885870505E+03  0.69622059721E+03  0.81895488487E+02 0.  0.
        -13    1    5    5    0    0  0.90100510162E+01 -0.20675798600E+02  0.78799408275E+02  0.81963506584E+02  0.00000000000E+00 0.  1.
         14    1    5    5    0    0 -0.68056506669E+02  0.22533080153E+02  0.61005929677E+03  0.61425709062E+03  0.00000000000E+00 0. -1.
         13    1    3    3    0    0 -0.72456688892E+01  0.25150564715E+02 -0.13286282165E+03  0.13541632102E+03  0.00000000000E+00 0. -1.
        -14    1    3    3    0    0 -0.53454632580E+02  0.72500264456E+01 -0.39135778147E+02  0.66645103038E+02  0.00000000000E+00 0.  1.
          5    1    4    4  501    0  0.13193673204E+03  0.54340473753E+01  0.43092019314E+02  0.13896483246E+03  0.41800000000E+01 0. -1.
         -5    1    4    4    0  501 -0.12189974916E+02 -0.39691920089E+02  0.33287203926E+02  0.53381217240E+02  0.41800000000E+01 0. -1.
</event>
<event>
11    1  0.8974665E-009  0.1615590E+03  0.7561462E-02  0.1085620E+00
         22   -1    0    0    0    0  0.00000000000E+00  0.00000000000E+00  0.70847202553E+03  0.70847202553E+03  0.00000000000E+00 0. -1.
         22   -1    0    0    0    0 -0.00000000000E+00 -0.00000000000E+00 -0.23714256077E+04  0.23714256077E+04  0.00000000000E+00 0. -1.
         24    2    1    2    0    0 -0.14249028649E+02 -0.36844095817E+02 -0.18657968950E+04  0.18678813918E+04  0.78881673752E+02 0.  0.
         25    2    1    2    0    0  0.11501708881E+03  0.52676210011E+02 -0.48263692858E+03  0.51438285167E+03  0.12509036513E+03 0.  0.
        -24    2    1    2    0    0 -0.10076806016E+03 -0.15832114194E+02  0.68548024139E+03  0.69763338972E+03  0.80027041271E+02 0.  0.
        -11    1    3    3    0    0 -0.43000558141E+02 -0.32194721042E+01 -0.10511341571E+04  0.10520182647E+04  0.00000000000E+00 0.  1.
         12    1    3    3    0    0  0.28751529493E+02 -0.33624623713E+02 -0.81466273790E+03  0.81586312718E+03  0.00000000000E+00 0. -1.
         11    1    5    5    0    0 -0.76883000461E+02 -0.36780507952E+02  0.33334363977E+03  0.34406653964E+03  0.00000000000E+00 0. -1.
        -12    1    5    5    0    0 -0.23885059696E+02  0.20948393758E+02  0.35213660162E+03  0.35356685008E+03  0.00000000000E+00 0.  1.
          5    1    4    4  501    0  0.63985175657E+02  0.89490031197E+02 -0.36035973557E+03  0.37680124709E+03  0.41800000000E+01 0.  1.
         -5    1    4    4    0  501  0.51031913149E+02 -0.36813821186E+02 -0.12227719301E+03  0.13758160459E+03  0.41800000000E+01 0.  1.
</event>
<event>
11    1  0.8974665E-009  0.1454365E+03  0.7561462E-02  0.1101635E+00
         22   -1    0    0    0    0  0.00000000000E+00  0.00000000000E+00  0.12778404443E+04  0.12778404443E+04  0.00000000000E+00 0.  1.
         22   -1    0    0    0    0 -0.00000000000E+00 -0.00000000000E+00 -0.12386844315E+03  0.12386844315E+03  0.00000000000E+00 0.  1.
        -24    2    1    2    0    0  0.23927942063E+02  0.33613724497E+02 -0.62072678236E+02  0.10867015937E+03  0.79080700979E+02 0.  0.
         25    2    1    2    0    0  0.21944320682E+02 -0.90855550209E+02  0.13442030645E+03  0.20603959720E+03  0.12508881889E+03 0.  0.
         24    2    1    2    0    0 -0.45872262745E+02  0.57241825712E+02  0.10816243730E+04  0.10869991309E+04  0.79214489392E+02 0.  0.
        -11    1    5    5    0    0 -0.59943531681E+02  0.20803527275E+02  0.82291937516E+03  0.82536192773E+03  0.00000000000E+00 0.  1.
         12    1    5    5    0    0  0.14071268936E+02  0.36438298436E+02  0.25870499781E+03  0.26163720319E+03  0.00000000000E+00 0. -1.
         13    1    3    3    0    0  0.12882318458E+02  0.11774726566E+02  0.17921768096E+02  0.25015756760E+02  0.00000000000E+00 0. -1.
        -14    1    3    3    0    0  0.11045623605E+02  0.21838997931E+02 -0.79994446332E+02  0.83654402606E+02  0.00000000000E+00 0.  1.
          5    1    4    4  501    0  0.52876845169E+02  0.42883074483E+01  0.28840744244E+02  0.60527772670E+02  0.41800000000E+01 0. -1.
         -5    1    4    4    0  501 -0.30932524487E+02 -0.95143857657E+02  0.10557956221E+03  0.14551182453E+03  0.41800000000E+01 0. -1.
</event>
<event>
11    1  0.8974665E-009  0.1598547E+03  0.7561462E-02  0.1087214E+00
         22   -1    0    0    0    0  0.00000000000E+00  0.00000000000E+00  0.11936058487E+04  0.11936058487E+04  0.00000000000E+00 0. -1.
         22   -1    0    0    0    0 -0.00000000000E+00 -0.00000000000E+00 -0.12115301017E+04  0.12115301017E+04  0.00000000000E+00 0. -1.
        -24    2    1    2    0    0  0.13263337496E+02  0.18212439564E+02 -0.10682971642E+04  0.10714898907E+04  0.79524497135E+02 0.  0.
         25    2    1    2    0    0 -0.80623849597E+02 -0.90728464504E+02 -0.83127352185E+02  0.19310398859E+03  0.12508850599E+03 0.  0.
         24    2    1    2    0    0  0.67360512101E+02  0.72516024941E+02  0.11335002634E+04  0.11405420711E+04  0.78850215082E+02 0.  0.
        -11    1    5    5    0    0  0.36120239815E+02  0.15231058126E+02  0.15540545701E+03  0.16027324457E+03  0.00000000000E+00 0.  1.
         12    1    5    5    0    0  0.31240272285E+02  0.57284966814E+02  0.97809480636E+03  0.98026882653E+03  0.00000000000E+00 0. -1.
         13    1    3    3    0    0  0.16192651162E+02  0.48495340451E+02 -0.75060198759E+03  0.75234124157E+03  0.00000000000E+00 0. -1.
        -14    1    3    3    0    0 -0.29293136653E+01 -0.30282900888E+02 -0.31769517665E+03  0.31914864911E+03  0.00000000000E+00 0.  1.
          5    1    4    4  501    0  0.24616702928E+02  0.28557344875E+01  0.67019957954E+01  0.26010121687E+02  0.41800000000E+01 0.  1.
         -5    1    4    4    0  501 -0.10524055253E+03 -0.93584198992E+02 -0.89829347980E+02  0.16709386690E+03  0.41800000000E+01 0.  1.
</event>
<event>
11    1  0.8974665E-009  0.1355879E+03  0.7561462E-02  0.1112588E+00
         22   -1    0    0    0    0  0.00000000000E+00  0.00000000000E+00  0.18410548038E+04  0.18410548038E+04  0.00000000000E+00 0.  1.
         22   -1    0    0    0    0 -0.00000000000E+00 -0.00000000000E+00 -0.11188056944E+04  0.11188056944E+04  0.00000000000E+00 0.  1.
        -24    2    1    2    0    0  0.90935683490E+00  0.22281588290E+02 -0.86100660577E+03  0.86527817450E+03  0.82925556901E+02 0.  0.
         25    2    1    2    0    0  0.46446915063E+02 -0.44384414565E+02 -0.23499885626E+03  0.27386191596E+03  0.12509434197E+03 0.  0.
         24    2    1    2    0    0 -0.47356271898E+02  0.22102826275E+02  0.18182545715E+04  0.18207204078E+04  0.79006109015E+02 0.  0.
        -11    1    5    5    0    0 -0.60491918282E+02  0.17687616636E+02  0.17466780436E+04  0.17478147247E+04  0.00000000000E+00 0.  1.
         12    1    5    5    0    0  0.13135646384E+02  0.44152096390E+01  0.71576527887E+02  0.72905683087E+02  0.00000000000E+00 0. -1.
         11    1    3    3    0    0  0.27070561801E+02 -0.15847015417E+02 -0.54549176049E+03  0.54639290257E+03  0.00000000000E+00 0. -1.
        -12    1    3    3    0    0 -0.26161204967E+02  0.38128603707E+02 -0.31551484527E+03  0.31888527193E+03  0.00000000000E+00 0.  1.
          5    1    4    4  501    0  0.53667490835E+01 -0.62642976940E+02 -0.42175651641E+02  0.75823496008E+02  0.41800000000E+01 0.  1.
         -5    1    4    4    0  501  0.41080165979E+02  0.18258562374E+02 -0.19282320462E+03  0.19803841995E+03  0.41800000000E+01 0.  1.
</event>
<event>
11    1  0.8974665E-009  0.1951339E+03  0.7561462E-02  0.1058019E+00
         22   -1    0    0    0    0  0.00000000000E+00  0.00000000000E+00  0.37692047155E+03  0.37692047155E+03  0.00000000000E+00 0.  1.
         22   -1    0    0    0    0 -0.00000000000E+00 -0.00000000000E+00 -0.12558660369E+04  0.12558660369E+04  0.00000000000E+00 0.  1.
        -24    2    1    2    0    0  0.11587594275E+03 -0.96141655238E+02 -0.11318127143E+04  0.11444736922E+04  0.78419128733E+02 0.  0.
         25    2    1    2    0    0 -0.10877964627E+03  0.87876059590E+02 -0.33594020348E+02  0.19060747864E+03  0.12508972547E+03 0.  0.
         24    2    1    2    0    0 -0.70962964830E+01  0.82655956485E+01  0.28646116935E+03  0.29770533763E+03  0.80310578469E+02 0.  0.
        -11    1    5    5    0    0 -0.61731048174E+01  0.22890515174E+02  0.28110518459E+03  0.28210318628E+03  0.00000000000E+00 0.  1.
         12    1    5    5    0    0 -0.92319166558E+00 -0.14624919525E+02  0.53559847613E+01  0.15602151350E+02  0.00000000000E+00 0. -1.
         11    1    3    3    0    0  0.25005087524E+02  0.12102216221E+02 -0.22616486468E+03  0.22786457394E+03  0.00000000000E+00 0. -1.
        -12    1    3    3    0    0  0.90870855226E+02 -0.10824387146E+03 -0.90564784965E+03  0.91660911822E+03  0.00000000000E+00 0.  1.
          5    1    4    4  501    0 -0.85334898916E+02  0.98688479080E+02  0.18962031113E+02  0.13190334302E+03  0.41800000000E+01 0.  1.
         -5    1    4    4    0  501 -0.23444747351E+02 -0.10812419490E+02 -0.52556051461E+02  0.58704135619E+02  0.41800000000E+01 0.  1.
</event>
<event>
11    1  0.8974665E-009  0.1753936E+03  0.7561462E-02  0.1073431E+00
         22   -1    0    0    0    0  0.00000000000E+00  0.00000000000E+00  0.48416486742E+03  0.48416486742E+03  0.00000000000E+00 0. -1.
         22   -1    0    0    0    0 -0.00000000000E+00 -0.00000000000E+00 -0.51971918614E+03  0.51971918614E+03  0.00000000000E+00 0. -1.
        -24    2    1    2    0    0 -0.25786739788E+02 -0.13548853694E+02 -0.44558028591E+03  0.45378326397E+03  0.80801807437E+02 0.  0.
         25    2    1    2    0    0  0.93842182698E+02 -0.87762869271E+02  0.94714949934E+02  0.20280056002E+03  0.12509384048E+03 0.  0.
         24    2    1    2    0    0 -0.68055442910E+02  0.10131172296E+03  0.31531101726E+03  0.34730022957E+03  0.79377599705E+02 0.  0.
        -13    1    5    5    0    0 -0.71246683626E+02  0.59359471324E+02  0.14696843064E+03  0.17377962011E+03  0.00000000000E+00 0.  1.
         14    1    5    5    0    0  0.31912407160E+01  0.41952251641E+02  0.16834258662E+03  0.17352060945E+03  0.00000000000E+00 0. -1.
         13    1    3    3    0    0 -0.52698387793E+02  0.53853946453E+01 -0.27081740135E+03  0.27594961030E+03  0.00000000000E+00 0. -1.
        -14    1    3    3    0    0  0.26911648005E+02 -0.18934248340E+02 -0.17476288457E+03  0.17783365368E+03  0.00000000000E+00 0.  1.
          5    1    4    4  501    0  0.20918838207E+02 -0.24729888408E+02  0.10096719444E+03  0.10611791519E+03  0.41800000000E+01 0. -1.
         -5    1    4    4    0  501  0.72923344491E+02 -0.63032980863E+02 -0.62522445032E+01  0.96682644821E+02  0.41800000000E+01 0. -1.
</event>
<event>
11    1  0.8974665E-009  0.1408971E+03  0.7561462E-02  0.1106561E+00
         22   -1    0    0    0    0  0.00000000000E+00  0.00000000000E+00  0.65029794073E+03  0.65029794073E+03  0.00000000000E+00 0.  1.
         22   -1    0    0    0    0 -0.00000000000E+00 -0.00000000000E+00 -0.19398585238E+03  0.19398585238E+03  0.00000000000E+00 0. -1.
         24    2    1    2    0    0  0.31501354120E+02  0.13079257172E+02 -0.15129264723E+03  0.17703964151E+03  0.85382476430E+02 0.  0.
         25    2    1    2    0    0 -0.25027548920E+02  0.54576430647E+02  0.18232574252E+03  0.22911900881E+03  0.12509148182E+03 0.  0.
        -24    2    1    2    0    0 -0.64738052002E+01 -0.67655687819E+02  0.42527899306E+03  0.43812514278E+03  0.80450087369E+02 0.  0.
        -11    1    3    3    0    0  0.51156035875E+02  0.11637900446E+02 -0.45555258532E+02  0.69481381054E+02  0.00000000000E+00 0.  1.
         12    1    3    3    0    0 -0.19654681755E+02  0.14413567258E+01 -0.10573738870E+03  0.10755826046E+03  0.00000000000E+00 0. -1.
         11    1    5    5    0    0  0.15854195961E+02 -0.41833478791E+02  0.84242979343E+02  0.95384878497E+02  0.00000000000E+00 0. -1.
        -12    1    5    5    0    0 -0.22328001162E+02 -0.25822209028E+02  0.34103601371E+03  0.34274026429E+03  0.00000000000E+00 0.  1.
          5    1    4    4  501    0 -0.89161721053E+01  0.47631555521E+02  0.28317520566E+01  0.48721190729E+02  0.41800000000E+01 0. -1.
         -5    1    4    4    0  501 -0.16111376815E+02  0.69448751260E+01  0.17949399047E+03  0.18039781808E+03  0.41800000000E+01 0. -1.
</event>
<event>
11    1  0.8974665E-009  0.1284560E+03  0.7561462E-02  0.1121181E+00
         22   -1    0    0    0    0  0.00000000000E+00  0.00000000000E+00  0.15932785434E+03  0.15932785434E+03  0.00000000000E+00 0. -1.
         22   -1    0    0    0    0 -0.00000000000E+00 -0.00000000000E+00 -0.73013282409E+03  0.73013282409E+03  0.00000000000E+00 0.  1.
         24    2    1    2    0    0 -0.15885510773E+02 -0.25017037597E+02 -0.44789315803E+03  0.45612741726E+03  0.81029242476E+02 0.  0.
         25    2    1    2    0    0  0.10990927595E+02  0.25565587088E+02 -0.24961457443E+03  0.28058936471E+03  0.12509418887E+03 0.  0.
        -24    2    1    2    0    0  0.48945831782E+01 -0.54854949094E+00  0.12670276272E+03  0.15274389647E+03  0.85163665824E+02 0.  0.
        -13    1    3    3    0    0  0.81507943932E+00 -0.36109499994E+02 -0.42118904445E+03  0.42273487142E+03  0.00000000000E+00 0.  1.
         14    1    3    3    0    0 -0.16700590213E+02  0.11092462396E+02 -0.26704113579E+02  0.33392545838E+02  0.00000000000E+00 0. -1.
         11    1    5    5    0    0  0.25522131135E+02 -0.28561244270E+02  0.10493427520E+03  0.11170642758E+03  0.00000000000E+00 0. -1.
        -12    1    5    5    0    0 -0.20627547957E+02  0.28012694779E+02  0.21768487518E+02  0.41037468883E+02  0.00000000000E+00 0.  1.
          5    1    4    4  501    0  0.38198561672E+02 -0.14777033027E+02 -0.21924710437E+03  0.22307903531E+03  0.41800000000E+01 0.  1.
         -5    1    4    4    0  501 -0.27207634076E+02  0.40342620116E+02 -0.30367470053E+02  0.57510329396E+02  0.41800000000E+01 0.  1.
</event>
<event>
11    1  0.8974665E-009  0.2057970E+03  0.7561462E-02  0.1050498E+00
         22   -1    0    0    0    0  0.00000000000E+00  0.00000000000E+00  0.45991643142E+03  0.45991643142E+03  0.00000000000E+00 0. -1.
         22   -1    0    0    0    0 -0.00000000000E+00 -0.00000000000E+00 -0.10305982095E+04  0.10305982095E+04  0.00000000000E+00 0.  1.
        -24    2    1    2    0    0 -0.17146667227E+03 -0.12962146687E+02 -0.90146927898E+03  0.91972010355E+03  0.60575333142E+02 0.  0.
         25    2    1    2    0    0  0.10584967821E+03  0.19394599645E+02 -0.52833006569E+02  0.17326105355E+03  0.12509101176E+03 0.  0.
         24    2    1    2    0    0  0.65616994064E+02 -0.64324529575E+01  0.38362050743E+03  0.39753348387E+03  0.80754013589E+02 0.  0.
        -13    1    5    5    0    0  0.97622531612E+01 -0.33004950976E+02  0.71621390594E+02  0.79462267564E+02  0.00000000000E+00 0.  1.
         14    1    5    5    0    0  0.55854740903E+02  0.26572498018E+02  0.31199911684E+03  0.31807121630E+03  0.00000000000E+00 0. -1.
         11    1    3    3    0    0  0.50793165593E+01 -0.17289615361E+01 -0.30205637462E+02  0.30678482675E+02  0.00000000000E+00 0. -1.
        -12    1    3    3    0    0 -0.17654598883E+03 -0.11233185151E+02 -0.87126364152E+03  0.88904162087E+03  0.00000000000E+00 0.  1.
          5    1    4    4  501    0 -0.16513183892E+02  0.17187644596E+02  0.19466041760E+02  0.31056393075E+02  0.41800000000E+01 0.  1.
         -5    1    4    4    0  501  0.12236286210E+03  0.22069550486E+01 -0.72299048329E+02  0.14220466047E+03  0.41800000000E+01 0.  1.
</event>
<event>
11    1  0.8974665E-009  0.1290369E+03  0.7561462E-02  0.1120458E+00
         22   -1    0    0    0    0  0.00000000000E+00  0.00000000000E+00  0.44434895199E+03  0.44434895199E+03  0.00000000000E+00 0. -1.
         22   -1    0    0    0    0 -0.00000000000E+00 -0.00000000000E+00 -0.25126873910E+03  0.25126873910E+03  0.00000000000E+00 0.  1.
        -24    2    1    2    0    0  0.29304894045E+02 -0.13017396290E+02 -0.20834145495E+03  0.22477994163E+03  0.78048900639E+02 0.  0.
         25    2    1    2    0    0 -0.22308345623E+02  0.11216638544E+02  0.10871704742E+03  0.16760271448E+03  0.12509115970E+03 0.  0.
         24    2    1    2    0    0 -0.69965484218E+01  0.18007577460E+01  0.29270462042E+03  0.30323503498E+03  0.78887877423E+02 0.  0.
        -13    1    5    5    0    0  0.12890504290E+02 -0.34758974982E+02  0.12057580185E+03  0.12614624621E+03  0.00000000000E+00 0.  1.
         14    1    5    5    0    0 -0.19887052711E+02  0.36559732728E+02  0.17212881857E+03  0.17708878876E+03  0.00000000000E+00 0. -1.
         11    1    3    3    0    0 -0.32039699696E+01 -0.29211857214E+02 -0.27231994880E+02  0.40064692319E+02  0.00000000000E+00 0. -1.
        -12    1    3    3    0    0  0.32508864014E+02  0.16194460924E+02 -0.18110946007E+03  0.18471524932E+03  0.00000000000E+00 0.  1.
          5    1    4    4  501    0  0.28901995926E+02  0.45136192576E+01 -0.15242541976E+02  0.33249144548E+02  0.41800000000E+01 0. -1.
         -5    1    4    4    0  501 -0.51210341549E+02  0.67030192864E+01  0.12395958940E+03  0.13435356993E+03  0.41800000000E+01 0. -1.
</event>
<event>
11    1  0.8974665E-009  0.2015037E+03  0.7561462E-02  0.1053465E+00
         22   -1    0    0    0    0  0.00000000000E+00  0.00000000000E+00  0.10064866466E+04  0.10064866466E+04  0.00000000000E+00 0.  1.
         22   -1    0    0    0    0 -0.00000000000E+00 -0.00000000000E+00 -0.41837554011E+03  0.41837554011E+03  0.00000000000E+00 0.  1.
        -24    2    1    2    0    0 -0.80667445520E+01 -0.51536020309E+02 -0.32987350835E+03  0.34289033666E+03  0.77693099506E+02 0.  0.
         25    2    1    2    0    0  0.15817287427E+03  0.92288583920E+02  0.95561573962E+02  0.24148839177E+03  0.12509511607E+03 0.  0.
         24    2    1    2    0    0 -0.15010612971E+03 -0.40752563611E+02  0.82242304088E+03  0.84048345828E+03  0.76420964780E+02 0.  0.
        -13    1    5    5    0    0 -0.57734542789E+02 -0.50951434763E+01  0.49596451195E+03  0.49933959891E+03  0.00000000000E+00 0.  1.
         14    1    5    5    0    0 -0.92371586925E+02 -0.35657420135E+02  0.32645852893E+03  0.34114385938E+03  0.00000000000E+00 0. -1.
         11    1    3    3    0    0  0.23269208906E+02 -0.84574104470E+01 -0.32890395048E+02  0.41167486697E+02  0.00000000000E+00 0. -1.
        -12    1    3    3    0    0 -0.31335953457E+02 -0.43078609862E+02 -0.29698311330E+03  0.30172284997E+03  0.00000000000E+00 0.  1.
          5    1    4    4  501    0 -0.76117944958E+01  0.45707417678E+02  0.37352417886E+02  0.59663916802E+02  0.41800000000E+01 0. -1.
         -5    1    4    4    0  501  0.16578466876E+03  0.46581166242E+02  0.58209156075E+02  0.18182447496E+03  0.41800000000E+01 0. -1.
</event>
<event>
11    1  0.8974665E-009  0.1531715E+03  0.7561462E-02  0.1093682E+00
         22   -1    0    0    0    0  0.00000000000E+00  0.00000000000E+00  0.15340903820E+04  0.15340903820E+04  0.00000000000E+00 0.  1.
         22   -1    0    0    0    0 -0.00000000000E+00 -0.00000000000E+00 -0.13901454352E+03  0.13901454352E+03  0.00000000000E+00 0.  1.
         24    2    1    2    0    0  0.33976907495E+02  0.32244976547E+02 -0.43150850392E+01  0.92780606971E+02  0.79971571922E+02 0.  0.
         25    2    1    2    0    0 -0.22065397185E+02  0.56357040816E+02 -0.33091577583E+02  0.14284855574E+03  0.12509060543E+03 0.  0.
        -24    2    1    2    0    0 -0.11911510310E+02 -0.88602017363E+02  0.14324825011E+04  0.14374757629E+04  0.79613134388E+02 0.  0.
        -13    1    3    3    0    0  0.15110969170E+02  0.23118577153E+02 -0.41644397972E+02  0.49970650199E+02  0.00000000000E+00 0.  1.
         14    1    3    3    0    0  0.18865938326E+02  0.91263993938E+01  0.37329312933E+02  0.42809956772E+02  0.00000000000E+00 0. -1.
         13    1    5    5    0    0  0.69869552901E+01  0.72839049702E+01  0.45665797899E+03  0.45676950707E+03  0.00000000000E+00 0. -1.
        -14    1    5    5    0    0 -0.18898465600E+02 -0.95885922333E+02  0.97582452215E+03  0.98070625578E+03  0.00000000000E+00 0.  1.
          5    1    4    4  501    0 -0.54217500077E+02 -0.94349343454E+01 -0.41455529313E+02  0.69025999532E+02  0.41800000000E+01 0.  1.
         -5    1    4    4    0  501  0.32152102892E+02  0.65791975161E+02  0.83639517298E+01  0.73822556204E+02  0.41800000000E+01 0.  1.
</event>
<event>
11    1  0.8974665E-009  0.1775838E+03  0.7561462E-02  0.1071614E+00
         22   -1    0    0    0    0  0.00000000000E+00  0.00000000000E+00  0.79618415028E+03  0.79618415028E+03  0.00000000000E+00 0.  1.
         22   -1    0    0    0    0 -0.00000000000E+00 -0.00000000000E+00 -0.43547165121E+03  0.43547165121E+03  0.00000000000E+00 0.  1.
        -24    2    1    2    0    0  0.18978896277E+02 -0.32880641452E+02 -0.36956048469E+03  0.37983374565E+03  0.79103649717E+02 0.  0.
         25    2    1    2    0    0  0.14799712356E+02  0.15026100657E+03  0.13319047810E+03  0.23703546106E+03  0.12509478312E+03 0.  0.
         24    2    1    2    0    0 -0.33778608633E+02 -0.11738036512E+03  0.59708250566E+03  0.61478659479E+03  0.80844876415E+02 0.  0.
        -13    1    5    5    0    0 -0.53418516323E+02 -0.11399706094E+03  0.53357871205E+03  0.54822906686E+03  0.00000000000E+00 0.  1.
         14    1    5    5    0    0  0.19639907690E+02 -0.33833041775E+01  0.63503793612E+02  0.66557527931E+02  0.00000000000E+00 0. -1.
         13    1    3    3    0    0  0.47952168902E+02 -0.11988229542E+02 -0.16751918460E+03  0.17465911187E+03  0.00000000000E+00 0. -1.
        -14    1    3    3    0    0 -0.28973272625E+02 -0.20892411910E+02 -0.20204130009E+03  0.20517463378E+03  0.00000000000E+00 0.  1.
          5    1    4    4  501    0 -0.43537651676E+02  0.31615584702E+02  0.73586391811E+01  0.54467368948E+02  0.41800000000E+01 0. -1.
         -5    1    4    4    0  501  0.58337364032E+02  0.11864542187E+03  0.12583183891E+03  0.18256809211E+03  0.41800000000E+01 0. -1.
</event>
<event>
11    1  0.1067811E-008  0.1755357E+03  0.7561462E-02  0.1073312E+00
         22   -1    0    0    0    0  0.00000000000E+00  0.00000000000E+00  0.29765185982E+03  0.29765185982E+03  0.00000000000E+00 0.  1.
         22   -1    0    0    0    0 -0.00000000000E+00 -0.00000000000E+00 -0.28025372534E+04  0.28025372534E+04  0.00000000000E+00 0.  1.
        -24    2    1    2    0    0 -0.74609160764E+02 -0.21433231901E+02 -0.18891165995E+04  0.18924290147E+04  0.80623440366E+02 0.  0.
         25    2    1    2    0    0  0.12142147651E+03 -0.92265930780E+02 -0.88195699103E+03  0.90374322918E+03  0.12509002090E+03 0.  0.
         24    2    1    2    0    0 -0.46812315750E+02  0.11369916268E+03  0.26618819690E+03  0.30401686933E+03  0.80319413387E+02 0.  0.
        -11    1    5    5    0    0 -0.31585538693E+02  0.57732110621E+02  0.57405149874E+02  0.87326937902E+02  0.00000000000E+00 0.  1.
         12    1    5    5    0    0 -0.15226777057E+02  0.55967052060E+02  0.20878304702E+03  0.21668993142E+03  0.00000000000E+00 0. -1.
         11    1    3    3    0    0 -0.55572640945E+02 -0.75744467664E+01 -0.50380648485E+03  0.50691879512E+03  0.00000000000E+00 0. -1.
        -12    1    3    3    0    0 -0.19036519818E+02 -0.13858785135E+02 -0.13853101146E+04  0.13855102196E+04  0.00000000000E+00 0.  1.
          5    1    4    4  501    0  0.10653483554E+01 -0.67803601371E+02 -0.43187488230E+03  0.43718628716E+03  0.41800000000E+01 0.  1.
         -5    1    4    4    0  501  0.12035612816E+03 -0.24462329408E+02 -0.45008210873E+03  0.46655694202E+03  0.41800000000E+01 0.  1.
</event>
<event>
11    1  0.8974665E-009  0.1417703E+03  0.7561462E-02  0.1105597E+00
         22   -1    0    0    0    0  0.00000000000E+00  0.00000000000E+00  0.36196839861E+03  0.36196839861E+03  0.00000000000E+00 0. -1.
         22   -1    0    0    0    0 -0.00000000000E+00 -0.00000000000E+00 -0.18998425432E+04  0.18998425432E+04  0.00000000000E+00 0. -1.
        -24    2    1    2    0    0  0.72005074068E+02  0.10020750375E+02 -0.16687318072E+04  0.16724087346E+04  0.83665914475E+02 0.  0.
         25    2    1    2    0    0 -0.23138940816E+01 -0.26483188540E+02 -0.20179805418E+03  0.23890631384E+03  0.12508820386E+03 0.  0.
         24    2    1    2    0    0 -0.69691179987E+02  0.16462438165E+02  0.33265571680E+03  0.35049589331E+03  0.84021859451E+02 0.  0.
        -13    1    5    5    0    0 -0.96064562601E+01  0.42888903784E+02  0.11316213002E+03  0.12139773367E+03  0.00000000000E+00 0.  1.
         14    1    5    5    0    0 -0.60084723726E+02 -0.26426465619E+02  0.21949358678E+03  0.22909815963E+03  0.00000000000E+00 0. -1.
         13    1    3    3    0    0  0.59458642931E+02  0.27388730818E+02 -0.15706665636E+04  0.15720301927E+04  0.00000000000E+00 0. -1.
        -14    1    3    3    0    0  0.12546431137E+02 -0.17367980443E+02 -0.98065243609E+02  0.10037854195E+03  0.00000000000E+00 0.  1.
          5    1    4    4  501    0  0.59115446618E+02 -0.25153040561E+02 -0.82474686264E+02  0.10462723237E+03  0.41800000000E+01 0.  1.
         -5    1    4    4    0  501 -0.61429340699E+02 -0.13301479785E+01 -0.11932336791E+03  0.13427908148E+03  0.41800000000E+01 0.  1.
</event>
<event>
11    1  0.8974665E-009  0.2147294E+03  0.7561462E-02  0.1044570E+00
         22   -1    0    0    0    0  0.00000000000E+00  0.00000000000E+00  0.18656552160E+04  0.18656552160E+04  0.00000000000E+00 0. -1.
         22   -1    0    0    0    0 -0.00000000000E+00 -0.00000000000E+00 -0.45201731816E+03  0.45201731816E+03  0.00000000000E+00 0. -1.
         24    2    1    2    0    0  0.85862936718E+02 -0.36310212849E+02  0.11317145819E+02  0.12083986367E+03  0.76048138727E+02 0.  0.
         25    2    1    2    0    0 -0.22394073567E+03  0.14110562889E+03 -0.33737294176E+03  0.44668593242E+03  0.12509024261E+03 0.  0.
        -24    2    1    2    0    0  0.13807779895E+03 -0.10479541604E+03  0.17396936937E+04  0.17501467380E+04  0.80199119877E+02 0.  0.
        -13    1    3    3    0    0  0.12741900263E+02  0.22097119457E+02 -0.45770293020E+01  0.25915013174E+02  0.00000000000E+00 0.  1.
         14    1    3    3    0    0  0.73121036455E+02 -0.58407332305E+02  0.15894175121E+02  0.94924850498E+02  0.00000000000E+00 0. -1.
         11    1    5    5    0    0  0.14774354021E+03 -0.10509025774E+03  0.16568666535E+04  0.16667570979E+04  0.00000000000E+00 0. -1.
        -12    1    5    5    0    0 -0.96657412576E+01  0.29484169431E+00  0.82827040271E+02  0.83389640158E+02  0.00000000000E+00 0.  1.
          5    1    4    4  501    0 -0.15382124288E+03  0.84760804725E+02 -0.30310516502E+03  0.35033638441E+03  0.41800000000E+01 0.  1.
         -5    1    4    4    0  501 -0.70119492796E+02  0.56344824165E+02 -0.34267776739E+02  0.96349548015E+02  0.41800000000E+01 0.  1.
</event>
<event>
11    1  0.8974665E-009  0.1469614E+03  0.7561462E-02  0.1100025E+00
         22   -1    0    0    0    0  0.00000000000E+00  0.00000000000E+00  0.11200113019E+04  0.11200113019E+04  0.00000000000E+00 0.  1.
         22   -1    0    0    0    0 -0.00000000000E+00 -0.00000000000E+00 -0.18167469658E+04  0.18167469658E+04  0.00000000000E+00 0. -1.
        -24    2    1    2    0    0 -0.13711697430E+02 -0.19135719632E+02 -0.12062306041E+04  0.12093688900E+04  0.83825148662E+02 0.  0.
         25    2    1    2    0    0  0.85024494862E+02  0.48318208739E+02 -0.59574987754E+03  0.61654530053E+03  0.12508547874E+03 0.  0.
         24    2    1    2    0    0 -0.71312797432E+02 -0.29182489107E+02  0.11052448177E+04  0.11108440772E+04  0.80444539885E+02 0.  0.
        -13    1    5    5    0    0 -0.71044612822E+02 -0.58410074957E+01  0.10191781651E+04  0.10216680412E+04  0.00000000000E+00 0.  1.
         14    1    5    5    0    0 -0.26818460959E+00 -0.23341481611E+02  0.86066652669E+02  0.89176035954E+02  0.00000000000E+00 0. -1.
         11    1    3    3    0    0  0.13142885306E+01 -0.21189177972E+02 -0.11686608613E+04  0.11688536766E+04  0.00000000000E+00 0. -1.
        -12    1    3    3    0    0 -0.15025985961E+02  0.20534583405E+01 -0.37569742787E+02  0.40515213418E+02  0.00000000000E+00 0.  1.
          5    1    4    4  501    0  0.70819639932E+02  0.44722333741E+02 -0.59542759657E+03  0.60130441848E+03  0.41800000000E+01 0.  1.
         -5    1    4    4    0  501  0.14204854930E+02  0.35958749974E+01 -0.32228097702E+00  0.15240882048E+02  0.41800000000E+01 0.  1.
</event>
<event>
11    1  0.8974665E-009  0.1349248E+03  0.7561462E-02  0.1113362E+00
         22   -1    0    0    0    0  0.00000000000E+00  0.00000000000E+00  0.86503516633E+02  0.86503516633E+02  0.00000000000E+00 0. -1.
         22   -1    0    0    0    0 -0.00000000000E+00 -0.00000000000E+00 -0.12117252664E+04  0.12117252664E+04  0.00000000000E+00 0. -1.
        -24    2    1    2    0    0 -0.45623475032E+02 -0.18581646134E+02 -0.98625120825E+03  0.99082122467E+03  0.81292523840E+02 0.  0.
         25    2    1    2    0    0  0.47914860190E+02  0.56735330117E+02 -0.15950308782E+03  0.21587882184E+03  0.12509076378E+03 0.  0.
         24    2    1    2    0    0 -0.22913851583E+01 -0.38153683983E+02  0.20532546308E+02  0.91528736526E+02  0.80591377359E+02 0.  0.
        -11    1    5    5    0    0  0.21738543929E+02  0.17925990752E+02  0.59016301602E+01  0.28787752172E+02  0.00000000000E+00 0.  1.
         12    1    5    5    0    0 -0.24029929087E+02 -0.56079674735E+02  0.14630916148E+02  0.62740984354E+02  0.00000000000E+00 0. -1.
         13    1    3    3    0    0 -0.44111383646E+02  0.71977997125E+01 -0.89133286902E+03  0.89245274715E+03  0.00000000000E+00 0. -1.
        -14    1    3    3    0    0 -0.15120913863E+01 -0.25779445847E+02 -0.94918339230E+02  0.98368477526E+02  0.00000000000E+00 0.  1.
          5    1    4    4  501    0 -0.30852258614E+02  0.39853407506E+02 -0.11043145834E+03  0.12146083872E+03  0.41800000000E+01 0. -1.
         -5    1    4    4    0  501  0.78767118804E+02  0.16881922611E+02 -0.49071629481E+02  0.94417983116E+02  0.41800000000E+01 0. -1.
</event>
<event>
11    1  0.8974665E-009  0.1794122E+03  0.7561462E-02  0.1070119E+00
         22   -1    0    0    0    0  0.00000000000E+00  0.00000000000E+00  0.13253676070E+04  0.13253676070E+04  0.00000000000E+00 0.  1.
         22   -1    0    0    0    0 -0.00000000000E+00 -0.00000000000E+00 -0.47919528632E+03  0.47919528632E+03  0.00000000000E+00 0. -1.
        -24    2    1    2    0    0  0.88330220061E+01 -0.25495693710E+02 -0.36713979758E+03  0.37698205458E+03  0.81214443462E+02 0.  0.
         25    2    1    2    0    0 -0.13510172203E+03  0.18312079562E+01 -0.20124509997E+02  0.18520742002E+03  0.12506383934E+03 0.  0.
         24    2    1    2    0    0  0.12626870003E+03  0.23664485754E+02  0.12334366282E+04  0.12423734187E+04  0.74980018175E+02 0.  0.
        -13    1    5    5    0    0  0.78558100914E+02 -0.10551878732E+02  0.92562059970E+03  0.92900818724E+03  0.00000000000E+00 0.  1.
         14    1    5    5    0    0  0.47710599112E+02  0.34216364486E+02  0.30781602855E+03  0.31336523147E+03  0.00000000000E+00 0. -1.
         11    1    3    3    0    0  0.24444427551E+02 -0.23345624104E+02 -0.35619542184E+03  0.35779564942E+03  0.00000000000E+00 0. -1.
        -12    1    3    3    0    0 -0.15611405545E+02 -0.21500696065E+01 -0.10944375741E+02  0.19186405155E+02  0.00000000000E+00 0.  1.
          5    1    4    4  501    0 -0.95635460660E+02  0.41446379899E+02  0.31521648650E+02  0.10897261342E+03  0.41800000000E+01 0.  1.
         -5    1    4    4    0  501 -0.39466261372E+02 -0.39615171943E+02 -0.51646158648E+02  0.76234806603E+02  0.41800000000E+01 0.  1.
</event>
<event>
11    1  0.8974665E-009  0.1514592E+03  0.7561462E-02  0.1095397E+00
         22   -1    0    0    0    0  0.00000000000E+00  0.00000000000E+00  0.20057645936E+04  0.20057645936E+04  0.00000000000E+00 0. -1.
         22   -1    0    0    0    0 -0.00000000000E+00 -0.00000000000E+00 -0.64203736979E+03  0.64203736979E+03  0.00000000000E+00 0.  1.
        -24    2    1    2    0    0  0.62648943135E+02  0.56257409984E+02 -0.57729192244E+03  0.58898927907E+03  0.80948260577E+02 0.  0.
         25    2    1    2    0    0 -0.90373202892E+02 -0.63853046683E+02  0.62459536033E+02  0.17830732803E+03  0.12509109567E+03 0.  0.
         24    2    1    2    0    0  0.27724259757E+02  0.75956366990E+01  0.18785596102E+04  0.18805053563E+04  0.80547238371E+02 0.  0.
        -13    1    5    5    0    0 -0.14143001465E+02 -0.33518698963E+00  0.68566750605E+02  0.70010971492E+02  0.00000000000E+00 0.  1.
         14    1    5    5    0    0  0.41867261222E+02  0.79308236886E+01  0.18099928596E+04  0.18104943848E+04  0.00000000000E+00 0. -1.
         11    1    3    3    0    0  0.50674829442E+02  0.31985557299E+02 -0.16054199928E+03  0.17136145350E+03  0.00000000000E+00 0. -1.
        -12    1    3    3    0    0  0.11974113693E+02  0.24271852685E+02 -0.41674992316E+03  0.41762782557E+03  0.00000000000E+00 0.  1.
          5    1    4    4  501    0 -0.10020922843E+03 -0.24789846657E+01  0.18391419367E+02  0.10199878202E+03  0.41800000000E+01 0.  1.
         -5    1    4    4    0  501  0.98360255404E+01 -0.61374062017E+02  0.44068116666E+02  0.76308546005E+02  0.41800000000E+01 0.  1.
</event>
<event>
11    1  0.8974665E-009  0.1576818E+03  0.7561462E-02  0.1089278E+00
         22   -1    0    0    0    0  0.00000000000E+00  0.00000000000E+00  0.35380415558E+03  0.35380415558E+03  0.00000000000E+00 0. -1.
         22   -1    0    0    0    0 -0.00000000000E+00 -0.00000000000E+00 -0.73344599590E+03  0.73344599590E+03  0.00000000000E+00 0. -1.
        -24    2    1    2    0    0 -0.18253263970E+02  0.86735437017E+02 -0.51554064508E+03  0.52880430425E+03  0.77431374678E+02 0.  0.
         25    2    1    2    0    0  0.16657526975E+02 -0.14681862284E+03 -0.15691255867E+03  0.24920407569E+03  0.12509172256E+03 0.  0.
         24    2    1    2    0    0  0.15957369950E+01  0.60083185824E+02  0.29281136344E+03  0.30924177154E+03  0.79242937315E+02 0.  0.
        -13    1    5    5    0    0 -0.21117742234E+02 -0.29824718887E+01  0.23592188293E+02  0.31803231347E+02  0.00000000000E+00 0.  1.
         14    1    5    5    0    0  0.22713479229E+02  0.63065657713E+02  0.26921917514E+03  0.27743854020E+03  0.00000000000E+00 0. -1.
         11    1    3    3    0    0 -0.40087550740E+02  0.70771528947E+02 -0.45871122507E+03  0.46586651418E+03  0.00000000000E+00 0. -1.
        -12    1    3    3    0    0  0.21834286771E+02  0.15963908070E+02 -0.56829420010E+02  0.62937790066E+02  0.00000000000E+00 0.  1.
          5    1    4    4  501    0 -0.46939157504E+02 -0.54596820344E+02 -0.10052077634E+03  0.12371740450E+03  0.41800000000E+01 0. -1.
         -5    1    4    4    0  501  0.63596684479E+02 -0.92221802497E+02 -0.56391782330E+02  0.12548667119E+03  0.41800000000E+01 0. -1.
</event>
<event>
11    1  0.8974665E-009  0.1883871E+03  0.7561462E-02  0.1063054E+00
         22   -1    0    0    0    0  0.00000000000E+00  0.00000000000E+00  0.75640793917E+03  0.75640793917E+03  0.00000000000E+00 0. -1.
         22   -1    0    0    0    0 -0.00000000000E+00 -0.00000000000E+00 -0.18370464296E+04  0.18370464296E+04  0.00000000000E+00 0. -1.
        -24    2    1    2    0    0  0.83434158714E+02 -0.11560888006E+03 -0.16709047697E+04  0.16788522303E+04  0.79343492578E+02 0.  0.
         25    2    1    2    0    0  0.25712992573E+02  0.15464190175E+03 -0.89977327604E+02  0.21981694756E+03  0.12509314605E+03 0.  0.
         24    2    1    2    0    0 -0.10914715129E+03 -0.39033021692E+02  0.68024360691E+03  0.69478519087E+03  0.80984068207E+02 0.  0.
        -11    1    5    5    0    0 -0.51605384676E+02  0.13043388903E+02  0.15606354997E+03  0.16489110755E+03  0.00000000000E+00 0.  1.
         12    1    5    5    0    0 -0.57541766610E+02 -0.52076410595E+02  0.52418005694E+03  0.52989408332E+03  0.00000000000E+00 0. -1.
         11    1    3    3    0    0  0.76192699043E+02 -0.38280908922E+02 -0.91860543654E+03  0.92255444469E+03  0.00000000000E+00 0. -1.
        -12    1    3    3    0    0  0.72414596708E+01 -0.77327971136E+02 -0.75229933317E+03  0.75629778563E+03  0.00000000000E+00 0.  1.
          5    1    4    4  501    0 -0.50472160292E+02  0.64376397417E+02 -0.29586696720E+02  0.87089635042E+02  0.41800000000E+01 0.  1.
         -5    1    4    4    0  501  0.76185152865E+02  0.90265504332E+02 -0.60390630884E+02  0.13272731252E+03  0.41800000000E+01 0.  1.
</event>
<event>
11    1  0.8974665E-009  0.1308343E+03  0.7561462E-02  0.1118248E+00
         22   -1    0    0    0    0  0.00000000000E+00  0.00000000000E+00  0.27511027293E+04  0.27511027293E+04  0.00000000000E+00 0.  1.
         22   -1    0    0    0    0 -0.00000000000E+00 -0.00000000000E+00 -0.10623122234E+03  0.10623122234E+03  0.00000000000E+00 0.  1.
         24    2    1    2    0    0 -0.32459400770E+02 -0.71001921354E+01 -0.73377799186E+02  0.11396768389E+03  0.80624476002E+02 0.  0.
         25    2    1    2    0    0  0.67862331050E+02  0.14259547749E+02  0.42463774584E+03  0.44807775571E+03  0.12509128384E+03 0.  0.
        -24    2    1    2    0    0 -0.35402930280E+02 -0.71593556132E+01  0.22936115603E+04  0.22952885121E+04  0.79942104792E+02 0.  0.
        -11    1    3    3    0    0 -0.37256243560E+02  0.31147851578E+02 -0.43520693415E+02  0.65209409577E+02  0.00000000000E+00 0.  1.
         12    1    3    3    0    0  0.47968427893E+01 -0.38248043714E+02 -0.29857105772E+02  0.48758274310E+02  0.00000000000E+00 0. -1.
         11    1    5    5    0    0 -0.14999626130E+02 -0.30357074535E+01  0.73354916758E+02  0.74934291993E+02  0.00000000000E+00 0. -1.
        -12    1    5    5    0    0 -0.20403304149E+02 -0.41236481597E+01  0.22202566436E+04  0.22203542201E+04  0.00000000000E+00 0.  1.
          5    1    4    4  501    0  0.24094528293E+02  0.41314666123E+02  0.47896281778E+02  0.67815736660E+02  0.41800000000E+01 0. -1.
         -5    1    4    4    0  501  0.43767802757E+02 -0.27055118375E+02  0.37674146406E+03  0.38026201905E+03  0.41800000000E+01 0. -1.
</event>
<event>
11    1  0.8974665E-009  0.1891465E+03  0.7561462E-02  0.1062476E+00
         22   -1    0    0    0    0  0.00000000000E+00  0.00000000000E+00  0.13834285169E+04  0.13834285169E+04  0.00000000000E+00 0. -1.
         22   -1    0    0    0    0 -0.00000000000E+00 -0.00000000000E+00 -0.19895019309E+04  0.19895019309E+04  0.00000000000E+00 0. -1.
        -24    2    1    2    0    0  0.45755795384E+02  0.56576818243E+02 -0.18794371070E+04  0.18825747594E+04  0.80680583760E+02 0.  0.
         25    2    1    2    0    0  0.94435389408E+02 -0.20793222460E+02 -0.42742237796E+02  0.16377459613E+03  0.12507924917E+03 0.  0.
         24    2    1    2    0    0 -0.14019118479E+03 -0.35783595783E+02  0.13161059309E+04  0.13265810922E+04  0.82149491517E+02 0.  0.
        -13    1    5    5    0    0  0.45188660911E+01  0.54219959628E+01  0.22937286473E+03  0.22948143556E+03  0.00000000000E+00 0.  1.
         14    1    5    5    0    0 -0.14471005088E+03 -0.41205591745E+02  0.10867330661E+04  0.10970996566E+04  0.00000000000E+00 0. -1.
         11    1    3    3    0    0 -0.15204289506E+01  0.45481520678E+02 -0.13876402234E+04  0.13883862107E+04  0.00000000000E+00 0. -1.
        -12    1    3    3    0    0  0.47276224335E+02  0.11095297564E+02 -0.49179688361E+03  0.49418854878E+03  0.00000000000E+00 0.  1.
          5    1    4    4  501    0  0.10916009225E+03  0.13657228364E+02 -0.56377741331E+02  0.12368657059E+03  0.41800000000E+01 0.  1.
         -5    1    4    4    0  501 -0.14724702838E+02 -0.34450450825E+02  0.13635503535E+02  0.40088025548E+02  0.41800000000E+01 0.  1.
</event>
<event>
11    1  0.1137353E-008  0.1605002E+03  0.7561462E-02  0.1086608E+00
         22   -1    0    0    0    0  0.00000000000E+00  0.00000000000E+00  0.24724910930E+04  0.24724910930E+04  0.00000000000E+00 0.  1.
         22   -1    0    0    0    0 -0.00000000000E+00 -0.00000000000E+00 -0.26744216963E+03  0.26744216963E+03  0.00000000000E+00 0.  1.
         24    2    1    2    0    0  0.85983082638E+02  0.46808393476E+02 -0.18848356243E+03  0.22679135614E+03  0.79524522724E+02 0.  0.
         25    2    1    2    0    0  0.12163131833E+02 -0.76741574540E+02  0.35467112556E+02  0.15146835675E+03  0.12509011146E+03 0.  0.
        -24    2    1    2    0    0 -0.98146214471E+02  0.29933181064E+02  0.23580653733E+04  0.23616735498E+04  0.80628632081E+02 0.  0.
        -11    1    3    3    0    0  0.77776650592E+02  0.53761525211E+02 -0.19316301846E+03  0.21506152764E+03  0.00000000000E+00 0.  1.
         12    1    3    3    0    0  0.82064320454E+01 -0.69531317349E+01  0.46794560332E+01  0.11729828499E+02  0.00000000000E+00 0. -1.
         11    1    5    5    0    0 -0.59932335708E+02  0.40114411537E+02  0.83910852569E+03  0.84220197623E+03  0.00000000000E+00 0. -1.
        -12    1    5    5    0    0 -0.38213878763E+02 -0.10181230473E+02  0.15189568476E+04  0.15194715735E+04  0.00000000000E+00 0.  1.
          5    1    4    4  501    0 -0.47220835325E+01 -0.88850824074E+02 -0.20689150829E+02  0.91445504939E+02  0.41800000000E+01 0. -1.
         -5    1    4    4    0  501  0.16885215366E+02  0.12109249534E+02  0.56156263384E+02  0.60022851811E+02  0.41800000000E+01 0. -1.
</event>
<event>
11    1  0.8974665E-009  0.1424955E+03  0.7561462E-02  0.1104803E+00
         22   -1    0    0    0    0  0.00000000000E+00  0.00000000000E+00  0.44537461320E+03  0.44537461320E+03  0.00000000000E+00 0. -1.
         22   -1    0    0    0    0 -0.00000000000E+00 -0.00000000000E+00 -0.11768088146E+04  0.11768088146E+04  0.00000000000E+00 0.  1.
         24    2    1    2    0    0  0.53904881115E+02  0.41847684543E+02 -0.11367132590E+04  0.11415942643E+04  0.80395686136E+02 0.  0.
         25    2    1    2    0    0 -0.95853367434E+02  0.13550809468E+01  0.26371761862E+03  0.30720800109E+03  0.12506026254E+03 0.  0.
        -24    2    1    2    0    0  0.41948486318E+02 -0.43202765490E+02  0.14156143894E+03  0.17338116237E+03  0.79970194566E+02 0.  0.
        -13    1    3    3    0    0  0.11481532529E+02  0.53251287775E+02 -0.82555497606E+03  0.82735031500E+03  0.00000000000E+00 0.  1.
         14    1    3    3    0    0  0.42423348587E+02 -0.11403603233E+02 -0.31115828291E+03  0.31424394934E+03  0.00000000000E+00 0. -1.
         11    1    5    5    0    0  0.10995345332E+02 -0.35759737990E+02  0.13601467923E+03  0.14106611729E+03  0.00000000000E+00 0. -1.
        -12    1    5    5    0    0  0.30953140987E+02 -0.74430274997E+01  0.55467597092E+01  0.32315045081E+02  0.00000000000E+00 0.  1.
          5    1    4    4  501    0 -0.40634126075E+02  0.50792270593E+02  0.53684360184E+02  0.84442109651E+02  0.41800000000E+01 0. -1.
         -5    1    4    4    0  501 -0.55219241359E+02 -0.49437189646E+02  0.21003325844E+03  0.22276589143E+03  0.41800000000E+01 0. -1.
</event>
<event>
11    1  0.8974665E-009  0.1637583E+03  0.7561462E-02  0.1083595E+00
         22   -1    0    0    0    0  0.00000000000E+00  0.00000000000E+00  0.29802274182E+03  0.29802274182E+03  0.00000000000E+00 0. -1.
         22   -1    0    0    0    0 -0.00000000000E+00 -0.00000000000E+00 -0.24289027097E+03  0.24289027097E+03  0.00000000000E+00 0.  1.
        -24    2    1    2    0    0  0.74939076383E+02  0.73360172639E+02 -0.12445099746E+03  0.18126558113E+03  0.79822177590E+02 0.  0.
         25    2    1    2    0    0 -0.29871285669E+02 -0.11894161404E+03  0.30873362109E+02  0.17787081238E+03  0.12508181383E+03 0.  0.
         24    2    1    2    0    0 -0.45067790714E+02  0.45581441397E+02  0.14871010620E+03  0.18177661928E+03  0.82578871814E+02 0.  0.
        -13    1    5    5    0    0  0.39617340872E+01 -0.20189996572E+02  0.17394015503E+02  0.26942217316E+02  0.00000000000E+00 0.  1.
         14    1    5    5    0    0 -0.49029524801E+02  0.65771437970E+02  0.13131609070E+03  0.15483440196E+03  0.00000000000E+00 0. -1.
         13    1    3    3    0    0  0.36648607383E+02 -0.37316322420E+01 -0.70874738220E+02  0.79876617481E+02  0.00000000000E+00 0. -1.
        -14    1    3    3    0    0  0.38290468999E+02  0.77091804881E+02 -0.53576259241E+02  0.10138896365E+03  0.00000000000E+00 0.  1.
          5    1    4    4  501    0 -0.49604786488E+02 -0.40661415154E+02 -0.35363598082E+02  0.73362401775E+02  0.41800000000E+01 0.  1.
         -5    1    4    4    0  501  0.19733500819E+02 -0.78280198882E+02  0.66236960191E+02  0.10450841060E+03  0.41800000000E+01 0.  1.
</event>
<event>
11    1  0.8974665E-009  0.1305725E+03  0.7561462E-02  0.1118568E+00
         22   -1    0    0    0    0  0.00000000000E+00  0.00000000000E+00  0.16240043334E+03  0.16240043334E+03  0.00000000000E+00 0. -1.
         22   -1    0    0    0    0 -0.00000000000E+00 -0.00000000000E+00 -0.20992798304E+04  0.20992798304E+04  0.00000000000E+00 0. -1.
         24    2    1    2    0    0 -0.33987248175E+00 -0.37680459394E+02 -0.20122538385E+04  0.20141965946E+04  0.80015490657E+02 0.  0.
         25    2    1    2    0    0 -0.29477617962E+02  0.21713996631E+02 -0.30584097267E+01  0.13037318492E+03  0.12508951141E+03 0.  0.
        -24    2    1    2    0    0  0.29817490444E+02  0.15966462764E+02  0.78432851171E+02  0.11711048418E+03  0.80119552499E+02 0.  0.
        -11    1    3    3    0    0 -0.19015354045E+02 -0.10095304047E+02 -0.13993536859E+03  0.14158180051E+03  0.00000000000E+00 0.  1.
         12    1    3    3    0    0  0.18675481563E+02 -0.27585155347E+02 -0.18723184699E+04  0.18726147941E+04  0.00000000000E+00 0. -1.
         13    1    5    5    0    0 -0.53477921359E+01 -0.28955376824E+02  0.21056200540E+02  0.36199120279E+02  0.00000000000E+00 0. -1.
        -14    1    5    5    0    0  0.35165282580E+02  0.44921839587E+02  0.57376650631E+02  0.80911363902E+02  0.00000000000E+00 0.  1.
          5    1    4    4  501    0 -0.35578320973E+02 -0.46710862384E+02 -0.14449872980E+02  0.60613470590E+02  0.41800000000E+01 0. -1.
         -5    1    4    4    0  501  0.61007030104E+01  0.68424859014E+02  0.11391463253E+02  0.69759714330E+02  0.41800000000E+01 0. -1.
</event>
<event>
11    1  0.1085725E-008  0.1869191E+03  0.7561462E-02  0.1064180E+00
         22   -1    0    0    0    0  0.00000000000E+00  0.00000000000E+00  0.13524019032E+04  0.13524019032E+04  0.00000000000E+00 0. -1.
         22   -1    0    0    0    0 -0.00000000000E+00 -0.00000000000E+00 -0.19088390236E+03  0.19088390236E+03  0.00000000000E+00 0.  1.
         24    2    1    2    0    0  0.12024971814E+02 -0.84498263389E+02 -0.38631850562E+02  0.12335062664E+03  0.80239645758E+02 0.  0.
         25    2    1    2    0    0 -0.90962139684E+02  0.19445040594E+03  0.42521307246E+02  0.25207580716E+03  0.12509628195E+03 0.  0.
        -24    2    1    2    0    0  0.78937167870E+02 -0.10995214255E+03  0.11576285442E+04  0.11678593718E+04  0.73966991786E+02 0.  0.
        -13    1    3    3    0    0  0.34840133244E+02 -0.86934417905E+02 -0.35655711134E+02  0.10021356015E+03  0.00000000000E+00 0.  1.
         14    1    3    3    0    0 -0.22815161430E+02  0.24361545157E+01 -0.29761394278E+01  0.23137066491E+02  0.00000000000E+00 0. -1.
         11    1    5    5    0    0  0.84078018642E+02 -0.10381063928E+03  0.87694723634E+03  0.88706381809E+03  0.00000000000E+00 0. -1.
        -12    1    5    5    0    0 -0.51408507722E+01 -0.61415032641E+01  0.28068130786E+03  0.28079555373E+03  0.00000000000E+00 0.  1.
          5    1    4    4  501    0 -0.11985848034E+03  0.12702118857E+03  0.35478456678E+02  0.17826000938E+03  0.41800000000E+01 0. -1.
         -5    1    4    4    0  501  0.28896340653E+02  0.67429217363E+02  0.70428505684E+01  0.73815797777E+02  0.41800000000E+01 0. -1.
</event>
<event>
11    1  0.8974665E-009  0.3371407E+03  0.7561462E-02  0.9855925E-01
         22   -1    0    0    0    0  0.00000000000E+00  0.00000000000E+00  0.61706001006E+03  0.61706001006E+03  0.00000000000E+00 0. -1.
         22   -1    0    0    0    0 -0.00000000000E+00 -0.00000000000E+00 -0.81345897271E+03  0.81345897271E+03  0.00000000000E+00 0. -1.
         24    2    1    2    0    0 -0.25963263494E+02 -0.98068658835E+01 -0.53725967818E+03  0.54402184963E+03  0.80879820775E+02 0.  0.
         25    2    1    2    0    0 -0.29020544736E+03 -0.27830886747E+02 -0.10388794261E+03  0.33381799848E+03  0.12509193242E+03 0.  0.
        -24    2    1    2    0    0  0.31616871085E+03  0.37637752630E+02  0.44474865815E+03  0.55267913466E+03  0.79206078188E+02 0.  0.
        -13    1    3    3    0    0  0.94818658130E+01 -0.32271250423E+02 -0.11899738190E+03  0.12365967929E+03  0.00000000000E+00 0.  1.
         14    1    3    3    0    0 -0.35445129307E+02  0.22464384539E+02 -0.41826229628E+03  0.42036217034E+03  0.00000000000E+00 0. -1.
         13    1    5    5    0    0  0.21948863711E+03  0.41557625877E+02  0.25031260242E+03  0.33549768557E+03  0.00000000000E+00 0. -1.
        -14    1    5    5    0    0  0.96680073737E+02 -0.39198732462E+01  0.19443605572E+03  0.21718144909E+03  0.00000000000E+00 0.  1.
          5    1    4    4  501    0 -0.74347253851E+02 -0.61169939685E+02 -0.51079824113E+02  0.10906831120E+03  0.41800000000E+01 0.  1.
         -5    1    4    4    0  501 -0.21585819351E+03  0.33339052938E+02 -0.52808118501E+02  0.22474968728E+03  0.41800000000E+01 0.  1.
</event>
<event>
11    1  0.8974665E-009  0.1617067E+03  0.7561462E-02  0.1085483E+00
         22   -1    0    0    0    0  0.00000000000E+00  0.00000000000E+00  0.15979648530E+03  0.15979648530E+03  0.00000000000E+00 0. -1.
         22   -1    0    0    0    0 -0.00000000000E+00 -0.00000000000E+00 -0.14973870324E+04  0.14973870324E+04  0.00000000000E+00 0. -1.
        -24    2    1    2    0    0  0.65190058324E+02  0.81902458001E+02 -0.13358643544E+04  0.13422984646E+04  0.79207565083E+02 0.  0.
         25    2    1    2    0    0 -0.38771697596E+02 -0.66839488028E+02 -0.10503154899E+03  0.18069676391E+03  0.12509569342E+03 0.  0.
         24    2    1    2    0    0 -0.26418360728E+02 -0.15062969973E+02  0.10330535628E+03  0.13418828920E+03  0.80060461364E+02 0.  0.
        -13    1    5    5    0    0 -0.20014169346E+02 -0.20392397941E+02 -0.19163871133E+01  0.28637203214E+02  0.00000000000E+00 0.  1.
         14    1    5    5    0    0 -0.64041913824E+01  0.53294279671E+01  0.10522174339E+03  0.10555108598E+03  0.00000000000E+00 0. -1.
         11    1    3    3    0    0  0.42995204267E+02  0.94784208836E+02 -0.11441573084E+04  0.11488814474E+04  0.00000000000E+00 0. -1.
        -12    1    3    3    0    0  0.22194854057E+02 -0.12881750835E+02 -0.19170704600E+03  0.19341701719E+03  0.00000000000E+00 0.  1.
          5    1    4    4  501    0 -0.76703990991E+01 -0.85029982412E+02 -0.11480475063E+03  0.14313118493E+03  0.41800000000E+01 0. -1.
         -5    1    4    4    0  501 -0.31101298497E+02  0.18190494384E+02  0.97732016454E+01  0.37565578986E+02  0.41800000000E+01 0. -1.
</event>
<event>
11    1  0.8974665E-009  0.2024328E+03  0.7561462E-02  0.1052816E+00
         22   -1    0    0    0    0  0.00000000000E+00  0.00000000000E+00  0.12796198468E+04  0.12796198468E+04  0.00000000000E+00 0.  1.
         22   -1    0    0    0    0 -0.00000000000E+00 -0.00000000000E+00 -0.17612786227E+03  0.17612786227E+03  0.00000000000E+00 0. -1.
        -24    2    1    2    0    0  0.85270075640E+02 -0.22145703138E+02 -0.96644152020E+02  0.15417640229E+03  0.81663045102E+02 0.  0.
         25    2    1    2    0    0 -0.46878876394E+01  0.16301222139E+03  0.20558179391E+03  0.29070109880E+03  0.12509314229E+03 0.  0.
         24    2    1    2    0    0 -0.80582188000E+02 -0.14086651825E+03  0.99455434263E+03  0.10108702080E+04  0.79896006945E+02 0.  0.
        -11    1    5    5    0    0 -0.48861470974E+02 -0.14071690645E+03  0.83764055621E+03  0.85078222391E+03  0.00000000000E+00 0.  1.
         12    1    5    5    0    0 -0.31720717026E+02 -0.14961180050E+00  0.15691378641E+03  0.16008798405E+03  0.00000000000E+00 0. -1.
         11    1    3    3    0    0  0.94380449681E+02 -0.37323281264E+02 -0.88633124430E+02  0.13474615895E+03  0.00000000000E+00 0. -1.
        -12    1    3    3    0    0 -0.91103740418E+01  0.15177578126E+02 -0.80110275894E+01  0.19430243333E+02  0.00000000000E+00 0.  1.
          5    1    4    4  501    0 -0.19071382572E+02  0.13216119396E+03  0.21676671367E+03  0.25462831613E+03  0.41800000000E+01 0. -1.
         -5    1    4    4    0  501  0.14383494932E+02  0.30851027429E+02 -0.11184919756E+02  0.36072782674E+02  0.41800000000E+01 0. -1.
</event>
<event>
11    1  0.8974665E-009  0.1263112E+03  0.7561462E-02  0.1123886E+00
         22   -1    0    0    0    0  0.00000000000E+00  0.00000000000E+00  0.47517048273E+03  0.47517048273E+03  0.00000000000E+00 0. -1.
         22   -1    0    0    0    0 -0.00000000000E+00 -0.00000000000E+00 -0.26059261520E+03  0.26059261520E+03  0.00000000000E+00 0. -1.
         24    2    1    2    0    0 -0.25187878868E+02  0.26994265084E+02 -0.19954448188E+03  0.21832815369E+03  0.80536096597E+02 0.  0.
         25    2    1    2    0    0  0.27083386668E+02 -0.71177938570E+01  0.45498450219E+02  0.13605172460E+03  0.12512309927E+03 0.  0.
        -24    2    1    2    0    0 -0.18955078000E+01 -0.19876471227E+02  0.36862389919E+03  0.38138321965E+03  0.95764889794E+02 0.  0.
        -11    1    3    3    0    0  0.64802649815E+01  0.41797064596E+01  0.55831741505E+01  0.95202738361E+01  0.00000000000E+00 0.  1.
         12    1    3    3    0    0 -0.31668143850E+02  0.22814558624E+02 -0.20512765603E+03  0.20880787985E+03  0.00000000000E+00 0. -1.
         13    1    5    5    0    0  0.10673108844E+02  0.35362333751E+02  0.20314542398E+03  0.20647632596E+03  0.00000000000E+00 0. -1.
        -14    1    5    5    0    0 -0.12568616644E+02 -0.55238804977E+02  0.16547847521E+03  0.17490689369E+03  0.00000000000E+00 0.  1.
          5    1    4    4  501    0 -0.31669443925E+02 -0.84826725582E+01 -0.26967546573E+02  0.42657125787E+02  0.41800000000E+01 0. -1.
         -5    1    4    4    0  501  0.58752830594E+02  0.13648787012E+01  0.72465996791E+02  0.93394598814E+02  0.41800000000E+01 0. -1.
</event>
<event>
11    1  0.8974665E-009  0.1270381E+03  0.7561462E-02  0.1122963E+00
         22   -1    0    0    0    0  0.00000000000E+00  0.00000000000E+00  0.52480310201E+02  0.52480310201E+02  0.00000000000E+00 0.  1.
         22   -1    0    0    0    0 -0.00000000000E+00 -0.00000000000E+00 -0.13941050775E+04  0.13941050775E+04  0.00000000000E+00 0. -1.
         24    2    1    2    0    0 -0.10227819589E+02  0.12353589334E+02 -0.11520189711E+04  0.11549804765E+04  0.81086199421E+02 0.  0.
         25    2    1    2    0    0  0.14405855101E+02  0.11844454499E+02 -0.15757508208E+03  0.20205552236E+03  0.12509479550E+03 0.  0.
        -24    2    1    2    0    0 -0.41780355125E+01 -0.24198043833E+02 -0.32030714099E+02  0.89549388870E+02  0.79938258020E+02 0.  0.
        -13    1    3    3    0    0 -0.28089236642E+02  0.23805807043E+02 -0.24855595850E+03  0.25126835489E+03  0.00000000000E+00 0.  1.
         14    1    3    3    0    0  0.17861417054E+02 -0.11452217709E+02 -0.90346301261E+03  0.90371212157E+03  0.00000000000E+00 0. -1.
         13    1    5    5    0    0  0.27694611373E+02 -0.39521690970E+02 -0.18302470894E+02  0.51613331582E+02  0.00000000000E+00 0. -1.
        -14    1    5    5    0    0 -0.31872646885E+02  0.15323647137E+02 -0.13728243205E+02  0.37936057288E+02  0.00000000000E+00 0.  1.
          5    1    4    4  501    0  0.57288299522E+02 -0.26022073243E+02 -0.51310363690E+02  0.81297745233E+02  0.41800000000E+01 0.  1.
         -5    1    4    4    0  501 -0.42882444421E+02  0.37866527742E+02 -0.10626471839E+03  0.12075777713E+03  0.41800000000E+01 0.  1.
</event>
<event>
11    1  0.8974665E-009  0.1656191E+03  0.7561462E-02  0.1081908E+00
         22   -1    0    0    0    0  0.00000000000E+00  0.00000000000E+00  0.98230051900E+03  0.98230051900E+03  0.00000000000E+00 0. -1.
         22   -1    0    0    0    0 -0.00000000000E+00 -0.00000000000E+00 -0.22894725208E+03  0.22894725208E+03  0.00000000000E+00 0.  1.
         24    2    1    2    0    0 -0.10803697001E+03 -0.15611702906E+02 -0.14540125269E+03  0.19936014922E+03  0.81775501579E+02 0.  0.
         25    2    1    2    0    0  0.10536406438E+03  0.10217832845E+02  0.68518863830E+02  0.17761686425E+03  0.12508767163E+03 0.  0.
        -24    2    1    2    0    0  0.26729056241E+01  0.53938700605E+01  0.83023565578E+03  0.83427075762E+03  0.81732580005E+02 0.  0.
        -11    1    3    3    0    0 -0.62751972409E+02 -0.28390915940E+02 -0.13442572554E+03  0.15104347002E+03  0.00000000000E+00 0.  1.
         12    1    3    3    0    0 -0.45284997596E+02  0.12779213034E+02 -0.10975527155E+02  0.48316679204E+02  0.00000000000E+00 0. -1.
         13    1    5    5    0    0 -0.25225003497E+02 -0.28407614749E+02  0.36164702796E+03  0.36363699786E+03  0.00000000000E+00 0. -1.
        -14    1    5    5    0    0  0.27897909121E+02  0.33801484809E+02  0.46858862782E+03  0.47063375976E+03  0.00000000000E+00 0.  1.
          5    1    4    4  501    0 -0.15314943612E+02 -0.26990003750E+02 -0.45735753003E+01  0.31644869904E+02  0.41800000000E+01 0.  1.
         -5    1    4    4    0  501  0.12067900799E+03  0.37207836595E+02  0.73092439131E+02  0.14597199434E+03  0.41800000000E+01 0.  1.
</event>
<event>
11    1  0.8974665E-009  0.3817077E+03  0.7561462E-02  0.9705327E-01
         22   -1    0    0    0    0  0.00000000000E+00  0.00000000000E+00  0.83320089424E+03  0.83320089424E+03  0.00000000000E+00 0. -1.
         22   -1    0    0    0    0 -0.00000000000E+00 -0.00000000000E+00 -0.41722912531E+03  0.41722912531E+03  0.00000000000E+00 0. -1.
        -24    2    1    2    0    0  0.26551900737E+03  0.24766146680E+03 -0.17702122453E+03  0.41201324000E+03  0.81128605243E+02 0.  0.
         25    2    1    2    0    0 -0.22849158379E+03 -0.27329753756E+03  0.18570392628E+03  0.42075763585E+03  0.12510432443E+03 0.  0.
         24    2    1    2    0    0 -0.37027423576E+02  0.25636070759E+02  0.40728906718E+03  0.41765914369E+03  0.80786990545E+02 0.  0.
        -13    1    5    5    0    0  0.23017486899E+02  0.15429352792E+02  0.77787940698E+02  0.82576227504E+02  0.00000000000E+00 0.  1.
         14    1    5    5    0    0 -0.60044910475E+02  0.10206717966E+02  0.32950112649E+03  0.33508291619E+03  0.00000000000E+00 0. -1.
         11    1    3    3    0    0  0.18481990340E+03  0.11788044173E+03 -0.10568425688E+03  0.24335849562E+03  0.00000000000E+00 0. -1.
        -12    1    3    3    0    0  0.80699103963E+02  0.12978102507E+03 -0.71336967656E+02  0.16865474438E+03  0.00000000000E+00 0.  1.
          5    1    4    4  501    0 -0.81104792990E+02 -0.11815845088E+03  0.97871309627E+01  0.14371035903E+03  0.41800000000E+01 0. -1.
         -5    1    4    4    0  501 -0.14738679080E+03 -0.15513908668E+03  0.17591679532E+03  0.27704727682E+03  0.41800000000E+01 0. -1.
</event>
<event>
11    1  0.8974665E-009  0.1712218E+03  0.7561462E-02  0.1076973E+00
         22   -1    0    0    0    0  0.00000000000E+00  0.00000000000E+00  0.71563519583E+03  0.71563519583E+03  0.00000000000E+00 0.  1.
         22   -1    0    0    0    0 -0.00000000000E+00 -0.00000000000E+00 -0.17117431054E+03  0.17117431054E+03  0.00000000000E+00 0.  1.
         24    2    1    2    0    0 -0.10776936773E+03 -0.74714504567E+02 -0.90638946439E+02  0.18003474025E+03  0.83669560006E+02 0.  0.
         25    2    1    2    0    0  0.28859982349E+02  0.63941266958E+02  0.14539797604E+03  0.20423124220E+03  0.12509374345E+03 0.  0.
        -24    2    1    2    0    0  0.78909385385E+02  0.10773237609E+02  0.48970185568E+03  0.50254352392E+03  0.79995826320E+02 0.  0.
        -13    1    3    3    0    0 -0.11720212174E+03 -0.82055813151E+02 -0.87383087572E+02  0.16764634743E+03  0.00000000000E+00 0.  1.
         14    1    3    3    0    0  0.94327540047E+01  0.73413085836E+01 -0.32558588671E+01  0.12388392825E+02  0.00000000000E+00 0. -1.
         13    1    5    5    0    0  0.26102290953E+02  0.20767407122E+02  0.53523113292E+02  0.63066143437E+02  0.00000000000E+00 0. -1.
        -14    1    5    5    0    0  0.52807094433E+02 -0.99941695125E+01  0.43617874239E+03  0.43947738048E+03  0.00000000000E+00 0.  1.
          5    1    4    4  501    0  0.61311999296E+02  0.39358438125E+02  0.14608579279E+03  0.16329966064E+03  0.41800000000E+01 0. -1.
         -5    1    4    4    0  501 -0.32452016947E+02  0.24582828834E+02 -0.68781674424E+00  0.40931581563E+02  0.41800000000E+01 0. -1.
</event>
<event>
11    1  0.8974665E-009  0.1303548E+03  0.7561462E-02  0.1118834E+00
         22   -1    0    0    0    0  0.00000000000E+00  0.00000000000E+00  0.89316368104E+03  0.89316368104E+03  0.00000000000E+00 0.  1.
         22   -1    0    0    0    0 -0.00000000000E+00 -0.00000000000E+00 -0.32634581441E+03  0.32634581441E+03  0.00000000000E+00 0. -1.
         24    2    1    2    0    0  0.36636667962E+02 -0.43327065212E+01 -0.28250409596E+03  0.29607984881E+03  0.80583465125E+02 0.  0.
         25    2    1    2    0    0 -0.28580428931E+02  0.32578382220E+02  0.91243552302E+02  0.16078040284E+03  0.12508701049E+03 0.  0.
        -24    2    1    2    0    0 -0.80562390313E+01 -0.28245675699E+02  0.75807841029E+03  0.76264924381E+03  0.78027378230E+02 0.  0.
        -11    1    3    3    0    0 -0.90422847177E+01  0.47738093002E+01 -0.48106485774E+00  0.10236385668E+02  0.00000000000E+00 0.  1.
         12    1    3    3    0    0  0.45678952680E+02 -0.91065158214E+01 -0.28202303110E+03  0.28584346314E+03  0.00000000000E+00 0. -1.
         11    1    5    5    0    0 -0.15618960347E+02  0.71104162589E+01  0.38366493146E+02  0.42029724458E+02  0.00000000000E+00 0. -1.
        -12    1    5    5    0    0  0.75627213158E+01 -0.35356091958E+02  0.71971191714E+03  0.72061951935E+03  0.00000000000E+00 0.  1.
          5    1    4    4  501    0  0.19811500512E+02  0.68808504611E+02  0.47041168342E+02  0.85775577983E+02  0.41800000000E+01 0. -1.
         -5    1    4    4    0  501 -0.48391929443E+02 -0.36230122390E+02  0.44202383960E+02  0.75004824854E+02  0.41800000000E+01 0. -1.
</event>
<event>
11    1  0.8974665E-009  0.1521525E+03  0.7561462E-02  0.1094699E+00
         22   -1    0    0    0    0  0.00000000000E+00  0.00000000000E+00  0.20330645749E+04  0.20330645749E+04  0.00000000000E+00 0.  1.
         22   -1    0    0    0    0 -0.00000000000E+00 -0.00000000000E+00 -0.18433524741E+03  0.18433524741E+03  0.00000000000E+00 0. -1.
         24    2    1    2    0    0  0.70864008310E+02  0.56315968447E+02 -0.13777202275E+03  0.18222383258E+03  0.77660794060E+02 0.  0.
         25    2    1    2    0    0 -0.39236773764E+02 -0.34149886835E+02  0.17427073457E+03  0.22073491085E+03  0.12509145755E+03 0.  0.
        -24    2    1    2    0    0 -0.31627234546E+02 -0.22166081613E+02  0.18122306156E+04  0.18144410788E+04  0.80777516918E+02 0.  0.
        -11    1    3    3    0    0 -0.14497551458E+02  0.23764897753E+02 -0.34876606914E+02  0.44624287931E+02  0.00000000000E+00 0.  1.
         12    1    3    3    0    0  0.85361559768E+02  0.32551070694E+02 -0.10289541583E+03  0.13759954465E+03  0.00000000000E+00 0. -1.
         13    1    5    5    0    0  0.27308991670E+01 -0.43231639486E+02  0.61050454570E+03  0.61203940460E+03  0.00000000000E+00 0. -1.
        -14    1    5    5    0    0 -0.34358133713E+02  0.21065557873E+02  0.12017260699E+04  0.12024016742E+04  0.00000000000E+00 0.  1.
          5    1    4    4  501    0  0.29235408127E+02  0.29599948833E+02  0.52316292192E+02  0.66972627901E+02  0.41800000000E+01 0.  1.
         -5    1    4    4    0  501 -0.68472181891E+02 -0.63749835668E+02  0.12195444238E+03  0.15376228295E+03  0.41800000000E+01 0.  1.
</event>
<event>
11    1  0.8974665E-009  0.1365745E+03  0.7561462E-02  0.1111445E+00
         22   -1    0    0    0    0  0.00000000000E+00  0.00000000000E+00  0.37646552870E+03  0.37646552870E+03  0.00000000000E+00 0. -1.
         22   -1    0    0    0    0 -0.00000000000E+00 -0.00000000000E+00 -0.25778485534E+04  0.25778485534E+04  0.00000000000E+00 0.  1.
         24    2    1    2    0    0 -0.42086523389E+02 -0.34840386627E+02 -0.25101624935E+04  0.25120356195E+04  0.80137895398E+02 0.  0.
         25    2    1    2    0    0  0.88182947360E+02  0.10215164052E+02  0.41828116095E+02  0.15898866245E+03  0.12508885526E+03 0.  0.
        -24    2    1    2    0    0 -0.46096423971E+02  0.24625222575E+02  0.26695135262E+03  0.28328980014E+03  0.79112605225E+02 0.  0.
        -11    1    3    3    0    0 -0.17096177120E+02 -0.36106419291E+02 -0.23059225977E+04  0.23062686269E+04  0.00000000000E+00 0.  1.
         12    1    3    3    0    0 -0.24990346268E+02  0.12660326636E+01 -0.20423989576E+03  0.20576699266E+03  0.00000000000E+00 0. -1.
         11    1    5    5    0    0 -0.14539972472E+02 -0.22197010014E+02  0.16157443867E+03  0.16373886919E+03  0.00000000000E+00 0. -1.
        -12    1    5    5    0    0 -0.31556451500E+02  0.46822232589E+02  0.10537691396E+03  0.11955093095E+03  0.00000000000E+00 0.  1.
          5    1    4    4  501    0  0.86181807394E+02  0.54040731050E+02  0.51161048647E+02  0.11394134384E+03  0.41800000000E+01 0. -1.
         -5    1    4    4    0  501  0.20011399660E+01 -0.43825566998E+02 -0.93329325515E+01  0.45047318609E+02  0.41800000000E+01 0. -1.
</event>
<event>
11    1  0.8974665E-009  0.1347883E+03  0.7561462E-02  0.1113522E+00
         22   -1    0    0    0    0  0.00000000000E+00  0.00000000000E+00  0.82996949652E+03  0.82996949652E+03  0.00000000000E+00 0.  1.
         22   -1    0    0    0    0 -0.00000000000E+00 -0.00000000000E+00 -0.70091345770E+02  0.70091345770E+02  0.00000000000E+00 0. -1.
        -24    2    1    2    0    0  0.35939111095E+02  0.27507055273E+02  0.50032321012E+01  0.92721855871E+02  0.80771606574E+02 0.  0.
         25    2    1    2    0    0 -0.50634506509E+02 -0.54059563435E+02  0.20476072469E+03  0.25111717831E+03  0.12508634306E+03 0.  0.
         24    2    1    2    0    0  0.14695395414E+02  0.26552508163E+02  0.55011419397E+03  0.55622180812E+03  0.76394260799E+02 0.  0.
        -11    1    5    5    0    0  0.22575545670E+02  0.60603455412E+01  0.50964471448E+03  0.51018047596E+03  0.00000000000E+00 0.  1.
         12    1    5    5    0    0 -0.78801502565E+01  0.20492162621E+02  0.40469479488E+02  0.46041332159E+02  0.00000000000E+00 0. -1.
         13    1    3    3    0    0 -0.11850005578E+02 -0.93165112864E+01 -0.21963601308E+02  0.26638689855E+02  0.00000000000E+00 0. -1.
        -14    1    3    3    0    0  0.47789116673E+02  0.36823566559E+02  0.26966833409E+02  0.66083166016E+02  0.00000000000E+00 0.  1.
          5    1    4    4  501    0  0.62341742244E+01 -0.70442139929E+02  0.53916126604E+02  0.89024609597E+02  0.41800000000E+01 0.  1.
         -5    1    4    4    0  501 -0.56868680734E+02  0.16382576493E+02  0.15084459808E+03  0.16209256871E+03  0.41800000000E+01 0.  1.
</event>
<event>
11    1  0.8974665E-009  0.1377919E+03  0.7561462E-02  0.1110049E+00
         22   -1    0    0    0    0  0.00000000000E+00  0.00000000000E+00  0.77916232633E+02  0.77916232633E+02  0.00000000000E+00 0. -1.
         22   -1    0    0    0    0 -0.00000000000E+00 -0.00000000000E+00 -0.20325951008E+04  0.20325951008E+04  0.00000000000E+00 0.  1.
        -24    2    1    2    0    0 -0.40032225426E+02  0.46896179924E+02 -0.15690424861E+04  0.15723564537E+04  0.81293687350E+02 0.  0.
         25    2    1    2    0    0  0.34800175895E+02 -0.15548906985E+02 -0.42377806535E+03  0.44349505059E+03  0.12508873039E+03 0.  0.
         24    2    1    2    0    0  0.52320495309E+01 -0.31347272940E+02  0.38141683228E+02  0.94659829184E+02  0.80595715759E+02 0.  0.
        -13    1    5    5    0    0  0.30962402918E+02  0.14281969300E+02  0.17808806875E+02  0.38468151032E+02  0.00000000000E+00 0.  1.
         14    1    5    5    0    0 -0.25730353387E+02 -0.45629242240E+02  0.20332876353E+02  0.56191678152E+02  0.00000000000E+00 0. -1.
         11    1    3    3    0    0  0.24099523498E+02  0.14412789976E+02 -0.31245715241E+03  0.31371641276E+03  0.00000000000E+00 0. -1.
        -12    1    3    3    0    0 -0.64131748924E+02  0.32483389949E+02 -0.12565853337E+04  0.12586400409E+04  0.00000000000E+00 0.  1.
          5    1    4    4  501    0 -0.33745262758E+02 -0.13754853707E+01 -0.36433740316E+02  0.49855035373E+02  0.41800000000E+01 0.  1.
         -5    1    4    4    0  501  0.68545438653E+02 -0.14173421614E+02 -0.38734432503E+03  0.39364001521E+03  0.41800000000E+01 0.  1.
</event>
<event>
11    1  0.8974665E-009  0.2392939E+03  0.7561462E-02  0.1029762E+00
         22   -1    0    0    0    0  0.00000000000E+00  0.00000000000E+00  0.18207688557E+04  0.18207688557E+04  0.00000000000E+00 0. -1.
         22   -1    0    0    0    0 -0.00000000000E+00 -0.00000000000E+00 -0.17907105959E+03  0.17907105959E+03  0.00000000000E+00 0.  1.
        -24    2    1    2    0    0 -0.32031936940E+01 -0.14059194274E+03 -0.28661703897E+02  0.16492919308E+03  0.81263710510E+02 0.  0.
         25    2    1    2    0    0  0.36180870620E+02  0.32814411897E+03  0.34537681831E+03  0.49388257071E+03  0.12508888366E+03 0.  0.
         24    2    1    2    0    0 -0.32977676926E+02 -0.18755217623E+03  0.13249826817E+04  0.13410281515E+04  0.80709666873E+02 0.  0.
        -11    1    5    5    0    0  0.83236875933E+01 -0.19226387773E+02  0.48485597396E+02  0.52818471360E+02  0.00000000000E+00 0.  1.
         12    1    5    5    0    0 -0.41301364519E+02 -0.16832578846E+03  0.12764970843E+04  0.12882096801E+04  0.00000000000E+00 0. -1.
         13    1    3    3    0    0 -0.18331873407E+01 -0.14528414609E+03 -0.10001670976E+02  0.14563954512E+03  0.00000000000E+00 0. -1.
        -14    1    3    3    0    0 -0.13700063533E+01  0.46922033495E+01 -0.18660032921E+02  0.19289647957E+02  0.00000000000E+00 0.  1.
          5    1    4    4  501    0  0.73251477263E+02  0.20049355207E+03  0.25743633807E+03  0.33444638419E+03  0.41800000000E+01 0.  1.
         -5    1    4    4    0  501 -0.37070606644E+02  0.12765056690E+03  0.87940480243E+02  0.15943618652E+03  0.41800000000E+01 0.  1.
</event>
<event>
11    1  0.8974665E-009  0.1590956E+03  0.7561462E-02  0.1087931E+00
         22   -1    0    0    0    0  0.00000000000E+00  0.00000000000E+00  0.45654050672E+03  0.45654050672E+03  0.00000000000E+00 0.  1.
         22   -1    0    0    0    0 -0.00000000000E+00 -0.00000000000E+00 -0.62564488224E+03  0.62564488224E+03  0.00000000000E+00 0. -1.
        -24    2    1    2    0    0 -0.97011748065E+02  0.45437104628E+02 -0.53850320040E+03  0.55492695879E+03  0.80513495841E+02 0.  0.
         25    2    1    2    0    0  0.29148010444E+02 -0.20009774027E+02 -0.12555388513E+02  0.13059628019E+03  0.12509097909E+03 0.  0.
         24    2    1    2    0    0  0.67863737621E+02 -0.25427330600E+02  0.38195421339E+03  0.39666214998E+03  0.78738834619E+02 0.  0.
        -11    1    5    5    0    0  0.21025738433E+02  0.54007032729E+00  0.28601670927E+03  0.28678900141E+03  0.00000000000E+00 0.  1.
         12    1    5    5    0    0  0.46837999189E+02 -0.25967400928E+02  0.95937504125E+02  0.10987314857E+03  0.00000000000E+00 0. -1.
         11    1    3    3    0    0 -0.11086480825E+03  0.42182380414E+02 -0.50001364527E+03  0.51389104330E+03  0.00000000000E+00 0. -1.
        -12    1    3    3    0    0  0.13853060186E+02  0.32547242140E+01 -0.38489555129E+02  0.41035915492E+02  0.00000000000E+00 0.  1.
          5    1    4    4  501    0  0.16527569289E+02 -0.52928146566E+02 -0.52973935407E+02  0.76800126810E+02  0.41800000000E+01 0.  1.
         -5    1    4    4    0  501  0.12620441154E+02  0.32918372539E+02  0.40418546894E+02  0.53796153381E+02  0.41800000000E+01 0.  1.
</event>
<event>
11    1  0.8974665E-009  0.1328386E+03  0.7561462E-02  0.1115830E+00
         22   -1    0    0    0    0  0.00000000000E+00  0.00000000000E+00  0.15975587810E+04  0.15975587810E+04  0.00000000000E+00 0. -1.
         22   -1    0    0    0    0 -0.00000000000E+00 -0.00000000000E+00 -0.49851308240E+03  0.49851308240E+03  0.00000000000E+00 0. -1.
        -24    2    1    2    0    0  0.43160035235E+00 -0.52427862159E+01 -0.47455428114E+03  0.48126487737E+03  0.79915226059E+02 0.  0.
         25    2    1    2    0    0 -0.24545048749E+02 -0.32768091339E+02  0.20789607020E+03  0.24605804015E+03  0.12509027097E+03 0.  0.
         24    2    1    2    0    0  0.24113448396E+02  0.38010877555E+02  0.13657039096E+04  0.13687489459E+04  0.79373944641E+02 0.  0.
        -11    1    5    5    0    0 -0.23124761818E+02  0.39404605433E+01  0.73155611772E+03  0.73193212473E+03  0.00000000000E+00 0.  1.
         12    1    5    5    0    0  0.47238210215E+02  0.34070417012E+02  0.63414779186E+03  0.63681682118E+03  0.00000000000E+00 0. -1.
         11    1    3    3    0    0  0.15997833958E+01 -0.21980190942E+02 -0.45485627717E+03  0.45538985604E+03  0.00000000000E+00 0. -1.
        -12    1    3    3    0    0 -0.11681830435E+01  0.16737404726E+02 -0.19698003968E+02  0.25875021332E+02  0.00000000000E+00 0.  1.
          5    1    4    4  501    0 -0.62115594949E+02  0.18734308080E+02  0.12969802103E+03  0.14508056553E+03  0.41800000000E+01 0. -1.
         -5    1    4    4    0  501  0.37570546200E+02 -0.51502399419E+02  0.78198049162E+02  0.10097747462E+03  0.41800000000E+01 0. -1.
</event>
<event>
11    1  0.8974665E-009  0.1433682E+03  0.7561462E-02  0.1103855E+00
         22   -1    0    0    0    0  0.00000000000E+00  0.00000000000E+00  0.16446534066E+04  0.16446534066E+04  0.00000000000E+00 0.  1.
         22   -1    0    0    0    0 -0.00000000000E+00 -0.00000000000E+00 -0.10847702898E+04  0.10847702898E+04  0.00000000000E+00 0. -1.
        -24    2    1    2    0    0 -0.23499764317E+02  0.10923273405E+02 -0.99960205770E+03  0.10032267851E+04  0.81167430497E+02 0.  0.
         25    2    1    2    0    0  0.30381701075E+02 -0.80349242583E+02 -0.11009063682E+02  0.15214388605E+03  0.12509002373E+03 0.  0.
         24    2    1    2    0    0 -0.68819367583E+01  0.69425969178E+02  0.15704942382E+04  0.15740530252E+04  0.79520108388E+02 0.  0.
        -13    1    5    5    0    0  0.14250730312E+00  0.63945059873E+02  0.15539253973E+04  0.15552405382E+04  0.00000000000E+00 0.  1.
         14    1    5    5    0    0 -0.70244440614E+01  0.54809093048E+01  0.16568840821E+02  0.18812487005E+02  0.00000000000E+00 0. -1.
         11    1    3    3    0    0  0.74765140486E+01  0.34274890895E+02 -0.23121725018E+03  0.23386338574E+03  0.00000000000E+00 0. -1.
        -12    1    3    3    0    0 -0.30976278366E+02 -0.23351617490E+02 -0.76838480752E+03  0.76936339937E+03  0.00000000000E+00 0.  1.
          5    1    4    4  501    0  0.36715018772E+02  0.23154579729E+02  0.13228357474E+02  0.45569606179E+02  0.41800000000E+01 0.  1.
         -5    1    4    4    0  501 -0.63333176965E+01 -0.10350382231E+03 -0.24237421156E+02  0.10657427987E+03  0.41800000000E+01 0.  1.
</event>
<event>
11    1  0.8974665E-009  0.1405065E+03  0.7561462E-02  0.1106994E+00
         22   -1    0    0    0    0  0.00000000000E+00  0.00000000000E+00  0.59531158252E+03  0.59531158252E+03  0.00000000000E+00 0. -1.
         22   -1    0    0    0    0 -0.00000000000E+00 -0.00000000000E+00 -0.13812611249E+04  0.13812611249E+04  0.00000000000E+00 0. -1.
        -24    2    1    2    0    0  0.33732291989E+02 -0.54030247258E+02 -0.13287297329E+04  0.13326502864E+04  0.79855791571E+02 0.  0.
         25    2    1    2    0    0 -0.17352812282E+02  0.86141938996E+02  0.79150589279E+02  0.17214725134E+03  0.12509319171E+03 0.  0.
         24    2    1    2    0    0 -0.16379479707E+02 -0.32111691738E+02  0.46362960125E+03  0.47177516973E+03  0.79498147856E+02 0.  0.
        -13    1    5    5    0    0 -0.19441844487E+02  0.22790242652E+02  0.21916130061E+03  0.22119913237E+03  0.00000000000E+00 0.  1.
         14    1    5    5    0    0  0.30623647803E+01 -0.54901934390E+02  0.24446830064E+03  0.25057603735E+03  0.00000000000E+00 0. -1.
         11    1    3    3    0    0 -0.21287794552E+02 -0.48530313603E+01 -0.54964198127E+03  0.55007547636E+03  0.00000000000E+00 0. -1.
        -12    1    3    3    0    0  0.55020086541E+02 -0.49177215898E+02 -0.77908775165E+03  0.78257481001E+03  0.00000000000E+00 0.  1.
          5    1    4    4  501    0  0.32522378389E+02 -0.10052025836E+02  0.48613797483E+02  0.59493882250E+02  0.41800000000E+01 0.  1.
         -5    1    4    4    0  501 -0.49875190671E+02  0.96193964831E+02  0.30536791796E+02  0.11265336909E+03  0.41800000000E+01 0.  1.
</event>
<event>
11    1  0.8974665E-009  0.1644613E+03  0.7561462E-02  0.1082955E+00
         22   -1    0    0    0    0  0.00000000000E+00  0.00000000000E+00  0.79570426240E+03  0.79570426240E+03  0.00000000000E+00 0. -1.
         22   -1    0    0    0    0 -0.00000000000E+00 -0.00000000000E+00 -0.70623030885E+03  0.70623030885E+03  0.00000000000E+00 0.  1.
         24    2    1    2    0    0  0.69954166327E+02 -0.80033209450E+02 -0.67292177264E+03  0.68600525588E+03  0.80502167673E+02 0.  0.
         25    2    1    2    0    0 -0.74460242220E+02  0.11176035172E+03  0.35309754145E+03  0.39794866554E+03  0.12510220914E+03 0.  0.
        -24    2    1    2    0    0  0.45060758928E+01 -0.31727142275E+02  0.40929818473E+03  0.41798064983E+03  0.78459564931E+02 0.  0.
        -13    1    3    3    0    0  0.81536397337E+02 -0.43551269926E+02 -0.53232394511E+03  0.54029036613E+03  0.00000000000E+00 0.  1.
         14    1    3    3    0    0 -0.11582231010E+02 -0.36481939524E+02 -0.14059782754E+03  0.14571488975E+03  0.00000000000E+00 0. -1.
         13    1    5    5    0    0  0.15378300639E+02 -0.54357715525E+02  0.22514856229E+03  0.23212739707E+03  0.00000000000E+00 0. -1.
        -14    1    5    5    0    0 -0.10872224746E+02  0.22630573251E+02  0.18414962244E+03  0.18585325276E+03  0.00000000000E+00 0.  1.
          5    1    4    4  501    0  0.40874568116E+01  0.10416783286E+03  0.20957731901E+03  0.23411059298E+03  0.41800000000E+01 0.  1.
         -5    1    4    4    0  501 -0.78547699031E+02  0.75925188682E+01  0.14352022245E+03  0.16383807255E+03  0.41800000000E+01 0.  1.
</event>
<event>
11    1  0.8974665E-009  0.2388214E+03  0.7561462E-02  0.1030029E+00
         22   -1    0    0    0    0  0.00000000000E+00  0.00000000000E+00  0.25746801925E+03  0.25746801925E+03  0.00000000000E+00 0. -1.
         22   -1    0    0    0    0 -0.00000000000E+00 -0.00000000000E+00 -0.93617389540E+03  0.93617389540E+03  0.00000000000E+00 0. -1.
        -24    2    1    2    0    0 -0.89457557121E+02 -0.18818497643E+03 -0.74142672986E+03  0.77445264915E+03  0.81529566075E+02 0.  0.
         25    2    1    2    0    0  0.63562604341E+02  0.17079000958E+03 -0.94085178233E+02  0.24022613118E+03  0.12508853384E+03 0.  0.
         24    2    1    2    0    0  0.25894952780E+02  0.17394966859E+02  0.15680603194E+03  0.17896313432E+03  0.80414789306E+02 0.  0.
        -13    1    5    5    0    0  0.54800798594E+02  0.85309334567E+01  0.11090510419E+03  0.12399938099E+03  0.00000000000E+00 0.  1.
         14    1    5    5    0    0 -0.28905845815E+02  0.88640334021E+01  0.45900927758E+02  0.54963753324E+02  0.00000000000E+00 0. -1.
         13    1    3    3    0    0 -0.81393913171E+02 -0.16716279594E+03 -0.71908851489E+03  0.74273592999E+03  0.00000000000E+00 0. -1.
        -14    1    3    3    0    0 -0.80636439492E+01 -0.21022180492E+02 -0.22338214969E+02  0.31716719162E+02  0.00000000000E+00 0.  1.
          5    1    4    4  501    0 -0.20129616330E+02  0.15793615834E+02 -0.53446464547E+02  0.59402329308E+02  0.41800000000E+01 0.  1.
         -5    1    4    4    0  501  0.83692220671E+02  0.15499639374E+03 -0.40638713686E+02  0.18082380187E+03  0.41800000000E+01 0.  1.
</event>
<event>
11    1  0.8974665E-009  0.1464514E+03  0.7561462E-02  0.1100561E+00
         22   -1    0    0    0    0  0.00000000000E+00  0.00000000000E+00  0.12462854048E+04  0.12462854048E+04  0.00000000000E+00 0. -1.
         22   -1    0    0    0    0 -0.00000000000E+00 -0.00000000000E+00 -0.31732309904E+02  0.31732309904E+02  0.00000000000E+00 0.  1.
        -24    2    1    2    0    0  0.60623496255E+02 -0.57015148581E+02  0.15567210719E+03  0.19474936923E+03  0.82265280597E+02 0.  0.
         25    2    1    2    0    0 -0.49890108778E+02  0.20962182766E+02  0.61026457810E+03  0.62530007061E+03  0.12509551137E+03 0.  0.
         24    2    1    2    0    0 -0.10733387476E+02  0.36052965815E+02  0.44861640959E+03  0.45796827484E+03  0.84043059572E+02 0.  0.
        -13    1    5    5    0    0 -0.35601378522E+02  0.51623592197E+02  0.31081114929E+03  0.31707416159E+03  0.00000000000E+00 0.  1.
         14    1    5    5    0    0  0.24867991046E+02 -0.15570626383E+02  0.13780526030E+03  0.14089411326E+03  0.00000000000E+00 0. -1.
         13    1    3    3    0    0  0.18689556748E+02 -0.54847012502E+02  0.13708774053E+03  0.14883058461E+03  0.00000000000E+00 0. -1.
        -14    1    3    3    0    0  0.41933939507E+02 -0.21681360795E+01  0.18584366660E+02  0.45918784618E+02  0.00000000000E+00 0.  1.
          5    1    4    4  501    0 -0.66321685866E+02 -0.36878029326E+02  0.33445138356E+03  0.34297777687E+03  0.41800000000E+01 0. -1.
         -5    1    4    4    0  501  0.16431577088E+02  0.57840212092E+02  0.27581319454E+03  0.28232229374E+03  0.41800000000E+01 0. -1.
</event>
<event>
11    1  0.8974665E-009  0.1791068E+03  0.7561462E-02  0.1070368E+00
         22   -1    0    0    0    0  0.00000000000E+00  0.00000000000E+00  0.12240621559E+04  0.12240621559E+04  0.00000000000E+00 0. -1.
         22   -1    0    0    0    0 -0.00000000000E+00 -0.00000000000E+00 -0.34025280853E+03  0.34025280853E+03  0.00000000000E+00 0. -1.
        -24    2    1    2    0    0 -0.11253887959E+03  0.46067770643E+02 -0.24763618056E+03  0.28638912346E+03  0.76862300277E+02 0.  0.
         25    2    1    2    0    0  0.16570037221E+03 -0.10726454346E+03  0.12502251176E+03  0.26502889250E+03  0.12508952705E+03 0.  0.
         24    2    1    2    0    0 -0.53161492616E+02  0.61196772813E+02  0.10064230162E+04  0.10128969485E+04  0.80633438718E+02 0.  0.
        -13    1    5    5    0    0 -0.45523575786E+01  0.51536703331E+02  0.27686630621E+03  0.28165884908E+03  0.00000000000E+00 0.  1.
         14    1    5    5    0    0 -0.48609135038E+02  0.96600694827E+01  0.72955671000E+03  0.73123809943E+03  0.00000000000E+00 0. -1.
         11    1    3    3    0    0 -0.10778851450E+03  0.38725180941E+02 -0.25185844764E+03  0.27667793758E+03  0.00000000000E+00 0. -1.
        -12    1    3    3    0    0 -0.47503650966E+01  0.73425897017E+01  0.42222670754E+01  0.97111858871E+01  0.00000000000E+00 0.  1.
          5    1    4    4  501    0  0.16344212879E+03 -0.61057281494E+02  0.58848417901E+02  0.18417906987E+03  0.41800000000E+01 0. -1.
         -5    1    4    4    0  501  0.22582434185E+01 -0.46207261962E+02  0.66174093863E+02  0.80849822634E+02  0.41800000000E+01 0. -1.
</event>
<event>
11    1  0.8974665E-009  0.1841561E+03  0.7561462E-02  0.1066330E+00
         22   -1    0    0    0    0  0.00000000000E+00  0.00000000000E+00  0.66828559090E+03  0.66828559090E+03  0.00000000000E+00 0.  1.
         22   -1    0    0    0    0 -0.00000000000E+00 -0.00000000000E+00 -0.56299578242E+03  0.56299578242E+03  0.00000000000E+00 0. -1.
        -24    2    1    2    0    0  0.11480163033E+03 -0.74232794850E+02 -0.52343726079E+03  0.54680558954E+03  0.79497576140E+02 0.  0.
         25    2    1    2    0    0 -0.93682112101E+02  0.36668712882E+02  0.25347164458E+03  0.30001941532E+03  0.12507134896E+03 0.  0.
         24    2    1    2    0    0 -0.21119518227E+02  0.37564081969E+02  0.37525542468E+03  0.38445636846E+03  0.71644756888E+02 0.  0.
        -13    1    5    5    0    0 -0.64348907106E+01  0.11451674047E+01  0.29536157939E+03  0.29543388737E+03  0.00000000000E+00 0.  1.
         14    1    5    5    0    0 -0.14684627516E+02  0.36418914564E+02  0.79893845292E+02  0.89022481087E+02  0.00000000000E+00 0. -1.
         13    1    3    3    0    0  0.12694983003E+03 -0.65804003325E+02 -0.46248288912E+03  0.48408351441E+03  0.00000000000E+00 0. -1.
        -14    1    3    3    0    0 -0.12148199701E+02 -0.84287915254E+01 -0.60954371675E+02  0.62722075132E+02  0.00000000000E+00 0.  1.
          5    1    4    4  501    0 -0.10032632381E+03 -0.14312856703E+02  0.20733315555E+03  0.23081321216E+03  0.41800000000E+01 0.  1.
         -5    1    4    4    0  501  0.66442117067E+01  0.50981569584E+02  0.46138489028E+02  0.69206203163E+02  0.41800000000E+01 0.  1.
</event>
<event>
11    1  0.8974665E-009  0.2317309E+03  0.7561462E-02  0.1034108E+00
         22   -1    0    0    0    0  0.00000000000E+00  0.00000000000E+00  0.51405009150E+03  0.51405009150E+03  0.00000000000E+00 0. -1.
         22   -1    0    0    0    0 -0.00000000000E+00 -0.00000000000E+00 -0.34144910461E+04  0.34144910461E+04  0.00000000000E+00 0.  1.
        -24    2    1    2    0    0 -0.14899572562E+02  0.39800477450E+02 -0.32395024266E+04  0.32408037236E+04  0.81404714817E+02 0.  0.
         25    2    1    2    0    0 -0.11488173559E+03 -0.18145796085E+03 -0.44234612335E+02  0.25243924714E+03  0.12507624810E+03 0.  0.
         24    2    1    2    0    0  0.12978130815E+03  0.14165748340E+03  0.38329608441E+03  0.43529816680E+03  0.75223501326E+02 0.  0.
        -13    1    5    5    0    0  0.18523507126E+02 -0.25041003603E+01  0.13374252592E+02  0.22983939333E+02  0.00000000000E+00 0.  1.
         14    1    5    5    0    0  0.11125780103E+03  0.14416158376E+03  0.36992183181E+03  0.41231422747E+03  0.00000000000E+00 0. -1.
         13    1    3    3    0    0  0.21922125471E+02  0.47515899934E+02 -0.15518887931E+04  0.15527708029E+04  0.00000000000E+00 0. -1.
        -14    1    3    3    0    0 -0.36821698033E+02 -0.77154224850E+01 -0.16876136335E+04  0.16880329207E+04  0.00000000000E+00 0.  1.
          5    1    4    4  501    0 -0.20087000056E+02 -0.11937714045E+02 -0.52894667452E+02  0.57976847385E+02  0.41800000000E+01 0. -1.
         -5    1    4    4    0  501 -0.94794735536E+02 -0.16952024681E+03  0.86600551174E+01  0.19446239975E+03  0.41800000000E+01 0. -1.
</event>
<event>
11    1  0.8974665E-009  0.2105092E+03  0.7561462E-02  0.1047331E+00
         22   -1    0    0    0    0  0.00000000000E+00  0.00000000000E+00  0.14873872531E+04  0.14873872531E+04  0.00000000000E+00 0. -1.
         22   -1    0    0    0    0 -0.00000000000E+00 -0.00000000000E+00 -0.24179398757E+03  0.24179398757E+03  0.00000000000E+00 0. -1.
         24    2    1    2    0    0 -0.26939917580E+02  0.16555719720E+03 -0.18097575664E+03  0.25809049656E+03  0.75654049571E+02 0.  0.
         25    2    1    2    0    0  0.28124941294E+02 -0.19566436715E+03  0.67236968252E+03  0.71190153833E+03  0.12508898197E+03 0.  0.
        -24    2    1    2    0    0 -0.11850237139E+01  0.30107169956E+02  0.75419933965E+03  0.75918920579E+03  0.81509265038E+02 0.  0.
        -11    1    3    3    0    0  0.21238595673E+02  0.31788052561E+02 -0.19420460591E+02  0.42880211302E+02  0.00000000000E+00 0.  1.
         12    1    3    3    0    0 -0.48178513253E+02  0.13376914464E+03 -0.16155529605E+03  0.21521028525E+03  0.00000000000E+00 0. -1.
         11    1    5    5    0    0 -0.23602278391E+02 -0.15017378731E+02  0.44794551714E+03  0.44881819876E+03  0.00000000000E+00 0. -1.
        -12    1    5    5    0    0  0.22417254678E+02  0.45124548688E+02  0.30625382251E+03  0.31037100703E+03  0.00000000000E+00 0.  1.
          5    1    4    4  501    0  0.41726721785E+02 -0.45349339518E+02  0.82771905859E+02  0.10327798751E+03  0.41800000000E+01 0. -1.
         -5    1    4    4    0  501 -0.13601780491E+02 -0.15031502764E+03  0.58959777666E+03  0.60862355081E+03  0.41800000000E+01 0. -1.
</event>
<event>
11    1  0.8974665E-009  0.1474260E+03  0.7561462E-02  0.1099538E+00
         22   -1    0    0    0    0  0.00000000000E+00  0.00000000000E+00  0.13432235774E+03  0.13432235774E+03  0.00000000000E+00 0. -1.
         22   -1    0    0    0    0 -0.00000000000E+00 -0.00000000000E+00 -0.10353578998E+04  0.10353578998E+04  0.00000000000E+00 0.  1.
        -24    2    1    2    0    0  0.80510481366E+02  0.29430971362E+02 -0.78629316911E+03  0.79502251565E+03  0.80347575674E+02 0.  0.
         25    2    1    2    0    0 -0.40747250823E+02 -0.16418328308E+02 -0.20812984589E+03  0.24677081649E+03  0.12509157911E+03 0.  0.
         24    2    1    2    0    0 -0.39763230542E+02 -0.13012643054E+02  0.93387472905E+02  0.12788692544E+03  0.76703339040E+02 0.  0.
        -13    1    5    5    0    0 -0.30504721694E+02  0.12314738533E+02  0.23962547594E+01  0.32983827365E+02  0.00000000000E+00 0.  1.
         14    1    5    5    0    0 -0.92585088481E+01 -0.25327381586E+02  0.90991218146E+02  0.94903098072E+02  0.00000000000E+00 0. -1.
         13    1    3    3    0    0 -0.16391081330E+02  0.64678529062E+01 -0.99764006528E+02  0.10130823099E+03  0.00000000000E+00 0. -1.
        -14    1    3    3    0    0  0.96901562696E+02  0.22963118456E+02 -0.68652916258E+03  0.69371428466E+03  0.00000000000E+00 0.  1.
          5    1    4    4  501    0 -0.44012634801E+02 -0.67362256485E+02 -0.11387504111E+03  0.13949832619E+03  0.41800000000E+01 0.  1.
         -5    1    4    4    0  501  0.32653839774E+01  0.50943928177E+02 -0.94254804781E+02  0.10727249030E+03  0.41800000000E+01 0.  1.
</event>
<event>
11    1  0.8974665E-009  0.1494169E+03  0.7561462E-02  0.1097476E+00
         22   -1    0    0    0    0  0.00000000000E+00  0.00000000000E+00  0.36267145764E+03  0.36267145764E+03  0.00000000000E+00 0. -1.
         22   -1    0    0    0    0 -0.00000000000E+00 -0.00000000000E+00 -0.12196503719E+04  0.12196503719E+04  0.00000000000E+00 0.  1.
        -24    2    1    2    0    0  0.69725985814E+02  0.33429354739E+02 -0.93949345757E+03  0.94606010859E+03  0.80015857053E+02 0.  0.
         25    2    1    2    0    0 -0.12360812771E+03 -0.18910978496E+02 -0.24074266544E+03  0.29873403163E+03  0.12509355036E+03 0.  0.
         24    2    1    2    0    0  0.53882141897E+02 -0.14518376242E+02  0.32325720877E+03  0.33752768931E+03  0.79471061150E+02 0.  0.
        -11    1    5    5    0    0 -0.14388892537E+02  0.34016262821E+01  0.14154731030E+02  0.20468700504E+02  0.00000000000E+00 0.  1.
         12    1    5    5    0    0  0.68271034433E+02 -0.17920002524E+02  0.30910247774E+03  0.31705898880E+03  0.00000000000E+00 0. -1.
         11    1    3    3    0    0 -0.60866792343E+01  0.23097330876E+02 -0.89589490877E+02  0.92718990683E+02  0.00000000000E+00 0. -1.
        -12    1    3    3    0    0  0.75812665048E+02  0.10332023863E+02 -0.84990396670E+03  0.85334111790E+03  0.00000000000E+00 0.  1.
          5    1    4    4  501    0 -0.10542935037E+03 -0.63485264564E+01 -0.25222837159E+03  0.27348176455E+03  0.41800000000E+01 0.  1.
         -5    1    4    4    0  501 -0.18178777341E+02 -0.12562452040E+02  0.11485706144E+02  0.25252267076E+02  0.41800000000E+01 0.  1.
</event>
<event>
11    1  0.8974665E-009  0.1414335E+03  0.7561462E-02  0.1105968E+00
         22   -1    0    0    0    0  0.00000000000E+00  0.00000000000E+00  0.22143951681E+03  0.22143951681E+03  0.00000000000E+00 0.  1.
         22   -1    0    0    0    0 -0.00000000000E+00 -0.00000000000E+00 -0.33964678189E+03  0.33964678189E+03  0.00000000000E+00 0.  1.
         24    2    1    2    0    0  0.40511207660E+02 -0.32315305558E+02 -0.15234667742E+03  0.17971052270E+03  0.80005780589E+02 0.  0.
         25    2    1    2    0    0  0.28147398800E+02  0.40667654355E+02 -0.12952816619E+03  0.18673523102E+03  0.12508543679E+03 0.  0.
        -24    2    1    2    0    0 -0.68658606461E+02 -0.83523487964E+01  0.16366757852E+03  0.19464054499E+03  0.79461308345E+02 0.  0.
        -13    1    3    3    0    0  0.47572257345E+02 -0.44186355341E+02 -0.15266129352E+03  0.16589461777E+03  0.00000000000E+00 0.  1.
         14    1    3    3    0    0 -0.70610496848E+01  0.11871049783E+02  0.31461609819E+00  0.13815904925E+02  0.00000000000E+00 0. -1.
         11    1    5    5    0    0 -0.43977858510E+01 -0.14900659188E+02 -0.30628714567E+01  0.15835130128E+02  0.00000000000E+00 0. -1.
        -12    1    5    5    0    0 -0.64260820610E+02  0.65483103914E+01  0.16673044998E+03  0.17880541486E+03  0.00000000000E+00 0.  1.
          5    1    4    4  501    0 -0.20122818777E+02 -0.34419319590E+02 -0.65531888887E+02  0.76821339859E+02  0.41800000000E+01 0.  1.
         -5    1    4    4    0  501  0.48270217577E+02  0.75086973945E+02 -0.63996277298E+02  0.10991389116E+03  0.41800000000E+01 0.  1.
</event>
<event>
11    1  0.8974665E-009  0.1487286E+03  0.7561462E-02  0.1098185E+00
         22   -1    0    0    0    0  0.00000000000E+00  0.00000000000E+00  0.11477414524E+04  0.11477414524E+04  0.00000000000E+00 0.  1.
         22   -1    0    0    0    0 -0.00000000000E+00 -0.00000000000E+00 -0.17781428245E+04  0.17781428245E+04  0.00000000000E+00 0. -1.
        -24    2    1    2    0    0  0.80365311655E+02 -0.26264841566E+01 -0.17577478885E+04  0.17613699775E+04  0.79253243041E+02 0.  0.
         25    2    1    2    0    0 -0.92473659801E+02  0.58703826782E+02  0.44048683406E+03  0.47082052833E+03  0.12508317988E+03 0.  0.
         24    2    1    2    0    0  0.12108348146E+02 -0.56077342626E+02  0.68685968239E+03  0.69369377098E+03  0.78380763863E+02 0.  0.
        -11    1    5    5    0    0  0.43861998542E+02 -0.41358220321E+02  0.49614732623E+03  0.49979650522E+03  0.00000000000E+00 0.  1.
         12    1    5    5    0    0 -0.31753650396E+02 -0.14719122305E+02  0.19071235616E+03  0.19389726575E+03  0.00000000000E+00 0. -1.
         11    1    3    3    0    0  0.90869127003E+02 -0.38356128867E+01 -0.17120820632E+04  0.17144961071E+04  0.00000000000E+00 0. -1.
        -12    1    3    3    0    0 -0.10503815348E+02  0.12091287301E+01 -0.45665825335E+02  0.46873870468E+02  0.00000000000E+00 0.  1.
          5    1    4    4  501    0  0.30435468516E+02  0.22251865798E+02  0.95280527584E+02  0.10255395951E+03  0.41800000000E+01 0.  1.
         -5    1    4    4    0  501 -0.12290912832E+03  0.36451960984E+02  0.34520630647E+03  0.36826656882E+03  0.41800000000E+01 0.  1.
</event>
<event>
11    1  0.8974665E-009  0.1553437E+03  0.7561462E-02  0.1091540E+00
         22   -1    0    0    0    0  0.00000000000E+00  0.00000000000E+00  0.28564334492E+03  0.28564334492E+03  0.00000000000E+00 0. -1.
         22   -1    0    0    0    0 -0.00000000000E+00 -0.00000000000E+00 -0.34753773348E+03  0.34753773348E+03  0.00000000000E+00 0. -1.
        -24    2    1    2    0    0  0.49896014857E+02 -0.68777721366E+02 -0.23235010924E+03  0.26039330805E+03  0.81228777915E+02 0.  0.
         25    2    1    2    0    0 -0.10932285313E+03  0.12618810189E+03  0.71530125138E+02  0.22054350979E+03  0.12509179682E+03 0.  0.
         24    2    1    2    0    0  0.59426838273E+02 -0.57410380520E+02  0.98925595537E+02  0.15224426056E+03  0.81021852137E+02 0.  0.
        -13    1    5    5    0    0  0.15949960289E+02  0.15506847226E+02  0.48194610085E+00  0.22250748665E+02  0.00000000000E+00 0.  1.
         14    1    5    5    0    0  0.43476877983E+02 -0.72917227746E+02  0.98443649436E+02  0.12999351190E+03  0.00000000000E+00 0. -1.
         13    1    3    3    0    0  0.67090076015E+02 -0.40073738249E+02 -0.12029993160E+03  0.14345402169E+03  0.00000000000E+00 0. -1.
        -14    1    3    3    0    0 -0.17194061158E+02 -0.28703983117E+02 -0.11205017764E+03  0.11693928636E+03  0.00000000000E+00 0.  1.
          5    1    4    4  501    0 -0.97595796408E+02  0.18842840700E+02  0.23154240385E+02  0.10214491358E+03  0.41800000000E+01 0.  1.
         -5    1    4    4    0  501 -0.11727056722E+02  0.10734526119E+03  0.48375884753E+02  0.11839859621E+03  0.41800000000E+01 0.  1.
</event>
<event>
11    1  0.8974665E-009  0.1609687E+03  0.7561462E-02  0.1086170E+00
         22   -1    0    0    0    0  0.00000000000E+00  0.00000000000E+00  0.60175156844E+03  0.60175156844E+03  0.00000000000E+00 0. -1.
         22   -1    0    0    0    0 -0.00000000000E+00 -0.00000000000E+00 -0.16118975755E+03  0.16118975755E+03  0.00000000000E+00 0. -1.
         24    2    1    2    0    0  0.26313571071E+02  0.87881277709E+02 -0.42886025124E+02  0.12870699050E+03  0.79440262195E+02 0.  0.
         25    2    1    2    0    0 -0.93036966809E+02 -0.10253358816E+03  0.56851440757E+02  0.19506011411E+03  0.12508935969E+03 0.  0.
        -24    2    1    2    0    0  0.66723395738E+02  0.14652310454E+02  0.42659639525E+03  0.43917422137E+03  0.78884792813E+02 0.  0.
        -11    1    3    3    0    0  0.54757288093E+01  0.33441738112E+02  0.22832668584E+02  0.40861524796E+02  0.00000000000E+00 0.  1.
         12    1    3    3    0    0  0.20837842262E+02  0.54439539597E+02 -0.65718693708E+02  0.87845465702E+02  0.00000000000E+00 0. -1.
         11    1    5    5    0    0  0.49327278242E+02 -0.28410328257E+02  0.20456603968E+03  0.21233838965E+03  0.00000000000E+00 0. -1.
        -12    1    5    5    0    0  0.17396117496E+02  0.43062638712E+02  0.22203035558E+03  0.22683583172E+03  0.00000000000E+00 0.  1.
          5    1    4    4  501    0 -0.30424382406E+01 -0.30548180794E+02 -0.35645855117E+02  0.47228668913E+02  0.41800000000E+01 0.  1.
         -5    1    4    4    0  501 -0.89994528568E+02 -0.71985407369E+02  0.92497295874E+02  0.14783144520E+03  0.41800000000E+01 0.  1.
</event>
<event>
11    1  0.8974665E-009  0.1372163E+03  0.7561462E-02  0.1110707E+00
         22   -1    0    0    0    0  0.00000000000E+00  0.00000000000E+00  0.36306385955E+02  0.36306385955E+02  0.00000000000E+00 0. -1.
         22   -1    0    0    0    0 -0.00000000000E+00 -0.00000000000E+00 -0.16137821547E+04  0.16137821547E+04  0.00000000000E+00 0.  1.
         24    2    1    2    0    0  0.11659621224E+01  0.59465166466E+02 -0.10581672874E+04  0.10628837113E+04  0.80413370990E+02 0.  0.
         25    2    1    2    0    0  0.33430806953E+02 -0.42197720812E+02 -0.46160584855E+03  0.48127533377E+03  0.12509085092E+03 0.  0.
        -24    2    1    2    0    0 -0.34596769075E+02 -0.17267445654E+02 -0.57702632874E+02  0.10592949562E+03  0.79977266090E+02 0.  0.
        -11    1    3    3    0    0 -0.27029365144E+02  0.63238839691E+02 -0.85068255250E+03  0.85345799109E+03  0.00000000000E+00 0.  1.
         12    1    3    3    0    0  0.28195327266E+02 -0.37736732247E+01 -0.20748473485E+03  0.20942572021E+03  0.00000000000E+00 0. -1.
         13    1    5    5    0    0 -0.52653188239E+02 -0.30505767155E+02 -0.23884507679E+02  0.65371475190E+02  0.00000000000E+00 0. -1.
        -14    1    5    5    0    0  0.18056419164E+02  0.13238321501E+02 -0.33818125195E+02  0.40558020426E+02  0.00000000000E+00 0.  1.
          5    1    4    4  501    0  0.28351643405E+02 -0.81256919052E+02 -0.39039172842E+03  0.39978703906E+03  0.41800000000E+01 0.  1.
         -5    1    4    4    0  501  0.50791635475E+01  0.39059198241E+02 -0.71214120127E+02  0.81488294712E+02  0.41800000000E+01 0.  1.
</event>
<event>
11    1  0.8974665E-009  0.1785206E+03  0.7561462E-02  0.1070846E+00
         22   -1    0    0    0    0  0.00000000000E+00  0.00000000000E+00  0.61470997772E+03  0.61470997772E+03  0.00000000000E+00 0. -1.
         22   -1    0    0    0    0 -0.00000000000E+00 -0.00000000000E+00 -0.81725455740E+03  0.81725455740E+03  0.00000000000E+00 0. -1.
         24    2    1    2    0    0  0.47642386856E+00 -0.12635236318E+03 -0.76522904570E+03  0.77972690620E+03  0.80208535818E+02 0.  0.
         25    2    1    2    0    0 -0.28773412137E+02  0.17074230480E+03  0.27381842738E+03  0.34728075267E+03  0.12508615473E+03 0.  0.
        -24    2    1    2    0    0  0.28296988268E+02 -0.44389941615E+02  0.28886603863E+03  0.30495687626E+03  0.82364565432E+02 0.  0.
        -13    1    3    3    0    0  0.28747350148E+01 -0.27868455109E+02 -0.46573917290E+02  0.54351123846E+02  0.00000000000E+00 0.  1.
         14    1    3    3    0    0 -0.23983111462E+01 -0.98483908073E+02 -0.71865512840E+03  0.72537578236E+03  0.00000000000E+00 0. -1.
         11    1    5    5    0    0  0.44377551410E+01  0.12937474541E+02  0.17266335051E+03  0.17320422780E+03  0.00000000000E+00 0. -1.
        -12    1    5    5    0    0  0.23859233127E+02 -0.57327416156E+02  0.11620268813E+03  0.13175264846E+03  0.00000000000E+00 0.  1.
          5    1    4    4  501    0  0.18313452857E+02 -0.12315715699E+02  0.46298449811E+02  0.51459481766E+02  0.41800000000E+01 0. -1.
         -5    1    4    4    0  501 -0.47086864994E+02  0.18305802050E+03  0.22751997757E+03  0.29582127090E+03  0.41800000000E+01 0. -1.
</event>
<event>
11    1  0.8974665E-009  0.1356211E+03  0.7561462E-02  0.1112549E+00
         22   -1    0    0    0    0  0.00000000000E+00  0.00000000000E+00  0.58653832601E+03  0.58653832601E+03  0.00000000000E+00 0. -1.
         22   -1    0    0    0    0 -0.00000000000E+00 -0.00000000000E+00 -0.14726583495E+04  0.14726583495E+04  0.00000000000E+00 0.  1.
        -24    2    1    2    0    0 -0.42740497417E+02  0.30432967627E+02 -0.14484456255E+04  0.14516849056E+04  0.81494903761E+02 0.  0.
         25    2    1    2    0    0  0.22821874766E+02 -0.36603963251E+02  0.23632556466E+03  0.27084871360E+03  0.12509422471E+03 0.  0.
         24    2    1    2    0    0  0.19918622650E+02  0.61709956239E+01  0.32600003740E+03  0.33666305632E+03  0.81431912605E+02 0.  0.
        -11    1    5    5    0    0  0.31922842810E+02 -0.29743956329E+02  0.13271398670E+03  0.13970244485E+03  0.00000000000E+00 0.  1.
         12    1    5    5    0    0 -0.12004220160E+02  0.35914951953E+02  0.19328605070E+03  0.19696061147E+03  0.00000000000E+00 0. -1.
         11    1    3    3    0    0  0.29964045162E+00 -0.22605827241E+02 -0.62587451600E+03  0.62628270213E+03  0.00000000000E+00 0. -1.
        -12    1    3    3    0    0 -0.43040137868E+02  0.53038794868E+02 -0.82257110951E+03  0.82540220343E+03  0.00000000000E+00 0.  1.
          5    1    4    4  501    0 -0.26016589282E+02  0.83991785850E+01  0.18434969579E+03  0.18641269232E+03  0.41800000000E+01 0.  1.
         -5    1    4    4    0  501  0.48838464049E+02 -0.45003141836E+02  0.51975868867E+02  0.84436021284E+02  0.41800000000E+01 0.  1.
</event>
<event>
11    1  0.8974665E-009  0.1451037E+03  0.7561462E-02  0.1101989E+00
         22   -1    0    0    0    0  0.00000000000E+00  0.00000000000E+00  0.43141691664E+03  0.43141691664E+03  0.00000000000E+00 0.  1.
         22   -1    0    0    0    0 -0.00000000000E+00 -0.00000000000E+00 -0.22485158451E+04  0.22485158451E+04  0.00000000000E+00 0.  1.
         24    2    1    2    0    0  0.18141187311E+02 -0.75574936603E+02 -0.19493828197E+04  0.19525752927E+04  0.80101324354E+02 0.  0.
         25    2    1    2    0    0  0.56538397594E+01  0.37593207844E+02 -0.27885811683E+03  0.30798417889E+03  0.12508872830E+03 0.  0.
        -24    2    1    2    0    0 -0.23795027070E+02  0.37981728759E+02  0.41114200810E+03  0.41937329012E+03  0.69479425752E+02 0.  0.
        -13    1    3    3    0    0  0.12262588978E+02 -0.69131989681E+02 -0.19304910106E+04  0.19317673631E+04  0.00000000000E+00 0.  1.
         14    1    3    3    0    0  0.58785983325E+01 -0.64429469221E+01 -0.18891809139E+02  0.20807929641E+02  0.00000000000E+00 0. -1.
         11    1    5    5    0    0 -0.18333460807E+02  0.17518389554E+02  0.38320929065E+02  0.45951097508E+02  0.00000000000E+00 0. -1.
        -12    1    5    5    0    0 -0.54615662632E+01  0.20463339204E+02  0.37282107904E+03  0.37342219261E+03  0.00000000000E+00 0.  1.
          5    1    4    4  501    0  0.15902705666E+02  0.42435332740E+02 -0.21482520804E+02  0.50325188647E+02  0.41800000000E+01 0. -1.
         -5    1    4    4    0  501 -0.10248865906E+02 -0.48421248956E+01 -0.25737559602E+03  0.25765899025E+03  0.41800000000E+01 0. -1.
</event>
<event>
11    1  0.8974665E-009  0.1472087E+03  0.7561462E-02  0.1099766E+00
         22   -1    0    0    0    0  0.00000000000E+00  0.00000000000E+00  0.39567381084E+03  0.39567381084E+03  0.00000000000E+00 0. -1.
         22   -1    0    0    0    0 -0.00000000000E+00 -0.00000000000E+00 -0.92398640182E+03  0.92398640182E+03  0.00000000000E+00 0. -1.
        -24    2    1    2    0    0  0.30410700294E+02 -0.72282205531E+02 -0.88233586354E+03  0.88945281506E+03  0.80375407944E+02 0.  0.
         25    2    1    2    0    0 -0.28241970940E+02  0.36273147636E+02  0.11636788714E+03  0.17692208643E+03  0.12508632758E+03 0.  0.
         24    2    1    2    0    0 -0.21687293535E+01  0.36009057895E+02  0.23765538542E+03  0.25328531118E+03  0.79824877090E+02 0.  0.
        -13    1    5    5    0    0  0.36732235314E+02  0.57178936154E+01  0.82596190903E+02  0.90576388591E+02  0.00000000000E+00 0.  1.
         14    1    5    5    0    0 -0.38900964667E+02  0.30291164279E+02  0.15505919452E+03  0.16270892259E+03  0.00000000000E+00 0. -1.
         11    1    3    3    0    0  0.10180029197E+02 -0.43775864908E+02 -0.78034173168E+03  0.78163493880E+03  0.00000000000E+00 0. -1.
        -12    1    3    3    0    0  0.20230671096E+02 -0.28506340623E+02 -0.10199413186E+03  0.10781787626E+03  0.00000000000E+00 0.  1.
          5    1    4    4  501    0 -0.55997798297E+02  0.57491215033E+02  0.33825631937E+02  0.87193113238E+02  0.41800000000E+01 0.  1.
         -5    1    4    4    0  501  0.27755827357E+02 -0.21218067397E+02  0.82542255199E+02  0.89728973190E+02  0.41800000000E+01 0.  1.
</event>
<event>
11    1  0.8974665E-009  0.2279140E+03  0.7561462E-02  0.1036370E+00
         22   -1    0    0    0    0  0.00000000000E+00  0.00000000000E+00  0.29855805486E+02  0.29855805486E+02  0.00000000000E+00 0. -1.
         22   -1    0    0    0    0 -0.00000000000E+00 -0.00000000000E+00 -0.34339043376E+04  0.34339043376E+04  0.00000000000E+00 0.  1.
         24    2    1    2    0    0  0.16869470993E+03  0.48358168950E+02 -0.17802228221E+04  0.17906460694E+04  0.80147562115E+02 0.  0.
         25    2    1    2    0    0 -0.21001706108E+03 -0.71950715623E+02 -0.14825923435E+04  0.15043328013E+04  0.12511214484E+03 0.  0.
        -24    2    1    2    0    0  0.41322351149E+02  0.23592546673E+02 -0.14123336654E+03  0.16878127241E+03  0.79221898037E+02 0.  0.
        -11    1    3    3    0    0  0.14963049486E+03  0.10716863885E+02 -0.14496889564E+04  0.14574300005E+04  0.00000000000E+00 0.  1.
         12    1    3    3    0    0  0.19064215066E+02  0.37641305065E+02 -0.33053386570E+03  0.33321606882E+03  0.00000000000E+00 0. -1.
         11    1    5    5    0    0 -0.13055796739E+02 -0.19088769477E+02 -0.39817541831E+02  0.46046406875E+02  0.00000000000E+00 0. -1.
        -12    1    5    5    0    0  0.54378147888E+02  0.42681316150E+02 -0.10141582471E+03  0.12273486554E+03  0.00000000000E+00 0.  1.
          5    1    4    4  501    0 -0.15798985605E+03 -0.10787066644E+03 -0.10936153178E+04  0.11102291705E+04  0.41800000000E+01 0.  1.
         -5    1    4    4    0  501 -0.52027205033E+02  0.35919950813E+02 -0.38897702568E+03  0.39410363084E+03  0.41800000000E+01 0.  1.
</event>
<event>
11    1  0.8974665E-009  0.1394374E+03  0.7561462E-02  0.1108188E+00
         22   -1    0    0    0    0  0.00000000000E+00  0.00000000000E+00  0.59872656954E+03  0.59872656954E+03  0.00000000000E+00 0.  1.
         22   -1    0    0    0    0 -0.00000000000E+00 -0.00000000000E+00 -0.31419860807E+04  0.31419860807E+04  0.00000000000E+00 0.  1.
         24    2    1    2    0    0 -0.56875503257E+02  0.25580207075E+02 -0.30301521795E+04  0.30318504643E+04  0.80036474048E+02 0.  0.
         25    2    1    2    0    0  0.25876046395E+02 -0.89294086170E+01 -0.69394135431E+02  0.14564774723E+03  0.12509362944E+03 0.  0.
        -24    2    1    2    0    0  0.30999456862E+02 -0.16650798458E+02  0.55628680378E+03  0.56321443867E+03  0.80729675138E+02 0.  0.
        -13    1    3    3    0    0 -0.65670552192E+02  0.39119718667E+02 -0.28354059121E+04  0.28364360842E+04  0.00000000000E+00 0.  1.
         14    1    3    3    0    0  0.87950489352E+01 -0.13539511592E+02 -0.19474626741E+03  0.19541438005E+03  0.00000000000E+00 0. -1.
         13    1    5    5    0    0 -0.17864022857E+02  0.39352917181E+01  0.34114453043E+03  0.34163460082E+03  0.00000000000E+00 0. -1.
        -14    1    5    5    0    0  0.48863479719E+02 -0.20586090176E+02  0.21514227335E+03  0.22157983785E+03  0.00000000000E+00 0.  1.
          5    1    4    4  501    0  0.66358966861E+02  0.25980961628E+02 -0.55037093963E+02  0.90139208793E+02  0.41800000000E+01 0.  1.
         -5    1    4    4    0  501 -0.40482920466E+02 -0.34910370245E+02 -0.14357041469E+02  0.55508538441E+02  0.41800000000E+01 0.  1.
</event>
<event>
11    1  0.8974665E-009  0.1667514E+03  0.7561462E-02  0.1080894E+00
         22   -1    0    0    0    0  0.00000000000E+00  0.00000000000E+00  0.60955055717E+03  0.60955055717E+03  0.00000000000E+00 0. -1.
         22   -1    0    0    0    0 -0.00000000000E+00 -0.00000000000E+00 -0.93928145350E+03  0.93928145350E+03  0.00000000000E+00 0. -1.
        -24    2    1    2    0    0 -0.78172325184E+02  0.80342342331E+02 -0.86767442554E+03  0.87879264610E+03  0.82775610544E+02 0.  0.
         25    2    1    2    0    0  0.51169253694E+01 -0.98600350789E+02  0.46330154386E+02  0.16596171472E+03  0.12509434618E+03 0.  0.
         24    2    1    2    0    0  0.73055399815E+02  0.18258008458E+02  0.49161337483E+03  0.50407764986E+03  0.82098236670E+02 0.  0.
        -11    1    5    5    0    0  0.38003141517E+02 -0.31905583921E+02  0.24606122592E+03  0.25101460506E+03  0.00000000000E+00 0.  1.
         12    1    5    5    0    0  0.35052258297E+02  0.50163592379E+02  0.24555214891E+03  0.25306304480E+03  0.00000000000E+00 0. -1.
         13    1    3    3    0    0 -0.31772182576E+02  0.40615974573E+02 -0.66791734671E+03  0.66990500149E+03  0.00000000000E+00 0. -1.
        -14    1    3    3    0    0 -0.46400142608E+02  0.39726367757E+02 -0.19975707883E+03  0.20888764461E+03  0.00000000000E+00 0.  1.
          5    1    4    4  501    0  0.29086893799E+02 -0.94478417422E+02 -0.14794877491E+02  0.10004288855E+03  0.41800000000E+01 0. -1.
         -5    1    4    4    0  501 -0.23969968430E+02 -0.41219333676E+01  0.61125031877E+02  0.65918826167E+02  0.41800000000E+01 0. -1.
</event>
<event>
11    1  0.8974665E-009  0.1389844E+03  0.7561462E-02  0.1108698E+00
         22   -1    0    0    0    0  0.00000000000E+00  0.00000000000E+00  0.19562334443E+03  0.19562334443E+03  0.00000000000E+00 0.  1.
         22   -1    0    0    0    0 -0.00000000000E+00 -0.00000000000E+00 -0.97787716618E+03  0.97787716618E+03  0.00000000000E+00 0.  1.
        -24    2    1    2    0    0  0.13762410321E+02  0.23807409032E+02 -0.55157076372E+03  0.55794906704E+03  0.79502561938E+02 0.  0.
         25    2    1    2    0    0 -0.56513184304E+02  0.19427780086E+02 -0.39744070473E+03  0.42092548859E+03  0.12509186438E+03 0.  0.
         24    2    1    2    0    0  0.42750773983E+02 -0.43235189119E+02  0.16675764669E+03  0.19462595498E+03  0.79838833694E+02 0.  0.
        -11    1    5    5    0    0  0.62879380657E+02 -0.27969794114E+02  0.14781526196E+03  0.16305053684E+03  0.00000000000E+00 0.  1.
         12    1    5    5    0    0 -0.20128606674E+02 -0.15265395005E+02  0.18942384734E+02  0.31575418140E+02  0.00000000000E+00 0. -1.
         13    1    3    3    0    0  0.10103103795E+02 -0.45501415065E+01 -0.80968697634E+01  0.13723548884E+02  0.00000000000E+00 0. -1.
        -14    1    3    3    0    0  0.36593065267E+01  0.28357550539E+02 -0.54347389396E+03  0.54422551816E+03  0.00000000000E+00 0.  1.
          5    1    4    4  501    0 -0.19689379854E+02  0.53453164498E+02 -0.33914773565E+03  0.34392378729E+03  0.41800000000E+01 0.  1.
         -5    1    4    4    0  501 -0.36823804450E+02 -0.34025384412E+02 -0.58292969080E+02  0.77001701298E+02  0.41800000000E+01 0.  1.
</event>
<event>
11    1  0.8974665E-009  0.1881795E+03  0.7561462E-02  0.1063212E+00
         22   -1    0    0    0    0  0.00000000000E+00  0.00000000000E+00  0.57487976322E+03  0.57487976322E+03  0.00000000000E+00 0.  1.
         22   -1    0    0    0    0 -0.00000000000E+00 -0.00000000000E+00 -0.76117918589E+03  0.76117918589E+03  0.00000000000E+00 0.  1.
         24    2    1    2    0    0 -0.82902364659E+02  0.11281141062E+03 -0.71427258920E+03  0.73222458722E+03  0.79801616626E+02 0.  0.
         25    2    1    2    0    0  0.84203472184E+02 -0.14344275647E+03  0.36098000781E+03  0.41668171288E+03  0.12510409546E+03 0.  0.
        -24    2    1    2    0    0 -0.13011075255E+01  0.30631345849E+02  0.16699315872E+03  0.18715264901E+03  0.78736438454E+02 0.  0.
        -11    1    3    3    0    0 -0.97415151146E+02  0.10861612226E+03 -0.65555321576E+03  0.67159302586E+03  0.00000000000E+00 0.  1.
         12    1    3    3    0    0  0.14512786487E+02  0.41952883542E+01 -0.58719373438E+02  0.60631561360E+02  0.00000000000E+00 0. -1.
         13    1    5    5    0    0 -0.26687229643E+02  0.27393252275E+02  0.32326813046E+02  0.50076155383E+02  0.00000000000E+00 0. -1.
        -14    1    5    5    0    0  0.25386122117E+02  0.32380935741E+01  0.13466634568E+03  0.13707649362E+03  0.00000000000E+00 0.  1.
          5    1    4    4  501    0  0.24311520795E+02 -0.72233965752E+02  0.48073685744E+02  0.90207247562E+02  0.41800000000E+01 0.  1.
         -5    1    4    4    0  501  0.59891951389E+02 -0.71208790714E+02  0.31290632207E+03  0.32647446532E+03  0.41800000000E+01 0.  1.
</event>
<event>
11    1  0.8974665E-009  0.1356138E+03  0.7561462E-02  0.1112558E+00
         22   -1    0    0    0    0  0.00000000000E+00  0.00000000000E+00  0.94047237019E+03  0.94047237019E+03  0.00000000000E+00 0. -1.
         22   -1    0    0    0    0 -0.00000000000E+00 -0.00000000000E+00 -0.22828707281E+04  0.22828707281E+04  0.00000000000E+00 0. -1.
         24    2    1    2    0    0 -0.32906731624E+02  0.36329112918E+02 -0.21556223696E+04  0.21576493142E+04  0.79624779172E+02 0.  0.
         25    2    1    2    0    0  0.82332874987E+02 -0.20662429828E+02 -0.76193513826E+02  0.16927287903E+03  0.12506885190E+03 0.  0.
        -24    2    1    2    0    0 -0.49426143363E+02 -0.15666683090E+02  0.88941752550E+03  0.89642090504E+03  0.99088423712E+02 0.  0.
        -11    1    3    3    0    0  0.20393273361E+02 -0.44612019330E+00 -0.21988406831E+03  0.22082818688E+03  0.00000000000E+00 0.  1.
         12    1    3    3    0    0 -0.53300004985E+02  0.36775233112E+02 -0.19357383013E+04  0.19368211273E+04  0.00000000000E+00 0. -1.
         13    1    5    5    0    0 -0.69999437474E+02 -0.33403475737E+02  0.77276186558E+03  0.77664445813E+03  0.00000000000E+00 0. -1.
        -14    1    5    5    0    0  0.20573294111E+02  0.17736792647E+02  0.11665565992E+03  0.11977644691E+03  0.00000000000E+00 0.  1.
          5    1    4    4  501    0  0.17302140012E+02 -0.68205527983E+02 -0.35703105127E+02  0.79016088312E+02  0.41800000000E+01 0.  1.
         -5    1    4    4    0  501  0.65030734975E+02  0.47543098154E+02 -0.40490408699E+02  0.90256790715E+02  0.41800000000E+01 0.  1.
</event>
<event>
11    1  0.8974665E-009  0.1339039E+03  0.7561462E-02  0.1114563E+00
         22   -1    0    0    0    0  0.00000000000E+00  0.00000000000E+00  0.78095768378E+03  0.78095768378E+03  0.00000000000E+00 0.  1.
         22   -1    0    0    0    0 -0.00000000000E+00 -0.00000000000E+00 -0.74105537115E+02  0.74105537115E+02  0.00000000000E+00 0.  1.
         24    2    1    2    0    0 -0.16028966869E+02 -0.12696073828E+02  0.19450880739E+02  0.71914086915E+02  0.66145151491E+02 0.  0.
         25    2    1    2    0    0  0.51840492721E+02  0.42147410795E+02  0.68407694479E+02  0.15744498644E+03  0.12508185388E+03 0.  0.
        -24    2    1    2    0    0 -0.35811525852E+02 -0.29451336967E+02  0.61899357145E+03  0.62570414754E+03  0.78757806733E+02 0.  0.
        -11    1    3    3    0    0 -0.24560346616E+01  0.23848829589E+02 -0.67938558684E+01  0.24918973827E+02  0.00000000000E+00 0.  1.
         12    1    3    3    0    0 -0.13572932207E+02 -0.36544903418E+02  0.26244736607E+02  0.46995113087E+02  0.00000000000E+00 0. -1.
         11    1    5    5    0    0 -0.21533576379E+01 -0.34414432300E+01 -0.10580082274E+01  0.41952189491E+01  0.00000000000E+00 0. -1.
        -12    1    5    5    0    0 -0.33658168214E+02 -0.26009893737E+02  0.62005157968E+03  0.62150892859E+03  0.00000000000E+00 0.  1.
          5    1    4    4  501    0  0.78003663809E+02  0.25958318321E+02 -0.52835211372E-02  0.82315723198E+02  0.41800000000E+01 0.  1.
         -5    1    4    4    0  501 -0.26163171089E+02  0.16189092474E+02  0.68412978000E+02  0.75129263243E+02  0.41800000000E+01 0.  1.
</event>
<event>
11    1  0.8974665E-009  0.1411956E+03  0.7561462E-02  0.1106231E+00
         22   -1    0    0    0    0  0.00000000000E+00  0.00000000000E+00  0.60210714586E+03  0.60210714586E+03  0.00000000000E+00 0. -1.
         22   -1    0    0    0    0 -0.00000000000E+00 -0.00000000000E+00 -0.50343689610E+03  0.50343689610E+03  0.00000000000E+00 0.  1.
        -24    2    1    2    0    0 -0.21616964846E+01 -0.58333083192E+02 -0.33903638315E+03  0.35351771020E+03  0.81373710738E+02 0.  0.
         25    2    1    2    0    0  0.24292880404E+02  0.11819260438E+03 -0.10280628161E+03  0.20192283136E+03  0.12507622682E+03 0.  0.
         24    2    1    2    0    0 -0.22131183919E+02 -0.59859521192E+02  0.54051291453E+03  0.55010350040E+03  0.79916824256E+02 0.  0.
        -11    1    5    5    0    0  0.60919859883E+01  0.91484695730E+01  0.11670476780E+02  0.16031432160E+02  0.00000000000E+00 0.  1.
         12    1    5    5    0    0 -0.28223169907E+02 -0.69007990765E+02  0.52884243775E+03  0.53407206824E+03  0.00000000000E+00 0. -1.
         11    1    3    3    0    0 -0.18577311105E+02 -0.45449000572E+02 -0.81570583880E+02  0.95207606289E+02  0.00000000000E+00 0. -1.
        -12    1    3    3    0    0  0.16415614621E+02 -0.12884082620E+02 -0.25746579927E+03  0.25831010391E+03  0.00000000000E+00 0.  1.
          5    1    4    4  501    0  0.77462566901E+01  0.35773227161E+02  0.28071828425E+02  0.46316608526E+02  0.41800000000E+01 0. -1.
         -5    1    4    4    0  501  0.16546623714E+02  0.82419377223E+02 -0.13087811004E+03  0.15560622283E+03  0.41800000000E+01 0. -1.
</event>
<event>
11    1  0.8974665E-009  0.1547269E+03  0.7561462E-02  0.1092144E+00
         22   -1    0    0    0    0  0.00000000000E+00  0.00000000000E+00  0.28011179621E+03  0.28011179621E+03  0.00000000000E+00 0.  1.
         22   -1    0    0    0    0 -0.00000000000E+00 -0.00000000000E+00 -0.43096249195E+03  0.43096249195E+03  0.00000000000E+00 0. -1.
        -24    2    1    2    0    0  0.14947817733E+02 -0.19471711121E+02 -0.35381699704E+03  0.36309981786E+03  0.77797336359E+02 0.  0.
         25    2    1    2    0    0 -0.53075837826E+02  0.92895857529E+02  0.94911211714E+02  0.19000639301E+03  0.12509039280E+03 0.  0.
         24    2    1    2    0    0  0.38128020094E+02 -0.73424146408E+02  0.10805508959E+03  0.15796807729E+03  0.80206981387E+02 0.  0.
        -11    1    5    5    0    0  0.53324202415E+02 -0.79092245822E+02  0.75704118086E+02  0.12177917477E+03  0.00000000000E+00 0.  1.
         12    1    5    5    0    0 -0.15196182322E+02  0.56680994143E+01  0.32350971502E+02  0.36188902516E+02  0.00000000000E+00 0. -1.
         13    1    3    3    0    0  0.23048632941E+02 -0.42477080093E+02 -0.30184598663E+03  0.30569027046E+03  0.00000000000E+00 0. -1.
        -14    1    3    3    0    0 -0.81008152083E+01  0.23005368972E+02 -0.51971010417E+02  0.57409547397E+02  0.00000000000E+00 0.  1.
          5    1    4    4  501    0  0.88068003116E+01 -0.12255089391E+02  0.61463189845E+02  0.63426674622E+02  0.41800000000E+01 0. -1.
         -5    1    4    4    0  501 -0.61882638138E+02  0.10515094692E+03  0.33448021869E+02  0.12657971839E+03  0.41800000000E+01 0. -1.
</event>
<event>
11    1  0.8974665E-009  0.1411252E+03  0.7561462E-02  0.1106308E+00
         22   -1    0    0    0    0  0.00000000000E+00  0.00000000000E+00  0.43725846462E+03  0.43725846462E+03  0.00000000000E+00 0.  1.
         22   -1    0    0    0    0 -0.00000000000E+00 -0.00000000000E+00 -0.95167225541E+03  0.95167225541E+03  0.00000000000E+00 0. -1.
         24    2    1    2    0    0 -0.54730949362E+01 -0.69001903228E+01 -0.77637225552E+03  0.78052967834E+03  0.79969570695E+02 0.  0.
         25    2    1    2    0    0  0.29171479235E+02 -0.54183254592E+02 -0.13700028045E+03  0.19545545223E+03  0.12508779589E+03 0.  0.
        -24    2    1    2    0    0 -0.23698384299E+02  0.61083444915E+02  0.39895874519E+03  0.41294558946E+03  0.84042720283E+02 0.  0.
        -13    1    3    3    0    0 -0.30721865308E+02 -0.33509604415E-01 -0.12820819112E+03  0.13183768202E+03  0.00000000000E+00 0.  1.
         14    1    3    3    0    0  0.25248770371E+02 -0.68666807183E+01 -0.64816406440E+03  0.64869199632E+03  0.00000000000E+00 0. -1.
         11    1    5    5    0    0 -0.11707061633E+02  0.19288070172E+02  0.16325553117E+02  0.27849750944E+02  0.00000000000E+00 0. -1.
        -12    1    5    5    0    0 -0.11991322666E+02  0.41795374742E+02  0.38263319207E+03  0.38509583852E+03  0.00000000000E+00 0.  1.
          5    1    4    4  501    0  0.39483744658E+01  0.12747675290E+02 -0.12130515106E+03  0.12210857857E+03  0.41800000000E+01 0.  1.
         -5    1    4    4    0  501  0.25223104769E+02 -0.66930929882E+02 -0.15695129396E+02  0.73346873660E+02  0.41800000000E+01 0.  1.
</event>
<event>
11    1  0.8974665E-009  0.1548190E+03  0.7561462E-02  0.1092054E+00
         22   -1    0    0    0    0  0.00000000000E+00  0.00000000000E+00  0.81299435998E+03  0.81299435998E+03  0.00000000000E+00 0.  1.
         22   -1    0    0    0    0 -0.00000000000E+00 -0.00000000000E+00 -0.10663163617E+04  0.10663163617E+04  0.00000000000E+00 0. -1.
         24    2    1    2    0    0  0.51715472500E+02  0.59561316286E+02 -0.10368360345E+04  0.10430689274E+04  0.82108368886E+02 0.  0.
         25    2    1    2    0    0 -0.11268313811E+03  0.69663970054E+01  0.39300387457E+03  0.42760399791E+03  0.12508842195E+03 0.  0.
        -24    2    1    2    0    0  0.60967665610E+02 -0.66527713292E+02  0.39051015820E+03  0.40863779645E+03  0.79647172853E+02 0.  0.
        -11    1    3    3    0    0  0.18134991698E+02 -0.15356410341E+02 -0.10657742165E+03  0.10919452399E+03  0.00000000000E+00 0.  1.
         12    1    3    3    0    0  0.33580480802E+02  0.74917726627E+02 -0.93025861287E+03  0.93387440337E+03  0.00000000000E+00 0. -1.
         11    1    5    5    0    0  0.13635029922E+02 -0.24654726892E+02  0.24881910390E+02  0.37588283597E+02  0.00000000000E+00 0. -1.
        -12    1    5    5    0    0  0.47332635688E+02 -0.41872986399E+02  0.36562824781E+03  0.37104951285E+03  0.00000000000E+00 0.  1.
          5    1    4    4  501    0 -0.34703733978E+02 -0.57439504447E+02  0.15237611513E+03  0.16655209000E+03  0.41800000000E+01 0. -1.
         -5    1    4    4    0  501 -0.77979404131E+02  0.64405901452E+02  0.24062775944E+03  0.26105190791E+03  0.41800000000E+01 0. -1.
</event>
<event>
11    1  0.8974665E-009  0.1369371E+03  0.7561462E-02  0.1111028E+00
         22   -1    0    0    0    0  0.00000000000E+00  0.00000000000E+00  0.16528987481E+04  0.16528987481E+04  0.00000000000E+00 0. -1.
         22   -1    0    0    0    0 -0.00000000000E+00 -0.00000000000E+00 -0.29312369270E+04  0.29312369270E+04  0.00000000000E+00 0. -1.
         24    2    1    2    0    0 -0.32454385345E+02  0.45101756489E+02 -0.28586773049E+04  0.28603513349E+04  0.80538003718E+02 0.  0.
         25    2    1    2    0    0  0.73956455328E+02 -0.32379654204E+02  0.84082026773E+01  0.14911925854E+03  0.12509139100E+03 0.  0.
        -24    2    1    2    0    0 -0.41502069983E+02 -0.12722102285E+02  0.15719309233E+04  0.15746650817E+04  0.81969617072E+02 0.  0.
        -11    1    3    3    0    0  0.17839025037E+02  0.41915424163E+02 -0.16399856890E+04  0.16406182353E+04  0.00000000000E+00 0.  1.
         12    1    3    3    0    0 -0.50293410382E+02  0.31863323263E+01 -0.12186916158E+04  0.12197330996E+04  0.00000000000E+00 0. -1.
         13    1    5    5    0    0 -0.70473521372E+01 -0.25321354669E+02  0.13005671089E+04  0.13008326721E+04  0.00000000000E+00 0. -1.
        -14    1    5    5    0    0 -0.34454717846E+02  0.12599252385E+02  0.27136381446E+03  0.27383240959E+03  0.00000000000E+00 0.  1.
          5    1    4    4  501    0  0.19634305235E+02 -0.47906828005E+02 -0.46872546636E+02  0.69964835022E+02  0.41800000000E+01 0. -1.
         -5    1    4    4    0  501  0.54322150093E+02  0.15527173801E+02  0.55280749314E+02  0.79154423513E+02  0.41800000000E+01 0. -1.
</event>
<event>
11    1  0.8974665E-009  0.1348046E+03  0.7561462E-02  0.1113503E+00
         22   -1    0    0    0    0  0.00000000000E+00  0.00000000000E+00  0.75868595900E+02  0.75868595900E+02  0.00000000000E+00 0. -1.
         22   -1    0    0    0    0 -0.00000000000E+00 -0.00000000000E+00 -0.80208909477E+03  0.80208909477E+03  0.00000000000E+00 0. -1.
         24    2    1    2    0    0  0.64119727522E+01  0.17892907268E+02 -0.61773219683E+03  0.62331722128E+03  0.81055671055E+02 0.  0.
         25    2    1    2    0    0  0.70252995806E+01  0.38289113553E+02 -0.69941512999E+02  0.14850878966E+03  0.12509050449E+03 0.  0.
        -24    2    1    2    0    0 -0.13437272333E+02 -0.56182020821E+02 -0.38546789034E+02  0.10613167973E+03  0.80256456107E+02 0.  0.
        -11    1    3    3    0    0  0.62418452281E+01  0.21866398508E+02 -0.43622284063E+02  0.49193532933E+02  0.00000000000E+00 0.  1.
         12    1    3    3    0    0  0.17012752407E+00 -0.39734912398E+01 -0.57410991277E+03  0.57412368834E+03  0.00000000000E+00 0. -1.
         13    1    5    5    0    0  0.26340883040E+02 -0.24929848163E+02  0.82777573526E+01  0.37200278434E+02  0.00000000000E+00 0. -1.
        -14    1    5    5    0    0 -0.39778155373E+02 -0.31252172658E+02 -0.46824546387E+02  0.68931401299E+02  0.00000000000E+00 0.  1.
          5    1    4    4  501    0  0.60073718059E+02  0.24880359181E+02 -0.78256943992E+01  0.65624673463E+02  0.41800000000E+01 0.  1.
         -5    1    4    4    0  501 -0.53048418478E+02  0.13408754372E+02 -0.62115818600E+02  0.82884116194E+02  0.41800000000E+01 0.  1.
</event>
<event>
11    1  0.8974665E-009  0.1615310E+03  0.7561462E-02  0.1085646E+00
         22   -1    0    0    0    0  0.00000000000E+00  0.00000000000E+00  0.18531045882E+04  0.18531045882E+04  0.00000000000E+00 0. -1.
         22   -1    0    0    0    0 -0.00000000000E+00 -0.00000000000E+00 -0.39804258461E+02  0.39804258461E+02  0.00000000000E+00 0.  1.
        -24    2    1    2    0    0  0.97170182762E+02  0.61257319472E+01  0.12892362359E+03  0.17595477654E+03  0.69708060212E+02 0.  0.
         25    2    1    2    0    0 -0.11911773982E+03  0.16770921127E+02  0.49860536754E+03  0.52794421566E+03  0.12508989797E+03 0.  0.
         24    2    1    2    0    0  0.21947557056E+02 -0.22896653075E+02  0.11857713387E+04  0.11890098545E+04  0.81760715209E+02 0.  0.
        -11    1    5    5    0    0 -0.17803535602E+02  0.15755075543E+02  0.16165755497E+03  0.16339630768E+03  0.00000000000E+00 0.  1.
         12    1    5    5    0    0  0.39751092659E+02 -0.38651728618E+02  0.10241137837E+04  0.10256135468E+04  0.00000000000E+00 0. -1.
         11    1    3    3    0    0 -0.63893981734E+01 -0.11971688476E+02  0.81268182522E+01  0.15817424218E+02  0.00000000000E+00 0. -1.
        -12    1    3    3    0    0  0.10355958094E+03  0.18097420424E+02  0.12079680534E+03  0.16013735233E+03  0.00000000000E+00 0.  1.
          5    1    4    4  501    0  0.13689352886E+02 -0.27342462771E+02  0.59019131417E+02  0.66601343275E+02  0.41800000000E+01 0.  1.
         -5    1    4    4    0  501 -0.13280709270E+03  0.44113383899E+02  0.43958623612E+03  0.46134287238E+03  0.41800000000E+01 0.  1.
</event>
<event>
11    1  0.8974665E-009  0.1798143E+03  0.7561462E-02  0.1069793E+00
         22   -1    0    0    0    0  0.00000000000E+00  0.00000000000E+00  0.54962587626E+02  0.54962587626E+02  0.00000000000E+00 0.  1.
         22   -1    0    0    0    0 -0.00000000000E+00 -0.00000000000E+00 -0.27481776156E+04  0.27481776156E+04  0.00000000000E+00 0. -1.
         24    2    1    2    0    0 -0.35798822080E+02  0.39685080923E+02 -0.22179531861E+04  0.22200671576E+04  0.80779869291E+02 0.  0.
         25    2    1    2    0    0  0.38321530736E+02  0.10774547946E+03 -0.23676836769E+03  0.29117742385E+03  0.12508958454E+03 0.  0.
        -24    2    1    2    0    0 -0.25227086563E+01 -0.14743056039E+03 -0.23849347413E+03  0.29189562171E+03  0.81128186057E+02 0.  0.
        -13    1    3    3    0    0 -0.44106247749E+02  0.14430746308E+02 -0.56576218392E+03  0.56766227308E+03  0.00000000000E+00 0.  1.
         14    1    3    3    0    0  0.83074256690E+01  0.25254334615E+02 -0.16521910022E+04  0.16524048846E+04  0.00000000000E+00 0. -1.
         11    1    5    5    0    0  0.45573107514E+00 -0.21351210765E+02  0.83465198495E+00  0.21372377872E+02  0.00000000000E+00 0. -1.
        -12    1    5    5    0    0 -0.29784397314E+01 -0.12607934962E+03 -0.23932812612E+03  0.27052324384E+03  0.00000000000E+00 0.  1.
          5    1    4    4  501    0  0.79582510099E+02  0.66539463220E+02 -0.10825759380E+03  0.14999351684E+03  0.41800000000E+01 0.  1.
         -5    1    4    4    0  501 -0.41260979363E+02  0.41206016243E+02 -0.12851077389E+03  0.14118390701E+03  0.41800000000E+01 0.  1.
</event>
<event>
11    1  0.8974665E-009  0.1927400E+03  0.7561462E-02  0.1059780E+00
         22   -1    0    0    0    0  0.00000000000E+00  0.00000000000E+00  0.23109971610E+03  0.23109971610E+03  0.00000000000E+00 0.  1.
         22   -1    0    0    0    0 -0.00000000000E+00 -0.00000000000E+00 -0.15025558466E+04  0.15025558466E+04  0.00000000000E+00 0. -1.
         24    2    1    2    0    0  0.33383336222E+02  0.51882212301E+01 -0.11310045140E+04  0.11344530383E+04  0.81676929135E+02 0.  0.
         25    2    1    2    0    0  0.18318692813E+02  0.13364654160E+03 -0.31008405763E+03  0.36054986446E+03  0.12508840624E+03 0.  0.
        -24    2    1    2    0    0 -0.51702029035E+02 -0.13883476283E+03  0.16963244108E+03  0.23865265995E+03  0.78941344415E+02 0.  0.
        -13    1    3    3    0    0 -0.43505895450E+01  0.15575734657E+02 -0.46306650749E+02  0.49049332749E+02  0.00000000000E+00 0.  1.
         14    1    3    3    0    0  0.37733925767E+02 -0.10387513427E+02 -0.10846978632E+04  0.10854037056E+04  0.00000000000E+00 0. -1.
         13    1    5    5    0    0 -0.30573579178E+02 -0.71713379886E+01  0.52450537187E+02  0.61132893629E+02  0.00000000000E+00 0. -1.
        -14    1    5    5    0    0 -0.21128449857E+02 -0.13166342484E+03  0.11718190389E+03  0.17751976632E+03  0.00000000000E+00 0.  1.
          5    1    4    4  501    0 -0.45502955110E+02  0.62376859078E+02 -0.20120355214E+03  0.21554983940E+03  0.41800000000E+01 0.  1.
         -5    1    4    4    0  501  0.63821647923E+02  0.71269682524E+02 -0.10888050549E+03  0.14500002505E+03  0.41800000000E+01 0.  1.
</event>
<event>
11    1  0.8974665E-009  0.1552111E+03  0.7561462E-02  0.1091670E+00
         22   -1    0    0    0    0  0.00000000000E+00  0.00000000000E+00  0.35125885067E+03  0.35125885067E+03  0.00000000000E+00 0.  1.
         22   -1    0    0    0    0 -0.00000000000E+00 -0.00000000000E+00 -0.20015201879E+03  0.20015201879E+03  0.00000000000E+00 0.  1.
        -24    2    1    2    0    0  0.89054953230E+02 -0.69819268639E+02 -0.77528183901E+02  0.16023846423E+03  0.82826512381E+02 0.  0.
         25    2    1    2    0    0 -0.51482069401E+02  0.26984183712E+02 -0.38890738339E+01  0.13798899142E+03  0.12508911710E+03 0.  0.
         24    2    1    2    0    0 -0.37572883829E+02  0.42835084926E+02  0.23252408961E+03  0.25318341380E+03  0.82388243556E+02 0.  0.
        -13    1    5    5    0    0 -0.16968754649E+01 -0.24898850791E+01  0.16185976379E+03  0.16188780698E+03  0.00000000000E+00 0.  1.
         14    1    5    5    0    0 -0.35876008364E+02  0.45324970006E+02  0.70664325824E+02  0.91295606829E+02  0.00000000000E+00 0. -1.
         13    1    3    3    0    0  0.43826078048E+02 -0.55633070244E+01  0.71116883827E+01  0.44746526276E+02  0.00000000000E+00 0. -1.
        -14    1    3    3    0    0  0.45228875182E+02 -0.64255961614E+02 -0.84639872284E+02  0.11549193796E+03  0.00000000000E+00 0.  1.
          5    1    4    4  501    0 -0.77946481051E+02  0.54609885701E+02  0.12651178316E+02  0.96101083434E+02  0.41800000000E+01 0. -1.
         -5    1    4    4    0  501  0.26464411650E+02 -0.27625701989E+02 -0.16540252149E+02  0.41887907987E+02  0.41800000000E+01 0. -1.
</event>
<event>
11    1  0.8974665E-009  0.1364783E+03  0.7561462E-02  0.1111556E+00
         22   -1    0    0    0    0  0.00000000000E+00  0.00000000000E+00  0.12508187899E+03  0.12508187899E+03  0.00000000000E+00 0.  1.
         22   -1    0    0    0    0 -0.00000000000E+00 -0.00000000000E+00 -0.67293075591E+03  0.67293075591E+03  0.00000000000E+00 0.  1.
        -24    2    1    2    0    0 -0.48978840128E+01 -0.40520969600E+02 -0.48073915166E+03  0.48754234059E+03  0.70153144489E+02 0.  0.
         25    2    1    2    0    0  0.18029039777E+02  0.87545092237E+02 -0.12539595176E+03  0.19839593756E+03  0.12509042278E+03 0.  0.
         24    2    1    2    0    0 -0.13131155764E+02 -0.47024122637E+02  0.58286226498E+02  0.11207435675E+03  0.82338823646E+02 0.  0.
        -13    1    5    5    0    0  0.12202790269E+02 -0.48015797628E+02  0.68670997484E+02  0.84676624919E+02  0.00000000000E+00 0.  1.
         14    1    5    5    0    0 -0.25333946033E+02  0.99167499112E+00 -0.10384770986E+02  0.27397731828E+02  0.00000000000E+00 0. -1.
         11    1    3    3    0    0  0.10530583286E+02 -0.54087708819E+02 -0.25584688440E+03  0.26171358713E+03  0.00000000000E+00 0. -1.
        -12    1    3    3    0    0 -0.15428467299E+02  0.13566739220E+02 -0.22489226726E+03  0.22582875346E+03  0.00000000000E+00 0.  1.
          5    1    4    4  501    0 -0.51839530104E+02  0.28381767004E+02 -0.68302586145E+02  0.90418898764E+02  0.41800000000E+01 0. -1.
         -5    1    4    4    0  501  0.69868569881E+02  0.59163325233E+02 -0.57093365617E+02  0.10797703880E+03  0.41800000000E+01 0. -1.
</event>
<event>
11    1  0.8974665E-009  0.1360033E+03  0.7561462E-02  0.1112105E+00
         22   -1    0    0    0    0  0.00000000000E+00  0.00000000000E+00  0.26389690284E+03  0.26389690284E+03  0.00000000000E+00 0.  1.
         22   -1    0    0    0    0 -0.00000000000E+00 -0.00000000000E+00 -0.59847787120E+03  0.59847787120E+03  0.00000000000E+00 0.  1.
         24    2    1    2    0    0 -0.46269962530E+02  0.36572762923E+02 -0.44569665009E+03  0.45671592830E+03  0.80408076968E+02 0.  0.
         25    2    1    2    0    0  0.12495877010E+02 -0.22105858181E+02 -0.10945698800E+03  0.16814193569E+03  0.12508422126E+03 0.  0.
        -24    2    1    2    0    0  0.33774085520E+02 -0.14466904742E+02  0.22057266973E+03  0.23751691004E+03  0.80074963260E+02 0.  0.
        -13    1    3    3    0    0 -0.66370709136E+02  0.29379926023E+02 -0.39647075863E+03  0.40305993789E+03  0.00000000000E+00 0.  1.
         14    1    3    3    0    0  0.20100746606E+02  0.71928369007E+01 -0.49225891462E+02  0.53655990411E+02  0.00000000000E+00 0. -1.
         13    1    5    5    0    0  0.23240543658E+02  0.31932628640E+02  0.11829034568E+03  0.12470934818E+03  0.00000000000E+00 0. -1.
        -14    1    5    5    0    0  0.10533541862E+02 -0.46399533383E+02  0.10228232404E+03  0.11280756186E+03  0.00000000000E+00 0.  1.
          5    1    4    4  501    0  0.43791060089E+02  0.37773215474E+02 -0.65263769222E+02  0.87300084330E+02  0.41800000000E+01 0.  1.
         -5    1    4    4    0  501 -0.31295183079E+02 -0.59879073655E+02 -0.44193218775E+02  0.80841851360E+02  0.41800000000E+01 0.  1.
</event>
<event>
11    1  0.8974665E-009  0.1328729E+03  0.7561462E-02  0.1115789E+00
         22   -1    0    0    0    0  0.00000000000E+00  0.00000000000E+00  0.10724272171E+04  0.10724272171E+04  0.00000000000E+00 0. -1.
         22   -1    0    0    0    0 -0.00000000000E+00 -0.00000000000E+00 -0.30884264822E+03  0.30884264822E+03  0.00000000000E+00 0. -1.
        -24    2    1    2    0    0  0.17810641960E+02 -0.17262922653E+02 -0.26987944333E+03  0.28165343792E+03  0.76671492041E+02 0.  0.
         25    2    1    2    0    0  0.28192787884E+02  0.16581229696E+02  0.10463028841E+03  0.16632755065E+03  0.12509031292E+03 0.  0.
         24    2    1    2    0    0 -0.46003429844E+02  0.68169295697E+00  0.92883372380E+03  0.93328887675E+03  0.78608273928E+02 0.  0.
        -11    1    5    5    0    0 -0.34437806166E+02 -0.31034153915E+02  0.30107677982E+03  0.30462486528E+03  0.00000000000E+00 0.  1.
         12    1    5    5    0    0 -0.11565623678E+02  0.31715846872E+02  0.62775694398E+03  0.62866401147E+03  0.00000000000E+00 0. -1.
         13    1    3    3    0    0 -0.14321382849E+02 -0.91222623312E+01 -0.22612148341E+03  0.22675811548E+03  0.00000000000E+00 0. -1.
        -14    1    3    3    0    0  0.32132024809E+02 -0.81406603217E+01 -0.43757959918E+02  0.54895322433E+02  0.00000000000E+00 0.  1.
          5    1    4    4  501    0  0.56961384016E+02 -0.35597143655E+02  0.39849333154E+02  0.78212515994E+02  0.41800000000E+01 0.  1.
         -5    1    4    4    0  501 -0.28768596132E+02  0.52178373351E+02  0.64780955258E+02  0.88115034660E+02  0.41800000000E+01 0.  1.
</event>
<event>
11    1  0.8974665E-009  0.1410915E+03  0.7561462E-02  0.1106346E+00
         22   -1    0    0    0    0  0.00000000000E+00  0.00000000000E+00  0.40322017790E+03  0.40322017790E+03  0.00000000000E+00 0.  1.
         22   -1    0    0    0    0 -0.00000000000E+00 -0.00000000000E+00 -0.96799443923E+02  0.96799443923E+02  0.00000000000E+00 0.  1.
         24    2    1    2    0    0  0.66958059816E+02  0.12596960252E+02 -0.11126006671E+02  0.10715431248E+03  0.81952385428E+02 0.  0.
         25    2    1    2    0    0 -0.57063289513E+02  0.95968041533E+01  0.14455810589E+03  0.19973222992E+03  0.12509036745E+03 0.  0.
        -24    2    1    2    0    0 -0.98947703034E+01 -0.22193764405E+02  0.17298863476E+03  0.19313307942E+03  0.82370194567E+02 0.  0.
        -11    1    3    3    0    0  0.22159204906E+02 -0.32431775258E+01 -0.44001792450E+02  0.49373133396E+02  0.00000000000E+00 0.  1.
         12    1    3    3    0    0  0.44798854911E+02  0.15840137778E+02  0.32875785779E+02  0.57781179087E+02  0.00000000000E+00 0. -1.
         11    1    5    5    0    0 -0.24788739748E+02 -0.47573661474E+02  0.86590635743E+02  0.10186104792E+03  0.00000000000E+00 0. -1.
        -12    1    5    5    0    0  0.14893969444E+02  0.25379897068E+02  0.86397999013E+02  0.91272031501E+02  0.00000000000E+00 0.  1.
          5    1    4    4  501    0  0.25906136193E+02  0.41275986326E+02  0.52081694633E+02  0.71447954873E+02  0.41800000000E+01 0.  1.
         -5    1    4    4    0  501 -0.82969425706E+02 -0.31679182173E+02  0.92476411254E+02  0.12828427504E+03  0.41800000000E+01 0.  1.
</event>
<event>
11    1  0.8974665E-009  0.1364384E+03  0.7561462E-02  0.1111602E+00
         22   -1    0    0    0    0  0.00000000000E+00  0.00000000000E+00  0.40514249760E+03  0.40514249760E+03  0.00000000000E+00 0.  1.
         22   -1    0    0    0    0 -0.00000000000E+00 -0.00000000000E+00 -0.19377487755E+04  0.19377487755E+04  0.00000000000E+00 0. -1.
         24    2    1    2    0    0 -0.12025332501E+02 -0.47916125240E+02 -0.15919153637E+04  0.15947891279E+04  0.81958975691E+02 0.  0.
         25    2    1    2    0    0  0.45893422850E+02  0.89563598708E+02 -0.31923392843E+03  0.35733168802E+03  0.12509112570E+03 0.  0.
        -24    2    1    2    0    0 -0.33868090349E+02 -0.41647473468E+02  0.37854301419E+03  0.39077045718E+03  0.80778567814E+02 0.  0.
        -13    1    3    3    0    0 -0.38735179109E+02 -0.38609589498E+01 -0.95517919403E+03  0.95597207794E+03  0.00000000000E+00 0.  1.
         14    1    3    3    0    0  0.26709846608E+02 -0.44055166290E+02 -0.63673616964E+03  0.63881704995E+03  0.00000000000E+00 0. -1.
         13    1    5    5    0    0  0.88026631259E+01  0.19006708696E+02  0.11946417181E+03  0.12128656232E+03  0.00000000000E+00 0. -1.
        -14    1    5    5    0    0 -0.42670753475E+02 -0.60654182164E+02  0.25907884238E+03  0.26948389486E+03  0.00000000000E+00 0.  1.
          5    1    4    4  501    0  0.26961673562E+02  0.97205304132E+00 -0.19825990442E+01  0.27372976224E+02  0.41800000000E+01 0.  1.
         -5    1    4    4    0  501  0.18931749288E+02  0.88591545667E+02 -0.31725132939E+03  0.32995871180E+03  0.41800000000E+01 0.  1.
</event>
<event>
11    1  0.8974665E-009  0.1877169E+03  0.7561462E-02  0.1063566E+00
         22   -1    0    0    0    0  0.00000000000E+00  0.00000000000E+00  0.63343876673E+03  0.63343876673E+03  0.00000000000E+00 0. -1.
         22   -1    0    0    0    0 -0.00000000000E+00 -0.00000000000E+00 -0.45870271696E+03  0.45870271696E+03  0.00000000000E+00 0. -1.
        -24    2    1    2    0    0  0.27434593047E+02  0.13339924557E+03 -0.32050754741E+03  0.35685864064E+03  0.77942195506E+02 0.  0.
         25    2    1    2    0    0 -0.48202963059E+02 -0.15141782380E+03 -0.28778735622E+02  0.20426941902E+03  0.12508755697E+03 0.  0.
         24    2    1    2    0    0  0.20768370012E+02  0.18018578234E+02  0.52402233280E+03  0.53101342404E+03  0.81362502935E+02 0.  0.
        -13    1    5    5    0    0  0.13130792374E+02 -0.32243900365E+02  0.19424745882E+03  0.19734275279E+03  0.00000000000E+00 0.  1.
         14    1    5    5    0    0  0.76375776374E+01  0.50262478599E+02  0.32977487397E+03  0.33367067125E+03  0.00000000000E+00 0. -1.
         11    1    3    3    0    0  0.51376173756E+01  0.12609534672E+03 -0.30085855756E+03  0.32625496660E+03  0.00000000000E+00 0. -1.
        -12    1    3    3    0    0  0.22296975671E+02  0.73038988525E+01 -0.19648989846E+02  0.30603674036E+02  0.00000000000E+00 0.  1.
          5    1    4    4  501    0 -0.46330156268E+02 -0.41528667842E+02  0.40433236641E+02  0.74319799904E+02  0.41800000000E+01 0.  1.
         -5    1    4    4    0  501 -0.18728067905E+01 -0.10988915596E+03 -0.69211972263E+02  0.12994961911E+03  0.41800000000E+01 0.  1.
</event>
<event>
11    1  0.8974665E-009  0.1790363E+03  0.7561462E-02  0.1070425E+00
         22   -1    0    0    0    0  0.00000000000E+00  0.00000000000E+00  0.47455856937E+03  0.47455856937E+03  0.00000000000E+00 0. -1.
         22   -1    0    0    0    0 -0.00000000000E+00 -0.00000000000E+00 -0.47940258121E+03  0.47940258121E+03  0.00000000000E+00 0.  1.
        -24    2    1    2    0    0 -0.98520260683E+02 -0.81095665654E+02 -0.41154995049E+03  0.43788559979E+03  0.78023637443E+02 0.  0.
         25    2    1    2    0    0  0.14803498378E+03  0.33209826842E+02  0.18400779945E+03  0.26930247823E+03  0.12509078903E+03 0.  0.
         24    2    1    2    0    0 -0.49514723093E+02  0.47885838812E+02  0.22269813920E+03  0.24677307257E+03  0.80979792437E+02 0.  0.
        -11    1    5    5    0    0 -0.22072093357E+01  0.50452929950E+02  0.66216555425E+02  0.83276660151E+02  0.00000000000E+00 0.  1.
         12    1    5    5    0    0 -0.47307513757E+02 -0.25670911372E+01  0.15648158377E+03  0.16349641242E+03  0.00000000000E+00 0. -1.
         13    1    3    3    0    0  0.74398586125E+01 -0.15663468710E+02 -0.17546227363E+02  0.24669127323E+02  0.00000000000E+00 0. -1.
        -14    1    3    3    0    0 -0.10596011930E+03 -0.65432196945E+02 -0.39400372312E+03  0.41321647246E+03  0.00000000000E+00 0.  1.
          5    1    4    4  501    0  0.11437263645E+03 -0.26361588907E+02  0.15595695472E+03  0.19523339229E+03  0.41800000000E+01 0. -1.
         -5    1    4    4    0  501  0.33662347326E+02  0.59571415749E+02  0.28050844734E+02  0.74069085941E+02  0.41800000000E+01 0. -1.
</event>
<event>
11    1  0.8974665E-009  0.1390438E+03  0.7561462E-02  0.1108631E+00
         22   -1    0    0    0    0  0.00000000000E+00  0.00000000000E+00  0.16297110216E+03  0.16297110216E+03  0.00000000000E+00 0. -1.
         22   -1    0    0    0    0 -0.00000000000E+00 -0.00000000000E+00 -0.16194604835E+04  0.16194604835E+04  0.00000000000E+00 0.  1.
         24    2    1    2    0    0  0.36151693284E+02  0.49797039451E+02 -0.14837741982E+04  0.14871767153E+04  0.79511138940E+02 0.  0.
         25    2    1    2    0    0 -0.53915348038E+02 -0.11265290315E+02 -0.76592404158E+02  0.15667714175E+03  0.12509020286E+03 0.  0.
        -24    2    1    2    0    0  0.17763654754E+02 -0.38531749136E+02  0.10387722105E+03  0.13857772858E+03  0.81320764169E+02 0.  0.
        -11    1    3    3    0    0  0.19378859515E+02  0.46200999540E+02 -0.14267232526E+04  0.14276026450E+04  0.00000000000E+00 0.  1.
         12    1    3    3    0    0  0.16772833768E+02  0.35960399112E+01 -0.57050945569E+02  0.59574070248E+02  0.00000000000E+00 0. -1.
         13    1    5    5    0    0 -0.20745270856E+02 -0.39309021801E+02  0.84464653622E+02  0.95445498423E+02  0.00000000000E+00 0. -1.
        -14    1    5    5    0    0  0.38508925611E+02  0.77727266535E+00  0.19412567425E+02  0.43132230159E+02  0.00000000000E+00 0.  1.
          5    1    4    4  501    0 -0.15834407201E+02 -0.37346041205E+02  0.23008276608E+02  0.46822093477E+02  0.41800000000E+01 0. -1.
         -5    1    4    4    0  501 -0.38080940837E+02  0.26080750889E+02 -0.99600680766E+02  0.10985504827E+03  0.41800000000E+01 0. -1.
</event>
<event>
11    1  0.8974665E-009  0.1436779E+03  0.7561462E-02  0.1103520E+00
         22   -1    0    0    0    0  0.00000000000E+00  0.00000000000E+00  0.10389586532E+04  0.10389586532E+04  0.00000000000E+00 0. -1.
         22   -1    0    0    0    0 -0.00000000000E+00 -0.00000000000E+00 -0.22747126463E+04  0.22747126463E+04  0.00000000000E+00 0. -1.
        -24    2    1    2    0    0 -0.30967773509E+02  0.24423898569E+02 -0.22319948287E+04  0.22338231676E+04  0.81298824793E+02 0.  0.
         25    2    1    2    0    0 -0.42015853399E+02 -0.22843373357E+02  0.77666907932E+02  0.15484746103E+03  0.12513367235E+03 0.  0.
         24    2    1    2    0    0  0.72983626908E+02 -0.15805252117E+01  0.91857392758E+03  0.92500067088E+03  0.80740775571E+02 0.  0.
        -13    1    5    5    0    0 -0.55755752807E+01  0.11966629024E+02  0.41036628561E+03  0.41057858640E+03  0.00000000000E+00 0.  1.
         14    1    5    5    0    0  0.78559202189E+02 -0.13547154236E+02  0.50820764197E+03  0.51442208447E+03  0.00000000000E+00 0. -1.
         13    1    3    3    0    0 -0.58293106734E+02  0.90179332716E+01 -0.14459088623E+04  0.14471115532E+04  0.00000000000E+00 0. -1.
        -14    1    3    3    0    0  0.27325333225E+02  0.15405965297E+02 -0.78608596640E+03  0.78671161436E+03  0.00000000000E+00 0.  1.
          5    1    4    4  501    0 -0.57664852103E+02  0.39133151120E+02  0.37696134681E+02  0.79341727070E+02  0.41800000000E+01 0.  1.
         -5    1    4    4    0  501  0.15648998703E+02 -0.61976524477E+02  0.39970773251E+02  0.75505733961E+02  0.41800000000E+01 0.  1.
</event>
<event>
11    1  0.8974665E-009  0.1320988E+03  0.7561462E-02  0.1116717E+00
         22   -1    0    0    0    0  0.00000000000E+00  0.00000000000E+00  0.28993102895E+04  0.28993102895E+04  0.00000000000E+00 0. -1.
         22   -1    0    0    0    0 -0.00000000000E+00 -0.00000000000E+00 -0.10167407621E+03  0.10167407621E+03  0.00000000000E+00 0. -1.
         24    2    1    2    0    0 -0.18399691989E+02  0.37559543837E+02 -0.72921001601E+02  0.11764789467E+03  0.82306054748E+02 0.  0.
         25    2    1    2    0    0  0.60089579966E+02 -0.49180370558E+02  0.10076364219E+04  0.10183361894E+04  0.12509184413E+03 0.  0.
        -24    2    1    2    0    0 -0.41689887978E+02  0.11620826721E+02  0.18629207930E+04  0.18650002817E+04  0.76675153230E+02 0.  0.
        -11    1    3    3    0    0  0.18626212065E+02 -0.17768687149E+02 -0.20968281024E+02  0.33201367863E+02  0.00000000000E+00 0.  1.
         12    1    3    3    0    0 -0.37025904053E+02  0.55328230986E+02 -0.51952720577E+02  0.84446526810E+02  0.00000000000E+00 0. -1.
         11    1    5    5    0    0 -0.20000571661E+02 -0.19192534454E+02  0.14734885137E+04  0.14737492244E+04  0.00000000000E+00 0. -1.
        -12    1    5    5    0    0 -0.21689316316E+02  0.30813361175E+02  0.38943227933E+03  0.39125105732E+03  0.00000000000E+00 0.  1.
          5    1    4    4  501    0  0.24743402636E+02  0.26924393089E+02  0.95632317085E+02  0.10247034395E+03  0.41800000000E+01 0.  1.
         -5    1    4    4    0  501  0.35346177330E+02 -0.76104763647E+02  0.91200410478E+03  0.91586584544E+03  0.41800000000E+01 0.  1.
</event>
<event>
11    1  0.8974665E-009  0.1373458E+03  0.7561462E-02  0.1110559E+00
         22   -1    0    0    0    0  0.00000000000E+00  0.00000000000E+00  0.89212352638E+03  0.89212352638E+03  0.00000000000E+00 0. -1.
         22   -1    0    0    0    0 -0.00000000000E+00 -0.00000000000E+00 -0.21050098620E+03  0.21050098620E+03  0.00000000000E+00 0.  1.
         24    2    1    2    0    0  0.38635000967E+02  0.41550106887E+00 -0.17787751915E+03  0.20014374510E+03  0.83212204295E+02 0.  0.
         25    2    1    2    0    0 -0.93021481456E+01 -0.54616103672E+02  0.31508837054E+03  0.34350716121E+03  0.12508812817E+03 0.  0.
        -24    2    1    2    0    0 -0.29332852822E+02  0.54200602603E+02  0.54441168880E+03  0.55897360627E+03  0.11076680022E+03 0.  0.
        -11    1    3    3    0    0  0.54832349323E+02 -0.46061212675E+01 -0.17434438666E+03  0.18282168374E+03  0.00000000000E+00 0.  1.
         12    1    3    3    0    0 -0.16197348356E+02  0.50216223363E+01 -0.35331324893E+01  0.17322061362E+02  0.00000000000E+00 0. -1.
         13    1    5    5    0    0  0.18243344443E+02  0.10346844424E+02  0.40205901514E+03  0.40260567365E+03  0.00000000000E+00 0. -1.
        -14    1    5    5    0    0 -0.47576197264E+02  0.43853758178E+02  0.14235267366E+03  0.15636793262E+03  0.00000000000E+00 0.  1.
          5    1    4    4  501    0 -0.21121433914E+02  0.27142148618E+02  0.27418698312E+02  0.44182220625E+02  0.41800000000E+01 0.  1.
         -5    1    4    4    0  501  0.11819285768E+02 -0.81758252290E+02  0.28766967223E+03  0.29932494058E+03  0.41800000000E+01 0.  1.
</event>
<event>
11    1  0.8974665E-009  0.1754918E+03  0.7561462E-02  0.1073349E+00
         22   -1    0    0    0    0  0.00000000000E+00  0.00000000000E+00  0.65630983187E+03  0.65630983187E+03  0.00000000000E+00 0.  1.
         22   -1    0    0    0    0 -0.00000000000E+00 -0.00000000000E+00 -0.50511950524E+03  0.50511950524E+03  0.00000000000E+00 0. -1.
        -24    2    1    2    0    0  0.42131043657E+02  0.54313148091E+02 -0.44684424493E+03  0.45928855088E+03  0.80939797703E+02 0.  0.
         25    2    1    2    0    0  0.69695857470E+02 -0.11059250969E+03  0.16749662404E+03  0.24655780374E+03  0.12508963096E+03 0.  0.
         24    2    1    2    0    0 -0.11182690113E+03  0.56279361595E+02  0.43053794752E+03  0.45558298248E+03  0.80748419899E+02 0.  0.
        -13    1    5    5    0    0 -0.11821903935E+03  0.60457932876E+02  0.34444639956E+03  0.36915338964E+03  0.00000000000E+00 0.  1.
         14    1    5    5    0    0  0.63921382218E+01 -0.41785712811E+01  0.86091547962E+02  0.86429592845E+02  0.00000000000E+00 0. -1.
         11    1    3    3    0    0  0.53021826951E+02  0.22792243821E+02 -0.38236016134E+03  0.38669121207E+03  0.00000000000E+00 0. -1.
        -12    1    3    3    0    0 -0.10890783294E+02  0.31520904270E+02 -0.64484083589E+02  0.72597338815E+02  0.00000000000E+00 0.  1.
          5    1    4    4  501    0 -0.25314855215E+02 -0.72502558789E+02  0.55964481924E+02  0.95115501168E+02  0.41800000000E+01 0.  1.
         -5    1    4    4    0  501  0.95010712686E+02 -0.38089950898E+02  0.11153214212E+03  0.15144230258E+03  0.41800000000E+01 0.  1.
</event>
<event>
11    1  0.8974665E-009  0.1270268E+03  0.7561462E-02  0.1122977E+00
         22   -1    0    0    0    0  0.00000000000E+00  0.00000000000E+00  0.15844948762E+04  0.15844948762E+04  0.00000000000E+00 0. -1.
         22   -1    0    0    0    0 -0.00000000000E+00 -0.00000000000E+00 -0.19767722550E+03  0.19767722550E+03  0.00000000000E+00 0. -1.
         24    2    1    2    0    0 -0.21238997166E+02 -0.67255355740E+01 -0.18059731739E+03  0.19878381726E+03  0.80020541885E+02 0.  0.
         25    2    1    2    0    0  0.10315051271E+02 -0.47230244128E+01  0.62661890155E+03  0.63908382058E+03  0.12509266449E+03 0.  0.
        -24    2    1    2    0    0  0.10923945895E+02  0.11448559987E+02  0.94079606657E+03  0.94430446388E+03  0.79770166752E+02 0.  0.
        -11    1    3    3    0    0 -0.38255325699E+02 -0.29978946259E+02 -0.75364001788E+02  0.89676863954E+02  0.00000000000E+00 0.  1.
         12    1    3    3    0    0  0.17016328534E+02  0.23253410685E+02 -0.10523331561E+03  0.10910695330E+03  0.00000000000E+00 0. -1.
         11    1    5    5    0    0  0.35488496415E+02  0.30156086900E+02  0.69818107323E+03  0.69973254460E+03  0.00000000000E+00 0. -1.
        -12    1    5    5    0    0 -0.24564550521E+02 -0.18707526913E+02  0.24261499334E+03  0.24457191928E+03  0.00000000000E+00 0.  1.
          5    1    4    4  501    0  0.28557094528E+02  0.10643989501E+02  0.33539014965E+02  0.45509780105E+02  0.41800000000E+01 0.  1.
         -5    1    4    4    0  501 -0.18242043257E+02 -0.15367013914E+02  0.59307988658E+03  0.59357404048E+03  0.41800000000E+01 0.  1.
</event>
<event>
11    1  0.8974665E-009  0.1281943E+03  0.7561462E-02  0.1121508E+00
         22   -1    0    0    0    0  0.00000000000E+00  0.00000000000E+00  0.54065365195E+03  0.54065365195E+03  0.00000000000E+00 0.  1.
         22   -1    0    0    0    0 -0.00000000000E+00 -0.00000000000E+00 -0.62381781562E+03  0.62381781562E+03  0.00000000000E+00 0.  1.
        -24    2    1    2    0    0  0.13709646961E+02  0.14692000525E+02 -0.59718014229E+03  0.60281064688E+03  0.79704104915E+02 0.  0.
         25    2    1    2    0    0 -0.26835692452E+02  0.11669564337E+02  0.21547717188E+03  0.25086503290E+03  0.12508605041E+03 0.  0.
         24    2    1    2    0    0  0.13126045491E+02 -0.26361564862E+02  0.29853880674E+03  0.31079578779E+03  0.81248860948E+02 0.  0.
        -11    1    5    5    0    0  0.29484257757E+02 -0.22324592150E+02  0.28915404891E+03  0.29150947304E+03  0.00000000000E+00 0.  1.
         12    1    5    5    0    0 -0.16358212266E+02 -0.40369727118E+01  0.93847578345E+01  0.19286314755E+02  0.00000000000E+00 0. -1.
         13    1    3    3    0    0 -0.18789140205E+02 -0.55935697320E+01 -0.42437980769E+02  0.46747214075E+02  0.00000000000E+00 0. -1.
        -14    1    3    3    0    0  0.32498787166E+02  0.20285570257E+02 -0.55474216152E+03  0.55606343280E+03  0.00000000000E+00 0.  1.
          5    1    4    4  501    0 -0.62556640465E+02  0.40566166009E+02  0.17182835680E+03  0.18735368609E+03  0.41800000000E+01 0. -1.
         -5    1    4    4    0  501  0.35720948013E+02 -0.28896601672E+02  0.43648815080E+02  0.63511346805E+02  0.41800000000E+01 0. -1.
</event>
<event>
11    1  0.8974665E-009  0.2553161E+03  0.7561462E-02  0.1021105E+00
         22   -1    0    0    0    0  0.00000000000E+00  0.00000000000E+00  0.16653075213E+04  0.16653075213E+04  0.00000000000E+00 0. -1.
         22   -1    0    0    0    0 -0.00000000000E+00 -0.00000000000E+00 -0.10422136881E+04  0.10422136881E+04  0.00000000000E+00 0. -1.
        -24    2    1    2    0    0 -0.91543145561E+02  0.20352747629E+03 -0.10079590601E+04  0.10350229041E+04  0.74076744221E+02 0.  0.
         25    2    1    2    0    0  0.10446092035E+03 -0.16273871360E+03  0.69336964771E+03  0.73061966851E+03  0.12509060261E+03 0.  0.
         24    2    1    2    0    0 -0.12917774791E+02 -0.40788762688E+02  0.93768324565E+03  0.94187863681E+03  0.77813271603E+02 0.  0.
        -13    1    5    5    0    0  0.22765425581E+02  0.41700319646E+01  0.48777558240E+03  0.48832435179E+03  0.00000000000E+00 0.  1.
         14    1    5    5    0    0 -0.35683200372E+02 -0.44958794652E+02  0.44990766325E+03  0.45355428501E+03  0.00000000000E+00 0. -1.
         11    1    3    3    0    0 -0.78995436766E+02  0.10018347290E+03 -0.64151970461E+03  0.65408297538E+03  0.00000000000E+00 0. -1.
        -12    1    3    3    0    0 -0.12547708795E+02  0.10334400339E+03 -0.36643935550E+03  0.38093992872E+03  0.00000000000E+00 0.  1.
          5    1    4    4  501    0  0.62216477403E+02 -0.13346971897E+03  0.63870117033E+03  0.65547060447E+03  0.41800000000E+01 0. -1.
         -5    1    4    4    0  501  0.42244442949E+02 -0.29268994637E+02  0.54668477380E+02  0.75149064041E+02  0.41800000000E+01 0. -1.
</event>
<event>
11    1  0.8974665E-009  0.1443435E+03  0.7561462E-02  0.1102803E+00
         22   -1    0    0    0    0  0.00000000000E+00  0.00000000000E+00  0.17199323790E+04  0.17199323790E+04  0.00000000000E+00 0. -1.
         22   -1    0    0    0    0 -0.00000000000E+00 -0.00000000000E+00 -0.47483087121E+03  0.47483087121E+03  0.00000000000E+00 0.  1.
         24    2    1    2    0    0  0.59776204367E+02 -0.54833280861E+02 -0.27231331643E+03  0.29532203470E+03  0.80502661911E+02 0.  0.
         25    2    1    2    0    0 -0.41956616190E+02  0.32345710951E+02 -0.16567474271E+03  0.21424819494E+03  0.12509023145E+03 0.  0.
        -24    2    1    2    0    0 -0.17819588177E+02  0.22487569909E+02  0.16830895670E+04  0.16851930206E+04  0.79131521880E+02 0.  0.
        -13    1    3    3    0    0  0.16280908942E+02 -0.54634443982E+01 -0.18599431126E+03  0.18678544119E+03  0.00000000000E+00 0.  1.
         14    1    3    3    0    0  0.43495295425E+02 -0.49369836463E+02 -0.86319005178E+02  0.10853659351E+03  0.00000000000E+00 0. -1.
         13    1    5    5    0    0 -0.14510527672E+02 -0.20289931601E+02  0.11839670205E+04  0.11842297675E+04  0.00000000000E+00 0. -1.
        -14    1    5    5    0    0 -0.33090605046E+01  0.42777501510E+02  0.49912254646E+03  0.50096325305E+03  0.00000000000E+00 0.  1.
          5    1    4    4  501    0 -0.43894829328E+02 -0.21808771777E+02 -0.11144266112E+02  0.50438533240E+02  0.41800000000E+01 0. -1.
         -5    1    4    4    0  501  0.19382131381E+01  0.54154482728E+02 -0.15453047660E+03  0.16380966170E+03  0.41800000000E+01 0. -1.
</event>
<event>
11    1  0.8974665E-009  0.1514101E+03  0.7561462E-02  0.1095447E+00
         22   -1    0    0    0    0  0.00000000000E+00  0.00000000000E+00  0.86203659338E+03  0.86203659338E+03  0.00000000000E+00 0. -1.
         22   -1    0    0    0    0 -0.00000000000E+00 -0.00000000000E+00 -0.47218391511E+03  0.47218391511E+03  0.00000000000E+00 0. -1.
        -24    2    1    2    0    0 -0.60024960987E+02  0.69737326826E+02 -0.29432987143E+03  0.31878610972E+03  0.80797399955E+02 0.  0.
         25    2    1    2    0    0  0.80673744988E+02 -0.12555490077E+02 -0.12818118460E+03  0.19683438445E+03  0.12508982915E+03 0.  0.
         24    2    1    2    0    0 -0.20648784001E+02 -0.57181836749E+02  0.81236373431E+03  0.81860001432E+03  0.80467458571E+02 0.  0.
        -13    1    5    5    0    0 -0.36860890527E+02 -0.10973723377E+02  0.16657332303E+03  0.17095560769E+03  0.00000000000E+00 0.  1.
         14    1    5    5    0    0  0.16212106526E+02 -0.46208113372E+02  0.64579041128E+03  0.64764440663E+03  0.00000000000E+00 0. -1.
         11    1    3    3    0    0 -0.75229842049E+02  0.62307455230E+02 -0.28020363717E+03  0.29674201994E+03  0.00000000000E+00 0. -1.
        -12    1    3    3    0    0  0.15204881062E+02  0.74298715961E+01 -0.14126234261E+02  0.22044089785E+02  0.00000000000E+00 0.  1.
          5    1    4    4  501    0  0.16065494004E+02  0.53248568870E+02 -0.36052133450E+02  0.66413394060E+02  0.41800000000E+01 0. -1.
         -5    1    4    4    0  501  0.64608250984E+02 -0.65804058948E+02 -0.92129051152E+02  0.13042099039E+03  0.41800000000E+01 0. -1.
</event>
<event>
11    1  0.8974665E-009  0.1278912E+03  0.7561462E-02  0.1121887E+00
         22   -1    0    0    0    0  0.00000000000E+00  0.00000000000E+00  0.41922965207E+03  0.41922965207E+03  0.00000000000E+00 0.  1.
         22   -1    0    0    0    0 -0.00000000000E+00 -0.00000000000E+00 -0.23640976350E+03  0.23640976350E+03  0.00000000000E+00 0. -1.
         24    2    1    2    0    0 -0.42075082233E+01  0.93506658185E+01 -0.15478169991E+03  0.17469974555E+03  0.80358499191E+02 0.  0.
         25    2    1    2    0    0 -0.47895370734E+01 -0.33847847865E+02 -0.34683594240E+01  0.12972338421E+03  0.12509000928E+03 0.  0.
        -24    2    1    2    0    0  0.89970452966E+01  0.24497182046E+02  0.34106994790E+03  0.35121628582E+03  0.79643652032E+02 0.  0.
        -13    1    3    3    0    0  0.38760044226E+01  0.36679910567E+01  0.90844879514E+01  0.10535914294E+02  0.00000000000E+00 0.  1.
         14    1    3    3    0    0 -0.80835126458E+01  0.56826747619E+01 -0.16386618786E+03  0.16416383126E+03  0.00000000000E+00 0. -1.
         11    1    5    5    0    0  0.43936221384E+02  0.12888754059E+02  0.15901837120E+03  0.16547916458E+03  0.00000000000E+00 0. -1.
        -12    1    5    5    0    0 -0.34939176088E+02  0.11608427988E+02  0.18205157671E+03  0.18573712124E+03  0.00000000000E+00 0.  1.
          5    1    4    4  501    0 -0.56652009295E+02 -0.33487762479E+01 -0.29427317093E+02  0.64063280051E+02  0.41800000000E+01 0.  1.
         -5    1    4    4    0  501  0.51862472222E+02 -0.30499071617E+02  0.25958957669E+02  0.65660104156E+02  0.41800000000E+01 0.  1.
</event>
<event>
11    1  0.8974665E-009  0.1958046E+03  0.7561462E-02  0.1057531E+00
         22   -1    0    0    0    0  0.00000000000E+00  0.00000000000E+00  0.22235090898E+03  0.22235090898E+03  0.00000000000E+00 0. -1.
         22   -1    0    0    0    0 -0.00000000000E+00 -0.00000000000E+00 -0.47325436043E+03  0.47325436043E+03  0.00000000000E+00 0. -1.
        -24    2    1    2    0    0  0.45324870378E+01  0.15487882561E+03 -0.36930037377E+03  0.40843713017E+03  0.80188086279E+02 0.  0.
         25    2    1    2    0    0 -0.78272875325E+01 -0.11989271729E+03  0.84539338441E+02  0.19295295984E+03  0.12509362445E+03 0.  0.
         24    2    1    2    0    0  0.32948004947E+01 -0.34986108313E+02  0.33857583869E+02  0.94215179392E+02  0.80593303426E+02 0.  0.
        -11    1    5    5    0    0  0.39335318467E+00 -0.60519736439E+02  0.15033205560E+02  0.62360167533E+02  0.00000000000E+00 0.  1.
         12    1    5    5    0    0  0.29014473100E+01  0.25533628126E+02  0.18824378310E+02  0.31855011858E+02  0.00000000000E+00 0. -1.
         11    1    3    3    0    0 -0.28147492637E+02  0.98774261687E+02 -0.27830830721E+03  0.29665493419E+03  0.00000000000E+00 0. -1.
        -12    1    3    3    0    0  0.32679979675E+02  0.56104563919E+02 -0.90992066554E+02  0.11178219599E+03  0.00000000000E+00 0.  1.
          5    1    4    4  501    0 -0.61066542682E+02 -0.72077798347E+02  0.20336441000E+02  0.96723186891E+02  0.41800000000E+01 0. -1.
         -5    1    4    4    0  501  0.53239255150E+02 -0.47814918946E+02  0.64202897441E+02  0.96229772953E+02  0.41800000000E+01 0. -1.
</event>
<event>
11    1  0.8974665E-009  0.1340943E+03  0.7561462E-02  0.1114338E+00
         22   -1    0    0    0    0  0.00000000000E+00  0.00000000000E+00  0.17846464916E+03  0.17846464916E+03  0.00000000000E+00 0.  1.
         22   -1    0    0    0    0 -0.00000000000E+00 -0.00000000000E+00 -0.22872921537E+04  0.22872921537E+04  0.00000000000E+00 0.  1.
        -24    2    1    2    0    0  0.15111840838E+02 -0.13158787402E+02 -0.16376693576E+04  0.16397172603E+04  0.79437066410E+02 0.  0.
         25    2    1    2    0    0 -0.60716863019E+02 -0.21392304215E+01 -0.62807357929E+03  0.64328483594E+03  0.12509134813E+03 0.  0.
         24    2    1    2    0    0  0.45605022181E+02  0.15298017823E+02  0.15691543238E+03  0.18275470659E+03  0.80392676679E+02 0.  0.
        -11    1    5    5    0    0  0.68488019751E+02  0.16980036105E+02  0.12311423731E+03  0.14190153595E+03  0.00000000000E+00 0.  1.
         12    1    5    5    0    0 -0.22882997570E+02 -0.16820182815E+01  0.33801195064E+02  0.40853170636E+02  0.00000000000E+00 0. -1.
         11    1    3    3    0    0  0.31672834018E+01  0.33367116186E+02 -0.59742551644E+03  0.59836497543E+03  0.00000000000E+00 0. -1.
        -12    1    3    3    0    0  0.11944557436E+02 -0.46525903588E+02 -0.10402438411E+04  0.10413522849E+04  0.00000000000E+00 0.  1.
          5    1    4    4  501    0  0.27085997803E+02 -0.47376551619E+00 -0.38898183012E+02  0.47585888374E+02  0.41800000000E+01 0.  1.
         -5    1    4    4    0  501 -0.87802860822E+02 -0.16654649053E+01 -0.58917539628E+03  0.59569894756E+03  0.41800000000E+01 0.  1.
</event>
<event>
11    1  0.8974665E-009  0.1472999E+03  0.7561462E-02  0.1099670E+00
         22   -1    0    0    0    0  0.00000000000E+00  0.00000000000E+00  0.10710479097E+04  0.10710479097E+04  0.00000000000E+00 0.  1.
         22   -1    0    0    0    0 -0.00000000000E+00 -0.00000000000E+00 -0.55783946304E+03  0.55783946304E+03  0.00000000000E+00 0. -1.
        -24    2    1    2    0    0  0.77795110274E+02  0.92347937940E+01 -0.53882805973E+03  0.55053565060E+03  0.81341650026E+02 0.  0.
         25    2    1    2    0    0 -0.31585459050E+02 -0.24569497644E+02  0.44462465116E+03  0.46361599333E+03  0.12508959756E+03 0.  0.
         24    2    1    2    0    0 -0.46209651224E+02  0.15334703850E+02  0.60741185521E+03  0.61473572877E+03  0.81119475898E+02 0.  0.
        -11    1    5    5    0    0 -0.18645286709E+00  0.32896217501E+02  0.40821730072E+03  0.40954067014E+03  0.00000000000E+00 0.  1.
         12    1    5    5    0    0 -0.46023198357E+02 -0.17561513651E+02  0.19919455448E+03  0.20519505863E+03  0.00000000000E+00 0. -1.
         13    1    3    3    0    0  0.91716276138E+02  0.45125052757E+01 -0.37621790678E+03  0.38726238056E+03  0.00000000000E+00 0. -1.
        -14    1    3    3    0    0 -0.13921165864E+02  0.47222885183E+01 -0.16261015295E+03  0.16327327005E+03  0.00000000000E+00 0.  1.
          5    1    4    4  501    0 -0.58180750705E+02  0.16146347841E+02  0.11090158331E+03  0.12634214611E+03  0.41800000000E+01 0. -1.
         -5    1    4    4    0  501  0.26595291655E+02 -0.40715845484E+02  0.33372306784E+03  0.33727384723E+03  0.41800000000E+01 0. -1.
</event>
<event>
11    1  0.8974665E-009  0.1605491E+03  0.7561462E-02  0.1086562E+00
         22   -1    0    0    0    0  0.00000000000E+00  0.00000000000E+00  0.97642917118E+03  0.97642917118E+03  0.00000000000E+00 0.  1.
         22   -1    0    0    0    0 -0.00000000000E+00 -0.00000000000E+00 -0.10368163699E+04  0.10368163699E+04  0.00000000000E+00 0. -1.
        -24    2    1    2    0    0 -0.29722095939E+01  0.19744711983E+02 -0.92536897560E+03  0.92908060433E+03  0.80525403847E+02 0.  0.
         25    2    1    2    0    0  0.64845817038E+02  0.60385589413E+02 -0.49032053710E+02  0.16093249441E+03  0.12507488185E+03 0.  0.
         24    2    1    2    0    0 -0.61873607444E+02 -0.80130301397E+02  0.91401383054E+03  0.92323244238E+03  0.81778063955E+02 0.  0.
        -13    1    5    5    0    0 -0.28964829445E+02 -0.87769137996E+02  0.75725418154E+03  0.76287369754E+03  0.00000000000E+00 0.  1.
         14    1    5    5    0    0 -0.32908777998E+02  0.76388365991E+01  0.15675964900E+03  0.16035874484E+03  0.00000000000E+00 0. -1.
         11    1    3    3    0    0 -0.19278238577E+02  0.45432461578E+02 -0.68829732810E+03  0.69006446866E+03  0.00000000000E+00 0. -1.
        -12    1    3    3    0    0  0.16306028983E+02 -0.25687749595E+02 -0.23707164750E+03  0.23901613567E+03  0.00000000000E+00 0.  1.
          5    1    4    4  501    0  0.76410122048E+02  0.89593819741E+02 -0.23295007821E+02  0.12010699012E+03  0.41800000000E+01 0.  1.
         -5    1    4    4    0  501 -0.11564305010E+02 -0.29208230328E+02 -0.25737045889E+02  0.40825504288E+02  0.41800000000E+01 0.  1.
</event>
<event>
11    1  0.8974665E-009  0.1424655E+03  0.7561462E-02  0.1104836E+00
         22   -1    0    0    0    0  0.00000000000E+00  0.00000000000E+00  0.14416223430E+04  0.14416223430E+04  0.00000000000E+00 0.  1.
         22   -1    0    0    0    0 -0.00000000000E+00 -0.00000000000E+00 -0.70562524769E+03  0.70562524769E+03  0.00000000000E+00 0.  1.
         24    2    1    2    0    0  0.66401315764E+02 -0.15505708983E+02 -0.67984958492E+03  0.68806652496E+03  0.81182035614E+02 0.  0.
         25    2    1    2    0    0 -0.79024327882E+02 -0.42277396498E+02  0.28191394826E+03  0.32117827331E+03  0.12509111228E+03 0.  0.
        -24    2    1    2    0    0  0.12623012118E+02  0.57783105481E+02  0.11339327320E+04  0.11380027924E+04  0.75820097633E+02 0.  0.
        -13    1    3    3    0    0 -0.52708314814E+01  0.17390031711E+02 -0.27549599023E+03  0.27609461331E+03  0.00000000000E+00 0.  1.
         14    1    3    3    0    0  0.71672147245E+02 -0.32895740694E+02 -0.40435359470E+03  0.41197191165E+03  0.00000000000E+00 0. -1.
         13    1    5    5    0    0  0.27659850982E+02 -0.12536716699E+01  0.59380985396E+03  0.59445502918E+03  0.00000000000E+00 0. -1.
        -14    1    5    5    0    0 -0.15036838864E+02  0.59036777151E+02  0.54012287803E+03  0.54354776327E+03  0.00000000000E+00 0.  1.
          5    1    4    4  501    0 -0.12941174652E+02 -0.10592271076E+02  0.23146986270E+03  0.23211083548E+03  0.41800000000E+01 0. -1.
         -5    1    4    4    0  501 -0.66083153230E+02 -0.31685125422E+02  0.50444085560E+02  0.89067437831E+02  0.41800000000E+01 0. -1.
</event>
<event>
11    1  0.8974665E-009  0.1416865E+03  0.7561462E-02  0.1105690E+00
         22   -1    0    0    0    0  0.00000000000E+00  0.00000000000E+00  0.50478795969E+03  0.50478795969E+03  0.00000000000E+00 0.  1.
         22   -1    0    0    0    0 -0.00000000000E+00 -0.00000000000E+00 -0.64550708554E+03  0.64550708554E+03  0.00000000000E+00 0. -1.
        -24    2    1    2    0    0 -0.48035613604E+02  0.46702176351E+02 -0.59180943616E+03  0.60005491636E+03  0.73068327400E+02 0.  0.
         25    2    1    2    0    0  0.16481191498E+02 -0.60810497001E+02  0.70080532975E+02  0.15660793236E+03  0.12508084249E+03 0.  0.
         24    2    1    2    0    0  0.31554422106E+02  0.14108320650E+02  0.38100977734E+03  0.39363219651E+03  0.92645180323E+02 0.  0.
        -13    1    5    5    0    0  0.48367252736E+02  0.39918317302E+02  0.30918416965E+03  0.31548013243E+03  0.00000000000E+00 0.  1.
         14    1    5    5    0    0 -0.16812830630E+02 -0.25809996652E+02  0.71825607688E+02  0.78152064085E+02  0.00000000000E+00 0. -1.
         13    1    3    3    0    0 -0.43730444357E+02  0.59671463126E+02 -0.56633665789E+03  0.57114818160E+03  0.00000000000E+00 0. -1.
        -14    1    3    3    0    0 -0.43051692469E+01 -0.12969286775E+02 -0.25472778277E+02  0.28906734766E+02  0.00000000000E+00 0.  1.
          5    1    4    4  501    0 -0.54427952861E+02 -0.21952150642E+02  0.34127098857E+02  0.68017867115E+02  0.41800000000E+01 0. -1.
         -5    1    4    4    0  501  0.70909144359E+02 -0.38858346358E+02  0.35953434118E+02  0.88590065246E+02  0.41800000000E+01 0. -1.
</event>
<event>
11    1  0.8974665E-009  0.1330199E+03  0.7561462E-02  0.1115613E+00
         22   -1    0    0    0    0  0.00000000000E+00  0.00000000000E+00  0.13397960810E+04  0.13397960810E+04  0.00000000000E+00 0. -1.
         22   -1    0    0    0    0 -0.00000000000E+00 -0.00000000000E+00 -0.13162207230E+03  0.13162207230E+03  0.00000000000E+00 0. -1.
        -24    2    1    2    0    0  0.21084666926E+02  0.22453028682E+01 -0.91189581460E+02  0.12580467515E+03  0.84033754871E+02 0.  0.
         25    2    1    2    0    0 -0.39744892592E+02  0.38305786193E+02  0.19935137875E+03  0.24173529704E+03  0.12509193373E+03 0.  0.
         24    2    1    2    0    0  0.18660225666E+02 -0.40551089061E+02  0.11000122114E+04  0.11038781811E+04  0.80793431946E+02 0.  0.
        -11    1    5    5    0    0 -0.31931438589E+01 -0.30183510960E+02  0.12741469848E+03  0.13097994461E+03  0.00000000000E+00 0.  1.
         12    1    5    5    0    0  0.21853369525E+02 -0.10367578101E+02  0.97259751296E+03  0.97289823653E+03  0.00000000000E+00 0. -1.
         11    1    3    3    0    0  0.41675789508E+02 -0.20171676625E+02 -0.81723239965E+02  0.93927929389E+02  0.00000000000E+00 0. -1.
        -12    1    3    3    0    0 -0.20591122582E+02  0.22416979494E+02 -0.94663414955E+01  0.31876745758E+02  0.00000000000E+00 0.  1.
          5    1    4    4  501    0 -0.43811099810E+02  0.16686488443E+02  0.21121430423E+03  0.21639502322E+03  0.41800000000E+01 0. -1.
         -5    1    4    4    0  501  0.40662072176E+01  0.21619297749E+02 -0.11862925482E+02  0.25340273820E+02  0.41800000000E+01 0. -1.
</event>
<event>
11    1  0.8974665E-009  0.1551819E+03  0.7561462E-02  0.1091698E+00
         22   -1    0    0    0    0  0.00000000000E+00  0.00000000000E+00  0.12166145815E+04  0.12166145815E+04  0.00000000000E+00 0.  1.
         22   -1    0    0    0    0 -0.00000000000E+00 -0.00000000000E+00 -0.12249624834E+03  0.12249624834E+03  0.00000000000E+00 0.  1.
        -24    2    1    2    0    0  0.12525351709E+02  0.46057482537E+02 -0.50144673581E+02  0.10458356561E+03  0.78390418891E+02 0.  0.
         25    2    1    2    0    0 -0.90905242748E+02 -0.87259080079E+02  0.15317237739E+03  0.23449349812E+03  0.12509002057E+03 0.  0.
         24    2    1    2    0    0  0.78379891039E+02  0.41201597542E+02  0.99109062939E+03  0.10000337662E+04  0.99829448807E+02 0.  0.
        -13    1    5    5    0    0  0.68881535074E+02 -0.12677440813E+02  0.72511625671E+03  0.72849088472E+03  0.00000000000E+00 0.  1.
         14    1    5    5    0    0  0.94983559646E+01  0.53879038354E+02  0.26597437269E+03  0.27154288145E+03  0.00000000000E+00 0. -1.
         11    1    3    3    0    0 -0.47073712050E+01  0.46535849112E+02  0.47800050582E+01  0.47016944229E+02  0.00000000000E+00 0. -1.
        -12    1    3    3    0    0  0.17232722914E+02 -0.47836657477E+00 -0.54924678639E+02  0.57566621381E+02  0.00000000000E+00 0.  1.
          5    1    4    4  501    0  0.23850606196E+02 -0.39258209906E+02  0.73310587317E+02  0.86613931176E+02  0.41800000000E+01 0. -1.
         -5    1    4    4    0  501 -0.11475584894E+03 -0.48000870173E+02  0.79861790076E+02  0.14787956694E+03  0.41800000000E+01 0. -1.
</event>
<event>
11    1  0.8974665E-009  0.1321470E+03  0.7561462E-02  0.1116659E+00
         22   -1    0    0    0    0  0.00000000000E+00  0.00000000000E+00  0.69530204627E+03  0.69530204627E+03  0.00000000000E+00 0.  1.
         22   -1    0    0    0    0 -0.00000000000E+00 -0.00000000000E+00 -0.18473957925E+03  0.18473957925E+03  0.00000000000E+00 0. -1.
        -24    2    1    2    0    0  0.33669240505E+02 -0.47450514264E+02 -0.78419623553E+02  0.12683917936E+03  0.80952893733E+02 0.  0.
         25    2    1    2    0    0 -0.10804012749E+02  0.47194806251E+01 -0.28008220777E+02  0.12872463723E+03  0.12508625668E+03 0.  0.
         24    2    1    2    0    0 -0.22865227756E+02  0.42731033639E+02  0.61699031135E+03  0.62447780892E+03  0.83347043450E+02 0.  0.
        -13    1    5    5    0    0 -0.27585884203E+02  0.49623562766E+02  0.61224131591E+03  0.61486820368E+03  0.00000000000E+00 0.  1.
         14    1    5    5    0    0  0.47206564475E+01 -0.68925291264E+01  0.47489954351E+01  0.96096052311E+01  0.00000000000E+00 0. -1.
         13    1    3    3    0    0  0.80175921850E+01 -0.12505435413E+02 -0.82007085774E+02  0.83341645151E+02  0.00000000000E+00 0. -1.
        -14    1    3    3    0    0  0.25651648320E+02 -0.34945078852E+02  0.35874622215E+01  0.43497534214E+02  0.00000000000E+00 0.  1.
          5    1    4    4  501    0 -0.92382983394E+01 -0.30420457095E+02  0.40466120211E+02  0.51630704537E+02  0.41800000000E+01 0.  1.
         -5    1    4    4    0  501 -0.15657144099E+01  0.35139937720E+02 -0.68474340988E+02  0.77093932695E+02  0.41800000000E+01 0.  1.
</event>
<event>
11    1  0.8974665E-009  0.1639677E+03  0.7561462E-02  0.1083404E+00
         22   -1    0    0    0    0  0.00000000000E+00  0.00000000000E+00  0.12760992147E+04  0.12760992147E+04  0.00000000000E+00 0.  1.
         22   -1    0    0    0    0 -0.00000000000E+00 -0.00000000000E+00 -0.14971413817E+03  0.14971413817E+03  0.00000000000E+00 0.  1.
        -24    2    1    2    0    0 -0.10504836855E+03 -0.71665812913E+00 -0.97072586376E+02  0.16748298689E+03  0.87130881650E+02 0.  0.
         25    2    1    2    0    0  0.11980524234E+03 -0.19425677099E+02  0.49172556398E+03  0.52170131243E+03  0.12509027183E+03 0.  0.
         24    2    1    2    0    0 -0.14756873786E+02  0.20142335228E+02  0.73173209894E+03  0.73662905356E+03  0.81037145350E+02 0.  0.
        -13    1    5    5    0    0 -0.51163614282E+01 -0.47758032543E+01  0.66071863912E+03  0.66075570791E+03  0.00000000000E+00 0.  1.
         14    1    5    5    0    0 -0.96405123578E+01  0.24918138482E+02  0.71013459825E+02  0.75873345651E+02  0.00000000000E+00 0. -1.
         11    1    3    3    0    0 -0.95724689630E+01  0.27080438798E+02 -0.29592535988E+00  0.28724029998E+02  0.00000000000E+00 0. -1.
        -12    1    3    3    0    0 -0.95475899589E+02 -0.27797096927E+02 -0.96776661016E+02  0.13875895689E+03  0.00000000000E+00 0.  1.
          5    1    4    4  501    0  0.10621893632E+03 -0.46650206760E+02  0.46989184902E+03  0.48401913846E+03  0.41800000000E+01 0. -1.
         -5    1    4    4    0  501  0.13586306014E+02  0.27224529661E+02  0.21833714960E+02  0.37682173973E+02  0.41800000000E+01 0. -1.
</event>
<event>
11    1  0.8974665E-009  0.1387779E+03  0.7561462E-02  0.1108931E+00
         22   -1    0    0    0    0  0.00000000000E+00  0.00000000000E+00  0.58312916748E+03  0.58312916748E+03  0.00000000000E+00 0. -1.
         22   -1    0    0    0    0 -0.00000000000E+00 -0.00000000000E+00 -0.62788475096E+03  0.62788475096E+03  0.00000000000E+00 0.  1.
         24    2    1    2    0    0  0.18607346554E+01  0.44340097753E+02 -0.36511960967E+03  0.37683113269E+03  0.81974792464E+02 0.  0.
         25    2    1    2    0    0 -0.27757518976E+02 -0.97653080757E+02 -0.22646350975E+03  0.27793817736E+03  0.12512915385E+03 0.  0.
        -24    2    1    2    0    0  0.25896784321E+02  0.53312983004E+02  0.54682753594E+03  0.55624460839E+03  0.82914369696E+02 0.  0.
        -13    1    3    3    0    0  0.13084536114E+02  0.66703634378E+02 -0.27796232484E+03  0.28615316520E+03  0.00000000000E+00 0.  1.
         14    1    3    3    0    0 -0.11223801459E+02 -0.22363536624E+02 -0.87157284831E+02  0.90677967493E+02  0.00000000000E+00 0. -1.
         11    1    5    5    0    0  0.10387020262E+02  0.56091950620E+02  0.53048436603E+03  0.53354274404E+03  0.00000000000E+00 0. -1.
        -12    1    5    5    0    0  0.15509764059E+02 -0.27789676167E+01  0.16343169911E+02  0.22701864349E+02  0.00000000000E+00 0.  1.
          5    1    4    4  501    0  0.38263196934E+00  0.29919517451E+02 -0.48309911103E+02  0.56979328203E+02  0.41800000000E+01 0.  1.
         -5    1    4    4    0  501 -0.28140150945E+02 -0.12757259821E+03 -0.17815359865E+03  0.22095884916E+03  0.41800000000E+01 0.  1.
</event>
<event>
11    1  0.8974665E-009  0.1326168E+03  0.7561462E-02  0.1116095E+00
         22   -1    0    0    0    0  0.00000000000E+00  0.00000000000E+00  0.90407615189E+02  0.90407615189E+02  0.00000000000E+00 0. -1.
         22   -1    0    0    0    0 -0.00000000000E+00 -0.00000000000E+00 -0.88125330481E+03  0.88125330481E+03  0.00000000000E+00 0.  1.
        -24    2    1    2    0    0 -0.36578474515E+02  0.60692547127E+01 -0.46544445614E+03  0.47381574292E+03  0.80548096456E+02 0.  0.
         25    2    1    2    0    0  0.61191718937E+02 -0.27879647478E+02 -0.37405689102E+03  0.40010798169E+03  0.12508452377E+03 0.  0.
         24    2    1    2    0    0 -0.24613244422E+02  0.21810392766E+02  0.48655657529E+02  0.97737195387E+02  0.78126060434E+02 0.  0.
        -13    1    5    5    0    0  0.10190079596E+02  0.10597504813E+02 -0.17067952667E+02  0.22526869260E+02  0.00000000000E+00 0.  1.
         14    1    5    5    0    0 -0.34803324018E+02  0.11212887953E+02  0.65723610196E+02  0.75210326127E+02  0.00000000000E+00 0. -1.
         13    1    3    3    0    0  0.12741581092E+02  0.24700047604E+02 -0.26857053769E+03  0.27000476654E+03  0.00000000000E+00 0. -1.
        -14    1    3    3    0    0 -0.49320055607E+02 -0.18630792891E+02 -0.19687391845E+03  0.20381097638E+03  0.00000000000E+00 0.  1.
          5    1    4    4  501    0  0.52405059491E+02  0.43415505120E+02 -0.21452342210E+03  0.22509768407E+03  0.41800000000E+01 0. -1.
         -5    1    4    4    0  501  0.87866594462E+01 -0.71295152598E+02 -0.15953346892E+03  0.17501029762E+03  0.41800000000E+01 0. -1.
</event>
<event>
11    1  0.8974665E-009  0.1651121E+03  0.7561462E-02  0.1082365E+00
         22   -1    0    0    0    0  0.00000000000E+00  0.00000000000E+00  0.83682214357E+03  0.83682214357E+03  0.00000000000E+00 0.  1.
         22   -1    0    0    0    0 -0.00000000000E+00 -0.00000000000E+00 -0.31285232247E+03  0.31285232247E+03  0.00000000000E+00 0. -1.
         24    2    1    2    0    0  0.73070254139E+02  0.72398732326E+02 -0.23674202005E+03  0.27172502877E+03  0.84893278426E+02 0.  0.
         25    2    1    2    0    0 -0.87405846447E+02 -0.15012790097E+03  0.16342681759E+03  0.26932178248E+03  0.12509088364E+03 0.  0.
        -24    2    1    2    0    0  0.14335592308E+02  0.77729168642E+02  0.59728502355E+03  0.60862765479E+03  0.86202609845E+02 0.  0.
        -13    1    3    3    0    0  0.40346101146E+02 -0.80068569019E+01 -0.43436152707E+02  0.59821542918E+02  0.00000000000E+00 0.  1.
         14    1    3    3    0    0  0.32724152994E+02  0.80405589228E+02 -0.19330586734E+03  0.21190348586E+03  0.00000000000E+00 0. -1.
         13    1    5    5    0    0  0.72155096870E+01 -0.17379035925E+02  0.15747463041E+03  0.15859493590E+03  0.00000000000E+00 0. -1.
        -14    1    5    5    0    0  0.71200826206E+01  0.95108204567E+02  0.43981039314E+03  0.45003271888E+03  0.00000000000E+00 0.  1.
          5    1    4    4  501    0 -0.10307045804E+03 -0.14466664632E+03  0.10054369878E+03  0.20415304466E+03  0.41800000000E+01 0.  1.
         -5    1    4    4    0  501  0.15664611590E+02 -0.54612546445E+01  0.62883118808E+02  0.65168737824E+02  0.41800000000E+01 0.  1.
</event>
<event>
11    1  0.8974665E-009  0.1283686E+03  0.7561462E-02  0.1121290E+00
         22   -1    0    0    0    0  0.00000000000E+00  0.00000000000E+00  0.33107173573E+03  0.33107173573E+03  0.00000000000E+00 0. -1.
         22   -1    0    0    0    0 -0.00000000000E+00 -0.00000000000E+00 -0.15543611481E+03  0.15543611481E+03  0.00000000000E+00 0. -1.
        -24    2    1    2    0    0  0.43725370274E+00  0.11301855725E+02 -0.93414711783E+02  0.12688861928E+03  0.85126319028E+02 0.  0.
         25    2    1    2    0    0 -0.27093927046E+02 -0.19450729317E+02  0.84776067408E+02  0.15474847916E+03  0.12509076083E+03 0.  0.
         24    2    1    2    0    0  0.26656673343E+02  0.81488735920E+01  0.18427426530E+03  0.20487075210E+03  0.85076658613E+02 0.  0.
        -13    1    5    5    0    0  0.23330359260E+02  0.27789015654E+01  0.32299231038E+01  0.23716246760E+02  0.00000000000E+00 0.  1.
         14    1    5    5    0    0  0.33263140833E+01  0.53699720266E+01  0.18104434219E+03  0.18115450534E+03  0.00000000000E+00 0. -1.
         11    1    3    3    0    0 -0.84062761917E+01  0.21705018739E+02 -0.10587519866E+03  0.10840355626E+03  0.00000000000E+00 0. -1.
        -12    1    3    3    0    0  0.88435298945E+01 -0.10403163014E+02  0.12460486877E+02  0.18485063022E+02  0.00000000000E+00 0.  1.
          5    1    4    4  501    0  0.36414806507E+02  0.25074740125E+02  0.56997059989E+02  0.72255919984E+02  0.41800000000E+01 0. -1.
         -5    1    4    4    0  501 -0.63508733553E+02 -0.44525469442E+02  0.27779007419E+02  0.82492559178E+02  0.41800000000E+01 0. -1.
</event>
<event>
11    1  0.8974665E-009  0.1469364E+03  0.7561462E-02  0.1100051E+00
         22   -1    0    0    0    0  0.00000000000E+00  0.00000000000E+00  0.74656295117E+03  0.74656295117E+03  0.00000000000E+00 0. -1.
         22   -1    0    0    0    0 -0.00000000000E+00 -0.00000000000E+00 -0.91756446099E+02  0.91756446099E+02  0.00000000000E+00 0.  1.
         24    2    1    2    0    0  0.35810487112E+02  0.63187208177E+02  0.33969477600E+02  0.11189419893E+03  0.78047242622E+02 0.  0.
         25    2    1    2    0    0 -0.27921374448E+02 -0.80181002635E+02  0.65007760672E+02  0.16456626177E+03  0.12508976470E+03 0.  0.
        -24    2    1    2    0    0 -0.78891126640E+01  0.16993794458E+02  0.55582926680E+03  0.56185893657E+03  0.79926613963E+02 0.  0.
        -13    1    3    3    0    0  0.57769184721E+02  0.51515813403E+02  0.38766646786E+02  0.86567953868E+02  0.00000000000E+00 0.  1.
         14    1    3    3    0    0 -0.21958697609E+02  0.11671394773E+02 -0.47971691854E+01  0.25326245060E+02  0.00000000000E+00 0. -1.
         11    1    5    5    0    0 -0.72324053032E+01  0.44239254360E+02  0.46148956364E+03  0.46366155401E+03  0.00000000000E+00 0. -1.
        -12    1    5    5    0    0 -0.65670736082E+00 -0.27245459902E+02  0.94339703161E+02  0.98197382563E+02  0.00000000000E+00 0.  1.
          5    1    4    4  501    0  0.12277823583E+02 -0.45311949577E+02 -0.29801633110E+02  0.55763137129E+02  0.41800000000E+01 0. -1.
         -5    1    4    4    0  501 -0.40199198031E+02 -0.34869053058E+02  0.94809393782E+02  0.10880312465E+03  0.41800000000E+01 0. -1.
</event>
<event>
11    1  0.8974665E-009  0.1519762E+03  0.7561462E-02  0.1094876E+00
         22   -1    0    0    0    0  0.00000000000E+00  0.00000000000E+00  0.26027997610E+04  0.26027997610E+04  0.00000000000E+00 0. -1.
         22   -1    0    0    0    0 -0.00000000000E+00 -0.00000000000E+00 -0.15653257070E+04  0.15653257070E+04  0.00000000000E+00 0. -1.
        -24    2    1    2    0    0  0.86392474259E+02 -0.84486901722E+01 -0.15397440006E+04  0.15443286057E+04  0.81266322763E+02 0.  0.
         25    2    1    2    0    0 -0.32221289423E+02  0.55732671918E+02  0.20211524304E+03  0.24625751175E+03  0.12509136027E+03 0.  0.
         24    2    1    2    0    0 -0.54171184835E+02 -0.47283981746E+02  0.23751028115E+04  0.23775393505E+04  0.80060639130E+02 0.  0.
        -13    1    5    5    0    0 -0.38969446027E+02 -0.20950644063E+02  0.44438049036E+03  0.44657761634E+03  0.00000000000E+00 0.  1.
         14    1    5    5    0    0 -0.15201738808E+02 -0.26333337683E+02  0.19307223211E+04  0.19309617342E+04  0.00000000000E+00 0. -1.
         11    1    3    3    0    0  0.14905745980E+02  0.22880931019E+02 -0.80251921630E+03  0.80298369274E+03  0.00000000000E+00 0. -1.
        -12    1    3    3    0    0  0.71486728278E+02 -0.31329621191E+02 -0.73722478426E+03  0.74134491299E+03  0.00000000000E+00 0.  1.
          5    1    4    4  501    0 -0.34121513634E+02  0.30213285114E+02  0.34382767707E+01  0.45895690835E+02  0.41800000000E+01 0. -1.
         -5    1    4    4    0  501  0.19002242110E+01  0.25519386804E+02  0.19867696627E+03  0.20036182092E+03  0.41800000000E+01 0. -1.
</event>
<event>
11    1  0.8974665E-009  0.1875646E+03  0.7561462E-02  0.1063683E+00
         22   -1    0    0    0    0  0.00000000000E+00  0.00000000000E+00  0.10620392033E+03  0.10620392033E+03  0.00000000000E+00 0. -1.
         22   -1    0    0    0    0 -0.00000000000E+00 -0.00000000000E+00 -0.11152475136E+04  0.11152475136E+04  0.00000000000E+00 0. -1.
         24    2    1    2    0    0 -0.12359699746E+03 -0.45272173246E+02 -0.68339313369E+03  0.70077417898E+03  0.82051735559E+02 0.  0.
         25    2    1    2    0    0  0.14963662608E+03  0.72477216369E+02 -0.36321327081E+03  0.41858750146E+03  0.12509016560E+03 0.  0.
        -24    2    1    2    0    0 -0.26039628621E+02 -0.27205043123E+02  0.37562811220E+02  0.10208975350E+03  0.87138833778E+02 0.  0.
        -11    1    3    3    0    0 -0.20186815387E+02  0.19984264255E+02 -0.74658424104E+02  0.79879650869E+02  0.00000000000E+00 0.  1.
         12    1    3    3    0    0 -0.10341018207E+03 -0.65256437501E+02 -0.60873470958E+03  0.62089452811E+03  0.00000000000E+00 0. -1.
         13    1    5    5    0    0 -0.79141974503E+01 -0.20028654401E+02  0.64975921758E+02  0.68451821938E+02  0.00000000000E+00 0. -1.
        -14    1    5    5    0    0 -0.18125431171E+02 -0.71763887220E+01 -0.27413110537E+02  0.33637931559E+02  0.00000000000E+00 0.  1.
          5    1    4    4  501    0  0.90358396287E+02 -0.25028523628E+02 -0.16710337619E+03  0.19165614394E+03  0.41800000000E+01 0. -1.
         -5    1    4    4    0  501  0.59278229791E+02  0.97505739997E+02 -0.19610989462E+03  0.22693135753E+03  0.41800000000E+01 0. -1.
</event>
<event>
11    1  0.8974665E-009  0.1430529E+03  0.7561462E-02  0.1104196E+00
         22   -1    0    0    0    0  0.00000000000E+00  0.00000000000E+00  0.22258798127E+03  0.22258798127E+03  0.00000000000E+00 0.  1.
         22   -1    0    0    0    0 -0.00000000000E+00 -0.00000000000E+00 -0.47664110219E+03  0.47664110219E+03  0.00000000000E+00 0.  1.
         24    2    1    2    0    0  0.19882004508E+02 -0.69685878217E+02 -0.39961373232E+03  0.41454189749E+03  0.83080888253E+02 0.  0.
         25    2    1    2    0    0  0.29412258162E+02  0.40900272925E+02  0.41081983694E+02  0.14096895626E+03  0.12508638610E+03 0.  0.
        -24    2    1    2    0    0 -0.49294262670E+02  0.28785605292E+02  0.10447862770E+03  0.14371822972E+03  0.80502239109E+02 0.  0.
        -11    1    3    3    0    0  0.25553709217E+02  0.68701430464E+00 -0.22111846145E+03  0.22259119039E+03  0.00000000000E+00 0.  1.
         12    1    3    3    0    0 -0.56717047094E+01 -0.70372892522E+02 -0.17849527087E+03  0.19195070711E+03  0.00000000000E+00 0. -1.
         11    1    5    5    0    0  0.12608612107E+02 -0.24475628857E+00 -0.58656843341E+01  0.13908388031E+02  0.00000000000E+00 0. -1.
        -12    1    5    5    0    0 -0.61902874776E+02  0.29030361581E+02  0.11034431204E+03  0.12980984169E+03  0.00000000000E+00 0.  1.
          5    1    4    4  501    0 -0.21135643110E+02  0.69752074033E+02  0.68684046690E+01  0.73326084201E+02  0.41800000000E+01 0. -1.
         -5    1    4    4    0  501  0.50547901272E+02 -0.28851801108E+02  0.34213579025E+02  0.67642872055E+02  0.41800000000E+01 0. -1.
</event>
<event>
11    1  0.8974665E-009  0.1403613E+03  0.7561462E-02  0.1107156E+00
         22   -1    0    0    0    0  0.00000000000E+00  0.00000000000E+00  0.25480453154E+03  0.25480453154E+03  0.00000000000E+00 0.  1.
         22   -1    0    0    0    0 -0.00000000000E+00 -0.00000000000E+00 -0.94469457990E+03  0.94469457990E+03  0.00000000000E+00 0. -1.
         24    2    1    2    0    0  0.53470910909E+02 -0.13078164310E+02 -0.74160286813E+03  0.74796774685E+03  0.80316621037E+02 0.  0.
         25    2    1    2    0    0  0.13171561151E+02  0.82611759424E+01 -0.16723188015E+03  0.20941642580E+03  0.12508797148E+03 0.  0.
        -24    2    1    2    0    0 -0.66642472060E+02  0.48169883679E+01  0.21894469992E+03  0.24211493878E+03  0.78857082763E+02 0.  0.
        -11    1    3    3    0    0  0.50797308619E+02  0.26579480117E+02 -0.46600256401E+03  0.46951594754E+03  0.00000000000E+00 0.  1.
         12    1    3    3    0    0  0.26736022899E+01 -0.39657644427E+02 -0.27560030412E+03  0.27845179931E+03  0.00000000000E+00 0. -1.
         11    1    5    5    0    0 -0.67978017957E+02  0.22620548012E+02  0.10709246847E+03  0.12884679632E+03  0.00000000000E+00 0. -1.
        -12    1    5    5    0    0  0.13355458975E+01 -0.17803559644E+02  0.11185223145E+03  0.11326814247E+03  0.00000000000E+00 0.  1.
          5    1    4    4  501    0  0.63508859787E+02  0.12153064295E+02 -0.50452230563E+02  0.82121691483E+02  0.41800000000E+01 0.  1.
         -5    1    4    4    0  501 -0.50337298636E+02 -0.38918883524E+01 -0.11677964958E+03  0.12729473432E+03  0.41800000000E+01 0.  1.
</event>
<event>
11    1  0.8974665E-009  0.2051646E+03  0.7561462E-02  0.1050930E+00
         22   -1    0    0    0    0  0.00000000000E+00  0.00000000000E+00  0.20609396652E+04  0.20609396652E+04  0.00000000000E+00 0.  1.
         22   -1    0    0    0    0 -0.00000000000E+00 -0.00000000000E+00 -0.93793228236E+02  0.93793228236E+02  0.00000000000E+00 0.  1.
        -24    2    1    2    0    0  0.18173351309E+02 -0.45789162644E+02 -0.94440673379E+01  0.94159079219E+02  0.79685780903E+02 0.  0.
         25    2    1    2    0    0 -0.84657890410E+01 -0.12191260405E+03  0.16838054068E+03  0.24274973384E+03  0.12506428024E+03 0.  0.
         24    2    1    2    0    0 -0.97075622676E+01  0.16770176669E+03  0.18082099636E+04  0.18178240804E+04  0.81504572385E+02 0.  0.
        -13    1    5    5    0    0  0.21480972599E+01  0.87530217953E+02  0.13228553796E+04  0.13257497911E+04  0.00000000000E+00 0.  1.
         14    1    5    5    0    0 -0.11855659527E+02  0.80171548737E+02  0.48535458407E+03  0.49207428928E+03  0.00000000000E+00 0. -1.
         13    1    3    3    0    0 -0.62022032289E+01 -0.52205924551E+02  0.19231505646E+02  0.55980145521E+02  0.00000000000E+00 0. -1.
        -14    1    3    3    0    0  0.24375554537E+02  0.64167619067E+01 -0.28675572984E+02  0.38178933699E+02  0.00000000000E+00 0.  1.
          5    1    4    4  501    0 -0.48820703369E+02 -0.92647159900E+02  0.16110930718E+03  0.19219947600E+03  0.41800000000E+01 0.  1.
         -5    1    4    4    0  501  0.40354914328E+02 -0.29265444146E+02  0.72712334998E+01  0.50550257843E+02  0.41800000000E+01 0.  1.
</event>
<event>
11    1  0.8974665E-009  0.2703212E+03  0.7561462E-02  0.1013598E+00
         22   -1    0    0    0    0  0.00000000000E+00  0.00000000000E+00  0.12281973605E+04  0.12281973605E+04  0.00000000000E+00 0. -1.
         22   -1    0    0    0    0 -0.00000000000E+00 -0.00000000000E+00 -0.45373771549E+03  0.45373771549E+03  0.00000000000E+00 0. -1.
         24    2    1    2    0    0  0.28003850072E+01  0.72139821687E+01 -0.23559630047E+03  0.24957533080E+03  0.81989909469E+02 0.  0.
         25    2    1    2    0    0  0.23701709984E+03 -0.85978086787E+01 -0.10569211654E+03  0.28821825832E+03  0.12509161842E+03 0.  0.
        -24    2    1    2    0    0 -0.23981748485E+03  0.13838265100E+01  0.11157480620E+04  0.11441414869E+04  0.81557728308E+02 0.  0.
        -11    1    3    3    0    0  0.32917397691E+02 -0.10672218717E+02 -0.50656753293E+02  0.61347844113E+02  0.00000000000E+00 0.  1.
         12    1    3    3    0    0 -0.30117012684E+02  0.17886200885E+02 -0.18493954718E+03  0.18822748669E+03  0.00000000000E+00 0. -1.
         11    1    5    5    0    0 -0.98828348592E+02  0.29327557791E+02  0.59765851887E+03  0.60648400911E+03  0.00000000000E+00 0. -1.
        -12    1    5    5    0    0 -0.14098913626E+03 -0.27943731282E+02  0.51808954315E+03  0.53765747775E+03  0.00000000000E+00 0.  1.
          5    1    4    4  501    0  0.12051075217E+03 -0.14466040263E+02  0.12513947824E+02  0.12209086371E+03  0.41800000000E+01 0. -1.
         -5    1    4    4    0  501  0.11650634767E+03  0.58682315845E+01 -0.11820606436E+03  0.16612739461E+03  0.41800000000E+01 0. -1.
</event>
<event>
11    1  0.8974665E-009  0.1610183E+03  0.7561462E-02  0.1086123E+00
         22   -1    0    0    0    0  0.00000000000E+00  0.00000000000E+00  0.93316592945E+03  0.93316592945E+03  0.00000000000E+00 0.  1.
         22   -1    0    0    0    0 -0.00000000000E+00 -0.00000000000E+00 -0.75872718692E+03  0.75872718692E+03  0.00000000000E+00 0.  1.
         24    2    1    2    0    0  0.74809291970E+02  0.37117669734E+02 -0.52884219970E+03  0.54128270459E+03  0.79616220271E+02 0.  0.
         25    2    1    2    0    0 -0.16493407288E+03 -0.79520155132E+02 -0.16270895952E+03  0.27504185157E+03  0.12508841329E+03 0.  0.
        -24    2    1    2    0    0  0.90124780910E+02  0.42402485399E+02  0.86598990176E+03  0.87556856021E+03  0.82227408967E+02 0.  0.
        -13    1    3    3    0    0  0.33229209077E+01  0.43437663364E+02 -0.20768077966E+03  0.21220079793E+03  0.00000000000E+00 0.  1.
         14    1    3    3    0    0  0.71486371063E+02 -0.63199936305E+01 -0.32116142004E+03  0.32908190666E+03  0.00000000000E+00 0. -1.
         13    1    5    5    0    0  0.95036831553E+02  0.31540191938E+02  0.53054114151E+03  0.53990803466E+03  0.00000000000E+00 0. -1.
        -14    1    5    5    0    0 -0.49120506435E+01  0.10862293460E+02  0.33544876025E+03  0.33566052555E+03  0.00000000000E+00 0.  1.
          5    1    4    4  501    0 -0.12089997254E+03 -0.67634360749E+02 -0.40285930402E+02  0.14433169680E+03  0.41800000000E+01 0.  1.
         -5    1    4    4    0  501 -0.44034100343E+02 -0.11885794383E+02 -0.12242302912E+03  0.13071015477E+03  0.41800000000E+01 0.  1.
</event>
<event>
11    1  0.8974665E-009  0.1414433E+03  0.7561462E-02  0.1105957E+00
         22   -1    0    0    0    0  0.00000000000E+00  0.00000000000E+00  0.34343558613E+03  0.34343558613E+03  0.00000000000E+00 0.  1.
         22   -1    0    0    0    0 -0.00000000000E+00 -0.00000000000E+00 -0.13291608752E+04  0.13291608752E+04  0.00000000000E+00 0.  1.
         24    2    1    2    0    0  0.61360378831E+02 -0.24236803280E+02 -0.12675027529E+04  0.12713727978E+04  0.73980021843E+02 0.  0.
         25    2    1    2    0    0 -0.51903825158E+02  0.54315296072E+02  0.49153177391E+02  0.15397389317E+03  0.12509103276E+03 0.  0.
        -24    2    1    2    0    0 -0.94565536722E+01 -0.30078492792E+02  0.23262428646E+03  0.24724977034E+03  0.77616030213E+02 0.  0.
        -11    1    3    3    0    0  0.44177344296E+02 -0.36009350799E+02 -0.44870645777E+03  0.45231161420E+03  0.00000000000E+00 0.  1.
         12    1    3    3    0    0  0.17183034534E+02  0.11772547519E+02 -0.81879629512E+03  0.81906118358E+03  0.00000000000E+00 0. -1.
         13    1    5    5    0    0  0.23567138512E+02 -0.90361376172E+01  0.23484887756E+02  0.34476104095E+02  0.00000000000E+00 0. -1.
        -14    1    5    5    0    0 -0.33023692184E+02 -0.21042355174E+02  0.20913939870E+03  0.21277366624E+03  0.00000000000E+00 0.  1.
          5    1    4    4  501    0  0.17936360224E+02  0.51808892789E+02  0.61919666889E+02  0.82809371074E+02  0.41800000000E+01 0.  1.
         -5    1    4    4    0  501 -0.69840185382E+02  0.25064032831E+01 -0.12766489497E+02  0.71164522100E+02  0.41800000000E+01 0.  1.
</event>
<event>
11    1  0.8974665E-009  0.1465020E+03  0.7561462E-02  0.1100508E+00
         22   -1    0    0    0    0  0.00000000000E+00  0.00000000000E+00  0.33436217449E+03  0.33436217449E+03  0.00000000000E+00 0. -1.
         22   -1    0    0    0    0 -0.00000000000E+00 -0.00000000000E+00 -0.39731085301E+03  0.39731085301E+03  0.00000000000E+00 0.  1.
        -24    2    1    2    0    0  0.58329928621E+02 -0.39804443891E+02 -0.25190279450E+03  0.27417216778E+03  0.82027954858E+02 0.  0.
         25    2    1    2    0    0 -0.89697965978E+02  0.49643139603E+02 -0.76250145132E+02  0.17881099038E+03  0.12509643975E+03 0.  0.
         24    2    1    2    0    0  0.31368037357E+02 -0.98386957121E+01  0.26520426111E+03  0.27868986934E+03  0.79082169035E+02 0.  0.
        -11    1    5    5    0    0 -0.12725222283E+02  0.86383476578E+01  0.85021323813E+01  0.17573804011E+02  0.00000000000E+00 0.  1.
         12    1    5    5    0    0  0.44093259640E+02 -0.18477043370E+02  0.25670212873E+03  0.26111606533E+03  0.00000000000E+00 0. -1.
         13    1    3    3    0    0 -0.99354815469E+01 -0.29829591745E+01 -0.12509404011E+03  0.12552342694E+03  0.00000000000E+00 0. -1.
        -14    1    3    3    0    0  0.68265410167E+02 -0.36821484717E+02 -0.12680875439E+03  0.14864874084E+03  0.00000000000E+00 0.  1.
          5    1    4    4  501    0 -0.12141478204E+03  0.38237825487E+02 -0.54874125080E+02  0.13868064969E+03  0.41800000000E+01 0. -1.
         -5    1    4    4    0  501  0.31716816059E+02  0.11405314117E+02 -0.21376020052E+02  0.40130340695E+02  0.41800000000E+01 0. -1.
</event>
<event>
11    1  0.8974665E-009  0.1624338E+03  0.7561462E-02  0.1084810E+00
         22   -1    0    0    0    0  0.00000000000E+00  0.00000000000E+00  0.40035963436E+03  0.40035963436E+03  0.00000000000E+00 0.  1.
         22   -1    0    0    0    0 -0.00000000000E+00 -0.00000000000E+00 -0.48078131482E+03  0.48078131482E+03  0.00000000000E+00 0.  1.
         24    2    1    2    0    0  0.41553114690E+02  0.43502238887E+02 -0.26082152579E+03  0.27943569060E+03  0.80232977862E+02 0.  0.
         25    2    1    2    0    0 -0.11074933834E+03  0.33912826296E+02 -0.16150197757E+03  0.23483522019E+03  0.12509674717E+03 0.  0.
        -24    2    1    2    0    0  0.69196223650E+02 -0.77415065183E+02  0.34190182290E+03  0.36687003839E+03  0.83159839356E+02 0.  0.
        -11    1    3    3    0    0  0.64201132714E+02  0.24902786824E+02 -0.20698638850E+03  0.21814054932E+03  0.00000000000E+00 0.  1.
         12    1    3    3    0    0 -0.22648018024E+02  0.18599452063E+02 -0.53835137293E+02  0.61295141282E+02  0.00000000000E+00 0. -1.
         13    1    5    5    0    0  0.40531969597E+02  0.58275801143E+01  0.70311779019E+02  0.81366747006E+02  0.00000000000E+00 0. -1.
        -14    1    5    5    0    0  0.28664254053E+02 -0.83242645297E+02  0.27159004388E+03  0.28550329139E+03  0.00000000000E+00 0.  1.
          5    1    4    4  501    0 -0.13635331604E+03  0.36233767922E+02 -0.15115126761E+03  0.20680737616E+03  0.41800000000E+01 0. -1.
         -5    1    4    4    0  501  0.25603977702E+02 -0.23209416263E+01 -0.10350709958E+02  0.28027844027E+02  0.41800000000E+01 0. -1.
</event>
<event>
11    1  0.8974665E-009  0.1502610E+03  0.7561462E-02  0.1096612E+00
         22   -1    0    0    0    0  0.00000000000E+00  0.00000000000E+00  0.47596590299E+03  0.47596590299E+03  0.00000000000E+00 0.  1.
         22   -1    0    0    0    0 -0.00000000000E+00 -0.00000000000E+00 -0.17294916552E+03  0.17294916552E+03  0.00000000000E+00 0.  1.
        -24    2    1    2    0    0  0.25373921089E+02 -0.27163410060E+02 -0.79353082129E+02  0.11889680260E+03  0.80360757260E+02 0.  0.
         25    2    1    2    0    0 -0.10421755311E+03  0.37622926677E+02  0.43986959012E+02  0.17279698489E+03  0.12508861833E+03 0.  0.
         24    2    1    2    0    0  0.78843632020E+02 -0.10459516617E+02  0.33838286059E+03  0.35722128101E+03  0.82330817266E+02 0.  0.
        -11    1    5    5    0    0  0.79220627739E+02 -0.35592490803E+02  0.22722554583E+03  0.24325743964E+03  0.00000000000E+00 0.  1.
         12    1    5    5    0    0 -0.37699571931E+00  0.25132974187E+02  0.11115731476E+03  0.11396384138E+03  0.00000000000E+00 0. -1.
         13    1    3    3    0    0  0.36081470970E+02  0.18905617532E+02 -0.30400499188E+02  0.50827996936E+02  0.00000000000E+00 0. -1.
        -14    1    3    3    0    0 -0.10707549881E+02 -0.46069027592E+02 -0.48952582941E+02  0.68068805663E+02  0.00000000000E+00 0.  1.
          5    1    4    4  501    0 -0.13305248451E+02 -0.35856128719E+02  0.40378410163E+02  0.55772573998E+02  0.41800000000E+01 0. -1.
         -5    1    4    4    0  501 -0.90912304658E+02  0.73479055396E+02  0.36085488490E+01  0.11702441089E+03  0.41800000000E+01 0. -1.
</event>
<event>
11    1  0.8974665E-009  0.4991084E+03  0.7561462E-02  0.9395516E-01
         22   -1    0    0    0    0  0.00000000000E+00  0.00000000000E+00  0.82073777051E+03  0.82073777051E+03  0.00000000000E+00 0. -1.
         22   -1    0    0    0    0 -0.00000000000E+00 -0.00000000000E+00 -0.76452323716E+03  0.76452323716E+03  0.00000000000E+00 0. -1.
         24    2    1    2    0    0  0.27647471698E+02 -0.10159808722E+03 -0.11595921638E+03  0.17570216056E+03  0.79612532576E+02 0.  0.
         25    2    1    2    0    0 -0.44640649243E+03  0.32071871284E+03 -0.37831986016E+03  0.67890526158E+03  0.12508872196E+03 0.  0.
        -24    2    1    2    0    0  0.41875902073E+03 -0.21912062561E+03  0.55049360989E+03  0.73065358554E+03  0.86246631906E+02 0.  0.
        -13    1    3    3    0    0 -0.20092274394E+02 -0.50363764879E+02 -0.21999494802E+02  0.58516545307E+02  0.00000000000E+00 0.  1.
         14    1    3    3    0    0  0.47739746092E+02 -0.51234322343E+02 -0.93959721579E+02  0.11718561525E+03  0.00000000000E+00 0. -1.
         13    1    5    5    0    0  0.36004214728E+03 -0.15082635646E+03  0.44591856588E+03  0.59264011425E+03  0.00000000000E+00 0. -1.
        -14    1    5    5    0    0  0.58716873451E+02 -0.68294269154E+02  0.10457504401E+03  0.13801347129E+03  0.00000000000E+00 0.  1.
          5    1    4    4  501    0 -0.26557098121E+03  0.11411147807E+03 -0.18970364189E+03  0.34576627891E+03  0.41800000000E+01 0. -1.
         -5    1    4    4    0  501 -0.18083551122E+03  0.20660723477E+03 -0.18861621827E+03  0.33313898267E+03  0.41800000000E+01 0. -1.
</event>
<event>
11    1  0.8974665E-009  0.1584185E+03  0.7561462E-02  0.1088574E+00
         22   -1    0    0    0    0  0.00000000000E+00  0.00000000000E+00  0.28619431717E+04  0.28619431717E+04  0.00000000000E+00 0.  1.
         22   -1    0    0    0    0 -0.00000000000E+00 -0.00000000000E+00 -0.37749432345E+02  0.37749432345E+02  0.00000000000E+00 0. -1.
        -24    2    1    2    0    0 -0.96387145740E+02  0.10779868938E+02  0.10138935966E+03  0.16109686260E+03  0.79156234428E+02 0.  0.
         25    2    1    2    0    0  0.98452731145E+02 -0.84068511554E+01  0.92946194118E+03  0.94303236719E+03  0.12508768942E+03 0.  0.
         24    2    1    2    0    0 -0.20655854049E+01 -0.23730177823E+01  0.17933424385E+04  0.17955633743E+04  0.89223490961E+02 0.  0.
        -13    1    5    5    0    0 -0.31052441279E+02 -0.32254153051E+02  0.11530911658E+04  0.11539600605E+04  0.00000000000E+00 0.  1.
         14    1    5    5    0    0  0.28986855874E+02  0.29881135269E+02  0.64025127273E+03  0.64160331381E+03  0.00000000000E+00 0. -1.
         11    1    3    3    0    0  0.73350638472E+00 -0.95776579128E+01 -0.86475440755E+01  0.12924766197E+02  0.00000000000E+00 0. -1.
        -12    1    3    3    0    0 -0.97120652125E+02  0.20357526851E+02  0.11003690373E+03  0.14817209640E+03  0.00000000000E+00 0.  1.
          5    1    4    4  501    0  0.31837991639E+02 -0.63365637343E+00  0.41234669877E+02  0.52266907617E+02  0.41800000000E+01 0. -1.
         -5    1    4    4    0  501  0.66614739506E+02 -0.77731947820E+01  0.88822727130E+03  0.89076545957E+03  0.41800000000E+01 0. -1.
</event>
<event>
11    1  0.8974665E-009  0.2376279E+03  0.7561462E-02  0.1030704E+00
         22   -1    0    0    0    0  0.00000000000E+00  0.00000000000E+00  0.13905339603E+04  0.13905339603E+04  0.00000000000E+00 0. -1.
         22   -1    0    0    0    0 -0.00000000000E+00 -0.00000000000E+00 -0.11866130704E+04  0.11866130704E+04  0.00000000000E+00 0.  1.
        -24    2    1    2    0    0 -0.91088428649E+02 -0.17373004321E+03 -0.10342874404E+04  0.10557667184E+04  0.80085108319E+02 0.  0.
         25    2    1    2    0    0  0.15906911020E+03  0.27847463712E+03  0.79646563248E+02  0.35333010062E+03  0.12508988618E+03 0.  0.
         24    2    1    2    0    0 -0.67980681552E+02 -0.10474459392E+03  0.11585617670E+04  0.11680502118E+04  0.80517862710E+02 0.  0.
        -11    1    5    5    0    0 -0.24838429995E+02 -0.41737615999E+02  0.17762293133E+03  0.18414364483E+03  0.00000000000E+00 0.  1.
         12    1    5    5    0    0 -0.43142251558E+02 -0.63006977916E+02  0.98093883567E+03  0.98390656694E+03  0.00000000000E+00 0. -1.
         13    1    3    3    0    0  0.12006453159E+02 -0.36170089102E+02 -0.13928774258E+03  0.14440742881E+03  0.00000000000E+00 0. -1.
        -14    1    3    3    0    0 -0.10309488181E+03 -0.13755995411E+03 -0.89499969777E+03  0.91135928955E+03  0.00000000000E+00 0.  1.
          5    1    4    4  501    0 -0.18319572309E+02  0.22243919033E+02 -0.67828974684E+01  0.29897805297E+02  0.41800000000E+01 0.  1.
         -5    1    4    4    0  501  0.17738868251E+03  0.25623071809E+03  0.86429460716E+02  0.32343229532E+03  0.41800000000E+01 0.  1.
</event>
<event>
11    1  0.8974665E-009  0.1428563E+03  0.7561462E-02  0.1104410E+00
         22   -1    0    0    0    0  0.00000000000E+00  0.00000000000E+00  0.19709028787E+03  0.19709028787E+03  0.00000000000E+00 0.  1.
         22   -1    0    0    0    0 -0.00000000000E+00 -0.00000000000E+00 -0.61592225487E+03  0.61592225487E+03  0.00000000000E+00 0.  1.
         24    2    1    2    0    0  0.41107121451E+02  0.51327069432E+02 -0.47658652432E+03  0.48786067982E+03  0.80926289084E+02 0.  0.
         25    2    1    2    0    0 -0.86064876193E+02 -0.59674692091E+02 -0.61446422061E+02  0.17434712231E+03  0.12511204772E+03 0.  0.
        -24    2    1    2    0    0  0.44957754742E+02  0.83476226594E+01  0.11920097938E+03  0.15080474059E+03  0.80264025468E+02 0.  0.
        -11    1    3    3    0    0  0.65633820645E+02  0.32376005486E+02 -0.32508139663E+03  0.33321752441E+03  0.00000000000E+00 0.  1.
         12    1    3    3    0    0 -0.24526699194E+02  0.18951063946E+02 -0.15150512769E+03  0.15464315541E+03  0.00000000000E+00 0. -1.
         13    1    5    5    0    0  0.15919698201E+02 -0.35974249215E+02  0.48375264900E+02  0.62351821557E+02  0.00000000000E+00 0. -1.
        -14    1    5    5    0    0  0.29038056541E+02  0.44321871874E+02  0.70825714484E+02  0.88452919038E+02  0.00000000000E+00 0.  1.
          5    1    4    4  501    0 -0.48273411692E+01 -0.70789788590E+02 -0.58729098606E+02  0.92201284234E+02  0.41800000000E+01 0.  1.
         -5    1    4    4    0  501 -0.81237535024E+02  0.11115096498E+02 -0.27173234550E+01  0.82145838079E+02  0.41800000000E+01 0.  1.
</event>
<event>
11    1  0.8974665E-009  0.2060702E+03  0.7561462E-02  0.1050312E+00
         22   -1    0    0    0    0  0.00000000000E+00  0.00000000000E+00  0.33093620270E+04  0.33093620270E+04  0.00000000000E+00 0. -1.
         22   -1    0    0    0    0 -0.00000000000E+00 -0.00000000000E+00 -0.74848258643E+03  0.74848258643E+03  0.00000000000E+00 0.  1.
         24    2    1    2    0    0 -0.10840734574E+03 -0.12178471089E+03 -0.71212436457E+03  0.73505105176E+03  0.81211265598E+02 0.  0.
         25    2    1    2    0    0  0.19709648434E+03  0.10060649330E+03  0.66539155276E+03  0.71229440346E+03  0.12509479638E+03 0.  0.
        -24    2    1    2    0    0 -0.88689138605E+02  0.21178217584E+02  0.26076122524E+04  0.26104991583E+04  0.82157873111E+02 0.  0.
        -11    1    3    3    0    0 -0.96716292061E+02 -0.10690460200E+03 -0.69411512289E+03  0.70892766832E+03  0.00000000000E+00 0.  1.
         12    1    3    3    0    0 -0.11691053675E+02 -0.14880108887E+02 -0.18009241677E+02  0.26123383439E+02  0.00000000000E+00 0. -1.
         11    1    5    5    0    0 -0.84330698691E+02  0.13485365487E+02  0.12747422819E+04  0.12775998619E+04  0.00000000000E+00 0. -1.
        -12    1    5    5    0    0 -0.43584399139E+01  0.76928520977E+01  0.13328699705E+04  0.13328992964E+04  0.00000000000E+00 0.  1.
          5    1    4    4  501    0  0.68976161565E+01  0.58862356456E+02  0.15897540687E+03  0.16971448525E+03  0.41800000000E+01 0. -1.
         -5    1    4    4    0  501  0.19019886818E+03  0.41744136849E+02  0.50641614589E+03  0.54257991820E+03  0.41800000000E+01 0. -1.
</event>
<event>
11    1  0.8974665E-009  0.1419595E+03  0.7561462E-02  0.1105390E+00
         22   -1    0    0    0    0  0.00000000000E+00  0.00000000000E+00  0.10835079923E+04  0.10835079923E+04  0.00000000000E+00 0.  1.
         22   -1    0    0    0    0 -0.00000000000E+00 -0.00000000000E+00 -0.92650266882E+03  0.92650266882E+03  0.00000000000E+00 0.  1.
         24    2    1    2    0    0  0.19096887685E+02  0.41073202159E+02 -0.86599044106E+03  0.87085869863E+03  0.80023308615E+02 0.  0.
         25    2    1    2    0    0  0.35152191962E+02  0.20307941117E+01  0.21859926653E+02  0.13177582207E+03  0.12508880911E+03 0.  0.
        -24    2    1    2    0    0 -0.54249079647E+02 -0.43103996271E+02  0.10011358379E+04  0.10073761404E+04  0.87936370476E+02 0.  0.
        -13    1    3    3    0    0 -0.72944742591E+01  0.19827269966E+02 -0.74262401077E+03  0.74292445872E+03  0.00000000000E+00 0.  1.
         14    1    3    3    0    0  0.26391361944E+02  0.21245932193E+02 -0.12336643029E+03  0.12793423991E+03  0.00000000000E+00 0. -1.
         11    1    5    5    0    0  0.42893819439E+01 -0.68375075103E+01  0.65109475837E+01  0.10370281812E+02  0.00000000000E+00 0. -1.
        -12    1    5    5    0    0 -0.58538461591E+02 -0.36266488760E+02  0.99462489029E+03  0.99700585860E+03  0.00000000000E+00 0.  1.
          5    1    4    4  501    0 -0.34601445712E+01 -0.57058223611E+02  0.21057023244E+02  0.61061314348E+02  0.41800000000E+01 0.  1.
         -5    1    4    4    0  501  0.38612336533E+02  0.59089017722E+02  0.80290340894E+00  0.70714507718E+02  0.41800000000E+01 0.  1.
</event>
<event>
11    1  0.8974665E-009  0.2113457E+03  0.7561462E-02  0.1046778E+00
         22   -1    0    0    0    0  0.00000000000E+00  0.00000000000E+00  0.20830648878E+03  0.20830648878E+03  0.00000000000E+00 0.  1.
         22   -1    0    0    0    0 -0.00000000000E+00 -0.00000000000E+00 -0.34533422875E+03  0.34533422875E+03  0.00000000000E+00 0. -1.
         24    2    1    2    0    0  0.17363134716E+03  0.12402944922E+02 -0.18477079256E+03  0.26584450087E+03  0.78939059406E+02 0.  0.
         25    2    1    2    0    0 -0.15883041233E+03 -0.17136100081E+02  0.28330911075E+02  0.20486169632E+03  0.12507968776E+03 0.  0.
        -24    2    1    2    0    0 -0.14800934824E+02  0.47331551593E+01  0.19412141518E+02  0.82934520334E+02  0.79119106386E+02 0.  0.
        -11    1    3    3    0    0  0.17037633589E+03 -0.15638117178E+01 -0.14556298999E+03  0.22409624136E+03  0.00000000000E+00 0.  1.
         12    1    3    3    0    0  0.32550112710E+01  0.13966756640E+02 -0.39207802573E+02  0.41748259509E+02  0.00000000000E+00 0. -1.
         13    1    5    5    0    0  0.27631152209E+02  0.21376930948E+02  0.10631538601E+02  0.36516891463E+02  0.00000000000E+00 0. -1.
        -14    1    5    5    0    0 -0.42432087032E+02 -0.16643775788E+02  0.87806029171E+01  0.46417628871E+02  0.00000000000E+00 0.  1.
          5    1    4    4  501    0  0.19318054060E+01  0.18066336450E+02 -0.25563436781E+02  0.31639944452E+02  0.41800000000E+01 0.  1.
         -5    1    4    4    0  501 -0.16076221774E+03 -0.35202436531E+02  0.53894347856E+02  0.17322175187E+03  0.41800000000E+01 0.  1.
</event>
<event>
11    1  0.8974665E-009  0.1760633E+03  0.7561462E-02  0.1072872E+00
         22   -1    0    0    0    0  0.00000000000E+00  0.00000000000E+00  0.13259638836E+03  0.13259638836E+03  0.00000000000E+00 0. -1.
         22   -1    0    0    0    0 -0.00000000000E+00 -0.00000000000E+00 -0.15019466121E+04  0.15019466121E+04  0.00000000000E+00 0. -1.
         24    2    1    2    0    0 -0.10511595378E+03 -0.80786008964E+02 -0.11889066736E+04  0.11986777214E+04  0.75851554548E+02 0.  0.
         25    2    1    2    0    0  0.10327671413E+02  0.10850030443E+03 -0.24224013334E+03  0.29360178049E+03  0.12507096564E+03 0.  0.
        -24    2    1    2    0    0  0.94788282365E+02 -0.27714295464E+02  0.61796583190E+02  0.14226349856E+03  0.81652830206E+02 0.  0.
        -13    1    3    3    0    0 -0.55205610148E+02 -0.37345572997E+02 -0.30013945506E+03  0.30745088014E+03  0.00000000000E+00 0.  1.
         14    1    3    3    0    0 -0.49910343630E+02 -0.43440435967E+02 -0.88876721853E+03  0.89122684128E+03  0.00000000000E+00 0. -1.
         11    1    5    5    0    0  0.69978611193E+01 -0.38421365580E+02  0.12464756100E+02  0.40994408617E+02  0.00000000000E+00 0. -1.
        -12    1    5    5    0    0  0.87790421246E+02  0.10707070116E+02  0.49331827091E+02  0.10126908994E+03  0.00000000000E+00 0.  1.
          5    1    4    4  501    0  0.65079108721E+02  0.70597708273E+02 -0.11452686733E+03  0.14950987441E+03  0.41800000000E+01 0. -1.
         -5    1    4    4    0  501 -0.54751437308E+02  0.37902596155E+02 -0.12771326601E+03  0.14409190608E+03  0.41800000000E+01 0. -1.
</event>
<event>
11    1  0.8974665E-009  0.2448698E+03  0.7561462E-02  0.1026668E+00
         22   -1    0    0    0    0  0.00000000000E+00  0.00000000000E+00  0.31424370639E+03  0.31424370639E+03  0.00000000000E+00 0. -1.
         22   -1    0    0    0    0 -0.00000000000E+00 -0.00000000000E+00 -0.12407720319E+04  0.12407720319E+04  0.00000000000E+00 0.  1.
        -24    2    1    2    0    0  0.78280566192E+02  0.18701878823E+03 -0.98524070117E+03  0.10088126588E+04  0.76810591851E+02 0.  0.
         25    2    1    2    0    0 -0.21069388043E+03 -0.26267882992E+03 -0.12195316528E+02  0.35942635444E+03  0.12508596876E+03 0.  0.
         24    2    1    2    0    0  0.13241331424E+03  0.75660041693E+02  0.70907692200E+02  0.18677672509E+03  0.81239870302E+02 0.  0.
        -11    1    5    5    0    0  0.57244957539E+02 -0.90786695544E+01  0.36067107187E+02  0.68265977070E+02  0.00000000000E+00 0.  1.
         12    1    5    5    0    0  0.75168356697E+02  0.84738711248E+02  0.34840585013E+02  0.11851074802E+03  0.00000000000E+00 0. -1.
         13    1    3    3    0    0  0.22942414046E+02  0.39015644812E+02 -0.10259706469E+03  0.11213711511E+03  0.00000000000E+00 0. -1.
        -14    1    3    3    0    0  0.55338152146E+02  0.14800314342E+03 -0.88264363648E+03  0.89667554364E+03  0.00000000000E+00 0.  1.
          5    1    4    4  501    0 -0.69491887228E+02 -0.12734652858E+02  0.99632859629E+01  0.71470506093E+02  0.41800000000E+01 0.  1.
         -5    1    4    4    0  501 -0.14120199320E+03 -0.24994417707E+03 -0.22158602491E+02  0.28795584835E+03  0.41800000000E+01 0.  1.
</event>
<event>
11    1  0.8974665E-009  0.1338291E+03  0.7561462E-02  0.1114652E+00
         22   -1    0    0    0    0  0.00000000000E+00  0.00000000000E+00  0.13431183700E+03  0.13431183700E+03  0.00000000000E+00 0. -1.
         22   -1    0    0    0    0 -0.00000000000E+00 -0.00000000000E+00 -0.87230791014E+03  0.87230791014E+03  0.00000000000E+00 0. -1.
         24    2    1    2    0    0  0.48945138629E+02  0.72930788482E+01 -0.71395635877E+03  0.72061425828E+03  0.84275805604E+02 0.  0.
         25    2    1    2    0    0 -0.28072320661E+02 -0.15292085135E+02 -0.10705967255E+03  0.16772220563E+03  0.12508821574E+03 0.  0.
        -24    2    1    2    0    0 -0.20872817968E+02  0.79990062868E+01  0.83019958181E+02  0.11828328324E+03  0.81234001534E+02 0.  0.
        -11    1    3    3    0    0  0.29482951171E+02  0.44603076731E+02 -0.47284600174E+03  0.47585924413E+03  0.00000000000E+00 0.  1.
         12    1    3    3    0    0  0.19462187458E+02 -0.37309997882E+02 -0.24111035703E+03  0.24475501415E+03  0.00000000000E+00 0. -1.
         13    1    5    5    0    0 -0.46374848882E+02  0.24855984113E+02  0.61291856791E+02  0.80778327934E+02  0.00000000000E+00 0. -1.
        -14    1    5    5    0    0  0.25502030914E+02 -0.16856977826E+02  0.21728101391E+02  0.37504955302E+02  0.00000000000E+00 0.  1.
          5    1    4    4  501    0 -0.32311936860E+02  0.25498621554E+01 -0.13228177242E+03  0.13625895484E+03  0.41800000000E+01 0. -1.
         -5    1    4    4    0  501  0.42396161988E+01 -0.17841947290E+02  0.25222099862E+02  0.31463250787E+02  0.41800000000E+01 0. -1.
</event>
<event>
11    1  0.8974665E-009  0.1500266E+03  0.7561462E-02  0.1096852E+00
         22   -1    0    0    0    0  0.00000000000E+00  0.00000000000E+00  0.67814291641E+03  0.67814291641E+03  0.00000000000E+00 0. -1.
         22   -1    0    0    0    0 -0.00000000000E+00 -0.00000000000E+00 -0.60454509700E+03  0.60454509700E+03  0.00000000000E+00 0. -1.
         24    2    1    2    0    0 -0.33694496571E+02  0.35753965396E+02 -0.46756954621E+03  0.47685523697E+03  0.79724346013E+02 0.  0.
         25    2    1    2    0    0  0.54451674706E+01  0.44025143927E+02 -0.92334786107E+02  0.16168192174E+03  0.12508983949E+03 0.  0.
        -24    2    1    2    0    0  0.28249329101E+02 -0.79779109324E+02  0.63350215172E+03  0.64415085470E+03  0.80265911139E+02 0.  0.
        -13    1    3    3    0    0 -0.33407547803E+02  0.57957986500E+02 -0.40441315418E+03  0.40990876024E+03  0.00000000000E+00 0.  1.
         14    1    3    3    0    0 -0.28694876852E+00 -0.22204021103E+02 -0.63156392025E+02  0.66946476728E+02  0.00000000000E+00 0. -1.
         11    1    5    5    0    0  0.40427724042E+02 -0.90276675111E+02  0.57650654533E+03  0.58493082988E+03  0.00000000000E+00 0. -1.
        -12    1    5    5    0    0 -0.12178394942E+02  0.10497565788E+02  0.56995606394E+02  0.59220024814E+02  0.00000000000E+00 0.  1.
          5    1    4    4  501    0 -0.54660857794E+02  0.90263394998E+01 -0.68146109246E+02  0.87924108098E+02  0.41800000000E+01 0. -1.
         -5    1    4    4    0  501  0.60106025264E+02  0.34998804427E+02 -0.24188676861E+02  0.73757813638E+02  0.41800000000E+01 0. -1.
</event>
<event>
11    1  0.8974665E-009  0.1401767E+03  0.7561462E-02  0.1107361E+00
         22   -1    0    0    0    0  0.00000000000E+00  0.00000000000E+00  0.69618930693E+03  0.69618930693E+03  0.00000000000E+00 0. -1.
         22   -1    0    0    0    0 -0.00000000000E+00 -0.00000000000E+00 -0.22373943406E+03  0.22373943406E+03  0.00000000000E+00 0. -1.
        -24    2    1    2    0    0  0.70260927837E+01 -0.50907291014E+02 -0.15374084633E+03  0.18098166876E+03  0.80481043350E+02 0.  0.
         25    2    1    2    0    0 -0.45132118978E+02 -0.32456771748E+01  0.33462112730E+02  0.13716653772E+03  0.12508998160E+03 0.  0.
         24    2    1    2    0    0  0.38106026195E+02  0.54152968189E+02  0.59272860647E+03  0.60178053451E+03  0.80174794001E+02 0.  0.
        -11    1    5    5    0    0  0.19389746570E+02  0.42870836673E+02  0.12532716080E+03  0.13386847330E+03  0.00000000000E+00 0.  1.
         12    1    5    5    0    0  0.18716279624E+02  0.11282131516E+02  0.46740144566E+03  0.46791206121E+03  0.00000000000E+00 0. -1.
         11    1    3    3    0    0  0.36004641203E+02 -0.14555758607E+02 -0.11186151457E+03  0.11841115969E+03  0.00000000000E+00 0. -1.
        -12    1    3    3    0    0 -0.28978548420E+02 -0.36351532408E+02 -0.41879331763E+02  0.62570509074E+02  0.00000000000E+00 0.  1.
          5    1    4    4  501    0  0.42898314658E+02 -0.59984621901E+01  0.20482887737E+01  0.43565064399E+02  0.41800000000E+01 0.  1.
         -5    1    4    4    0  501 -0.88030433637E+02  0.27527850153E+01  0.31413823957E+02  0.93601473317E+02  0.41800000000E+01 0.  1.
</event>
<event>
11    1  0.8974665E-009  0.1418196E+03  0.7561462E-02  0.1105543E+00
         22   -1    0    0    0    0  0.00000000000E+00  0.00000000000E+00  0.11048087516E+04  0.11048087516E+04  0.00000000000E+00 0.  1.
         22   -1    0    0    0    0 -0.00000000000E+00 -0.00000000000E+00 -0.91499620537E+02  0.91499620537E+02  0.00000000000E+00 0. -1.
         24    2    1    2    0    0 -0.26538464654E+02  0.52159166985E+02  0.89776812762E+01  0.99612202146E+02  0.80106948815E+02 0.  0.
         25    2    1    2    0    0 -0.40434717517E+02 -0.63270698588E+02  0.80277605420E+02  0.16652393503E+03  0.12509028470E+03 0.  0.
        -24    2    1    2    0    0  0.66973182171E+02  0.11111531603E+02  0.92405384433E+03  0.93017223492E+03  0.82073175474E+02 0.  0.
        -13    1    3    3    0    0 -0.84216358045E+01 -0.35066918857E+01  0.34547513574E+02  0.35731660076E+02  0.00000000000E+00 0.  1.
         14    1    3    3    0    0 -0.18116828850E+02  0.55665858871E+02 -0.25569832298E+02  0.63880542070E+02  0.00000000000E+00 0. -1.
         13    1    5    5    0    0  0.34622347271E+02  0.23669471462E+02  0.16239523323E+03  0.16772347059E+03  0.00000000000E+00 0. -1.
        -14    1    5    5    0    0  0.32350834900E+02 -0.12557939859E+02  0.76165861110E+03  0.76244876433E+03  0.00000000000E+00 0.  1.
          5    1    4    4  501    0 -0.17456065985E+02  0.35246968257E+02  0.39950584104E+01  0.39755451232E+02  0.41800000000E+01 0. -1.
         -5    1    4    4    0  501 -0.22978651531E+02 -0.98517666845E+02  0.76282547009E+02  0.12676848380E+03  0.41800000000E+01 0. -1.
</event>
<event>
11    1  0.8974665E-009  0.1336976E+03  0.7561462E-02  0.1114807E+00
         22   -1    0    0    0    0  0.00000000000E+00  0.00000000000E+00  0.11341356665E+04  0.11341356665E+04  0.00000000000E+00 0.  1.
         22   -1    0    0    0    0 -0.00000000000E+00 -0.00000000000E+00 -0.90837011461E+03  0.90837011461E+03  0.00000000000E+00 0. -1.
         24    2    1    2    0    0  0.10861057534E+02 -0.46520570421E+02 -0.86086280098E+03  0.86603712167E+03  0.81568425021E+02 0.  0.
         25    2    1    2    0    0 -0.46901708728E+01  0.25516723534E+02  0.52096779860E+02  0.13796776829E+03  0.12509168531E+03 0.  0.
        -24    2    1    2    0    0 -0.61708866610E+01  0.21003846887E+02  0.10345315730E+04  0.10385008912E+04  0.88030017287E+02 0.  0.
        -11    1    3    3    0    0  0.63733639266E+01 -0.13451650727E+02 -0.22305779949E+02  0.26816310226E+02  0.00000000000E+00 0.  1.
         12    1    3    3    0    0  0.44876936071E+01 -0.33068919694E+02 -0.83855702103E+03  0.83922081144E+03  0.00000000000E+00 0. -1.
         13    1    5    5    0    0  0.19846170142E+02 -0.11677970417E+00  0.56303044085E+02  0.59698550067E+02  0.00000000000E+00 0. -1.
        -14    1    5    5    0    0 -0.26017056803E+02  0.21120626591E+02  0.97822852895E+03  0.97880234111E+03  0.00000000000E+00 0.  1.
          5    1    4    4  501    0 -0.18114939166E+02  0.59940803414E+01  0.90536524860E+02  0.92619731990E+02  0.41800000000E+01 0.  1.
         -5    1    4    4    0  501  0.13424768293E+02  0.19522643193E+02 -0.38439745000E+02  0.45348036304E+02  0.41800000000E+01 0.  1.
</event>
<event>
11    1  0.8974665E-009  0.1343868E+03  0.7561462E-02  0.1113994E+00
         22   -1    0    0    0    0  0.00000000000E+00  0.00000000000E+00  0.88017937148E+03  0.88017937148E+03  0.00000000000E+00 0.  1.
         22   -1    0    0    0    0 -0.00000000000E+00 -0.00000000000E+00 -0.18141635256E+04  0.18141635256E+04  0.00000000000E+00 0.  1.
         24    2    1    2    0    0 -0.56670254402E+01  0.23313958534E+02 -0.17299154036E+04  0.17319705346E+04  0.80863916694E+02 0.  0.
         25    2    1    2    0    0 -0.10073868537E+02  0.24023753623E+02 -0.29881754544E+02  0.13121986698E+03  0.12508841142E+03 0.  0.
        -24    2    1    2    0    0  0.15740893977E+02 -0.47337712157E+02  0.82581300410E+03  0.83115249550E+03  0.79741572033E+02 0.  0.
        -13    1    3    3    0    0  0.16183167166E+02  0.47955962808E+02 -0.11609525919E+04  0.11620553300E+04  0.00000000000E+00 0.  1.
         14    1    3    3    0    0 -0.21850192606E+02 -0.24642004274E+02 -0.56896281174E+03  0.56991520460E+03  0.00000000000E+00 0. -1.
         13    1    5    5    0    0 -0.25894889312E+02 -0.44024378893E+02  0.51956139065E+03  0.52206582907E+03  0.00000000000E+00 0. -1.
        -14    1    5    5    0    0  0.41635783289E+02 -0.33133332642E+01  0.30625161345E+03  0.30908666644E+03  0.00000000000E+00 0.  1.
          5    1    4    4  501    0 -0.52402278558E+02 -0.22313450926E+02  0.81951079171E+01  0.57693336566E+02  0.41800000000E+01 0. -1.
         -5    1    4    4    0  501  0.42328410021E+02  0.46337204549E+02 -0.38076862461E+02  0.73526530417E+02  0.41800000000E+01 0. -1.
</event>
<event>
11    1  0.8974665E-009  0.1330055E+03  0.7561462E-02  0.1115630E+00
         22   -1    0    0    0    0  0.00000000000E+00  0.00000000000E+00  0.57048678200E+03  0.57048678200E+03  0.00000000000E+00 0.  1.
         22   -1    0    0    0    0 -0.00000000000E+00 -0.00000000000E+00 -0.11131629144E+03  0.11131629144E+03  0.00000000000E+00 0. -1.
        -24    2    1    2    0    0 -0.40903751362E+02  0.32622115397E+02 -0.33396893634E+02  0.96691762125E+02  0.74139227605E+02 0.  0.
         25    2    1    2    0    0  0.35097692829E+02 -0.74179900029E+02  0.94955235554E+02  0.17719408015E+03  0.12508692845E+03 0.  0.
         24    2    1    2    0    0  0.58060585333E+01  0.41557784632E+02  0.39761214864E+03  0.40791723118E+03  0.80872040685E+02 0.  0.
        -11    1    5    5    0    0  0.40083944915E+02  0.12834488516E+02  0.13143833084E+03  0.13801261373E+03  0.00000000000E+00 0.  1.
         12    1    5    5    0    0 -0.34277886381E+02  0.28723296116E+02  0.26617381780E+03  0.26990461745E+03  0.00000000000E+00 0. -1.
         11    1    3    3    0    0 -0.57697255886E+02  0.41941029276E+02 -0.28926661561E+02  0.76972560192E+02  0.00000000000E+00 0. -1.
        -12    1    3    3    0    0  0.16793504524E+02 -0.93189138785E+01 -0.44702320729E+01  0.19719201932E+02  0.00000000000E+00 0.  1.
          5    1    4    4  501    0  0.74412795086E+02 -0.21839995532E+02  0.76591114225E+02  0.10907759007E+03  0.41800000000E+01 0.  1.
         -5    1    4    4    0  501 -0.39315102257E+02 -0.52339904497E+02  0.18364121329E+02  0.68116490077E+02  0.41800000000E+01 0.  1.
</event>
<event>
11    1  0.8974665E-009  0.1431999E+03  0.7561462E-02  0.1104037E+00
         22   -1    0    0    0    0  0.00000000000E+00  0.00000000000E+00  0.34939038341E+03  0.34939038341E+03  0.00000000000E+00 0.  1.
         22   -1    0    0    0    0 -0.00000000000E+00 -0.00000000000E+00 -0.89173955830E+03  0.89173955830E+03  0.00000000000E+00 0. -1.
         24    2    1    2    0    0 -0.29613180772E+02 -0.99114290833E+00 -0.84031777484E+03  0.84451712399E+03  0.78722850324E+02 0.  0.
         25    2    1    2    0    0  0.87939807660E+02 -0.18706485277E+02  0.13470420278E+03  0.20463703610E+03  0.12509097464E+03 0.  0.
        -24    2    1    2    0    0 -0.58326626889E+02  0.19697628185E+02  0.16326439717E+03  0.19197578162E+03  0.80059011887E+02 0.  0.
        -11    1    3    3    0    0 -0.37826394814E+02  0.39737688572E+01 -0.17305711825E+03  0.17718745204E+03  0.00000000000E+00 0.  1.
         12    1    3    3    0    0  0.82132140421E+01 -0.49649117655E+01 -0.66726065659E+03  0.66732967195E+03  0.00000000000E+00 0. -1.
         13    1    5    5    0    0  0.53728807915E+01  0.23325359834E+01 -0.71356727633E+01  0.92318144424E+01  0.00000000000E+00 0. -1.
        -14    1    5    5    0    0 -0.63699507680E+02  0.17365092202E+02  0.17040006993E+03  0.18274396718E+03  0.00000000000E+00 0.  1.
          5    1    4    4  501    0  0.28941493022E+02 -0.69623469294E+02  0.74406467538E+02  0.10601335909E+03  0.41800000000E+01 0.  1.
         -5    1    4    4    0  501  0.58998314638E+02  0.50916984017E+02  0.60297735238E+02  0.98623677007E+02  0.41800000000E+01 0.  1.
</event>
<event>
11    1  0.8974665E-009  0.1394020E+03  0.7561462E-02  0.1108228E+00
         22   -1    0    0    0    0  0.00000000000E+00  0.00000000000E+00  0.46329337092E+03  0.46329337092E+03  0.00000000000E+00 0. -1.
         22   -1    0    0    0    0 -0.00000000000E+00 -0.00000000000E+00 -0.30171611997E+03  0.30171611997E+03  0.00000000000E+00 0. -1.
        -24    2    1    2    0    0 -0.26184955051E+02  0.52883487003E+02 -0.21697020803E+03  0.24096796715E+03  0.86643955052E+02 0.  0.
         25    2    1    2    0    0  0.23089380077E+02 -0.75878072022E+02  0.12473655817E+02  0.14863874684E+03  0.12508910299E+03 0.  0.
         24    2    1    2    0    0  0.30955749742E+01  0.22994585019E+02  0.36607380316E+03  0.37540277690E+03  0.79867903584E+02 0.  0.
        -13    1    5    5    0    0  0.16377525641E+02  0.20742260240E+02  0.34036601102E+02  0.43092399801E+02  0.00000000000E+00 0.  1.
         14    1    5    5    0    0 -0.13281950667E+02  0.22523247786E+01  0.33203720206E+03  0.33231037710E+03  0.00000000000E+00 0. -1.
         11    1    3    3    0    0 -0.50254956924E+02  0.14468682834E+02 -0.15898543841E+03  0.16736568676E+03  0.00000000000E+00 0. -1.
        -12    1    3    3    0    0  0.24070001872E+02  0.38414804169E+02 -0.57984769624E+02  0.73602280385E+02  0.00000000000E+00 0.  1.
          5    1    4    4  501    0  0.59627052413E+01  0.33351749398E+02  0.16513288797E+02  0.37921684411E+02  0.41800000000E+01 0.  1.
         -5    1    4    4    0  501  0.17126674836E+02 -0.10922982142E+03 -0.40396329804E+01  0.11071706243E+03  0.41800000000E+01 0.  1.
</event>
<event>
11    1  0.8974665E-009  0.1866750E+03  0.7561462E-02  0.1064368E+00
         22   -1    0    0    0    0  0.00000000000E+00  0.00000000000E+00  0.76184108254E+02  0.76184108254E+02  0.00000000000E+00 0.  1.
         22   -1    0    0    0    0 -0.00000000000E+00 -0.00000000000E+00 -0.13005394804E+04  0.13005394804E+04  0.00000000000E+00 0. -1.
        -24    2    1    2    0    0  0.37230001867E+02 -0.13804814119E+03 -0.91267149459E+03  0.92708560114E+03  0.77942879580E+02 0.  0.
         25    2    1    2    0    0 -0.40814012141E+02  0.11807898309E+03 -0.32167322436E+03  0.36705194654E+03  0.12508012776E+03 0.  0.
         24    2    1    2    0    0  0.35840102734E+01  0.19969158101E+02  0.99893468035E+01  0.82586040966E+02  0.79429558151E+02 0.  0.
        -11    1    5    5    0    0  0.25654373646E+02  0.61810865454E+01  0.36760243155E+02  0.45251167884E+02  0.00000000000E+00 0.  1.
         12    1    5    5    0    0 -0.22070363372E+02  0.13788071556E+02 -0.26770896352E+02  0.37334873082E+02  0.00000000000E+00 0. -1.
         13    1    3    3    0    0  0.59240405458E+02 -0.12061014691E+03 -0.77778513344E+03  0.78930725765E+03  0.00000000000E+00 0. -1.
        -14    1    3    3    0    0 -0.22010403591E+02 -0.17437994289E+02 -0.13488636115E+03  0.13777834349E+03  0.00000000000E+00 0.  1.
          5    1    4    4  501    0  0.13636458557E+02 -0.20262549362E+02 -0.25078827478E+02  0.35255409461E+02  0.41800000000E+01 0.  1.
         -5    1    4    4    0  501 -0.54450470697E+02  0.13834153246E+03 -0.29659439688E+03  0.33179653708E+03  0.41800000000E+01 0.  1.
</event>
<event>
11    1  0.8974665E-009  0.1759029E+03  0.7561462E-02  0.1073006E+00
         22   -1    0    0    0    0  0.00000000000E+00  0.00000000000E+00  0.15393005791E+04  0.15393005791E+04  0.00000000000E+00 0.  1.
         22   -1    0    0    0    0 -0.00000000000E+00 -0.00000000000E+00 -0.57177821190E+02  0.57177821190E+02  0.00000000000E+00 0. -1.
        -24    2    1    2    0    0  0.13045674065E+02  0.68491419388E+02  0.49730438899E+02  0.11799036327E+03  0.81162461333E+02 0.  0.
         25    2    1    2    0    0  0.43159193935E+02 -0.16345434759E+03  0.61774641088E+03  0.65256484901E+03  0.12510081633E+03 0.  0.
         24    2    1    2    0    0 -0.56204867999E+02  0.94962928202E+02  0.81464590816E+03  0.82592318804E+03  0.79524913912E+02 0.  0.
        -13    1    5    5    0    0 -0.48240649386E+02  0.95099966342E+02  0.80938025653E+03  0.81637464654E+03  0.00000000000E+00 0.  1.
         14    1    5    5    0    0 -0.79642186131E+01 -0.13703814043E+00  0.52656516253E+01  0.95485414912E+01  0.00000000000E+00 0. -1.
         11    1    3    3    0    0 -0.20462688168E+02  0.68529232106E+02  0.44071247139E+02  0.84007452553E+02  0.00000000000E+00 0. -1.
        -12    1    3    3    0    0  0.33508362233E+02 -0.37812718386E-01  0.56591917597E+01  0.33982910715E+02  0.00000000000E+00 0.  1.
          5    1    4    4  501    0  0.82775574631E+02 -0.13298269663E+03  0.51358796116E+03  0.53696020300E+03  0.41800000000E+01 0.  1.
         -5    1    4    4    0  501 -0.39616380696E+02 -0.30471650963E+02  0.10415844971E+03  0.11560464601E+03  0.41800000000E+01 0.  1.
</event>
<event>
11    1  0.8974665E-009  0.1442198E+03  0.7561462E-02  0.1102936E+00
         22   -1    0    0    0    0  0.00000000000E+00  0.00000000000E+00  0.15148724103E+04  0.15148724103E+04  0.00000000000E+00 0. -1.
         22   -1    0    0    0    0 -0.00000000000E+00 -0.00000000000E+00 -0.10290948051E+03  0.10290948051E+03  0.00000000000E+00 0. -1.
        -24    2    1    2    0    0  0.24629848344E+01 -0.69649691623E+02 -0.59531818887E+02  0.11867658508E+03  0.75385333774E+02 0.  0.
         25    2    1    2    0    0 -0.11988530430E+02  0.12013687346E+03  0.68119964779E+03  0.70303428677E+03  0.12509058719E+03 0.  0.
         24    2    1    2    0    0  0.95255455960E+01 -0.50487181834E+02  0.79029510089E+03  0.79607101896E+03  0.80765272179E+02 0.  0.
        -13    1    5    5    0    0 -0.22284868244E+02 -0.27150727530E+02  0.13195955614E+03  0.13655439142E+03  0.00000000000E+00 0.  1.
         14    1    5    5    0    0  0.31810413840E+02 -0.23336454304E+02  0.65833554474E+03  0.65951662754E+03  0.00000000000E+00 0. -1.
         13    1    3    3    0    0  0.37404899032E+02 -0.47577238249E+02 -0.27955274919E+02  0.66664964312E+02  0.00000000000E+00 0. -1.
        -14    1    3    3    0    0 -0.34941914197E+02 -0.22072453374E+02 -0.31576543968E+02  0.52011620766E+02  0.00000000000E+00 0.  1.
          5    1    4    4  501    0  0.21515750162E+01 -0.48172386400E+01 -0.29946171258E+01  0.73671700737E+01  0.41800000000E+01 0.  1.
         -5    1    4    4    0  501 -0.14140105447E+02  0.12495411210E+03  0.68419426492E+03  0.69566711670E+03  0.41800000000E+01 0.  1.
</event>
<event>
11    1  0.8974665E-009  0.2394728E+03  0.7561462E-02  0.1029662E+00
         22   -1    0    0    0    0  0.00000000000E+00  0.00000000000E+00  0.52095216063E+03  0.52095216063E+03  0.00000000000E+00 0.  1.
         22   -1    0    0    0    0 -0.00000000000E+00 -0.00000000000E+00 -0.88978440440E+03  0.88978440440E+03  0.00000000000E+00 0. -1.
         24    2    1    2    0    0 -0.20221029652E+03 -0.27732931673E+02 -0.75582111719E+03  0.78702010659E+03  0.80479609046E+02 0.  0.
         25    2    1    2    0    0  0.19936040833E+03  0.53920530186E+02  0.15339970088E+02  0.24194182160E+03  0.12509410207E+03 0.  0.
        -24    2    1    2    0    0  0.28498881913E+01 -0.26187598513E+02  0.37164890333E+03  0.38177463683E+03  0.83276970419E+02 0.  0.
        -11    1    3    3    0    0 -0.65936255605E+01 -0.10465523006E+02 -0.14230334804E+03  0.14283993116E+03  0.00000000000E+00 0.  1.
         12    1    3    3    0    0 -0.19561667096E+03 -0.17267408667E+02 -0.61351776915E+03  0.64418017543E+03  0.00000000000E+00 0. -1.
         13    1    5    5    0    0 -0.15930752581E+02  0.24629702356E+02  0.81661370084E+02  0.86769755560E+02  0.00000000000E+00 0. -1.
        -14    1    5    5    0    0  0.18780640772E+02 -0.50817300869E+02  0.28998753325E+03  0.29500488127E+03  0.00000000000E+00 0.  1.
          5    1    4    4  501    0  0.74147019487E+02 -0.30260727769E+02 -0.27939864545E+02  0.84921143272E+02  0.41800000000E+01 0.  1.
         -5    1    4    4    0  501  0.12521338885E+03  0.84181257955E+02  0.43279834633E+02  0.15702067833E+03  0.41800000000E+01 0.  1.
</event>
<event>
11    1  0.8974665E-009  0.1282896E+03  0.7561462E-02  0.1121389E+00
         22   -1    0    0    0    0  0.00000000000E+00  0.00000000000E+00  0.40160224538E+03  0.40160224538E+03  0.00000000000E+00 0. -1.
         22   -1    0    0    0    0 -0.00000000000E+00 -0.00000000000E+00 -0.17695496994E+03  0.17695496994E+03  0.00000000000E+00 0. -1.
        -24    2    1    2    0    0 -0.21373653827E+02  0.22305018861E+00 -0.36940171790E+02  0.89775045508E+02  0.78981641378E+02 0.  0.
         25    2    1    2    0    0  0.34130801370E+02  0.24635429506E+02 -0.67864450519E+02  0.14841907455E+03  0.12510324559E+03 0.  0.
         24    2    1    2    0    0 -0.12757147544E+02 -0.24858479695E+02  0.32945189776E+03  0.34036309526E+03  0.80794769969E+02 0.  0.
        -11    1    5    5    0    0 -0.34657889286E+02 -0.35367140970E+02  0.12464658342E+03  0.13412223793E+03  0.00000000000E+00 0.  1.
         12    1    5    5    0    0  0.21900741742E+02  0.10508661275E+02  0.20480531434E+03  0.20624085733E+03  0.00000000000E+00 0. -1.
         11    1    3    3    0    0  0.78044262692E+01 -0.35125001026E+02 -0.15692767656E+02  0.39254779622E+02  0.00000000000E+00 0. -1.
        -12    1    3    3    0    0 -0.29178080096E+02  0.35348051215E+02 -0.21247404134E+02  0.50520265886E+02  0.00000000000E+00 0.  1.
          5    1    4    4  501    0  0.22375778316E+01  0.19511413253E+02 -0.10039599518E+03  0.10238422852E+03  0.41800000000E+01 0.  1.
         -5    1    4    4    0  501  0.31893223539E+02  0.51240162531E+01  0.32531544665E+02  0.46034846025E+02  0.41800000000E+01 0.  1.
</event>
<event>
11    1  0.8974665E-009  0.1455210E+03  0.7561462E-02  0.1101545E+00
         22   -1    0    0    0    0  0.00000000000E+00  0.00000000000E+00  0.26407835712E+03  0.26407835712E+03  0.00000000000E+00 0. -1.
         22   -1    0    0    0    0 -0.00000000000E+00 -0.00000000000E+00 -0.49631525635E+03  0.49631525635E+03  0.00000000000E+00 0.  1.
         24    2    1    2    0    0 -0.34719741522E+02  0.29134087685E+02 -0.40024020303E+03  0.41053988534E+03  0.79350625798E+02 0.  0.
         25    2    1    2    0    0  0.40862398173E+02  0.49239701425E+02 -0.97465249384E+01  0.14084206590E+03  0.12508880444E+03 0.  0.
        -24    2    1    2    0    0 -0.61426566513E+01 -0.78373789110E+02  0.17774982874E+03  0.20901166224E+03  0.76881013797E+02 0.  0.
        -13    1    3    3    0    0 -0.59697082849E+02  0.25327183459E+02 -0.25486810731E+03  0.26298851695E+03  0.00000000000E+00 0.  1.
         14    1    3    3    0    0  0.24977341327E+02  0.38069042266E+01 -0.14537209572E+03  0.14755136839E+03  0.00000000000E+00 0. -1.
         13    1    5    5    0    0 -0.23807419116E+02 -0.69261672866E+01  0.95383584269E+02  0.98553503977E+02  0.00000000000E+00 0. -1.
        -14    1    5    5    0    0  0.17664762465E+02 -0.71447621824E+02  0.82366244474E+02  0.11045815826E+03  0.00000000000E+00 0.  1.
          5    1    4    4  501    0 -0.36547792418E+02 -0.16885112551E+01  0.21890663693E+02  0.42840001842E+02  0.41800000000E+01 0.  1.
         -5    1    4    4    0  501  0.77410190591E+02  0.50928212680E+02 -0.31637188632E+02  0.98002064053E+02  0.41800000000E+01 0.  1.
</event>
<event>
11    1  0.8974665E-009  0.2835708E+03  0.7561462E-02  0.1007395E+00
         22   -1    0    0    0    0  0.00000000000E+00  0.00000000000E+00  0.89959108851E+03  0.89959108851E+03  0.00000000000E+00 0. -1.
         22   -1    0    0    0    0 -0.00000000000E+00 -0.00000000000E+00 -0.15708994401E+04  0.15708994401E+04  0.00000000000E+00 0. -1.
         24    2    1    2    0    0 -0.59432579380E+02 -0.54453801281E+02 -0.14602711361E+04  0.14650459899E+04  0.86432133179E+02 0.  0.
         25    2    1    2    0    0 -0.11661330952E+03  0.23771289895E+03  0.18780311712E+03  0.34788424739E+03  0.12508937804E+03 0.  0.
        -24    2    1    2    0    0  0.17604588890E+03 -0.18325909766E+03  0.60115966737E+03  0.65756029134E+03  0.80103303276E+02 0.  0.
        -13    1    3    3    0    0 -0.30727576078E+01 -0.93286692357E+01 -0.14737534781E+02  0.17710472621E+02  0.00000000000E+00 0.  1.
         14    1    3    3    0    0 -0.56359821772E+02 -0.45125132046E+02 -0.14455336013E+04  0.14473355173E+04  0.00000000000E+00 0. -1.
         11    1    5    5    0    0  0.10159343030E+03 -0.15048658838E+03  0.46156066765E+03  0.49598960501E+03  0.00000000000E+00 0. -1.
        -12    1    5    5    0    0  0.74452458592E+02 -0.32772509288E+02  0.13959899973E+03  0.16157068633E+03  0.00000000000E+00 0.  1.
          5    1    4    4  501    0 -0.14266350166E+03  0.19795475874E+03  0.14555360714E+03  0.28415187165E+03  0.41800000000E+01 0. -1.
         -5    1    4    4    0  501  0.26050192138E+02  0.39758140204E+02  0.42249509982E+02  0.63732375734E+02  0.41800000000E+01 0. -1.
</event>
<event>
11    1  0.8974665E-009  0.1940293E+03  0.7561462E-02  0.1058828E+00
         22   -1    0    0    0    0  0.00000000000E+00  0.00000000000E+00  0.50073167655E+04  0.50073167655E+04  0.00000000000E+00 0.  1.
         22   -1    0    0    0    0 -0.00000000000E+00 -0.00000000000E+00 -0.17773839183E+04  0.17773839183E+04  0.00000000000E+00 0.  1.
        -24    2    1    2    0    0  0.87841440312E+02 -0.12048259034E+03 -0.17425586930E+04  0.17511222214E+04  0.87670192713E+02 0.  0.
         25    2    1    2    0    0 -0.63954746242E+02  0.85954882116E+02  0.19499392184E+03  0.25524360118E+03  0.12509282577E+03 0.  0.
         24    2    1    2    0    0 -0.23886694070E+02  0.34527708226E+02  0.47774976183E+04  0.47783348612E+04  0.78979844533E+02 0.  0.
        -11    1    5    5    0    0 -0.41016132863E+02  0.29215277925E+02  0.44878676762E+04  0.44881501907E+04  0.00000000000E+00 0.  1.
         12    1    5    5    0    0  0.17129438793E+02  0.53124303006E+01  0.28962994209E+03  0.29018467041E+03  0.00000000000E+00 0. -1.
         13    1    3    3    0    0 -0.15487191797E+02 -0.18535443473E+02 -0.14664690129E+03  0.14862277562E+03  0.00000000000E+00 0. -1.
        -14    1    3    3    0    0  0.10332863211E+03 -0.10194714687E+03 -0.15959117917E+04  0.16024994458E+04  0.00000000000E+00 0.  1.
          5    1    4    4  501    0 -0.94299743230E+02  0.93753172669E+02  0.15496054656E+03  0.20423599670E+03  0.41800000000E+01 0. -1.
         -5    1    4    4    0  501  0.30344996988E+02 -0.77982905529E+01  0.40033375289E+02  0.51007604480E+02  0.41800000000E+01 0. -1.
</event>
<event>
11    1  0.8974665E-009  0.1288676E+03  0.7561462E-02  0.1120668E+00
         22   -1    0    0    0    0  0.00000000000E+00  0.00000000000E+00  0.57867918869E+02  0.57867918869E+02  0.00000000000E+00 0. -1.
         22   -1    0    0    0    0 -0.00000000000E+00 -0.00000000000E+00 -0.19491299880E+04  0.19491299880E+04  0.00000000000E+00 0.  1.
        -24    2    1    2    0    0 -0.14450299681E+01  0.48226627201E+02 -0.14857593446E+04  0.14885436050E+04  0.77157878143E+02 0.  0.
         25    2    1    2    0    0 -0.11877757268E+01 -0.12651427180E+02 -0.40760207747E+03  0.42655304324E+03  0.12508627310E+03 0.  0.
         24    2    1    2    0    0  0.26328056949E+01 -0.35575200021E+02  0.20993529459E+01  0.91901258649E+02  0.84669401416E+02 0.  0.
        -13    1    5    5    0    0 -0.23292928936E+02  0.90186564513E+01 -0.23518429098E+02  0.34307626118E+02  0.00000000000E+00 0.  1.
         14    1    5    5    0    0  0.25925734631E+02 -0.44593856472E+02  0.25617782044E+02  0.57593632530E+02  0.00000000000E+00 0. -1.
         11    1    3    3    0    0  0.23353168722E+02  0.48082725590E+02 -0.58344358541E+03  0.58588713618E+03  0.00000000000E+00 0. -1.
        -12    1    3    3    0    0 -0.24798198690E+02  0.14390161064E+00 -0.90231575920E+03  0.90265646880E+03  0.00000000000E+00 0.  1.
          5    1    4    4  501    0 -0.23074156051E+02  0.14042477165E+02 -0.38296241657E+03  0.38393657386E+03  0.41800000000E+01 0. -1.
         -5    1    4    4    0  501  0.21886380324E+02 -0.26693904346E+02 -0.24639660894E+02  0.42616469374E+02  0.41800000000E+01 0. -1.
</event>
<event>
11    1  0.8974665E-009  0.2088755E+03  0.7561462E-02  0.1048419E+00
         22   -1    0    0    0    0  0.00000000000E+00  0.00000000000E+00  0.58139449058E+03  0.58139449058E+03  0.00000000000E+00 0.  1.
         22   -1    0    0    0    0 -0.00000000000E+00 -0.00000000000E+00 -0.45506180172E+03  0.45506180172E+03  0.00000000000E+00 0. -1.
        -24    2    1    2    0    0 -0.34007947163E+02  0.15196087405E+03 -0.29585010807E+03  0.34407265936E+03  0.81302280181E+02 0.  0.
         25    2    1    2    0    0  0.58587073311E+01 -0.24126015201E+03  0.20998732552E+02  0.27263396544E+03  0.12509015527E+03 0.  0.
         24    2    1    2    0    0  0.28149239832E+02  0.89299277962E+02  0.40118406438E+03  0.41974966750E+03  0.80463588704E+02 0.  0.
        -11    1    5    5    0    0  0.28218159218E+01  0.96952820913E+02  0.31630161341E+03  0.33083911917E+03  0.00000000000E+00 0.  1.
         12    1    5    5    0    0  0.25327423910E+02 -0.76535429517E+01  0.84882450974E+02  0.88910548333E+02  0.00000000000E+00 0. -1.
         11    1    3    3    0    0 -0.25049455731E+02  0.15477475483E+03 -0.29568358113E+03  0.33468116187E+03  0.00000000000E+00 0. -1.
        -12    1    3    3    0    0 -0.89584914322E+01 -0.28138807789E+01 -0.16652693867E+00  0.93914974844E+01  0.00000000000E+00 0.  1.
          5    1    4    4  501    0  0.65023795327E+02 -0.11404855173E+03  0.61828598075E+01  0.13149473855E+03  0.41800000000E+01 0.  1.
         -5    1    4    4    0  501 -0.59165087996E+02 -0.12721160028E+03  0.14815872745E+02  0.14113922690E+03  0.41800000000E+01 0.  1.
</event>
<event>
11    1  0.8974665E-009  0.1585962E+03  0.7561462E-02  0.1088405E+00
         22   -1    0    0    0    0  0.00000000000E+00  0.00000000000E+00  0.99363706570E+03  0.99363706570E+03  0.00000000000E+00 0.  1.
         22   -1    0    0    0    0 -0.00000000000E+00 -0.00000000000E+00 -0.14414233974E+03  0.14414233974E+03  0.00000000000E+00 0.  1.
         24    2    1    2    0    0  0.70176213597E+02 -0.64259732083E+02 -0.86937856198E+02  0.15168900668E+03  0.79983434446E+02 0.  0.
         25    2    1    2    0    0 -0.13240915939E+03  0.46481708585E+02  0.43140403703E+03  0.47058489379E+03  0.12509182374E+03 0.  0.
        -24    2    1    2    0    0  0.62232945798E+02  0.17778023498E+02  0.50502854513E+03  0.51550550498E+03  0.80641779536E+02 0.  0.
        -13    1    3    3    0    0  0.45544104422E+02 -0.79965692127E+02 -0.79335545110E+02  0.12150269990E+03  0.00000000000E+00 0.  1.
         14    1    3    3    0    0  0.24632109175E+02  0.15705960044E+02 -0.76023110877E+01  0.30186306782E+02  0.00000000000E+00 0. -1.
         13    1    5    5    0    0  0.15381983888E+02  0.76995486103E+01  0.14095400048E+02  0.22238902393E+02  0.00000000000E+00 0. -1.
        -14    1    5    5    0    0  0.46850961909E+02  0.10078474888E+02  0.49093314508E+03  0.49326660258E+03  0.00000000000E+00 0.  1.
          5    1    4    4  501    0 -0.78018734208E+02  0.74657247323E+02  0.36264200039E+03  0.37840100463E+03  0.41800000000E+01 0.  1.
         -5    1    4    4    0  501 -0.54390425187E+02 -0.28175538738E+02  0.68762036647E+02  0.92183889151E+02  0.41800000000E+01 0.  1.
</event>
<event>
11    1  0.8974665E-009  0.1624848E+03  0.7561462E-02  0.1084763E+00
         22   -1    0    0    0    0  0.00000000000E+00  0.00000000000E+00  0.11748237899E+04  0.11748237899E+04  0.00000000000E+00 0. -1.
         22   -1    0    0    0    0 -0.00000000000E+00 -0.00000000000E+00 -0.69157902798E+03  0.69157902798E+03  0.00000000000E+00 0.  1.
         24    2    1    2    0    0  0.85941513289E+02 -0.49040264337E+02 -0.57031198022E+03  0.58438101863E+03  0.80340082885E+02 0.  0.
         25    2    1    2    0    0 -0.14330985006E+03  0.97473964208E+02 -0.90803551470E+01  0.21393809622E+03  0.12509264304E+03 0.  0.
        -24    2    1    2    0    0  0.57368336767E+02 -0.48433699871E+02  0.10626370973E+04  0.10680837031E+04  0.77254428910E+02 0.  0.
        -11    1    3    3    0    0  0.10069349223E+03 -0.49493698821E+02 -0.51895006700E+03  0.53094065359E+03  0.00000000000E+00 0.  1.
         12    1    3    3    0    0 -0.14751978937E+02  0.45343448352E+00 -0.51361913219E+02  0.53440365033E+02  0.00000000000E+00 0. -1.
         13    1    5    5    0    0  0.11966701811E+02  0.31182497751E+01  0.62210104510E+03  0.62222394341E+03  0.00000000000E+00 0. -1.
        -14    1    5    5    0    0  0.45401634957E+02 -0.51551949646E+02  0.44053605223E+03  0.44585975966E+03  0.00000000000E+00 0.  1.
          5    1    4    4  501    0  0.11455678934E+02  0.50225502418E+02 -0.60607245329E+01  0.52038816809E+02  0.41800000000E+01 0.  1.
         -5    1    4    4    0  501 -0.15476552899E+03  0.47248461790E+02 -0.30196306140E+01  0.16189927941E+03  0.41800000000E+01 0.  1.
</event>
<event>
11    1  0.8974665E-009  0.1632591E+03  0.7561462E-02  0.1084051E+00
         22   -1    0    0    0    0  0.00000000000E+00  0.00000000000E+00  0.20292665724E+03  0.20292665724E+03  0.00000000000E+00 0. -1.
         22   -1    0    0    0    0 -0.00000000000E+00 -0.00000000000E+00 -0.47469020662E+03  0.47469020662E+03  0.00000000000E+00 0.  1.
         24    2    1    2    0    0  0.29354613655E+02  0.10293915393E+03 -0.29846559225E+03  0.32702052920E+03  0.80015960944E+02 0.  0.
         25    2    1    2    0    0 -0.31611149361E+02 -0.93535406813E+02 -0.10968919371E+03  0.19346234332E+03  0.12509125459E+03 0.  0.
        -24    2    1    2    0    0  0.22565357060E+01 -0.94037471199E+01  0.13639123658E+03  0.15713399134E+03  0.77427381511E+02 0.  0.
        -11    1    3    3    0    0  0.40737268298E+02  0.10000826908E+03 -0.29590135174E+03  0.31499014092E+03  0.00000000000E+00 0.  1.
         12    1    3    3    0    0 -0.11382654643E+02  0.29308848539E+01 -0.25642405023E+01  0.12030388277E+02  0.00000000000E+00 0. -1.
         13    1    5    5    0    0 -0.22376595726E+02 -0.21581392231E+02  0.12242324014E+03  0.12630882096E+03  0.00000000000E+00 0. -1.
        -14    1    5    5    0    0  0.24633131432E+02  0.12177645111E+02  0.13967996438E+02  0.30825170381E+02  0.00000000000E+00 0.  1.
          5    1    4    4  501    0  0.38467211375E+02  0.41592534393E+01 -0.30370707680E+02  0.49364744759E+02  0.41800000000E+01 0. -1.
         -5    1    4    4    0  501 -0.70078360736E+02 -0.97694660252E+02 -0.79318486025E+02  0.14409759856E+03  0.41800000000E+01 0. -1.
</event>
<event>
11    1  0.9498866E-009  0.1494160E+03  0.7561462E-02  0.1097477E+00
         22   -1    0    0    0    0  0.00000000000E+00  0.00000000000E+00  0.44976841090E+03  0.44976841090E+03  0.00000000000E+00 0.  1.
         22   -1    0    0    0    0 -0.00000000000E+00 -0.00000000000E+00 -0.58794821920E+03  0.58794821920E+03  0.00000000000E+00 0.  1.
         24    2    1    2    0    0  0.62245964627E+02 -0.69942616654E+02 -0.45150587138E+03  0.46820273416E+03  0.81177082053E+02 0.  0.
         25    2    1    2    0    0 -0.47493059820E+02 -0.65665497025E+01 -0.82815715592E+02  0.15749383293E+03  0.12508858604E+03 0.  0.
        -24    2    1    2    0    0 -0.14752904807E+02  0.76509166357E+02  0.39614177867E+03  0.41202006300E+03  0.82224830598E+02 0.  0.
        -13    1    3    3    0    0  0.24385734222E+02 -0.80597489222E+02 -0.32440679928E+03  0.33515726267E+03  0.00000000000E+00 0.  1.
         14    1    3    3    0    0  0.37860230405E+02  0.10654872568E+02 -0.12709907210E+03  0.13304547149E+03  0.00000000000E+00 0. -1.
         11    1    5    5    0    0  0.19716898641E+01  0.13990668575E+02  0.41555172979E+01  0.14727345046E+02  0.00000000000E+00 0. -1.
        -12    1    5    5    0    0 -0.16724594671E+02  0.62518497782E+02  0.39198626137E+03  0.39729271795E+03  0.00000000000E+00 0.  1.
          5    1    4    4  501    0 -0.76681202103E+02  0.45083524732E+01 -0.92656109173E+01  0.77483262345E+02  0.41800000000E+01 0.  1.
         -5    1    4    4    0  501  0.29188142283E+02 -0.11074902176E+02 -0.73550104675E+02  0.80010570588E+02  0.41800000000E+01 0.  1.
</event>
<event>
11    1  0.8974665E-009  0.1323816E+03  0.7561462E-02  0.1116377E+00
         22   -1    0    0    0    0  0.00000000000E+00  0.00000000000E+00  0.58670980484E+03  0.58670980484E+03  0.00000000000E+00 0. -1.
         22   -1    0    0    0    0 -0.00000000000E+00 -0.00000000000E+00 -0.47297912512E+03  0.47297912512E+03  0.00000000000E+00 0.  1.
         24    2    1    2    0    0  0.22375919967E+01  0.47452963376E+02 -0.36713592323E+03  0.37870480000E+03  0.79823235147E+02 0.  0.
         25    2    1    2    0    0  0.17287873664E+02 -0.13622998983E+02 -0.54424983876E+02  0.13817539654E+03  0.12508359069E+03 0.  0.
        -24    2    1    2    0    0 -0.19525465661E+02 -0.33829964393E+02  0.53529158682E+03  0.54280873341E+03  0.81108124404E+02 0.  0.
        -13    1    3    3    0    0  0.32572038267E+02 -0.27784817046E+01 -0.10030234414E+03  0.10549510831E+03  0.00000000000E+00 0.  1.
         14    1    3    3    0    0 -0.30334446271E+02  0.50231445081E+02 -0.26683357909E+03  0.27320969170E+03  0.00000000000E+00 0. -1.
         11    1    5    5    0    0 -0.26729204166E+02 -0.10504243837E+01  0.45499141491E+03  0.45577707422E+03  0.00000000000E+00 0. -1.
        -12    1    5    5    0    0  0.72037385055E+01 -0.32779540009E+02  0.80300171917E+02  0.87031659191E+02  0.00000000000E+00 0.  1.
          5    1    4    4  501    0  0.13661412998E+02  0.21097818580E+02  0.34305597888E+02  0.42732874937E+02  0.41800000000E+01 0.  1.
         -5    1    4    4    0  501  0.36264606658E+01 -0.34720817563E+02 -0.88730581764E+02  0.95442521600E+02  0.41800000000E+01 0.  1.
</event>
<event>
11    1  0.8974665E-009  0.1352209E+03  0.7561462E-02  0.1113016E+00
         22   -1    0    0    0    0  0.00000000000E+00  0.00000000000E+00  0.11880037723E+04  0.11880037723E+04  0.00000000000E+00 0. -1.
         22   -1    0    0    0    0 -0.00000000000E+00 -0.00000000000E+00 -0.18575826919E+03  0.18575826919E+03  0.00000000000E+00 0.  1.
        -24    2    1    2    0    0 -0.57479846008E+02  0.23417913802E+02 -0.11106796577E+03  0.15105019588E+03  0.81410916176E+02 0.  0.
         25    2    1    2    0    0 -0.95329133671E+00 -0.24984173152E+02  0.25134204285E+02  0.13002714350E+03  0.12510080795E+03 0.  0.
         24    2    1    2    0    0  0.58433137345E+02  0.15662593508E+01  0.10881792646E+04  0.10926847022E+04  0.80055365857E+02 0.  0.
        -11    1    5    5    0    0  0.13126918809E+02 -0.15621480834E+01  0.22929376672E+02  0.26467198919E+02  0.00000000000E+00 0.  1.
         12    1    5    5    0    0  0.45306218536E+02  0.31284074342E+01  0.10652498880E+04  0.10662175032E+04  0.00000000000E+00 0. -1.
         13    1    3    3    0    0 -0.31046994672E+02 -0.24923198569E+02 -0.19856731134E+02  0.44490127853E+02  0.00000000000E+00 0. -1.
        -14    1    3    3    0    0 -0.26432851336E+02  0.48341112371E+02 -0.91211234636E+02  0.10656006803E+03  0.00000000000E+00 0.  1.
          5    1    4    4  501    0 -0.27247390522E+02 -0.48116914836E+01 -0.44630726067E+02  0.52677763568E+02  0.41800000000E+01 0. -1.
         -5    1    4    4    0  501  0.26294099186E+02 -0.20172481669E+02  0.69764930352E+02  0.77349379931E+02  0.41800000000E+01 0. -1.
</event>
<event>
11    1  0.8974665E-009  0.1634882E+03  0.7561462E-02  0.1083842E+00
         22   -1    0    0    0    0  0.00000000000E+00  0.00000000000E+00  0.18837453008E+04  0.18837453008E+04  0.00000000000E+00 0.  1.
         22   -1    0    0    0    0 -0.00000000000E+00 -0.00000000000E+00 -0.14882771704E+04  0.14882771704E+04  0.00000000000E+00 0. -1.
         24    2    1    2    0    0 -0.57726398185E+02 -0.13340668160E+02 -0.12564931513E+04  0.12604423258E+04  0.80184207180E+02 0.  0.
         25    2    1    2    0    0  0.16089642721E+03 -0.41156471458E+01 -0.18144691903E+03  0.27290197082E+03  0.12509157609E+03 0.  0.
        -24    2    1    2    0    0 -0.10317002903E+03  0.17456315305E+02  0.18334082007E+04  0.18386781746E+04  0.91667997209E+02 0.  0.
        -13    1    3    3    0    0  0.15729360328E+01  0.16635681372E+02 -0.66816494628E+03  0.66837385905E+03  0.00000000000E+00 0.  1.
         14    1    3    3    0    0 -0.59299334217E+02 -0.29976349531E+02 -0.58832820498E+03  0.59206846677E+03  0.00000000000E+00 0. -1.
         11    1    5    5    0    0 -0.93771694844E+02 -0.15255672605E+02  0.98070150457E+03  0.98529249838E+03  0.00000000000E+00 0. -1.
        -12    1    5    5    0    0 -0.93983341854E+01  0.32711987911E+02  0.85270669611E+03  0.85338567625E+03  0.00000000000E+00 0.  1.
          5    1    4    4  501    0  0.12759550211E+03  0.42585857652E+02 -0.16532208548E+03  0.21317371268E+03  0.41800000000E+01 0. -1.
         -5    1    4    4    0  501  0.33300925104E+02 -0.46701504797E+02 -0.16124833552E+02  0.59728258138E+02  0.41800000000E+01 0. -1.
</event>
<event>
11    1  0.8974665E-009  0.1674560E+03  0.7561462E-02  0.1080267E+00
         22   -1    0    0    0    0  0.00000000000E+00  0.00000000000E+00  0.72815882155E+03  0.72815882155E+03  0.00000000000E+00 0.  1.
         22   -1    0    0    0    0 -0.00000000000E+00 -0.00000000000E+00 -0.11896823844E+04  0.11896823844E+04  0.00000000000E+00 0.  1.
        -24    2    1    2    0    0  0.66426698792E+01  0.70592036382E+02 -0.10927093411E+04  0.10980457928E+04  0.81630252684E+02 0.  0.
         25    2    1    2    0    0  0.10492616945E+03 -0.72982771990E+02  0.53521597026E+01  0.17891933371E+03  0.12508995290E+03 0.  0.
         24    2    1    2    0    0 -0.11156883933E+03  0.23907356090E+01  0.62583361861E+03  0.64087607945E+03  0.81247212289E+02 0.  0.
        -13    1    5    5    0    0 -0.10723182310E+03  0.28302235581E+02  0.47532561446E+03  0.48809232752E+03  0.00000000000E+00 0.  1.
         14    1    5    5    0    0 -0.43370162325E+01 -0.25911499972E+02  0.15050800415E+03  0.15278375193E+03  0.00000000000E+00 0. -1.
         11    1    3    3    0    0 -0.60912637368E+01 -0.16297462367E+02 -0.10412149207E+03  0.10556512627E+03  0.00000000000E+00 0. -1.
        -12    1    3    3    0    0  0.12733933616E+02  0.86889498748E+02 -0.98858784908E+03  0.99248066651E+03  0.00000000000E+00 0.  1.
          5    1    4    4  501    0  0.65150875003E+02 -0.10761651478E+03  0.16062358568E+01  0.12588090864E+03  0.41800000000E+01 0.  1.
         -5    1    4    4    0  501  0.39775294450E+02  0.34633742787E+02  0.37459238459E+01  0.53038425066E+02  0.41800000000E+01 0.  1.
</event>
<event>
11    1  0.8974665E-009  0.1537808E+03  0.7561462E-02  0.1093077E+00
         22   -1    0    0    0    0  0.00000000000E+00  0.00000000000E+00  0.25896940407E+04  0.25896940407E+04  0.00000000000E+00 0.  1.
         22   -1    0    0    0    0 -0.00000000000E+00 -0.00000000000E+00 -0.16103183813E+03  0.16103183813E+03  0.00000000000E+00 0.  1.
        -24    2    1    2    0    0  0.99822402555E+01  0.89367560262E+02 -0.12727313072E+03  0.18320102949E+03  0.96322175295E+02 0.  0.
         25    2    1    2    0    0 -0.49708037288E+02 -0.60876660908E+02  0.13763695880E+04  0.13842748451E+04  0.12508695856E+03 0.  0.
         24    2    1    2    0    0  0.39725797033E+02 -0.28490899354E+02  0.11795657453E+04  0.11832500042E+04  0.79469206377E+02 0.  0.
        -11    1    5    5    0    0  0.32286846030E+02  0.14307273299E+02  0.86245959996E+03  0.86318230987E+03  0.00000000000E+00 0.  1.
         12    1    5    5    0    0  0.74389510028E+01 -0.42798172653E+02  0.31710614533E+03  0.32006769437E+03  0.00000000000E+00 0. -1.
         11    1    3    3    0    0  0.95692008173E+01  0.30397741772E+02  0.10324388329E+02  0.33499034366E+02  0.00000000000E+00 0. -1.
        -12    1    3    3    0    0  0.41303943824E+00  0.58969818490E+02 -0.13759751905E+03  0.14970199512E+03  0.00000000000E+00 0.  1.
          5    1    4    4  501    0 -0.87618972950E+02 -0.64592606282E+02  0.10646525757E+04  0.10702111327E+04  0.41800000000E+01 0. -1.
         -5    1    4    4    0  501  0.37910935661E+02  0.37159453735E+01  0.31171701233E+03  0.31406371243E+03  0.41800000000E+01 0. -1.
</event>
<event>
11    1  0.8974665E-009  0.1402028E+03  0.7561462E-02  0.1107332E+00
         22   -1    0    0    0    0  0.00000000000E+00  0.00000000000E+00  0.55449319536E+03  0.55449319536E+03  0.00000000000E+00 0. -1.
         22   -1    0    0    0    0 -0.00000000000E+00 -0.00000000000E+00 -0.88558636829E+03  0.88558636829E+03  0.00000000000E+00 0.  1.
        -24    2    1    2    0    0 -0.40383658543E+02 -0.51505125270E+02 -0.80091795816E+03  0.80784266050E+03  0.82804411790E+02 0.  0.
         25    2    1    2    0    0 -0.41696162592E+01  0.39460099018E+02 -0.20848070743E+02  0.13287893818E+03  0.12509070727E+03 0.  0.
         24    2    1    2    0    0  0.44553274802E+02  0.12045026253E+02  0.49067285598E+03  0.49935796497E+03  0.80426666126E+02 0.  0.
        -13    1    5    5    0    0  0.19753326961E+02  0.46323240072E+02  0.27559598738E+03  0.28015921323E+03  0.00000000000E+00 0.  1.
         14    1    5    5    0    0  0.24799947841E+02 -0.34278213819E+02  0.21507686860E+03  0.21919875174E+03  0.00000000000E+00 0. -1.
         11    1    3    3    0    0 -0.24893469637E+02 -0.25423182634E+02 -0.97813596260E+02  0.10408420946E+03  0.00000000000E+00 0. -1.
        -12    1    3    3    0    0 -0.15490188906E+02 -0.26081942636E+02 -0.70310436190E+03  0.70375845104E+03  0.00000000000E+00 0.  1.
          5    1    4    4  501    0  0.10053270357E+02  0.76267551997E+02  0.16048895422E+02  0.78694645159E+02  0.41800000000E+01 0. -1.
         -5    1    4    4    0  501 -0.14222886616E+02 -0.36807452979E+02 -0.36896966165E+02  0.54184293025E+02  0.41800000000E+01 0. -1.
</event>
<event>
11    1  0.8974665E-009  0.1426954E+03  0.7561462E-02  0.1104585E+00
         22   -1    0    0    0    0  0.00000000000E+00  0.00000000000E+00  0.27059321313E+04  0.27059321313E+04  0.00000000000E+00 0. -1.
         22   -1    0    0    0    0 -0.00000000000E+00 -0.00000000000E+00 -0.29912210874E+03  0.29912210874E+03  0.00000000000E+00 0.  1.
         24    2    1    2    0    0  0.50943839533E+02 -0.30171879584E+02 -0.23328815092E+03  0.25212216545E+03  0.75077345773E+02 0.  0.
         25    2    1    2    0    0 -0.11820350473E+03  0.21706161605E+02  0.80522329267E+02  0.19124185662E+03  0.12508547570E+03 0.  0.
        -24    2    1    2    0    0  0.67259665201E+02  0.84657179798E+01  0.25595758442E+04  0.25616902179E+04  0.78947702367E+02 0.  0.
        -13    1    3    3    0    0  0.43117310542E+02  0.94501041676E-01 -0.20649811639E+03  0.21095161405E+03  0.00000000000E+00 0.  1.
         14    1    3    3    0    0  0.78265289917E+01 -0.30266380626E+02 -0.26790034524E+02  0.41170551394E+02  0.00000000000E+00 0. -1.
         13    1    5    5    0    0  0.65488005843E+02 -0.57477791281E+01  0.24776287632E+04  0.24785007573E+04  0.00000000000E+00 0. -1.
        -14    1    5    5    0    0  0.17716593578E+01  0.14213497108E+02  0.81947080951E+02  0.83189460590E+02  0.00000000000E+00 0.  1.
          5    1    4    4  501    0 -0.48377036797E+02  0.13172791303E+02 -0.31163730543E+02  0.59182012650E+02  0.41800000000E+01 0.  1.
         -5    1    4    4    0  501 -0.69826467937E+02  0.85333703016E+01  0.11168605981E+03  0.13205984397E+03  0.41800000000E+01 0.  1.
</event>
<event>
11    1  0.8974665E-009  0.1725040E+03  0.7561462E-02  0.1075873E+00
         22   -1    0    0    0    0  0.00000000000E+00  0.00000000000E+00  0.75053694729E+02  0.75053694729E+02  0.00000000000E+00 0.  1.
         22   -1    0    0    0    0 -0.00000000000E+00 -0.00000000000E+00 -0.14362463633E+04  0.14362463633E+04  0.00000000000E+00 0. -1.
         24    2    1    2    0    0  0.10091481612E+03  0.73493044958E+02 -0.12178438353E+04  0.12277062338E+04  0.92379443181E+02 0.  0.
         25    2    1    2    0    0 -0.43274820390E+02 -0.61184277530E+02 -0.98625421270E+02  0.17604107160E+03  0.12508900541E+03 0.  0.
        -24    2    1    2    0    0 -0.57639995731E+02 -0.12308767428E+02 -0.44723411985E+02  0.10755275263E+03  0.78061105260E+02 0.  0.
        -11    1    3    3    0    0  0.64990904398E+02 -0.81194003616E+01 -0.46156156813E+03  0.46618539605E+03  0.00000000000E+00 0.  1.
         12    1    3    3    0    0  0.35923911723E+02  0.81612445320E+02 -0.75628226722E+03  0.76152083778E+03  0.00000000000E+00 0. -1.
         13    1    5    5    0    0 -0.61443079174E+02 -0.36907676399E+02 -0.25406851993E+02  0.76045622383E+02  0.00000000000E+00 0. -1.
        -14    1    5    5    0    0  0.38030834429E+01  0.24598908970E+02 -0.19316559991E+02  0.31507130242E+02  0.00000000000E+00 0.  1.
          5    1    4    4  501    0 -0.43223075092E+02 -0.98819886145E+02 -0.71983536544E+02  0.12974091896E+03  0.41800000000E+01 0. -1.
         -5    1    4    4    0  501 -0.51745297246E-01  0.37635608615E+02 -0.26641884726E+02  0.46300152647E+02  0.41800000000E+01 0. -1.
</event>
<event>
11    1  0.8974665E-009  0.1573197E+03  0.7561462E-02  0.1089626E+00
         22   -1    0    0    0    0  0.00000000000E+00  0.00000000000E+00  0.12095952752E+03  0.12095952752E+03  0.00000000000E+00 0.  1.
         22   -1    0    0    0    0 -0.00000000000E+00 -0.00000000000E+00 -0.78178398436E+03  0.78178398436E+03  0.00000000000E+00 0. -1.
         24    2    1    2    0    0  0.64209195862E+02 -0.51478150367E+02 -0.45100241654E+03  0.46559695108E+03  0.81268200008E+02 0.  0.
         25    2    1    2    0    0 -0.13228231838E+03  0.95097136586E+02 -0.24378974718E+03  0.31878367337E+03  0.12509001733E+03 0.  0.
        -24    2    1    2    0    0  0.68073122518E+02 -0.43618986220E+02  0.33967706884E+02  0.11836288743E+03  0.79494666750E+02 0.  0.
        -11    1    3    3    0    0  0.77111794232E+02 -0.29831182560E+02 -0.25719735568E+03  0.27016033763E+03  0.00000000000E+00 0.  1.
         12    1    3    3    0    0 -0.12902598370E+02 -0.21646967807E+02 -0.19380506087E+03  0.19543661345E+03  0.00000000000E+00 0. -1.
         13    1    5    5    0    0  0.10445480136E+02 -0.26964351360E+02 -0.21990420217E+02  0.36328540858E+02  0.00000000000E+00 0. -1.
        -14    1    5    5    0    0  0.57627642383E+02 -0.16654634860E+02  0.55958127101E+02  0.82034346573E+02  0.00000000000E+00 0.  1.
          5    1    4    4  501    0 -0.28442448649E+02  0.30479618061E+02 -0.17173345203E+03  0.17677056019E+03  0.41800000000E+01 0.  1.
         -5    1    4    4    0  501 -0.10383986973E+03  0.64617518526E+02 -0.72056295146E+02  0.14201311318E+03  0.41800000000E+01 0.  1.
</event>
<event>
11    1  0.8974665E-009  0.1996488E+03  0.7561462E-02  0.1054772E+00
         22   -1    0    0    0    0  0.00000000000E+00  0.00000000000E+00  0.25995964661E+03  0.25995964661E+03  0.00000000000E+00 0.  1.
         22   -1    0    0    0    0 -0.00000000000E+00 -0.00000000000E+00 -0.25588125244E+04  0.25588125244E+04  0.00000000000E+00 0.  1.
        -24    2    1    2    0    0 -0.58454265552E+02  0.14297943160E+03 -0.24143030568E+04  0.24206274137E+04  0.81962230200E+02 0.  0.
         25    2    1    2    0    0  0.10924002443E+03 -0.16407706668E+03 -0.25075583803E+02  0.23479797718E+03  0.12508652381E+03 0.  0.
         24    2    1    2    0    0 -0.50785758875E+02  0.21097635080E+02  0.14052576283E+03  0.16334678006E+03  0.62533007493E+02 0.  0.
        -13    1    5    5    0    0 -0.40566828802E+02 -0.12290609415E+02  0.10635845115E+03  0.11449387237E+03  0.00000000000E+00 0.  1.
         14    1    5    5    0    0 -0.10218930072E+02  0.33388244495E+02  0.34167311675E+02  0.48852907686E+02  0.00000000000E+00 0. -1.
         11    1    3    3    0    0 -0.53823776978E+02  0.12669787809E+03 -0.15346393929E+04  0.15408009013E+04  0.00000000000E+00 0. -1.
        -12    1    3    3    0    0 -0.46304885736E+01  0.16281553507E+02 -0.87966366391E+03  0.87982651245E+03  0.00000000000E+00 0.  1.
          5    1    4    4  501    0  0.12836515678E+01 -0.93161264281E+02  0.24425361026E+02  0.96409229771E+02  0.41800000000E+01 0.  1.
         -5    1    4    4    0  501  0.10795637286E+03 -0.70915802399E+02 -0.49500944829E+02  0.13838874741E+03  0.41800000000E+01 0.  1.
</event>
<event>
11    1  0.8974665E-009  0.1320619E+03  0.7561462E-02  0.1116761E+00
         22   -1    0    0    0    0  0.00000000000E+00  0.00000000000E+00  0.36453622196E+03  0.36453622196E+03  0.00000000000E+00 0. -1.
         22   -1    0    0    0    0 -0.00000000000E+00 -0.00000000000E+00 -0.35754444634E+03  0.35754444634E+03  0.00000000000E+00 0.  1.
         24    2    1    2    0    0 -0.28527037961E+02  0.44943992329E+02 -0.30845760103E+03  0.32188419882E+03  0.75030603621E+02 0.  0.
         25    2    1    2    0    0  0.37741002433E+02  0.47874853872E+01  0.99005525685E+02  0.16400297592E+03  0.12509028225E+03 0.  0.
        -24    2    1    2    0    0 -0.92139644722E+01 -0.49731477717E+02  0.21644385096E+03  0.23619349356E+03  0.79883094352E+02 0.  0.
        -11    1    3    3    0    0 -0.53316436893E+02  0.40034316511E+02 -0.22842143638E+03  0.23795323393E+03  0.00000000000E+00 0.  1.
         12    1    3    3    0    0  0.24789398932E+02  0.49096758181E+01 -0.80036164645E+02  0.83930964889E+02  0.00000000000E+00 0. -1.
         13    1    5    5    0    0  0.37464424494E+01 -0.53883775692E+02  0.21592068032E+03  0.22257411643E+03  0.00000000000E+00 0. -1.
        -14    1    5    5    0    0 -0.12960406922E+02  0.41522979749E+01  0.52317064690E+00  0.13619377136E+02  0.00000000000E+00 0.  1.
          5    1    4    4  501    0  0.82938406732E+02 -0.63039440216E+01  0.54906334169E+02  0.99753180167E+02  0.41800000000E+01 0.  1.
         -5    1    4    4    0  501 -0.45197404299E+02  0.11091429409E+02  0.44099191516E+02  0.64249795751E+02  0.41800000000E+01 0.  1.
</event>
<event>
11    1  0.8974665E-009  0.2122115E+03  0.7561462E-02  0.1046209E+00
         22   -1    0    0    0    0  0.00000000000E+00  0.00000000000E+00  0.90587072089E+03  0.90587072089E+03  0.00000000000E+00 0.  1.
         22   -1    0    0    0    0 -0.00000000000E+00 -0.00000000000E+00 -0.15797274273E+04  0.15797274273E+04  0.00000000000E+00 0.  1.
         24    2    1    2    0    0  0.72177657139E+02  0.11188017093E+03 -0.15133886220E+04  0.15213395842E+04  0.80013888095E+02 0.  0.
         25    2    1    2    0    0 -0.10485511558E+03  0.79135558310E+02  0.12679992057E+03  0.22132111340E+03  0.12509110091E+03 0.  0.
        -24    2    1    2    0    0  0.32677458446E+02 -0.19101572924E+03  0.71273199503E+03  0.74293745064E+03  0.80089535631E+02 0.  0.
        -13    1    3    3    0    0 -0.28819864634E+01  0.48088585854E+02 -0.76203374556E+03  0.76355500608E+03  0.00000000000E+00 0.  1.
         14    1    3    3    0    0  0.75059643602E+02  0.63791585072E+02 -0.75135487645E+03  0.75778457809E+03  0.00000000000E+00 0. -1.
         11    1    5    5    0    0 -0.13024976078E+02 -0.13988308890E+03  0.45140416995E+03  0.47276067224E+03  0.00000000000E+00 0. -1.
        -12    1    5    5    0    0  0.45702434524E+02 -0.51132640335E+02  0.26132782507E+03  0.27017677840E+03  0.00000000000E+00 0.  1.
          5    1    4    4  501    0 -0.12942910810E+03  0.41916402580E+02  0.88206410648E+02  0.16219347123E+03  0.41800000000E+01 0. -1.
         -5    1    4    4    0  501  0.24573992515E+02  0.37219155730E+02  0.38593509918E+02  0.59127642175E+02  0.41800000000E+01 0. -1.
</event>
<event>
11    1  0.8974665E-009  0.1480071E+03  0.7561462E-02  0.1098933E+00
         22   -1    0    0    0    0  0.00000000000E+00  0.00000000000E+00  0.19250714711E+03  0.19250714711E+03  0.00000000000E+00 0.  1.
         22   -1    0    0    0    0 -0.00000000000E+00 -0.00000000000E+00 -0.23216496795E+04  0.23216496795E+04  0.00000000000E+00 0. -1.
        -24    2    1    2    0    0  0.78900270218E+02  0.24641258970E+01 -0.22368513749E+04  0.22397026148E+04  0.80823293558E+02 0.  0.
         25    2    1    2    0    0 -0.89773108054E+02  0.38213244962E+01  0.19929094542E+02  0.15530209650E+03  0.12509100254E+03 0.  0.
         24    2    1    2    0    0  0.10872837836E+02 -0.62854503932E+01  0.87779748025E+02  0.11915211525E+03  0.79587793764E+02 0.  0.
        -13    1    5    5    0    0  0.17852077747E+02 -0.25071430344E+02  0.93398377727E+02  0.98338854282E+02  0.00000000000E+00 0.  1.
         14    1    5    5    0    0 -0.69792399113E+01  0.18785979951E+02 -0.56186297021E+01  0.20813260969E+02  0.00000000000E+00 0. -1.
         11    1    3    3    0    0  0.92717996473E+02  0.12637120536E+02 -0.20234360647E+04  0.20255986354E+04  0.00000000000E+00 0. -1.
        -12    1    3    3    0    0 -0.13817726255E+02 -0.10172994639E+02 -0.21341531020E+03  0.21410397943E+03  0.00000000000E+00 0.  1.
          5    1    4    4  501    0 -0.57545554224E+02  0.44698488297E+01  0.72946799157E+02  0.93113792033E+02  0.41800000000E+01 0.  1.
         -5    1    4    4    0  501 -0.32227553830E+02 -0.64852433350E+00 -0.53017704616E+02  0.62188304466E+02  0.41800000000E+01 0.  1.
</event>
<event>
11    1  0.8974665E-009  0.1579460E+03  0.7561462E-02  0.1089025E+00
         22   -1    0    0    0    0  0.00000000000E+00  0.00000000000E+00  0.21588555595E+03  0.21588555595E+03  0.00000000000E+00 0. -1.
         22   -1    0    0    0    0 -0.00000000000E+00 -0.00000000000E+00 -0.41668399460E+03  0.41668399460E+03  0.00000000000E+00 0. -1.
        -24    2    1    2    0    0  0.16829984797E+02  0.35696111372E+02 -0.28431697364E+03  0.29803041383E+03  0.80178084996E+02 0.  0.
         25    2    1    2    0    0  0.37943538113E+02 -0.10960323432E+03 -0.23299370107E+02  0.17217466608E+03  0.12509465989E+03 0.  0.
         24    2    1    2    0    0 -0.54773522910E+02  0.73907122945E+02  0.10681790510E+03  0.16236447065E+03  0.80559014667E+02 0.  0.
        -11    1    5    5    0    0 -0.71112195076E+02  0.46977041271E+02  0.54085760690E+02  0.10094085498E+03  0.00000000000E+00 0.  1.
         12    1    5    5    0    0  0.16338672166E+02  0.26930081674E+02  0.52732144409E+02  0.61423615662E+02  0.00000000000E+00 0. -1.
         13    1    3    3    0    0  0.27661820355E+02  0.58119794022E+02 -0.19871634545E+03  0.20888100132E+03  0.00000000000E+00 0. -1.
        -14    1    3    3    0    0 -0.10831835558E+02 -0.22423682649E+02 -0.85600628187E+02  0.89149412511E+02  0.00000000000E+00 0.  1.
          5    1    4    4  501    0 -0.34195491967E+02  0.63710345245E+00  0.10643475300E+02  0.36062356247E+02  0.41800000000E+01 0. -1.
         -5    1    4    4    0  501  0.72139030080E+02 -0.11024033777E+03 -0.33942845407E+02  0.13611230983E+03  0.41800000000E+01 0. -1.
</event>
<event>
11    1  0.8974665E-009  0.4104576E+03  0.7561462E-02  0.9619396E-01
         22   -1    0    0    0    0  0.00000000000E+00  0.00000000000E+00  0.14831080422E+04  0.14831080422E+04  0.00000000000E+00 0. -1.
         22   -1    0    0    0    0 -0.00000000000E+00 -0.00000000000E+00 -0.41512425835E+03  0.41512425835E+03  0.00000000000E+00 0.  1.
         24    2    1    2    0    0  0.23153920509E+03  0.31007281403E+03 -0.24393536336E+03  0.46454214584E+03  0.80866496566E+02 0.  0.
         25    2    1    2    0    0 -0.28219367107E+03 -0.31503799617E+03  0.79497837438E+03  0.90912987689E+03  0.12507721735E+03 0.  0.
        -24    2    1    2    0    0  0.50654465975E+02  0.49651821436E+01  0.51694077284E+03  0.52456027783E+03  0.73110837031E+02 0.  0.
        -11    1    3    3    0    0  0.22227476697E+03  0.29707810758E+03 -0.25008240830E+03  0.44744014681E+03  0.00000000000E+00 0.  1.
         12    1    3    3    0    0  0.92644381242E+01  0.12994706445E+02  0.61470449361E+01  0.17101999029E+02  0.00000000000E+00 0. -1.
         11    1    5    5    0    0  0.18083459727E+02  0.37470245760E+02  0.19863187422E+03  0.20294248518E+03  0.00000000000E+00 0. -1.
        -12    1    5    5    0    0  0.32571006248E+02 -0.32505063616E+02  0.31830889862E+03  0.32161779265E+03  0.00000000000E+00 0.  1.
          5    1    4    4  501    0 -0.26178741106E+03 -0.32536753585E+03  0.75845769033E+03  0.86583614061E+03  0.41800000000E+01 0.  1.
         -5    1    4    4    0  501 -0.20406260005E+02  0.10329539675E+02  0.36520684050E+02  0.43293736276E+02  0.41800000000E+01 0.  1.
</event>
<event>
11    1  0.8974665E-009  0.1954433E+03  0.7561462E-02  0.1057794E+00
         22   -1    0    0    0    0  0.00000000000E+00  0.00000000000E+00  0.39223087666E+04  0.39223087666E+04  0.00000000000E+00 0.  1.
         22   -1    0    0    0    0 -0.00000000000E+00 -0.00000000000E+00 -0.91200276152E+02  0.91200276152E+02  0.00000000000E+00 0.  1.
        -24    2    1    2    0    0  0.11384895381E+03  0.10389798556E+03  0.13808871200E+02  0.17428453812E+03  0.80175056095E+02 0.  0.
         25    2    1    2    0    0 -0.97726257563E+02 -0.70226096681E+02  0.71778570712E+03  0.73847288630E+03  0.12507500302E+03 0.  0.
         24    2    1    2    0    0 -0.16122696245E+02 -0.33671888875E+02  0.30995139121E+04  0.31007516183E+04  0.79248783282E+02 0.  0.
        -11    1    5    5    0    0  0.15796992128E+02 -0.12688826100E+02  0.24681696282E+04  0.24682527960E+04  0.00000000000E+00 0.  1.
         12    1    5    5    0    0 -0.31919688373E+02 -0.20983062775E+02  0.63134428392E+03  0.63249882234E+03  0.00000000000E+00 0. -1.
         11    1    3    3    0    0 -0.57441149314E+01 -0.13980375324E+01  0.13723720458E+02  0.14942886886E+02  0.00000000000E+00 0. -1.
        -12    1    3    3    0    0  0.11959306874E+03  0.10529602309E+03  0.85150741932E-01  0.15934165124E+03  0.00000000000E+00 0.  1.
          5    1    4    4  501    0  0.23687997914E+02  0.18770870308E+01  0.21067067858E+03  0.21204775857E+03  0.41800000000E+01 0.  1.
         -5    1    4    4    0  501 -0.12141425548E+03 -0.72103183712E+02  0.50711502854E+03  0.52642512773E+03  0.41800000000E+01 0.  1.
</event>
<event>
11    1  0.8974665E-009  0.1394928E+03  0.7561462E-02  0.1108126E+00
         22   -1    0    0    0    0  0.00000000000E+00  0.00000000000E+00  0.12936442051E+04  0.12936442051E+04  0.00000000000E+00 0.  1.
         22   -1    0    0    0    0 -0.00000000000E+00 -0.00000000000E+00 -0.56217482002E+03  0.56217482002E+03  0.00000000000E+00 0. -1.
        -24    2    1    2    0    0  0.50346923170E+02 -0.33642748430E+02 -0.46873208877E+03  0.47942524288E+03  0.80449644347E+02 0.  0.
         25    2    1    2    0    0 -0.83782947743E+02  0.10193155202E+02 -0.20277361425E+02  0.15225896622E+03  0.12509252041E+03 0.  0.
         24    2    1    2    0    0  0.33436024572E+02  0.23449593227E+02  0.12204788352E+04  0.12241348160E+04  0.85262003434E+02 0.  0.
        -13    1    5    5    0    0 -0.13292749958E+01  0.25783395571E+02  0.10401607291E+04  0.10404810872E+04  0.00000000000E+00 0.  1.
         14    1    5    5    0    0  0.34765299568E+02 -0.23338023433E+01  0.18031810610E+03  0.18365372872E+03  0.00000000000E+00 0. -1.
         11    1    3    3    0    0  0.37465151765E+02 -0.57452547859E+02 -0.39434374035E+03  0.40026418577E+03  0.00000000000E+00 0. -1.
        -12    1    3    3    0    0  0.12881771406E+02  0.23809799429E+02 -0.74388348418E+02  0.79161057116E+02  0.00000000000E+00 0.  1.
          5    1    4    4  501    0 -0.60824220422E+02  0.65961677901E+02 -0.18901001641E+02  0.91789155157E+02  0.41800000000E+01 0. -1.
         -5    1    4    4    0  501 -0.22958727320E+02 -0.55768522698E+02 -0.13763597835E+01  0.60469811066E+02  0.41800000000E+01 0. -1.
</event>
<event>
11    1  0.8974665E-009  0.1802933E+03  0.7561462E-02  0.1069406E+00
         22   -1    0    0    0    0  0.00000000000E+00  0.00000000000E+00  0.43702276634E+03  0.43702276634E+03  0.00000000000E+00 0. -1.
         22   -1    0    0    0    0 -0.00000000000E+00 -0.00000000000E+00 -0.19855295289E+03  0.19855295289E+03  0.00000000000E+00 0.  1.
        -24    2    1    2    0    0  0.11969971796E+03  0.19551857001E+02 -0.91933873130E+02  0.17008658379E+03  0.75942816418E+02 0.  0.
         25    2    1    2    0    0 -0.17822086162E+03 -0.35097969198E+02  0.18408328977E+03  0.28726885694E+03  0.12506876363E+03 0.  0.
         24    2    1    2    0    0  0.58521143661E+02  0.15546112197E+02  0.14632039681E+03  0.17822027850E+03  0.81770430384E+02 0.  0.
        -13    1    5    5    0    0  0.28203788988E+02 -0.17706464563E+02  0.10159602781E+02  0.34816520924E+02  0.00000000000E+00 0.  1.
         14    1    5    5    0    0  0.30317354674E+02  0.33252576760E+02  0.13616079403E+03  0.14340375757E+03  0.00000000000E+00 0. -1.
         13    1    3    3    0    0  0.75874486557E+02 -0.25612078212E+02 -0.54421662553E+02  0.96822691636E+02  0.00000000000E+00 0. -1.
        -14    1    3    3    0    0  0.43825231400E+02  0.45163935213E+02 -0.37512210577E+02  0.73263892154E+02  0.00000000000E+00 0.  1.
          5    1    4    4  501    0 -0.14890656002E+03 -0.57643114618E+02  0.83957540042E+02  0.18045008509E+03  0.41800000000E+01 0. -1.
         -5    1    4    4    0  501 -0.29314301603E+02  0.22545145420E+02  0.10012574973E+03  0.10681877185E+03  0.41800000000E+01 0. -1.
</event>
<event>
11    1  0.8974665E-009  0.2154824E+03  0.7561462E-02  0.1044085E+00
         22   -1    0    0    0    0  0.00000000000E+00  0.00000000000E+00  0.20000381589E+03  0.20000381589E+03  0.00000000000E+00 0.  1.
         22   -1    0    0    0    0 -0.00000000000E+00 -0.00000000000E+00 -0.47819234550E+03  0.47819234550E+03  0.00000000000E+00 0. -1.
        -24    2    1    2    0    0  0.11377295529E+03 -0.10567644446E+03 -0.18058783655E+03  0.25234177862E+03  0.83382313821E+02 0.  0.
         25    2    1    2    0    0 -0.19786983045E+03  0.98426759696E+02 -0.15301747696E+03  0.29650511405E+03  0.12514246911E+03 0.  0.
         24    2    1    2    0    0  0.84096875165E+02  0.72496847642E+01  0.55416783903E+02  0.12934926871E+03  0.80841641728E+02 0.  0.
        -11    1    5    5    0    0  0.97103830523E+02  0.15274171801E+02  0.36098433570E+02  0.10471652751E+03  0.00000000000E+00 0.  1.
         12    1    5    5    0    0 -0.13006955359E+02 -0.80244870366E+01  0.19318350333E+02  0.24632741210E+02  0.00000000000E+00 0. -1.
         11    1    3    3    0    0  0.85324658380E+02 -0.36590282021E+02 -0.13805909325E+03  0.16637144976E+03  0.00000000000E+00 0. -1.
        -12    1    3    3    0    0  0.28448296906E+02 -0.69086162440E+02 -0.42528743301E+02  0.85970328860E+02  0.00000000000E+00 0.  1.
          5    1    4    4  501    0 -0.19701214356E+02  0.70813588810E+02 -0.43571897056E+02  0.85549312214E+02  0.41800000000E+01 0.  1.
         -5    1    4    4    0  501 -0.17816861609E+03  0.27613170886E+02 -0.10944557991E+03  0.21095580184E+03  0.41800000000E+01 0.  1.
</event>
<event>
11    1  0.8974665E-009  0.1485749E+03  0.7561462E-02  0.1098344E+00
         22   -1    0    0    0    0  0.00000000000E+00  0.00000000000E+00  0.12055407898E+03  0.12055407898E+03  0.00000000000E+00 0.  1.
         22   -1    0    0    0    0 -0.00000000000E+00 -0.00000000000E+00 -0.60698035481E+03  0.60698035481E+03  0.00000000000E+00 0.  1.
         24    2    1    2    0    0  0.65448200304E+02  0.48044178970E+02 -0.47281170896E+03  0.48636874989E+03  0.80074581973E+02 0.  0.
         25    2    1    2    0    0 -0.51427559682E+02 -0.51944974900E+02 -0.47995374535E+02  0.15262422528E+03  0.12509006297E+03 0.  0.
        -24    2    1    2    0    0 -0.14020640623E+02  0.39007959298E+01  0.34380807661E+02  0.88541458623E+02  0.80285461868E+02 0.  0.
        -11    1    3    3    0    0  0.77743491780E+02  0.44279941772E+02 -0.45842073974E+03  0.46706995020E+03  0.00000000000E+00 0.  1.
         12    1    3    3    0    0 -0.12295291476E+02  0.37642371975E+01 -0.14390969226E+02  0.19298799689E+02  0.00000000000E+00 0. -1.
         13    1    5    5    0    0 -0.36066552173E+02 -0.19272316813E+01 -0.10998038048E+02  0.37755360527E+02  0.00000000000E+00 0. -1.
        -14    1    5    5    0    0  0.22045911550E+02  0.58280276111E+01  0.45378845710E+02  0.50786098096E+02  0.00000000000E+00 0.  1.
          5    1    4    4  501    0  0.36765391781E+02 -0.39583441165E+01 -0.35376631066E+02  0.51345310853E+02  0.41800000000E+01 0. -1.
         -5    1    4    4    0  501 -0.88192951463E+02 -0.47986630783E+02 -0.12618743468E+02  0.10127891443E+03  0.41800000000E+01 0. -1.
</event>
<event>
11    1  0.8974665E-009  0.1403744E+03  0.7561462E-02  0.1107141E+00
         22   -1    0    0    0    0  0.00000000000E+00  0.00000000000E+00  0.75764878596E+03  0.75764878596E+03  0.00000000000E+00 0.  1.
         22   -1    0    0    0    0 -0.00000000000E+00 -0.00000000000E+00 -0.74561836608E+03  0.74561836608E+03  0.00000000000E+00 0.  1.
        -24    2    1    2    0    0 -0.25397457623E+02  0.35739508149E+02 -0.63126652019E+03  0.63761033711E+03  0.78276300270E+02 0.  0.
         25    2    1    2    0    0  0.68451027797E+02  0.11627241901E+02 -0.59924730273E+02  0.15510285277E+03  0.12508071666E+03 0.  0.
         24    2    1    2    0    0 -0.43053570174E+02 -0.47366750050E+02  0.70322167034E+03  0.71055396217E+03  0.79176995362E+02 0.  0.
        -11    1    5    5    0    0 -0.51863787294E+02 -0.12176382923E+02  0.56991457849E+03  0.57239911208E+03  0.00000000000E+00 0.  1.
         12    1    5    5    0    0  0.88102171200E+01 -0.35190367127E+02  0.13330709186E+03  0.13815485009E+03  0.00000000000E+00 0. -1.
         13    1    3    3    0    0 -0.47404317074E+01 -0.99503949126E+01 -0.11910267500E+02  0.16227646891E+02  0.00000000000E+00 0. -1.
        -14    1    3    3    0    0 -0.20657025916E+02  0.45689903062E+02 -0.61935625269E+03  0.62138269022E+03  0.00000000000E+00 0.  1.
          5    1    4    4  501    0  0.82619849430E+02  0.35401110520E+02 -0.11337648073E+01  0.89989088053E+02  0.41800000000E+01 0.  1.
         -5    1    4    4    0  501 -0.14168821633E+02 -0.23773868619E+02 -0.58790965465E+02  0.65113764719E+02  0.41800000000E+01 0.  1.
</event>
<event>
11    1  0.8974665E-009  0.2022868E+03  0.7561462E-02  0.1052918E+00
         22   -1    0    0    0    0  0.00000000000E+00  0.00000000000E+00  0.59402071310E+03  0.59402071310E+03  0.00000000000E+00 0.  1.
         22   -1    0    0    0    0 -0.00000000000E+00 -0.00000000000E+00 -0.14924968776E+04  0.14924968776E+04  0.00000000000E+00 0. -1.
         24    2    1    2    0    0 -0.28474931630E+02  0.83927476737E+02 -0.13669478512E+04  0.13721824772E+04  0.80521299970E+02 0.  0.
         25    2    1    2    0    0  0.17756066747E+03 -0.11607923982E+03  0.36156880223E+02  0.24891077749E+03  0.12508826730E+03 0.  0.
        -24    2    1    2    0    0 -0.14908573584E+03  0.32151763084E+02  0.43231480650E+03  0.46542433599E+03  0.80395448341E+02 0.  0.
        -13    1    3    3    0    0 -0.51400708220E+02  0.28818322772E+02 -0.58527358566E+03  0.58823269087E+03  0.00000000000E+00 0.  1.
         14    1    3    3    0    0  0.22925776590E+02  0.55109153965E+02 -0.78167426558E+03  0.78394978637E+03  0.00000000000E+00 0. -1.
         13    1    5    5    0    0  0.72350593855E+00 -0.81398154101E+00 -0.33613512947E+01  0.35333708153E+01  0.00000000000E+00 0. -1.
        -14    1    5    5    0    0 -0.14980924178E+03  0.32965744625E+02  0.43567615779E+03  0.46189096518E+03  0.00000000000E+00 0.  1.
          5    1    4    4  501    0  0.14045493469E+03 -0.11978059528E+03  0.70887382226E+02  0.19778137688E+03  0.41800000000E+01 0. -1.
         -5    1    4    4    0  501  0.37105732782E+02  0.37013554559E+01 -0.34730502003E+02  0.51129400611E+02  0.41800000000E+01 0. -1.
</event>
<event>
11    1  0.8974665E-009  0.1314159E+03  0.7561462E-02  0.1117541E+00
         22   -1    0    0    0    0  0.00000000000E+00  0.00000000000E+00  0.24812054424E+03  0.24812054424E+03  0.00000000000E+00 0.  1.
         22   -1    0    0    0    0 -0.00000000000E+00 -0.00000000000E+00 -0.94562908131E+03  0.94562908131E+03  0.00000000000E+00 0. -1.
         24    2    1    2    0    0 -0.20448065237E+02 -0.14169149565E+02 -0.76175749458E+03  0.76641469351E+03  0.80610878405E+02 0.  0.
         25    2    1    2    0    0 -0.33535938792E+01 -0.19686487498E+02 -0.14935012152E+03  0.19584535387E+03  0.12510451412E+03 0.  0.
        -24    2    1    2    0    0  0.23801659116E+02  0.33855637064E+02  0.21359907902E+03  0.23148957817E+03  0.79057795996E+02 0.  0.
        -13    1    3    3    0    0  0.26277271061E+02  0.63850793002E+01 -0.14154042786E+03  0.14410050982E+03  0.00000000000E+00 0.  1.
         14    1    3    3    0    0 -0.46725336298E+02 -0.20554228866E+02 -0.62021706672E+03  0.62231418369E+03  0.00000000000E+00 0. -1.
         11    1    5    5    0    0 -0.24817555261E+02  0.22305014222E+01  0.30281367861E+02  0.39215397809E+02  0.00000000000E+00 0. -1.
        -12    1    5    5    0    0  0.48619214377E+02  0.31625135642E+02  0.18331771116E+03  0.19227418036E+03  0.00000000000E+00 0.  1.
          5    1    4    4  501    0  0.50090116078E+02 -0.40912158240E+02 -0.10378182196E+03  0.12235588825E+03  0.41800000000E+01 0. -1.
         -5    1    4    4    0  501 -0.53443709957E+02  0.21225670742E+02 -0.45568299559E+02  0.73489465620E+02  0.41800000000E+01 0. -1.
</event>
<event>
11    1  0.8974665E-009  0.1792489E+03  0.7561462E-02  0.1070252E+00
         22   -1    0    0    0    0  0.00000000000E+00  0.00000000000E+00  0.64598792900E+03  0.64598792900E+03  0.00000000000E+00 0. -1.
         22   -1    0    0    0    0 -0.00000000000E+00 -0.00000000000E+00 -0.66317339261E+03  0.66317339261E+03  0.00000000000E+00 0. -1.
         24    2    1    2    0    0 -0.83626175583E+02  0.97125299306E+02 -0.61209689436E+03  0.63033518662E+03  0.78950480631E+02 0.  0.
         25    2    1    2    0    0  0.92650426829E+02 -0.96639830211E+02  0.18383005361E+03  0.25954639072E+03  0.12508989548E+03 0.  0.
        -24    2    1    2    0    0 -0.90242512453E+01 -0.48546909488E+00  0.41108137714E+03  0.41927974427E+03  0.82011782885E+02 0.  0.
        -11    1    3    3    0    0  0.45628716648E+01  0.42971566047E+02 -0.12188848615E+03  0.12932199482E+03  0.00000000000E+00 0.  1.
         12    1    3    3    0    0 -0.88189047248E+02  0.54153733259E+02 -0.49020840821E+03  0.50101319180E+03  0.00000000000E+00 0. -1.
         11    1    5    5    0    0 -0.36650460958E+02  0.23919578873E+02  0.26669611846E+03  0.27026324601E+03  0.00000000000E+00 0. -1.
        -12    1    5    5    0    0  0.27626209712E+02 -0.24405047968E+02  0.14438525868E+03  0.14901649826E+03  0.00000000000E+00 0.  1.
          5    1    4    4  501    0 -0.10950221833E+02 -0.66285740100E+02  0.35673468896E+02  0.76182514279E+02  0.41800000000E+01 0. -1.
         -5    1    4    4    0  501  0.10360064866E+03 -0.30354090111E+02  0.14815658471E+03  0.18336387644E+03  0.41800000000E+01 0. -1.
</event>
<event>
11    1  0.8974665E-009  0.1381708E+03  0.7561462E-02  0.1109618E+00
         22   -1    0    0    0    0  0.00000000000E+00  0.00000000000E+00  0.12924823099E+03  0.12924823099E+03  0.00000000000E+00 0. -1.
         22   -1    0    0    0    0 -0.00000000000E+00 -0.00000000000E+00 -0.82835370298E+03  0.82835370298E+03  0.00000000000E+00 0. -1.
         24    2    1    2    0    0 -0.43453238613E+02  0.40748113213E+02 -0.72646115047E+03  0.73339314121E+03  0.81062344951E+02 0.  0.
         25    2    1    2    0    0  0.18342971412E+02 -0.42265878325E+02 -0.62059562333E+01  0.13344893492E+03  0.12508890945E+03 0.  0.
        -24    2    1    2    0    0  0.25110267201E+02  0.15177651121E+01  0.33561634707E+02  0.90759857826E+02  0.80486889234E+02 0.  0.
        -13    1    3    3    0    0 -0.51687161298E+02  0.12216314832E+02 -0.23033173738E+03  0.23637578183E+03  0.00000000000E+00 0.  1.
         14    1    3    3    0    0  0.82339226849E+01  0.28531798381E+02 -0.49612941309E+03  0.49701735939E+03  0.00000000000E+00 0. -1.
         11    1    5    5    0    0 -0.85590975024E+01 -0.23098792950E+01  0.51610686782E+02  0.52366560729E+02  0.00000000000E+00 0. -1.
        -12    1    5    5    0    0  0.33669364703E+02  0.38276444071E+01 -0.18049052075E+02  0.38393297098E+02  0.00000000000E+00 0.  1.
          5    1    4    4  501    0 -0.27992627991E+02 -0.10735559134E+02  0.47099828484E+02  0.55988442512E+02  0.41800000000E+01 0. -1.
         -5    1    4    4    0  501  0.46335599403E+02 -0.31530319191E+02 -0.53305784717E+02  0.77460492411E+02  0.41800000000E+01 0. -1.
</event>
<event>
11    1  0.8974665E-009  0.2547373E+03  0.7561462E-02  0.1021405E+00
         22   -1    0    0    0    0  0.00000000000E+00  0.00000000000E+00  0.52151108211E+03  0.52151108211E+03  0.00000000000E+00 0. -1.
         22   -1    0    0    0    0 -0.00000000000E+00 -0.00000000000E+00 -0.10455480560E+04  0.10455480560E+04  0.00000000000E+00 0.  1.
        -24    2    1    2    0    0 -0.18821404645E+03 -0.95993191031E+02 -0.76904571525E+03  0.80109966271E+03  0.75432999693E+02 0.  0.
         25    2    1    2    0    0  0.25781723671E+03  0.12304491892E+03 -0.15724330839E+03  0.34925917452E+03  0.12508690314E+03 0.  0.
         24    2    1    2    0    0 -0.69603190264E+02 -0.27051727888E+02  0.40225204972E+03  0.41670030090E+03  0.79095064213E+02 0.  0.
        -13    1    5    5    0    0 -0.30120819288E+02  0.25938306464E+02  0.10703470502E+03  0.11417743900E+03  0.00000000000E+00 0.  1.
         14    1    5    5    0    0 -0.39482370975E+02 -0.52990034351E+02  0.29521734470E+03  0.30252286190E+03  0.00000000000E+00 0. -1.
         11    1    3    3    0    0  0.13335720404E+01  0.39935885624E+01 -0.65594924701E+02  0.65729911840E+02  0.00000000000E+00 0. -1.
        -12    1    3    3    0    0 -0.18954761849E+03 -0.99986779593E+02 -0.70345079055E+03  0.73536975087E+03  0.00000000000E+00 0.  1.
          5    1    4    4  501    0  0.47510316360E+02  0.78786631873E+02 -0.20051412480E+02  0.94255477639E+02  0.41800000000E+01 0. -1.
         -5    1    4    4    0  501  0.21030692035E+03  0.44258287045E+02 -0.13719189591E+03  0.25500369688E+03  0.41800000000E+01 0. -1.
</event>
<event>
11    1  0.8974665E-009  0.1445839E+03  0.7561462E-02  0.1102545E+00
         22   -1    0    0    0    0  0.00000000000E+00  0.00000000000E+00  0.31502980909E+03  0.31502980909E+03  0.00000000000E+00 0. -1.
         22   -1    0    0    0    0 -0.00000000000E+00 -0.00000000000E+00 -0.46098829898E+03  0.46098829898E+03  0.00000000000E+00 0.  1.
         24    2    1    2    0    0 -0.90754016748E+01  0.40770778042E+02 -0.33239600921E+03  0.34322123463E+03  0.74626333852E+02 0.  0.
         25    2    1    2    0    0 -0.85994379528E+01 -0.10770100578E+03 -0.51552927572E+02  0.17314277212E+03  0.12508900119E+03 0.  0.
        -24    2    1    2    0    0  0.17674839628E+02  0.66930227735E+02  0.23799044689E+03  0.25965410131E+03  0.77386976782E+02 0.  0.
        -11    1    3    3    0    0 -0.11325522379E+02  0.37139749155E+00 -0.26030470936E+03  0.26055123701E+03  0.00000000000E+00 0.  1.
         12    1    3    3    0    0  0.22501207044E+01  0.40399380551E+02 -0.72091299847E+02  0.82669997616E+02  0.00000000000E+00 0. -1.
         11    1    5    5    0    0  0.19148563720E+02  0.81910434505E+02  0.16588375052E+03  0.18599302530E+03  0.00000000000E+00 0. -1.
        -12    1    5    5    0    0 -0.14737240927E+01 -0.14980206770E+02  0.72106696374E+02  0.73661076014E+02  0.00000000000E+00 0.  1.
          5    1    4    4  501    0  0.19967471907E+02 -0.37886989136E+02 -0.81271013266E+02  0.91959631782E+02  0.41800000000E+01 0. -1.
         -5    1    4    4    0  501 -0.28566909860E+02 -0.69814016641E+02  0.29718085694E+02  0.81183140342E+02  0.41800000000E+01 0. -1.
</event>
<event>
11    1  0.8974665E-009  0.1390148E+03  0.7561462E-02  0.1108663E+00
         22   -1    0    0    0    0  0.00000000000E+00  0.00000000000E+00  0.73196097271E+03  0.73196097271E+03  0.00000000000E+00 0. -1.
         22   -1    0    0    0    0 -0.00000000000E+00 -0.00000000000E+00 -0.10846623075E+04  0.10846623075E+04  0.00000000000E+00 0.  1.
         24    2    1    2    0    0  0.17237469317E+02 -0.15785350849E+02 -0.75008117032E+03  0.75468565798E+03  0.79889752984E+02 0.  0.
         25    2    1    2    0    0  0.85952493873E+01 -0.39327646289E+02 -0.31558544463E+03  0.34185258096E+03  0.12509385345E+03 0.  0.
        -24    2    1    2    0    0 -0.25832718705E+02  0.55112997138E+02  0.71296528018E+03  0.72008504126E+03  0.80611439053E+02 0.  0.
        -11    1    3    3    0    0 -0.16690565381E+02  0.23361693042E+02 -0.36638359954E+03  0.36750685121E+03  0.00000000000E+00 0.  1.
         12    1    3    3    0    0  0.33928034699E+02 -0.39147043891E+02 -0.38369757079E+03  0.38717880677E+03  0.00000000000E+00 0. -1.
         13    1    5    5    0    0 -0.74801379671E+01  0.57610861280E+02  0.67828791797E+03  0.68077122697E+03  0.00000000000E+00 0. -1.
        -14    1    5    5    0    0 -0.18352580737E+02 -0.24978641416E+01  0.34677362201E+02  0.39313814293E+02  0.00000000000E+00 0.  1.
          5    1    4    4  501    0  0.50554208430E+02 -0.51130157750E+02 -0.26656268856E+03  0.27612164050E+03  0.41800000000E+01 0. -1.
         -5    1    4    4    0  501 -0.41958959043E+02  0.11802511462E+02 -0.49022756076E+02  0.65730940462E+02  0.41800000000E+01 0. -1.
</event>
<event>
11    1  0.8974665E-009  0.1301967E+03  0.7561462E-02  0.1119028E+00
         22   -1    0    0    0    0  0.00000000000E+00  0.00000000000E+00  0.19477943940E+03  0.19477943940E+03  0.00000000000E+00 0.  1.
         22   -1    0    0    0    0 -0.00000000000E+00 -0.00000000000E+00 -0.84376765610E+03  0.84376765610E+03  0.00000000000E+00 0. -1.
         24    2    1    2    0    0  0.15376062594E+02 -0.38495715315E+02 -0.62319956814E+03  0.62963069610E+03  0.79616382425E+02 0.  0.
         25    2    1    2    0    0 -0.85690781122E+01  0.11260326377E+01 -0.18668062538E+03  0.22488212296E+03  0.12509043242E+03 0.  0.
        -24    2    1    2    0    0 -0.68069844815E+01  0.37369682677E+02  0.16089197682E+03  0.18403427645E+03  0.80867536640E+02 0.  0.
        -13    1    3    3    0    0 -0.95452690195E+01 -0.55113434428E+02 -0.31032469274E+03  0.31532525706E+03  0.00000000000E+00 0.  1.
         14    1    3    3    0    0  0.24921331613E+02  0.16617719114E+02 -0.31287487540E+03  0.31430543905E+03  0.00000000000E+00 0. -1.
         11    1    5    5    0    0 -0.22052582202E+02  0.52001126268E+02  0.66241829380E+02  0.87054083618E+02  0.00000000000E+00 0. -1.
        -12    1    5    5    0    0  0.15245597720E+02 -0.14631443591E+02  0.94650147439E+02  0.96980192831E+02  0.00000000000E+00 0.  1.
          5    1    4    4  501    0 -0.60692923182E+02  0.24783100660E+01 -0.14735791024E+03  0.15944152237E+03  0.41800000000E+01 0. -1.
         -5    1    4    4    0  501  0.52123845070E+02 -0.13522774283E+01 -0.39322715147E+02  0.65440600590E+02  0.41800000000E+01 0. -1.
</event>
<event>
11    1  0.8974665E-009  0.1674839E+03  0.7561462E-02  0.1080242E+00
         22   -1    0    0    0    0  0.00000000000E+00  0.00000000000E+00  0.13930913799E+04  0.13930913799E+04  0.00000000000E+00 0.  1.
         22   -1    0    0    0    0 -0.00000000000E+00 -0.00000000000E+00 -0.13447542217E+04  0.13447542217E+04  0.00000000000E+00 0. -1.
         24    2    1    2    0    0 -0.76058162521E+02  0.19672327300E+02 -0.12799351487E+04  0.12849401652E+04  0.81641892827E+02 0.  0.
         25    2    1    2    0    0  0.12338914215E+03 -0.11701206871E+03  0.13170497046E+03  0.24881839261E+03  0.12509072163E+03 0.  0.
        -24    2    1    2    0    0 -0.47330979626E+02  0.97339741408E+02  0.11965673364E+04  0.12040870438E+04  0.79605097938E+02 0.  0.
        -11    1    3    3    0    0  0.98453214512E+01  0.98131742466E+01 -0.47946942085E+02  0.49921318078E+02  0.00000000000E+00 0.  1.
         12    1    3    3    0    0 -0.85903483972E+02  0.98591530530E+01 -0.12319882066E+04  0.12350188471E+04  0.00000000000E+00 0. -1.
         13    1    5    5    0    0 -0.49493674326E+02  0.16041078562E+02  0.39713784330E+03  0.40053140524E+03  0.00000000000E+00 0. -1.
        -14    1    5    5    0    0  0.21626947003E+01  0.81298662846E+02  0.79942949313E+03  0.80355563859E+03  0.00000000000E+00 0.  1.
          5    1    4    4  501    0  0.10818839739E+03 -0.45236643989E+02  0.26176102794E+02  0.12022372498E+03  0.41800000000E+01 0. -1.
         -5    1    4    4    0  501  0.15200744755E+02 -0.71775424718E+02  0.10552886766E+03  0.12859466764E+03  0.41800000000E+01 0. -1.
</event>
<event>
11    1  0.8974665E-009  0.1784867E+03  0.7561462E-02  0.1070874E+00
         22   -1    0    0    0    0  0.00000000000E+00  0.00000000000E+00  0.47506616358E+02  0.47506616358E+02  0.00000000000E+00 0. -1.
         22   -1    0    0    0    0 -0.00000000000E+00 -0.00000000000E+00 -0.25731378820E+04  0.25731378820E+04  0.00000000000E+00 0. -1.
        -24    2    1    2    0    0 -0.12360372043E+03  0.30143476068E+02 -0.21917410073E+04  0.21968916407E+04  0.80110729505E+02 0.  0.
         25    2    1    2    0    0  0.12482465162E+03 -0.30144287062E+02 -0.24483615303E+03  0.30344886304E+03  0.12508636598E+03 0.  0.
         24    2    1    2    0    0 -0.12209311895E+01  0.81099371590E-03 -0.89054105239E+02  0.12030399456E+03  0.80875996277E+02 0.  0.
        -11    1    5    5    0    0  0.23045278290E+02  0.31966441849E+02 -0.33210930322E+02  0.51535464961E+02  0.00000000000E+00 0.  1.
         12    1    5    5    0    0 -0.24266209479E+02 -0.31965630855E+02 -0.55843174917E+02  0.68768529599E+02  0.00000000000E+00 0. -1.
         13    1    3    3    0    0 -0.70858478442E+02 -0.63395838551E+01 -0.16206791850E+04  0.16222398512E+04  0.00000000000E+00 0. -1.
        -14    1    3    3    0    0 -0.52745241989E+02  0.36483059924E+02 -0.57106182234E+03  0.57465178948E+03  0.00000000000E+00 0.  1.
          5    1    4    4  501    0  0.10771065796E+03  0.27476755084E+02 -0.19809528368E+03  0.22719104675E+03  0.41800000000E+01 0.  1.
         -5    1    4    4    0  501  0.17113993657E+02 -0.57621042146E+02 -0.46740869354E+02  0.76257816286E+02  0.41800000000E+01 0.  1.
</event>
<event>
11    1  0.8974665E-009  0.1610287E+03  0.7561462E-02  0.1086114E+00
         22   -1    0    0    0    0  0.00000000000E+00  0.00000000000E+00  0.24856272410E+03  0.24856272410E+03  0.00000000000E+00 0.  1.
         22   -1    0    0    0    0 -0.00000000000E+00 -0.00000000000E+00 -0.50630889086E+03  0.50630889086E+03  0.00000000000E+00 0.  1.
        -24    2    1    2    0    0 -0.13239722840E+02 -0.15181182611E+02 -0.39386902818E+03  0.40254816462E+03  0.80662599177E+02 0.  0.
         25    2    1    2    0    0 -0.30336191338E+02  0.10460041481E+03  0.51430212726E+00  0.16585440070E+03  0.12508351787E+03 0.  0.
         24    2    1    2    0    0  0.43575914178E+02 -0.89419232196E+02  0.13560855930E+03  0.18646904965E+03  0.80537976989E+02 0.  0.
        -13    1    5    5    0    0 -0.14755755432E+02 -0.61461442035E+02  0.70611489536E+02  0.94769317978E+02  0.00000000000E+00 0.  1.
         14    1    5    5    0    0  0.58331669610E+02 -0.27957790161E+02  0.64997069762E+02  0.91699731668E+02  0.00000000000E+00 0. -1.
         13    1    3    3    0    0  0.16811480747E+02 -0.34336196536E+02 -0.11006998146E+03  0.11652038919E+03  0.00000000000E+00 0. -1.
        -14    1    3    3    0    0 -0.30051203586E+02  0.19155013925E+02 -0.28379904673E+03  0.28602777543E+03  0.00000000000E+00 0.  1.
          5    1    4    4  501    0  0.31709673572E+02  0.58829330297E+01 -0.31076418316E+02  0.44981423659E+02  0.41800000000E+01 0. -1.
         -5    1    4    4    0  501 -0.62045864910E+02  0.98717481777E+02  0.31590720443E+02  0.12087297704E+03  0.41800000000E+01 0. -1.
</event>
<event>
11    1  0.8974665E-009  0.1496186E+03  0.7561462E-02  0.1097269E+00
         22   -1    0    0    0    0  0.00000000000E+00  0.00000000000E+00  0.48561287954E+03  0.48561287954E+03  0.00000000000E+00 0. -1.
         22   -1    0    0    0    0 -0.00000000000E+00 -0.00000000000E+00 -0.43675753620E+03  0.43675753620E+03  0.00000000000E+00 0.  1.
        -24    2    1    2    0    0 -0.12894886050E+02  0.63105100301E+01 -0.33031478861E+03  0.34070216210E+03  0.82243559372E+02 0.  0.
         25    2    1    2    0    0  0.29988780953E+02 -0.85887265118E+02 -0.29369971969E+02  0.15743694079E+03  0.12509134974E+03 0.  0.
         24    2    1    2    0    0 -0.17093894902E+02  0.79576755088E+02  0.40854010393E+03  0.42423131286E+03  0.80265366740E+02 0.  0.
        -11    1    5    5    0    0 -0.46595522634E+02  0.27967158663E+02  0.21540077273E+03  0.22215039407E+03  0.00000000000E+00 0.  1.
         12    1    5    5    0    0  0.29501627731E+02  0.51609596425E+02  0.19313933120E+03  0.20208091879E+03  0.00000000000E+00 0. -1.
         11    1    3    3    0    0  0.25755645132E+01  0.24979002603E+02 -0.28784129389E+02  0.38198301118E+02  0.00000000000E+00 0. -1.
        -12    1    3    3    0    0 -0.15470450563E+02 -0.18668492573E+02 -0.30153065922E+03  0.30250386098E+03  0.00000000000E+00 0.  1.
          5    1    4    4  501    0  0.53552883514E+02 -0.19800161778E+02  0.30715270288E+02  0.64968130402E+02  0.41800000000E+01 0. -1.
         -5    1    4    4    0  501 -0.23564102561E+02 -0.66087103339E+02 -0.60085242257E+02  0.92468810387E+02  0.41800000000E+01 0. -1.
</event>
<event>
11    1  0.8974665E-009  0.2096282E+03  0.7561462E-02  0.1047916E+00
         22   -1    0    0    0    0  0.00000000000E+00  0.00000000000E+00  0.54486801351E+03  0.54486801351E+03  0.00000000000E+00 0. -1.
         22   -1    0    0    0    0 -0.00000000000E+00 -0.00000000000E+00 -0.11174073069E+04  0.11174073069E+04  0.00000000000E+00 0. -1.
        -24    2    1    2    0    0 -0.16806685811E+03  0.65528066294E+01 -0.10057403745E+04  0.10230417623E+04  0.82530833341E+02 0.  0.
         25    2    1    2    0    0  0.17051202748E+03  0.85726659958E+02  0.46264830989E+02  0.23283473900E+03  0.12509264310E+03 0.  0.
         24    2    1    2    0    0 -0.24451693706E+01 -0.92279466588E+02  0.38693625011E+03  0.40639881910E+03  0.83179683254E+02 0.  0.
        -11    1    5    5    0    0  0.20487004158E+02 -0.62331464948E+02  0.11960404733E+03  0.13641868274E+03  0.00000000000E+00 0.  1.
         12    1    5    5    0    0 -0.22932173529E+02 -0.29948001639E+02  0.26733220278E+03  0.26998013636E+03  0.00000000000E+00 0. -1.
         13    1    3    3    0    0 -0.10461925803E+03 -0.34760806506E+02 -0.53359507759E+03  0.54486439565E+03  0.00000000000E+00 0. -1.
        -14    1    3    3    0    0 -0.63447600079E+02  0.41313613135E+02 -0.47214529695E+03  0.47817736669E+03  0.00000000000E+00 0.  1.
          5    1    4    4  501    0  0.12774959704E+03  0.66054601096E+02 -0.26278658520E+02  0.14625734226E+03  0.41800000000E+01 0.  1.
         -5    1    4    4    0  501  0.42762430437E+02  0.19672058863E+02  0.72543489510E+02  0.86577396745E+02  0.41800000000E+01 0.  1.
</event>
<event>
11    1  0.8974665E-009  0.1393471E+03  0.7561462E-02  0.1108290E+00
         22   -1    0    0    0    0  0.00000000000E+00  0.00000000000E+00  0.43995139359E+03  0.43995139359E+03  0.00000000000E+00 0.  1.
         22   -1    0    0    0    0 -0.00000000000E+00 -0.00000000000E+00 -0.25230431253E+03  0.25230431253E+03  0.00000000000E+00 0. -1.
         24    2    1    2    0    0 -0.23104002423E+02 -0.14402691459E+02 -0.93526863674E+02  0.12708329840E+03  0.81618980974E+02 0.  0.
         25    2    1    2    0    0  0.43565425065E+02  0.71221356808E+02 -0.93547925445E+02  0.17711390245E+03  0.12509073571E+03 0.  0.
        -24    2    1    2    0    0 -0.20461422642E+02 -0.56818665349E+02  0.37472187018E+03  0.38805850526E+03  0.80782999219E+02 0.  0.
        -13    1    3    3    0    0 -0.29798129280E+02  0.26755956024E+02 -0.26093459752E+02  0.47798308895E+02  0.00000000000E+00 0.  1.
         14    1    3    3    0    0  0.66941268573E+01 -0.41158647482E+02 -0.67433403922E+02  0.79284989509E+02  0.00000000000E+00 0. -1.
         11    1    5    5    0    0 -0.17013487762E+02 -0.58823475473E+02  0.13427518043E+03  0.14757873869E+03  0.00000000000E+00 0. -1.
        -12    1    5    5    0    0 -0.34479348791E+01  0.20048101244E+01  0.24044668975E+03  0.24047976657E+03  0.00000000000E+00 0.  1.
          5    1    4    4  501    0 -0.10020764209E+01  0.64325628491E+00 -0.93436466669E+02  0.93537498574E+02  0.41800000000E+01 0.  1.
         -5    1    4    4    0  501  0.44567501486E+02  0.70578100523E+02 -0.11145877605E+00  0.83576403878E+02  0.41800000000E+01 0.  1.
</event>
<event>
11    1  0.8974665E-009  0.1695496E+03  0.7561462E-02  0.1078424E+00
         22   -1    0    0    0    0  0.00000000000E+00  0.00000000000E+00  0.28270576057E+03  0.28270576057E+03  0.00000000000E+00 0.  1.
         22   -1    0    0    0    0 -0.00000000000E+00 -0.00000000000E+00 -0.12106342149E+04  0.12106342149E+04  0.00000000000E+00 0. -1.
         24    2    1    2    0    0 -0.71590131068E+02  0.55844274831E+01 -0.10708545363E+04  0.10763192892E+04  0.81101428382E+02 0.  0.
         25    2    1    2    0    0 -0.11072602316E+02 -0.94215332075E+02 -0.61832673229E+02  0.16873961018E+03  0.12510253892E+03 0.  0.
        -24    2    1    2    0    0  0.82662733384E+02  0.88630904592E+02  0.20475875526E+03  0.24828107604E+03  0.70913892335E+02 0.  0.
        -13    1    3    3    0    0  0.13238802405E+02 -0.90083215684E+01 -0.71814903149E+02  0.73578502709E+02  0.00000000000E+00 0.  1.
         14    1    3    3    0    0 -0.84828933474E+02  0.14592749051E+02 -0.99903963316E+03  0.10027407865E+04  0.00000000000E+00 0. -1.
         13    1    5    5    0    0  0.24673850350E+02 -0.48900478460E+01  0.69514235813E+02  0.73925235473E+02  0.00000000000E+00 0. -1.
        -14    1    5    5    0    0  0.57988883034E+02  0.93520952438E+02  0.13524451944E+03  0.17435584057E+03  0.00000000000E+00 0.  1.
          5    1    4    4  501    0 -0.43986145892E+02 -0.11054772431E+03 -0.54967664326E+02  0.13112778845E+03  0.41800000000E+01 0. -1.
         -5    1    4    4    0  501  0.32913543576E+02  0.16332392237E+02 -0.68650089027E+01  0.37611821734E+02  0.41800000000E+01 0. -1.
</event>
<event>
11    1  0.8974665E-009  0.1642948E+03  0.7561462E-02  0.1083106E+00
         22   -1    0    0    0    0  0.00000000000E+00  0.00000000000E+00  0.90820659638E+03  0.90820659638E+03  0.00000000000E+00 0. -1.
         22   -1    0    0    0    0 -0.00000000000E+00 -0.00000000000E+00 -0.71219919912E+03  0.71219919912E+03  0.00000000000E+00 0.  1.
        -24    2    1    2    0    0 -0.12848112461E+02  0.37924131775E+02 -0.41857885094E+03  0.42871776648E+03  0.83590400645E+02 0.  0.
         25    2    1    2    0    0 -0.84245360290E+02 -0.81544208499E+02 -0.25756723112E+03  0.30941196656E+03  0.12509255707E+03 0.  0.
         24    2    1    2    0    0  0.97093472751E+02  0.43620076724E+02  0.87215347931E+03  0.88227606245E+03  0.80184196439E+02 0.  0.
        -11    1    5    5    0    0  0.63017279134E+01  0.28969371444E+01  0.31905500621E+01  0.76343715663E+01  0.00000000000E+00 0.  1.
         12    1    5    5    0    0  0.90791744838E+02  0.40723139579E+02  0.86896292925E+03  0.87464169089E+03  0.00000000000E+00 0. -1.
         11    1    3    3    0    0  0.32679993561E+02  0.35323898327E+00 -0.18015910450E+03  0.18309945301E+03  0.00000000000E+00 0. -1.
        -12    1    3    3    0    0 -0.45528106021E+02  0.37570892792E+02 -0.23841974643E+03  0.24561831347E+03  0.00000000000E+00 0.  1.
          5    1    4    4  501    0 -0.62694760188E+02 -0.60982268289E+02 -0.52381020591E+02  0.10203290508E+03  0.41800000000E+01 0.  1.
         -5    1    4    4    0  501 -0.21550600103E+02 -0.20561940211E+02 -0.20518621053E+03  0.20737906148E+03  0.41800000000E+01 0.  1.
</event>
<event>
11    1  0.8974665E-009  0.1373945E+03  0.7561462E-02  0.1110503E+00
         22   -1    0    0    0    0  0.00000000000E+00  0.00000000000E+00  0.30074439732E+03  0.30074439732E+03  0.00000000000E+00 0.  1.
         22   -1    0    0    0    0 -0.00000000000E+00 -0.00000000000E+00 -0.34643261068E+03  0.34643261068E+03  0.00000000000E+00 0.  1.
        -24    2    1    2    0    0  0.18913572952E+01 -0.10417356282E+01 -0.26807956422E+03  0.27991005710E+03  0.80488041743E+02 0.  0.
         25    2    1    2    0    0  0.44613310134E+01  0.57391396570E+02  0.16176192796E+02  0.13864486145E+03  0.12508817897E+03 0.  0.
         24    2    1    2    0    0 -0.63526883087E+01 -0.56349660941E+02  0.20621515808E+03  0.22862208945E+03  0.80794352696E+02 0.  0.
        -11    1    5    5    0    0 -0.38100958556E+02 -0.51434925107E+02  0.11100667468E+03  0.12813944119E+03  0.00000000000E+00 0.  1.
         12    1    5    5    0    0  0.31748270247E+02 -0.49147358344E+01  0.95208483394E+02  0.10048264826E+03  0.00000000000E+00 0. -1.
         11    1    3    3    0    0 -0.18359778322E+02  0.24564957824E+02 -0.45014019202E+02  0.54468160770E+02  0.00000000000E+00 0. -1.
        -12    1    3    3    0    0  0.20251135617E+02 -0.25606693452E+02 -0.22306554502E+03  0.22544189633E+03  0.00000000000E+00 0.  1.
          5    1    4    4  501    0 -0.19740291841E+02 -0.28705863894E+02  0.32278307106E+02  0.47676695078E+02  0.41800000000E+01 0.  1.
         -5    1    4    4    0  501  0.24201622855E+02  0.86097260464E+02 -0.16102114310E+02  0.90968166374E+02  0.41800000000E+01 0.  1.
</event>
<event>
11    1  0.8974665E-009  0.1529033E+03  0.7561462E-02  0.1093949E+00
         22   -1    0    0    0    0  0.00000000000E+00  0.00000000000E+00  0.41960315749E+03  0.41960315749E+03  0.00000000000E+00 0.  1.
         22   -1    0    0    0    0 -0.00000000000E+00 -0.00000000000E+00 -0.28487019631E+04  0.28487019631E+04  0.00000000000E+00 0. -1.
        -24    2    1    2    0    0  0.47681208608E+01 -0.87815506469E+02 -0.27407257858E+04  0.27434733647E+04  0.85638610893E+02 0.  0.
         25    2    1    2    0    0  0.35784357307E+02  0.89281401715E+02 -0.39392616129E+02  0.16263651087E+03  0.12508863875E+03 0.  0.
         24    2    1    2    0    0 -0.40552478168E+02 -0.14658952463E+01  0.35101959627E+03  0.36219524507E+03  0.79523494959E+02 0.  0.
        -13    1    5    5    0    0 -0.46884223010E+02  0.25219697887E+02  0.29565425918E+03  0.30040906195E+03  0.00000000000E+00 0.  1.
         14    1    5    5    0    0  0.63317448418E+01 -0.26685593133E+02  0.55365337084E+02  0.61786183116E+02  0.00000000000E+00 0. -1.
         13    1    3    3    0    0 -0.28782141775E+02 -0.53842155831E+01 -0.10486331701E+04  0.10490419090E+04  0.00000000000E+00 0. -1.
        -14    1    3    3    0    0  0.33550262636E+02 -0.82431290885E+02 -0.16920926157E+04  0.16944314557E+04  0.00000000000E+00 0.  1.
          5    1    4    4  501    0  0.68566707608E+02  0.98925133930E+02 -0.43311615748E+02  0.12798806184E+03  0.41800000000E+01 0. -1.
         -5    1    4    4    0  501 -0.32782350301E+02 -0.96437322155E+01  0.39189996197E+01  0.34648449032E+02  0.41800000000E+01 0. -1.
</event>
<event>
11    1  0.8974665E-009  0.1610695E+03  0.7561462E-02  0.1086076E+00
         22   -1    0    0    0    0  0.00000000000E+00  0.00000000000E+00  0.44796437998E+03  0.44796437998E+03  0.00000000000E+00 0. -1.
         22   -1    0    0    0    0 -0.00000000000E+00 -0.00000000000E+00 -0.24584196902E+03  0.24584196902E+03  0.00000000000E+00 0. -1.
         24    2    1    2    0    0  0.30839608835E+02 -0.66709146584E+02 -0.15080567954E+03  0.18580340357E+03  0.79870896378E+02 0.  0.
         25    2    1    2    0    0 -0.11943932329E+02 -0.47429301596E+02  0.10984831805E+02  0.13476038056E+03  0.12508995751E+03 0.  0.
        -24    2    1    2    0    0 -0.18895676505E+02  0.11413844818E+03  0.34194325870E+03  0.37324256487E+03  0.94869321277E+02 0.  0.
        -13    1    3    3    0    0 -0.13903315420E+02 -0.26517281984E+02 -0.10776014801E+03  0.11184237982E+03  0.00000000000E+00 0.  1.
         14    1    3    3    0    0  0.44742924255E+02 -0.40191864601E+02 -0.43045531523E+02  0.73961023756E+02  0.00000000000E+00 0. -1.
         11    1    5    5    0    0 -0.20757962316E+02  0.10262288139E+03  0.34552492053E+03  0.36103991399E+03  0.00000000000E+00 0. -1.
        -12    1    5    5    0    0  0.18622858105E+01  0.11515566792E+02 -0.35816618379E+01  0.12202650880E+02  0.00000000000E+00 0.  1.
          5    1    4    4  501    0 -0.16818359673E+02 -0.87861621609E+02 -0.74467933116E+01  0.89863501515E+02  0.41800000000E+01 0.  1.
         -5    1    4    4    0  501  0.48744273437E+01  0.40432320013E+02  0.18431625117E+02  0.44896879045E+02  0.41800000000E+01 0.  1.
</event>
