<event>
11    1  0.2498402E-009  0.1400329E+03  0.7561462E-02  0.1107522E+00
         22   -1    0    0    0    0  0.00000000000E+00  0.00000000000E+00  0.24477517697E+04  0.24477517697E+04  0.00000000000E+00 0.  1.
         22   -1    0    0    0    0 -0.00000000000E+00 -0.00000000000E+00 -0.57792466016E+03  0.57792466016E+03  0.00000000000E+00 0. -1.
         25    2    1    2    0    0  0.43104391555E+02  0.26936682652E+02 -0.52553837285E+03  0.54260599335E+03  0.12508840568E+03 0.  0.
        -24    2    1    2    0    0  0.14928407920E+02 -0.24915451789E+01 -0.20380236088E+01  0.83499254542E+02  0.82090844852E+02 0.  0.
         24    2    1    2    0    0 -0.58032799475E+02 -0.24445137473E+02  0.23974035060E+04  0.23995711820E+04  0.80205462851E+02 0.  0.
        -13    1    5    5    0    0  0.12176165752E+01 -0.40473799939E+02  0.90148793091E+03  0.90239686427E+03  0.00000000000E+00 0.  1.
         14    1    5    5    0    0 -0.59250416050E+02  0.16028662466E+02  0.14959155751E+04  0.14971743177E+04  0.00000000000E+00 0. -1.
         11    1    4    4    0    0  0.46520989161E+02 -0.15738750761E+02  0.86596452489E+00  0.49118841625E+02  0.00000000000E+00 0. -1.
        -12    1    4    4    0    0 -0.31592581241E+02  0.13247205582E+02 -0.29039881337E+01  0.34380412917E+02  0.00000000000E+00 0.  1.
          5    1    3    3  501    0  0.51888491838E+02 -0.37826373879E+02 -0.18618852835E+03  0.19699464621E+03  0.41800000000E+01 0. -1.
         -5    1    3    3    0  501 -0.87841002826E+01  0.64763056531E+02 -0.33934984449E+03  0.34561134713E+03  0.41800000000E+01 0. -1.
</event>
<event>
11    1  0.2498402E-009  0.3357194E+03  0.7561462E-02  0.9861134E-01
         22   -1    0    0    0    0  0.00000000000E+00  0.00000000000E+00  0.10337290218E+03  0.10337290218E+03  0.00000000000E+00 0.  1.
         22   -1    0    0    0    0 -0.00000000000E+00 -0.00000000000E+00 -0.27257504162E+03  0.27257504162E+03  0.00000000000E+00 0.  1.
         25    2    1    2    0    0 -0.48771049853E+02 -0.49143120421E+02 -0.11551430571E+03  0.18381360197E+03  0.12510085474E+03 0.  0.
        -24    2    1    2    0    0  0.44081693097E+02  0.35895487704E+02 -0.19888249123E+02  0.10163382185E+03  0.81867023805E+02 0.  0.
         24    2    1    2    0    0  0.46893567557E+01  0.13247632717E+02 -0.33799584610E+02  0.90500519984E+02  0.82767399127E+02 0.  0.
        -11    1    5    5    0    0 -0.23723754573E+01 -0.32973817745E+02 -0.43948431585E+00  0.33061971636E+02  0.00000000000E+00 0.  1.
         12    1    5    5    0    0  0.70617322131E+01  0.46221450463E+02 -0.33360100294E+02  0.57438548348E+02  0.00000000000E+00 0. -1.
         13    1    4    4    0    0  0.34872502524E+02  0.86310747612E+01  0.28146836509E+02  0.45638046510E+02  0.00000000000E+00 0. -1.
        -14    1    4    4    0    0  0.92091905737E+01  0.27264412942E+02 -0.48035085632E+02  0.55995775339E+02  0.00000000000E+00 0.  1.
          5    1    3    3  501    0 -0.83899581408E+02 -0.52469386518E+02 -0.10972130386E+03  0.14781208747E+03  0.41800000000E+01 0. -1.
         -5    1    3    3    0  501  0.35128531555E+02  0.33262660968E+01 -0.57930018483E+01  0.36001514493E+02  0.41800000000E+01 0. -1.
</event>
<event>
11    1  0.2498402E-009  0.1603240E+03  0.7561462E-02  0.1086773E+00
         22   -1    0    0    0    0  0.00000000000E+00  0.00000000000E+00  0.21261818896E+03  0.21261818896E+03  0.00000000000E+00 0.  1.
         22   -1    0    0    0    0 -0.00000000000E+00 -0.00000000000E+00 -0.20015191897E+03  0.20015191897E+03  0.00000000000E+00 0. -1.
         25    2    1    2    0    0  0.34959575717E+02 -0.85243277773E+02 -0.49905451365E+02  0.16317464541E+03  0.12508725950E+03 0.  0.
        -24    2    1    2    0    0 -0.90367455147E+02  0.78836127001E+02  0.29008388759E+02  0.14669433580E+03  0.79349415034E+02 0.  0.
         24    2    1    2    0    0  0.55407879429E+02  0.64071507727E+01  0.33363332598E+02  0.10290112671E+03  0.79777473217E+02 0.  0.
        -13    1    5    5    0    0  0.39255587750E+02 -0.33406272079E+02  0.30380097100E+02  0.59832520285E+02  0.00000000000E+00 0.  1.
         14    1    5    5    0    0  0.16152291679E+02  0.39813422852E+02  0.29832354986E+01  0.43068606428E+02  0.00000000000E+00 0. -1.
         13    1    4    4    0    0 -0.86874192130E+02  0.27893553634E+02  0.83929392134E+01  0.91627599669E+02  0.00000000000E+00 0. -1.
        -14    1    4    4    0    0 -0.34932630169E+01  0.50942573367E+02  0.20615449545E+02  0.55066736127E+02  0.00000000000E+00 0.  1.
          5    1    3    3  501    0  0.49494591005E+02 -0.91936656892E+02 -0.78120318583E+02  0.13046961330E+03  0.41800000000E+01 0. -1.
         -5    1    3    3    0  501 -0.14535015288E+02  0.66933791190E+01  0.28214867218E+02  0.32705032114E+02  0.41800000000E+01 0. -1.
</event>
<event>
11    1  0.2498402E-009  0.7293080E+03  0.7561462E-02  0.8990196E-01
         22   -1    0    0    0    0  0.00000000000E+00  0.00000000000E+00  0.14705911637E+03  0.14705911637E+03  0.00000000000E+00 0.  1.
         22   -1    0    0    0    0 -0.00000000000E+00 -0.00000000000E+00 -0.90421150851E+03  0.90421150851E+03  0.00000000000E+00 0. -1.
         25    2    1    2    0    0 -0.55227887517E+02  0.13522738855E+03 -0.80155430824E+03  0.82429924031E+03  0.12507342781E+03 0.  0.
         24    2    1    2    0    0  0.41527908391E+02 -0.10308427783E+03  0.38567637123E+02  0.14273514346E+03  0.80838870805E+02 0.  0.
        -24    2    1    2    0    0  0.13699979126E+02 -0.32143110721E+02  0.58342789710E+01  0.84236241112E+02  0.76425365623E+02 0.  0.
        -13    1    4    4    0    0  0.48312565064E+02 -0.91853607680E+02  0.58300354643E+02  0.11903831542E+03  0.00000000000E+00 0.  1.
         14    1    4    4    0    0 -0.67846566722E+01 -0.11230670152E+02 -0.19732717520E+02  0.23696828036E+02  0.00000000000E+00 0. -1.
         13    1    5    5    0    0  0.18235944004E+02  0.22132327987E+02 -0.37935819179E+01  0.28927164735E+02  0.00000000000E+00 0. -1.
        -14    1    5    5    0    0 -0.45359648785E+01 -0.54275438708E+02  0.96278608889E+01  0.55309076376E+02  0.00000000000E+00 0.  1.
          5    1    3    3  501    0 -0.79953755208E+02  0.11416082902E+03 -0.75254433216E+03  0.76535334463E+03  0.41800000000E+01 0. -1.
         -5    1    3    3    0  501  0.24725867690E+02  0.21066559528E+02 -0.49009976077E+02  0.58945895688E+02  0.41800000000E+01 0. -1.
</event>
<event>
11    1  0.2498402E-009  0.1394282E+03  0.7561462E-02  0.1108199E+00
         22   -1    0    0    0    0  0.00000000000E+00  0.00000000000E+00  0.31073535165E+03  0.31073535165E+03  0.00000000000E+00 0. -1.
         22   -1    0    0    0    0 -0.00000000000E+00 -0.00000000000E+00 -0.21773036907E+03  0.21773036907E+03  0.00000000000E+00 0. -1.
         25    2    1    2    0    0  0.58206036967E+02 -0.85864569689E+01 -0.69091477593E+02  0.15453931194E+03  0.12508835548E+03 0.  0.
        -24    2    1    2    0    0 -0.57467757338E+02  0.29475112228E+02 -0.71502076204E+02  0.12542600551E+03  0.80298260138E+02 0.  0.
         24    2    1    2    0    0 -0.73827962830E+00 -0.20888655259E+02  0.23359853638E+03  0.24850040327E+03  0.82141909228E+02 0.  0.
        -11    1    5    5    0    0 -0.30037282051E+02  0.17416240715E+02  0.12382167677E+03  0.12859771145E+03  0.00000000000E+00 0.  1.
         12    1    5    5    0    0  0.29299002423E+02 -0.38304895975E+02  0.10977685962E+03  0.11990269182E+03  0.00000000000E+00 0. -1.
         11    1    4    4    0    0 -0.36675779808E+02  0.30817270962E+02 -0.87096393424E+02  0.99401201006E+02  0.00000000000E+00 0. -1.
        -12    1    4    4    0    0 -0.20791977530E+02 -0.13421587334E+01  0.15594317220E+02  0.26024804499E+02  0.00000000000E+00 0.  1.
          5    1    3    3  501    0 -0.35015808554E+02 -0.25250937674E+02 -0.19420563514E+02  0.47522072654E+02  0.41800000000E+01 0. -1.
         -5    1    3    3    0  501  0.93221845521E+02  0.16664480705E+02 -0.49670914080E+02  0.10701723929E+03  0.41800000000E+01 0. -1.
</event>
<event>
11    1  0.2498402E-009  0.3118979E+03  0.7561462E-02  0.9952778E-01
         22   -1    0    0    0    0  0.00000000000E+00  0.00000000000E+00  0.26833471610E+04  0.26833471610E+04  0.00000000000E+00 0.  1.
         22   -1    0    0    0    0 -0.00000000000E+00 -0.00000000000E+00 -0.15478853919E+03  0.15478853919E+03  0.00000000000E+00 0. -1.
         25    2    1    2    0    0  0.28825474888E+03 -0.58534151194E+02  0.11908002978E+03  0.34109230982E+03  0.12508742231E+03 0.  0.
        -24    2    1    2    0    0 -0.13359256136E+03 -0.22473169173E+03  0.63222353455E+03  0.68893352670E+03  0.81064794155E+02 0.  0.
         24    2    1    2    0    0 -0.15466218752E+03  0.28326584292E+03  0.17772550575E+04  0.18081098637E+04  0.80410258805E+02 0.  0.
        -13    1    5    5    0    0 -0.15790901112E+03  0.27090380426E+03  0.17516186400E+04  0.17794639605E+04  0.00000000000E+00 0.  1.
         14    1    5    5    0    0  0.32468235961E+01  0.12362038666E+02  0.25636417547E+02  0.28645903164E+02  0.00000000000E+00 0. -1.
         11    1    4    4    0    0 -0.24284460257E+02 -0.52627398941E+02  0.69984111362E+02  0.90868883411E+02  0.00000000000E+00 0. -1.
        -12    1    4    4    0    0 -0.10930810110E+03 -0.17210429279E+03  0.56223942319E+03  0.59806464329E+03  0.00000000000E+00 0.  1.
          5    1    3    3  501    0  0.22072303536E+03 -0.63009746289E+02  0.33665054615E+02  0.23203382247E+03  0.41800000000E+01 0.  1.
         -5    1    3    3    0  501  0.67531713515E+02  0.44755950947E+01  0.85414975161E+02  0.10905848735E+03  0.41800000000E+01 0.  1.
</event>
<event>
11    1  0.2498402E-009  0.1334251E+03  0.7561462E-02  0.1115131E+00
         22   -1    0    0    0    0  0.00000000000E+00  0.00000000000E+00  0.12185674412E+03  0.12185674412E+03  0.00000000000E+00 0.  1.
         22   -1    0    0    0    0 -0.00000000000E+00 -0.00000000000E+00 -0.21107555569E+03  0.21107555569E+03  0.00000000000E+00 0. -1.
         25    2    1    2    0    0 -0.14793472472E+02  0.34356002699E+02 -0.54962731568E+02  0.14165695524E+03  0.12508640757E+03 0.  0.
         24    2    1    2    0    0  0.66122954103E+02 -0.76007444148E+01 -0.30063581599E+02  0.10841964279E+03  0.80131040355E+02 0.  0.
        -24    2    1    2    0    0 -0.51329481632E+02 -0.26755258284E+02 -0.41924984044E+01  0.82855701778E+02  0.59134852192E+02 0.  0.
        -11    1    4    4    0    0  0.72220098036E+02 -0.55929575867E+01  0.51562236731E+01  0.72619628045E+02  0.00000000000E+00 0.  1.
         12    1    4    4    0    0 -0.60971439323E+01 -0.20077868280E+01 -0.35219805272E+02  0.35800014741E+02  0.00000000000E+00 0. -1.
         11    1    5    5    0    0 -0.33181730838E+02 -0.25408211414E+02 -0.29880160756E+02  0.51375368374E+02  0.00000000000E+00 0. -1.
        -12    1    5    5    0    0 -0.18147750793E+02 -0.13470468701E+01  0.25687662352E+02  0.31480333404E+02  0.00000000000E+00 0.  1.
          5    1    3    3  501    0 -0.31587654831E+02 -0.52862152719E+01  0.31413343346E+02  0.45055460821E+02  0.41800000000E+01 0.  1.
         -5    1    3    3    0  501  0.16794182359E+02  0.39642217971E+02 -0.86376074914E+02  0.96601494421E+02  0.41800000000E+01 0.  1.
</event>
<event>
11    1  0.2498402E-009  0.6604103E+03  0.7561462E-02  0.9092769E-01
         22   -1    0    0    0    0  0.00000000000E+00  0.00000000000E+00  0.46916615956E+03  0.46916615956E+03  0.00000000000E+00 0. -1.
         22   -1    0    0    0    0 -0.00000000000E+00 -0.00000000000E+00 -0.14621087476E+04  0.14621087476E+04  0.00000000000E+00 0. -1.
         25    2    1    2    0    0  0.63333514966E+03  0.28669173266E+02 -0.88518596836E+03  0.10959638856E+04  0.12508919447E+03 0.  0.
         24    2    1    2    0    0 -0.68254270605E+03 -0.11075635790E+03 -0.12979136942E+03  0.70813771702E+03  0.80509069568E+02 0.  0.
        -24    2    1    2    0    0  0.49207556393E+02  0.82087184638E+02  0.22034749729E+02  0.12717330460E+03  0.80794985734E+02 0.  0.
        -13    1    4    4    0    0 -0.51261452896E+03 -0.86915785220E+02 -0.61899614265E+02  0.52360249357E+03  0.00000000000E+00 0.  1.
         14    1    4    4    0    0 -0.16992817709E+03 -0.23840572684E+02 -0.67891755155E+02  0.18453522345E+03  0.00000000000E+00 0. -1.
         11    1    5    5    0    0  0.28266914550E+02 -0.56038914186E+01  0.23221263432E+02  0.37008771022E+02  0.00000000000E+00 0. -1.
        -12    1    5    5    0    0  0.20940641843E+02  0.87691076057E+02 -0.11865137031E+01  0.90164533580E+02  0.00000000000E+00 0.  1.
          5    1    3    3  501    0  0.63757972554E+03  0.27927661599E+02 -0.88317148173E+03  0.10896316805E+04  0.41800000000E+01 0.  1.
         -5    1    3    3    0  501 -0.42445758783E+01  0.74151166656E+00 -0.20144866246E+01  0.63322050108E+01  0.41800000000E+01 0.  1.
</event>
<event>
11    1  0.2498402E-009  0.6074372E+03  0.7561462E-02  0.9181063E-01
         22   -1    0    0    0    0  0.00000000000E+00  0.00000000000E+00  0.12032185424E+04  0.12032185424E+04  0.00000000000E+00 0.  1.
         22   -1    0    0    0    0 -0.00000000000E+00 -0.00000000000E+00 -0.59941691222E+03  0.59941691222E+03  0.00000000000E+00 0.  1.
         25    2    1    2    0    0  0.18896731898E+02 -0.21576652438E+03 -0.20469437413E+03  0.32319890444E+03  0.12508183525E+03 0.  0.
        -24    2    1    2    0    0  0.58807888359E+03  0.17685346714E+03  0.47798179004E+03  0.78251769672E+03  0.82179266893E+02 0.  0.
         24    2    1    2    0    0 -0.60697561549E+03  0.38913057239E+02  0.33051421427E+03  0.69691885345E+03  0.80762730535E+02 0.  0.
        -13    1    5    5    0    0 -0.51809423354E+03  0.10641177175E+02  0.25860393984E+03  0.57914667156E+03  0.00000000000E+00 0.  1.
         14    1    5    5    0    0 -0.88881381952E+02  0.28271880063E+02  0.71910274429E+02  0.11777218190E+03  0.00000000000E+00 0. -1.
         11    1    4    4    0    0  0.34651563027E+02 -0.63673808214E+01  0.40333029611E+02  0.53553969380E+02  0.00000000000E+00 0. -1.
        -12    1    4    4    0    0  0.55342732056E+03  0.18322084797E+03  0.43764876043E+03  0.72896372734E+03  0.00000000000E+00 0.  1.
          5    1    3    3  501    0  0.50709868895E+02 -0.46531771889E+02 -0.10052753886E+03  0.12190141537E+03  0.41800000000E+01 0. -1.
         -5    1    3    3    0  501 -0.31813136996E+02 -0.16923475249E+03 -0.10416683527E+03  0.20129748907E+03  0.41800000000E+01 0. -1.
</event>
<event>
11    1  0.2498402E-009  0.1206707E+04  0.7561462E-02  0.8503967E-01
         22   -1    0    0    0    0  0.00000000000E+00  0.00000000000E+00  0.39182004070E+03  0.39182004070E+03  0.00000000000E+00 0.  1.
         22   -1    0    0    0    0 -0.00000000000E+00 -0.00000000000E+00 -0.92908865224E+03  0.92908865224E+03  0.00000000000E+00 0.  1.
         25    2    1    2    0    0 -0.13578250226E+03  0.39032684495E+03 -0.68535099940E+03  0.81002795957E+03  0.12508944437E+03 0.  0.
        -24    2    1    2    0    0  0.32785727889E+02 -0.27757188449E+03  0.17049748847E+03  0.33827712296E+03  0.85093850155E+02 0.  0.
         24    2    1    2    0    0  0.10299677437E+03 -0.11275496046E+03 -0.22415100608E+02  0.17260361040E+03  0.77249938187E+02 0.  0.
        -13    1    5    5    0    0  0.74467826838E+02 -0.11845095972E+03 -0.28730700665E+02  0.14283396044E+03  0.00000000000E+00 0.  1.
         14    1    5    5    0    0  0.28528947532E+02  0.56959992657E+01  0.63156000571E+01  0.29769649965E+02  0.00000000000E+00 0. -1.
         13    1    4    4    0    0 -0.89153607426E+01 -0.68452315144E+02  0.82567010744E+02  0.10762209053E+03  0.00000000000E+00 0. -1.
        -14    1    4    4    0    0  0.41701088632E+02 -0.20911956935E+03  0.87930477723E+02  0.23065503244E+03  0.00000000000E+00 0.  1.
          5    1    3    3  501    0 -0.14909320836E+03  0.33169439048E+03 -0.52447538251E+03  0.63823338420E+03  0.41800000000E+01 0. -1.
         -5    1    3    3    0  501  0.13310706098E+02  0.58632454471E+02 -0.16087561689E+03  0.17179457536E+03  0.41800000000E+01 0. -1.
</event>
<event>
11    1  0.2498402E-009  0.4243525E+03  0.7561462E-02  0.9580517E-01
         22   -1    0    0    0    0  0.00000000000E+00  0.00000000000E+00  0.93996642482E+03  0.93996642482E+03  0.00000000000E+00 0.  1.
         22   -1    0    0    0    0 -0.00000000000E+00 -0.00000000000E+00 -0.94971217502E+03  0.94971217502E+03  0.00000000000E+00 0. -1.
         25    2    1    2    0    0 -0.10069332864E+03  0.10049837894E+03 -0.24738934545E+03  0.31158949664E+03  0.12508979003E+03 0.  0.
         24    2    1    2    0    0  0.42603844336E+03  0.15724378363E+03 -0.52948108621E+03  0.70212773893E+03  0.79992364689E+02 0.  0.
        -24    2    1    2    0    0 -0.32534511472E+03 -0.25774216258E+03  0.76712468146E+03  0.87596136427E+03  0.80917048589E+02 0.  0.
        -11    1    4    4    0    0  0.92218626671E+02  0.50871693245E+02 -0.80155619162E+02  0.13235228582E+03  0.00000000000E+00 0.  1.
         12    1    4    4    0    0  0.33381981669E+03  0.10637209039E+03 -0.44932546704E+03  0.56977545311E+03  0.00000000000E+00 0. -1.
         11    1    5    5    0    0 -0.34149219694E+01 -0.12998687952E+01  0.42092242318E+02  0.42250540994E+02  0.00000000000E+00 0. -1.
        -12    1    5    5    0    0 -0.32193019275E+03 -0.25644229378E+03  0.72503243914E+03  0.83371082328E+03  0.00000000000E+00 0.  1.
          5    1    3    3  501    0 -0.38564254181E+02 -0.85001148933E+01 -0.68956270273E+01  0.40304785396E+02  0.41800000000E+01 0. -1.
         -5    1    3    3    0  501 -0.62129074459E+02  0.10899849384E+03 -0.24049371843E+03  0.27128471124E+03  0.41800000000E+01 0. -1.
</event>
<event>
11    1  0.2498402E-009  0.6635890E+03  0.7561462E-02  0.9087752E-01
         22   -1    0    0    0    0  0.00000000000E+00  0.00000000000E+00  0.22649165823E+04  0.22649165823E+04  0.00000000000E+00 0. -1.
         22   -1    0    0    0    0 -0.00000000000E+00 -0.00000000000E+00 -0.77113885544E+03  0.77113885544E+03  0.00000000000E+00 0.  1.
         25    2    1    2    0    0 -0.48668594134E+03  0.46916885454E+03 -0.49105739129E+03  0.84484788110E+03  0.12509181061E+03 0.  0.
        -24    2    1    2    0    0  0.39871894152E+03 -0.37272460079E+03  0.67210028638E+03  0.86954028781E+03  0.80505247050E+02 0.  0.
         24    2    1    2    0    0  0.87966999818E+02 -0.96444253758E+02  0.13127348318E+04  0.13216672689E+04  0.80572599714E+02 0.  0.
        -13    1    5    5    0    0  0.15508883740E+02 -0.32335684070E+02  0.73606395837E+03  0.73693708873E+03  0.00000000000E+00 0.  1.
         14    1    5    5    0    0  0.72458116078E+02 -0.64108569688E+02  0.57667087343E+03  0.58473018013E+03  0.00000000000E+00 0. -1.
         11    1    4    4    0    0  0.23281168936E+03 -0.26893655252E+03  0.44725389007E+03  0.57145795486E+03  0.00000000000E+00 0. -1.
        -12    1    4    4    0    0  0.16590725216E+03 -0.10378804827E+03  0.22484639631E+03  0.29808233295E+03  0.00000000000E+00 0.  1.
          5    1    3    3  501    0 -0.18065609562E+03  0.23522344675E+03 -0.16064117000E+03  0.33732736724E+03  0.41800000000E+01 0. -1.
         -5    1    3    3    0  501 -0.30602984572E+03  0.23394540779E+03 -0.33041622130E+03  0.50752051387E+03  0.41800000000E+01 0. -1.
</event>
<event>
11    1  0.2498402E-009  0.1721842E+03  0.7561462E-02  0.1076146E+00
         22   -1    0    0    0    0  0.00000000000E+00  0.00000000000E+00  0.12849256415E+03  0.12849256415E+03  0.00000000000E+00 0.  1.
         22   -1    0    0    0    0 -0.00000000000E+00 -0.00000000000E+00 -0.18722083548E+04  0.18722083548E+04  0.00000000000E+00 0.  1.
         25    2    1    2    0    0  0.81318788909E+02 -0.73248813022E+02 -0.11015069097E+04  0.11139764614E+04  0.12509176730E+03 0.  0.
        -24    2    1    2    0    0 -0.71120466950E+02  0.11133406684E+03 -0.73951587180E+03  0.75544467921E+03  0.79746745700E+02 0.  0.
         24    2    1    2    0    0 -0.10198321959E+02 -0.38085253818E+02  0.97306990878E+02  0.13127977838E+03  0.78811404045E+02 0.  0.
        -11    1    5    5    0    0 -0.10128942607E+01  0.83129076311E+01  0.80725708292E+02  0.81158920442E+02  0.00000000000E+00 0.  1.
         12    1    5    5    0    0 -0.91854276983E+01 -0.46398161449E+02  0.16581282585E+02  0.50120857934E+02  0.00000000000E+00 0. -1.
         13    1    4    4    0    0 -0.29387378959E+02  0.15232615832E+02 -0.66073368033E+02  0.73900883556E+02  0.00000000000E+00 0. -1.
        -14    1    4    4    0    0 -0.41733087991E+02  0.96101451008E+02 -0.67344250377E+03  0.68154379566E+03  0.00000000000E+00 0.  1.
          5    1    3    3  501    0 -0.11729010561E+02 -0.69765256899E+02 -0.56589367842E+03  0.57031385081E+03  0.41800000000E+01 0.  1.
         -5    1    3    3    0  501  0.93047799470E+02 -0.34835561233E+01 -0.53561323131E+03  0.54366261054E+03  0.41800000000E+01 0.  1.
</event>
<event>
11    1  0.2498402E-009  0.1813250E+03  0.7561462E-02  0.1068576E+00
         22   -1    0    0    0    0  0.00000000000E+00  0.00000000000E+00  0.26883341969E+03  0.26883341969E+03  0.00000000000E+00 0.  1.
         22   -1    0    0    0    0 -0.00000000000E+00 -0.00000000000E+00 -0.50635355125E+03  0.50635355125E+03  0.00000000000E+00 0.  1.
         25    2    1    2    0    0  0.69831413324E+02 -0.90772032568E+02 -0.21813211517E+03  0.27630708774E+03  0.12509196170E+03 0.  0.
         24    2    1    2    0    0 -0.90863947851E+02  0.11630156834E+03 -0.22149985497E+03  0.27821393962E+03  0.80984557960E+02 0.  0.
        -24    2    1    2    0    0  0.21032534527E+02 -0.25529535776E+02  0.20211183858E+03  0.22066594358E+03  0.82159227448E+02 0.  0.
        -13    1    4    4    0    0 -0.93003064123E+02  0.11370832505E+03 -0.16225591512E+03  0.21887470185E+03  0.00000000000E+00 0.  1.
         14    1    4    4    0    0  0.21391162715E+01  0.25932432987E+01 -0.59243939855E+02  0.59339237767E+02  0.00000000000E+00 0. -1.
         11    1    5    5    0    0  0.41055341776E+02 -0.76874274482E+01  0.45461359902E+02  0.61736317296E+02  0.00000000000E+00 0. -1.
        -12    1    5    5    0    0 -0.20022807249E+02 -0.17842108328E+02  0.15665047868E+03  0.15892962628E+03  0.00000000000E+00 0.  1.
          5    1    3    3  501    0 -0.33788669639E+02 -0.42222282321E+02 -0.57559445072E+02  0.79088288876E+02  0.41800000000E+01 0.  1.
         -5    1    3    3    0  501  0.10362008296E+03 -0.48549750247E+02 -0.16057267010E+03  0.19721879886E+03  0.41800000000E+01 0.  1.
</event>
<event>
11    1  0.2498402E-009  0.1788883E+03  0.7561462E-02  0.1070546E+00
         22   -1    0    0    0    0  0.00000000000E+00  0.00000000000E+00  0.12081567959E+03  0.12081567959E+03  0.00000000000E+00 0.  1.
         22   -1    0    0    0    0 -0.00000000000E+00 -0.00000000000E+00 -0.73085047857E+03  0.73085047857E+03  0.00000000000E+00 0.  1.
         25    2    1    2    0    0  0.87082952395E+02  0.95265836225E+02 -0.55712279736E+03  0.58539963662E+03  0.12509157874E+03 0.  0.
        -24    2    1    2    0    0 -0.38235525474E+02 -0.12842863545E+03 -0.59238102103E+02  0.16566182240E+03  0.77322809376E+02 0.  0.
         24    2    1    2    0    0 -0.48847426922E+02  0.33162799220E+02  0.63261004833E+01  0.10060469914E+03  0.81212336334E+02 0.  0.
        -13    1    5    5    0    0 -0.33032914512E+02  0.58109714158E+01 -0.35071607428E+02  0.48527914415E+02  0.00000000000E+00 0.  1.
         14    1    5    5    0    0 -0.15814512410E+02  0.27351827804E+02  0.41397707911E+02  0.52076784725E+02  0.00000000000E+00 0. -1.
         13    1    4    4    0    0 -0.30914025819E+02 -0.13861248942E+03 -0.56365526051E+02  0.15279454094E+03  0.00000000000E+00 0. -1.
        -14    1    4    4    0    0 -0.73214996545E+01  0.10183853973E+02 -0.28725760524E+01  0.12867281458E+02  0.00000000000E+00 0.  1.
          5    1    3    3  501    0  0.56790676733E+02  0.66354672574E+02 -0.13283891180E+03  0.15903387194E+03  0.41800000000E+01 0.  1.
         -5    1    3    3    0  501  0.30292275662E+02  0.28911163651E+02 -0.42428388556E+03  0.42636576468E+03  0.41800000000E+01 0.  1.
</event>
<event>
11    1  0.2498402E-009  0.2336171E+03  0.7561462E-02  0.1033008E+00
         22   -1    0    0    0    0  0.00000000000E+00  0.00000000000E+00  0.62079043118E+03  0.62079043118E+03  0.00000000000E+00 0.  1.
         22   -1    0    0    0    0 -0.00000000000E+00 -0.00000000000E+00 -0.21229021780E+03  0.21229021780E+03  0.00000000000E+00 0.  1.
         25    2    1    2    0    0 -0.26889739614E+02  0.18047042423E+03 -0.46025030244E+02  0.22595417016E+03  0.12507738200E+03 0.  0.
        -24    2    1    2    0    0 -0.10490317447E+03 -0.23433777844E+02  0.42436554889E+02  0.13977220228E+03  0.78623084278E+02 0.  0.
         24    2    1    2    0    0  0.13179291409E+03 -0.15703664638E+03  0.41208868873E+03  0.46735427653E+03  0.81074360313E+02 0.  0.
        -13    1    5    5    0    0  0.11664097300E+03 -0.15287717737E+03  0.40811382514E+03  0.45114680782E+03  0.00000000000E+00 0.  1.
         14    1    5    5    0    0  0.15151941091E+02 -0.41594690169E+01  0.39748635951E+01  0.16207468708E+02  0.00000000000E+00 0. -1.
         13    1    4    4    0    0  0.63179875507E+01 -0.22226694447E+01 -0.12303559626E+02  0.14008383405E+02  0.00000000000E+00 0. -1.
        -14    1    4    4    0    0 -0.11122116202E+03 -0.21211108399E+02  0.54740114515E+02  0.12576381888E+03  0.00000000000E+00 0.  1.
          5    1    3    3  501    0 -0.16437014035E+02 -0.15895952578E+02 -0.12616759525E+02  0.26448284626E+02  0.41800000000E+01 0.  1.
         -5    1    3    3    0  501 -0.10452725579E+02  0.19636637681E+03 -0.33408270718E+02  0.19950588554E+03  0.41800000000E+01 0.  1.
</event>
<event>
11    1  0.2498402E-009  0.1927399E+03  0.7561462E-02  0.1059780E+00
         22   -1    0    0    0    0  0.00000000000E+00  0.00000000000E+00  0.39423561229E+03  0.39423561229E+03  0.00000000000E+00 0.  1.
         22   -1    0    0    0    0 -0.00000000000E+00 -0.00000000000E+00 -0.21067798783E+03  0.21067798783E+03  0.00000000000E+00 0.  1.
         25    2    1    2    0    0  0.98331876451E+02  0.98638292060E+02 -0.78389423793E+02  0.20295604133E+03  0.12509029683E+03 0.  0.
        -24    2    1    2    0    0 -0.80802288750E+02 -0.14960508683E+03  0.10156867631E+03  0.21404033179E+03  0.81156489283E+02 0.  0.
         24    2    1    2    0    0 -0.17529587701E+02  0.50966794770E+02  0.16037837195E+03  0.18791722700E+03  0.81772620127E+02 0.  0.
        -13    1    5    5    0    0 -0.45353334101E+02  0.43644865058E+02  0.75502978926E+02  0.98298011102E+02  0.00000000000E+00 0.  1.
         14    1    5    5    0    0  0.27823746400E+02  0.73219297126E+01  0.84875393021E+02  0.89619215902E+02  0.00000000000E+00 0. -1.
         11    1    4    4    0    0 -0.60084792159E+02 -0.47634511519E+02  0.73622163025E+02  0.10629887970E+03  0.00000000000E+00 0. -1.
        -12    1    4    4    0    0 -0.20717496592E+02 -0.10197057531E+03  0.27946513285E+02  0.10774145209E+03  0.00000000000E+00 0.  1.
          5    1    3    3  501    0  0.84893175727E+02 -0.85956454887E-01 -0.19714151780E+02  0.87252385950E+02  0.41800000000E+01 0.  1.
         -5    1    3    3    0  501  0.13438700724E+02  0.98724248515E+02 -0.58675272013E+02  0.11570365538E+03  0.41800000000E+01 0.  1.
</event>
<event>
11    1  0.2498402E-009  0.2035645E+03  0.7561462E-02  0.1052031E+00
         22   -1    0    0    0    0  0.00000000000E+00  0.00000000000E+00  0.10125635011E+04  0.10125635011E+04  0.00000000000E+00 0.  1.
         22   -1    0    0    0    0 -0.00000000000E+00 -0.00000000000E+00 -0.57639052103E+03  0.57639052103E+03  0.00000000000E+00 0. -1.
         25    2    1    2    0    0  0.62706719509E+02 -0.16423296258E+03 -0.48818907115E+03  0.53374228295E+03  0.12509059417E+03 0.  0.
         24    2    1    2    0    0 -0.28007927166E+02  0.10879708669E+03  0.10714507682E+02  0.13565844049E+03  0.75280553571E+02 0.  0.
        -24    2    1    2    0    0 -0.34698792344E+02  0.55435875887E+02  0.91364754350E+03  0.91955329866E+03  0.80927701029E+02 0.  0.
        -13    1    4    4    0    0 -0.47833602417E+02  0.36239448889E+02  0.53856993076E+01  0.60252443377E+02  0.00000000000E+00 0.  1.
         14    1    4    4    0    0  0.19825675251E+02  0.72557637800E+02  0.53288083744E+01  0.75405997115E+02  0.00000000000E+00 0. -1.
         11    1    5    5    0    0 -0.54635147013E+02  0.33698774785E+02  0.78256582455E+03  0.78519416482E+03  0.00000000000E+00 0. -1.
        -12    1    5    5    0    0  0.19936354669E+02  0.21737101102E+02  0.13108171895E+03  0.13435913384E+03  0.00000000000E+00 0.  1.
          5    1    3    3  501    0 -0.13579649037E+02  0.56011915627E-01 -0.14470243165E+03  0.14539833607E+03  0.41800000000E+01 0. -1.
         -5    1    3    3    0  501  0.76286368546E+02 -0.16428897449E+03 -0.34348663950E+03  0.38834394688E+03  0.41800000000E+01 0. -1.
</event>
<event>
11    1  0.2498402E-009  0.2906409E+03  0.7561462E-02  0.1004232E+00
         22   -1    0    0    0    0  0.00000000000E+00  0.00000000000E+00  0.35818473259E+03  0.35818473259E+03  0.00000000000E+00 0.  1.
         22   -1    0    0    0    0 -0.00000000000E+00 -0.00000000000E+00 -0.49627564668E+03  0.49627564668E+03  0.00000000000E+00 0.  1.
         25    2    1    2    0    0 -0.28334478870E+03  0.48862933139E+02 -0.30387499902E+03  0.43664527131E+03  0.12508885805E+03 0.  0.
        -24    2    1    2    0    0  0.21175273459E+03 -0.47415095255E+02  0.11058588575E+02  0.22902758256E+03  0.72414979992E+02 0.  0.
         24    2    1    2    0    0  0.71592054110E+02 -0.14478378841E+01  0.15472549635E+03  0.18878752541E+03  0.81075471511E+02 0.  0.
        -13    1    5    5    0    0  0.24210953468E+02 -0.38483455252E+02  0.46869161245E+02  0.65298276177E+02  0.00000000000E+00 0.  1.
         14    1    5    5    0    0  0.47381100643E+02  0.37035617368E+02  0.10785633511E+03  0.12348924923E+03  0.00000000000E+00 0. -1.
         13    1    4    4    0    0  0.14267924972E+03 -0.65904156809E+02  0.46106035594E+01  0.15723226084E+03  0.00000000000E+00 0. -1.
        -14    1    4    4    0    0  0.69073484872E+02  0.18489061554E+02  0.64479850153E+01  0.71795321716E+02  0.00000000000E+00 0.  1.
          5    1    3    3  501    0 -0.16477892145E+02 -0.15773301126E+02  0.46019457818E+01  0.23642509658E+02  0.41800000000E+01 0. -1.
         -5    1    3    3    0  501 -0.26686689655E+03  0.64636234265E+02 -0.30847694480E+03  0.41300276165E+03  0.41800000000E+01 0. -1.
</event>
<event>
11    1  0.2498402E-009  0.2704098E+03  0.7561462E-02  0.1013555E+00
         22   -1    0    0    0    0  0.00000000000E+00  0.00000000000E+00  0.29374288806E+03  0.29374288806E+03  0.00000000000E+00 0.  1.
         22   -1    0    0    0    0 -0.00000000000E+00 -0.00000000000E+00 -0.35106296397E+03  0.35106296397E+03  0.00000000000E+00 0.  1.
         25    2    1    2    0    0 -0.97568115638E+02 -0.20934936339E+03 -0.59294060548E+02  0.26927780724E+03  0.12509220084E+03 0.  0.
         24    2    1    2    0    0  0.10978716851E+03  0.22286744717E+03 -0.63293605981E+02  0.27113143158E+03  0.88221603105E+02 0.  0.
        -24    2    1    2    0    0 -0.12219052876E+02 -0.13518083782E+02  0.65267590609E+02  0.10439661321E+03  0.79415052882E+02 0.  0.
        -11    1    4    4    0    0  0.10071206899E+03  0.22407466938E+03 -0.43726254456E+02  0.24952828222E+03  0.00000000000E+00 0.  1.
         12    1    4    4    0    0  0.90750995229E+01 -0.12072222057E+01 -0.19567351525E+02  0.21603149366E+02  0.00000000000E+00 0. -1.
         11    1    5    5    0    0  0.31970961861E+02 -0.17315467971E+02  0.36573263271E+02  0.51571032758E+02  0.00000000000E+00 0. -1.
        -12    1    5    5    0    0 -0.44190014737E+02  0.37973841897E+01  0.28694327339E+02  0.52825580456E+02  0.00000000000E+00 0.  1.
          5    1    3    3  501    0 -0.92004089293E+01 -0.14802173018E+03 -0.63883306020E+02  0.16153522625E+03  0.41800000000E+01 0. -1.
         -5    1    3    3    0  501 -0.88367706708E+02 -0.61327633206E+02  0.45892454723E+01  0.10774258099E+03  0.41800000000E+01 0. -1.
</event>
<event>
11    1  0.2498402E-009  0.2568943E+03  0.7561462E-02  0.1020289E+00
         22   -1    0    0    0    0  0.00000000000E+00  0.00000000000E+00  0.36841646468E+03  0.36841646468E+03  0.00000000000E+00 0. -1.
         22   -1    0    0    0    0 -0.00000000000E+00 -0.00000000000E+00 -0.35420976295E+03  0.35420976295E+03  0.00000000000E+00 0.  1.
         25    2    1    2    0    0 -0.19500623243E+02  0.12044221203E+03  0.28983736563E+02  0.17712660436E+03  0.12508867351E+03 0.  0.
        -24    2    1    2    0    0  0.24752307412E+03 -0.14655419188E+02 -0.78352466131E+02  0.27380672108E+03  0.85723730843E+02 0.  0.
         24    2    1    2    0    0 -0.22802245087E+03 -0.10578679284E+03  0.63575431297E+02  0.27169290218E+03  0.81179517037E+02 0.  0.
        -11    1    5    5    0    0 -0.57862247239E+02  0.17100801583E+01 -0.72153137818E+01  0.58335450479E+02  0.00000000000E+00 0.  1.
         12    1    5    5    0    0 -0.17016020364E+03 -0.10749687300E+03  0.70790745079E+02  0.21335745170E+03  0.00000000000E+00 0. -1.
         11    1    4    4    0    0  0.85311194657E+02 -0.26925000540E+02  0.76699727211E+01  0.89787438261E+02  0.00000000000E+00 0. -1.
        -12    1    4    4    0    0  0.16221187946E+03  0.12269581352E+02 -0.86022438852E+02  0.18401928282E+03  0.00000000000E+00 0.  1.
          5    1    3    3  501    0  0.16898559985E+02  0.31511187619E+01 -0.34533313508E+02  0.38800940979E+02  0.41800000000E+01 0.  1.
         -5    1    3    3    0  501 -0.36399183228E+02  0.11729109327E+03  0.63517050071E+02  0.13832566338E+03  0.41800000000E+01 0.  1.
</event>
<event>
11    1  0.2498402E-009  0.1676458E+03  0.7561462E-02  0.1080099E+00
         22   -1    0    0    0    0  0.00000000000E+00  0.00000000000E+00  0.28816402512E+03  0.28816402512E+03  0.00000000000E+00 0.  1.
         22   -1    0    0    0    0 -0.00000000000E+00 -0.00000000000E+00 -0.24929345832E+03  0.24929345832E+03  0.00000000000E+00 0. -1.
         25    2    1    2    0    0 -0.11759062140E+03  0.16680666048E+02 -0.12185073996E+03  0.21118915450E+03  0.12508979690E+03 0.  0.
         24    2    1    2    0    0  0.16137304213E+02 -0.67002754070E+02 -0.12125243055E+02  0.10429647131E+03  0.77336606915E+02 0.  0.
        -24    2    1    2    0    0  0.10145331719E+03  0.50322088022E+02  0.17284654981E+03  0.22197185762E+03  0.81058544775E+02 0.  0.
        -13    1    4    4    0    0  0.21919099416E+02 -0.49432700691E+00  0.20478574276E+02  0.30001054694E+02  0.00000000000E+00 0.  1.
         14    1    4    4    0    0 -0.57817952025E+01 -0.66508427063E+02 -0.32603817330E+02  0.74295416620E+02  0.00000000000E+00 0. -1.
         13    1    5    5    0    0  0.22810350260E+02 -0.22528013873E+02  0.40814520649E+02  0.51900371712E+02  0.00000000000E+00 0. -1.
        -14    1    5    5    0    0  0.78642966929E+02  0.72850101895E+02  0.13203202917E+03  0.17007148591E+03  0.00000000000E+00 0.  1.
          5    1    3    3  501    0 -0.40784368359E+02  0.24054948204E+02  0.18472017802E+02  0.50996990865E+02  0.41800000000E+01 0. -1.
         -5    1    3    3    0  501 -0.76806253043E+02 -0.73742821560E+01 -0.14032275776E+03  0.16019216363E+03  0.41800000000E+01 0. -1.
</event>
<event>
11    1  0.2498402E-009  0.1861721E+03  0.7561462E-02  0.1064757E+00
         22   -1    0    0    0    0  0.00000000000E+00  0.00000000000E+00  0.36597875978E+03  0.36597875978E+03  0.00000000000E+00 0. -1.
         22   -1    0    0    0    0 -0.00000000000E+00 -0.00000000000E+00 -0.19836011287E+03  0.19836011287E+03  0.00000000000E+00 0. -1.
         25    2    1    2    0    0 -0.93885988806E+02 -0.91660522818E+02 -0.32120648227E+02  0.18410397727E+03  0.12508520322E+03 0.  0.
        -24    2    1    2    0    0  0.88006042008E+02  0.11695978301E+03  0.58778992010E+01  0.16756997846E+03  0.81366416361E+02 0.  0.
         24    2    1    2    0    0  0.58799467978E+01 -0.25299260187E+02  0.19386139594E+03  0.21266491693E+03  0.83483529626E+02 0.  0.
        -11    1    5    5    0    0 -0.15318165305E+02 -0.48713721789E+02  0.83539736268E+02  0.97910982094E+02  0.00000000000E+00 0.  1.
         12    1    5    5    0    0  0.21198112103E+02  0.23414461601E+02  0.11032165967E+03  0.11475393484E+03  0.00000000000E+00 0. -1.
         11    1    4    4    0    0  0.88178103555E+02  0.95877558895E+02 -0.22528539082E+02  0.13219462667E+03  0.00000000000E+00 0. -1.
        -12    1    4    4    0    0 -0.17206154710E+00  0.21082224110E+02  0.28406438283E+02  0.35375351794E+02  0.00000000000E+00 0.  1.
          5    1    3    3  501    0 -0.99807412298E+02 -0.11368059692E+03 -0.44607910438E+02  0.15777241755E+03  0.41800000000E+01 0.  1.
         -5    1    3    3    0  501  0.59214234915E+01  0.22020074102E+02  0.12487262211E+02  0.26331559717E+02  0.41800000000E+01 0.  1.
</event>
<event>
11    1  0.2498402E-009  0.1314284E+03  0.7561462E-02  0.1117526E+00
         22   -1    0    0    0    0  0.00000000000E+00  0.00000000000E+00  0.28379836556E+03  0.28379836556E+03  0.00000000000E+00 0.  1.
         22   -1    0    0    0    0 -0.00000000000E+00 -0.00000000000E+00 -0.16172870793E+03  0.16172870793E+03  0.00000000000E+00 0. -1.
         25    2    1    2    0    0  0.11723533882E+02  0.21348845840E+02 -0.34023024061E+02  0.13189972592E+03  0.12508699799E+03 0.  0.
         24    2    1    2    0    0 -0.39131029249E+02 -0.33829045250E+02 -0.36730269629E+02  0.10178374437E+03  0.79593819846E+02 0.  0.
        -24    2    1    2    0    0  0.27407495367E+02  0.12480199410E+02  0.19282295132E+03  0.21184360321E+03  0.82402035698E+02 0.  0.
        -13    1    4    4    0    0 -0.47166455286E+02 -0.36608915293E+02  0.43194198624E+01  0.59862714365E+02  0.00000000000E+00 0.  1.
         14    1    4    4    0    0  0.80354260377E+01  0.27798700426E+01 -0.41049689491E+02  0.41921030002E+02  0.00000000000E+00 0. -1.
         13    1    5    5    0    0 -0.56855576540E+01 -0.29289182087E+02  0.10462939962E+03  0.10880024365E+03  0.00000000000E+00 0. -1.
        -14    1    5    5    0    0  0.33093053021E+02  0.41769381497E+02  0.88193551697E+02  0.10304335956E+03  0.00000000000E+00 0.  1.
          5    1    3    3  501    0  0.15626598875E+02 -0.50076278305E+02 -0.28962212381E+02  0.60067515242E+02  0.41800000000E+01 0.  1.
         -5    1    3    3    0  501 -0.39030649938E+01  0.71425124146E+02 -0.50608116805E+01  0.71832210675E+02  0.41800000000E+01 0.  1.
</event>
<event>
11    1  0.2498402E-009  0.1286257E+03  0.7561462E-02  0.1120969E+00
         22   -1    0    0    0    0  0.00000000000E+00  0.00000000000E+00  0.31136745867E+03  0.31136745867E+03  0.00000000000E+00 0.  1.
         22   -1    0    0    0    0 -0.00000000000E+00 -0.00000000000E+00 -0.24209885885E+03  0.24209885885E+03  0.00000000000E+00 0.  1.
         25    2    1    2    0    0  0.37420235313E+02  0.10637393657E+02 -0.95746286985E+02  0.16226127822E+03  0.12509173748E+03 0.  0.
        -24    2    1    2    0    0 -0.19578192703E+02  0.13315969668E+02 -0.89306590252E+02  0.12309930796E+03  0.81345878071E+02 0.  0.
         24    2    1    2    0    0 -0.17842042610E+02 -0.23953363325E+02  0.25432147706E+03  0.26810573134E+03  0.79430267425E+02 0.  0.
        -13    1    5    5    0    0 -0.38571653056E+02 -0.16013223535E+02  0.23498247082E+03  0.23866494787E+03  0.00000000000E+00 0.  1.
         14    1    5    5    0    0  0.20729610446E+02 -0.79401397895E+01  0.19339006244E+02  0.29440783475E+02  0.00000000000E+00 0. -1.
         13    1    4    4    0    0 -0.43299703087E+02  0.32553766327E+02 -0.57911522039E+02  0.79299157463E+02  0.00000000000E+00 0. -1.
        -14    1    4    4    0    0  0.23721510383E+02 -0.19237796658E+02 -0.31395068213E+02  0.43800150493E+02  0.00000000000E+00 0.  1.
          5    1    3    3  501    0  0.67484510292E+02 -0.22804441655E+02 -0.20055940553E+02  0.74120947376E+02  0.41800000000E+01 0.  1.
         -5    1    3    3    0  501 -0.30064274978E+02  0.33441835312E+02 -0.75690346432E+02  0.88140330848E+02  0.41800000000E+01 0.  1.
</event>
<event>
11    1  0.4873086E-009  0.6159497E+03  0.7561462E-02  0.9166246E-01
         22   -1    0    0    0    0  0.00000000000E+00  0.00000000000E+00  0.79995859436E+03  0.79995859436E+03  0.00000000000E+00 0. -1.
         22   -1    0    0    0    0 -0.00000000000E+00 -0.00000000000E+00 -0.92011813871E+03  0.92011813871E+03  0.00000000000E+00 0. -1.
         25    2    1    2    0    0  0.47474769557E+03 -0.39471471668E+03 -0.60021099298E+03  0.87010683915E+03  0.12509034103E+03 0.  0.
         24    2    1    2    0    0 -0.47490655767E+03  0.27840329776E+03  0.41410568130E+03  0.69373435410E+03  0.82092655294E+02 0.  0.
        -24    2    1    2    0    0  0.15886209335E+00  0.11631141892E+03  0.65945767339E+02  0.15623553982E+03  0.80822820205E+02 0.  0.
        -11    1    4    4    0    0 -0.25352014098E+03  0.19556827595E+03  0.23533649264E+03  0.39736969840E+03  0.00000000000E+00 0.  1.
         12    1    4    4    0    0 -0.22138641669E+03  0.82835021810E+02  0.17876918867E+03  0.29636465570E+03  0.00000000000E+00 0. -1.
         13    1    5    5    0    0  0.34145267838E+02  0.94230776320E+02  0.38899634652E+02  0.10751055808E+03  0.00000000000E+00 0. -1.
        -14    1    5    5    0    0 -0.33986405745E+02  0.22080642598E+02  0.27046132686E+02  0.48724981747E+02  0.00000000000E+00 0.  1.
          5    1    3    3  501    0  0.22595975353E+03 -0.19633064874E+03 -0.20560888573E+03  0.36317491673E+03  0.41800000000E+01 0. -1.
         -5    1    3    3    0  501  0.24878794204E+03 -0.19838406794E+03 -0.39460210725E+03  0.50693192242E+03  0.41800000000E+01 0. -1.
</event>
<event>
11    1  0.2498402E-009  0.1595651E+03  0.7561462E-02  0.1087487E+00
         22   -1    0    0    0    0  0.00000000000E+00  0.00000000000E+00  0.50696801914E+03  0.50696801914E+03  0.00000000000E+00 0.  1.
         22   -1    0    0    0    0 -0.00000000000E+00 -0.00000000000E+00 -0.83609767701E+02  0.83609767701E+02  0.00000000000E+00 0. -1.
         25    2    1    2    0    0 -0.55472063217E+02 -0.52426438882E+02  0.10438764492E+03  0.17992127235E+03  0.12509677270E+03 0.  0.
        -24    2    1    2    0    0  0.73289891887E+02  0.10596128438E+03  0.14625456917E+03  0.21135642809E+03  0.81743126033E+02 0.  0.
         24    2    1    2    0    0 -0.17817828669E+02 -0.53534845495E+02  0.17271603735E+03  0.19930008640E+03  0.81891636816E+02 0.  0.
        -11    1    5    5    0    0 -0.11757263546E+02 -0.27965892989E+02  0.17022247120E+03  0.17290463880E+03  0.00000000000E+00 0.  1.
         12    1    5    5    0    0 -0.60605651227E+01 -0.25568952506E+02  0.24935661488E+01  0.26395447600E+02  0.00000000000E+00 0. -1.
         13    1    4    4    0    0  0.61862083504E+02  0.10779525708E+03  0.88802643512E+02  0.15275026782E+03  0.00000000000E+00 0. -1.
        -14    1    4    4    0    0  0.11427808382E+02 -0.18339727014E+01  0.57451925657E+02  0.58606160274E+02  0.00000000000E+00 0.  1.
          5    1    3    3  501    0 -0.65223996644E+02 -0.82136370729E+02  0.10486020889E+03  0.14837010799E+03  0.41800000000E+01 0.  1.
         -5    1    3    3    0  501  0.97519334266E+01  0.29709931847E+02 -0.47256397264E+00  0.31551164362E+02  0.41800000000E+01 0.  1.
</event>
<event>
11    1  0.2498402E-009  0.2167536E+03  0.7561462E-02  0.1043270E+00
         22   -1    0    0    0    0  0.00000000000E+00  0.00000000000E+00  0.40845377852E+03  0.40845377852E+03  0.00000000000E+00 0.  1.
         22   -1    0    0    0    0 -0.00000000000E+00 -0.00000000000E+00 -0.44198808236E+03  0.44198808236E+03  0.00000000000E+00 0.  1.
         25    2    1    2    0    0 -0.85368149254E+02 -0.70988725000E+02 -0.18897226974E+03  0.25235912675E+03  0.12508992822E+03 0.  0.
         24    2    1    2    0    0 -0.10405221780E+03  0.10098094834E+03 -0.15310218186E+03  0.22521653010E+03  0.79108731404E+02 0.  0.
        -24    2    1    2    0    0  0.18942036706E+03 -0.29992223338E+02  0.30854014776E+03  0.37286620402E+03  0.83979607092E+02 0.  0.
        -11    1    4    4    0    0 -0.51797143049E+02  0.20798501848E+01 -0.62983551862E+02  0.81573265290E+02  0.00000000000E+00 0.  1.
         12    1    4    4    0    0 -0.52255074755E+02  0.98901098154E+02 -0.90118629998E+02  0.14364326481E+03  0.00000000000E+00 0. -1.
         13    1    5    5    0    0  0.56450571012E+02  0.98086455201E+01  0.37862581581E+02  0.68676426658E+02  0.00000000000E+00 0. -1.
        -14    1    5    5    0    0  0.13296979605E+03 -0.39800868858E+02  0.27067756617E+03  0.30418977736E+03  0.00000000000E+00 0.  1.
          5    1    3    3  501    0 -0.89091805770E+02  0.62210075501E+01 -0.92150138624E+02  0.12839459194E+03  0.41800000000E+01 0.  1.
         -5    1    3    3    0  501  0.37236565162E+01 -0.77209732551E+02 -0.96822131115E+02  0.12396453482E+03  0.41800000000E+01 0.  1.
</event>
<event>
11    1  0.2498402E-009  0.1508269E+03  0.7561462E-02  0.1096037E+00
         22   -1    0    0    0    0  0.00000000000E+00  0.00000000000E+00  0.24295977108E+03  0.24295977108E+03  0.00000000000E+00 0. -1.
         22   -1    0    0    0    0 -0.00000000000E+00 -0.00000000000E+00 -0.64962420404E+03  0.64962420404E+03  0.00000000000E+00 0.  1.
         25    2    1    2    0    0  0.94541588706E+02  0.51211463152E+02 -0.45610941303E+03  0.48502227685E+03  0.12510030549E+03 0.  0.
         24    2    1    2    0    0 -0.22881059357E+02 -0.83482259380E+01 -0.15291774286E+03  0.17465422140E+03  0.80790006928E+02 0.  0.
        -24    2    1    2    0    0 -0.71660529349E+02 -0.42863237214E+02  0.20236272292E+03  0.23290747686E+03  0.79515612173E+02 0.  0.
        -11    1    4    4    0    0 -0.41214848651E+02 -0.14619509689E+02 -0.14846618486E+03  0.15477274263E+03  0.00000000000E+00 0.  1.
         12    1    4    4    0    0  0.18333789294E+02  0.62712837508E+01 -0.44515579987E+01  0.19881478778E+02  0.00000000000E+00 0. -1.
         11    1    5    5    0    0  0.37921813253E+01 -0.12357311163E+02  0.10595361935E+03  0.10673918321E+03  0.00000000000E+00 0. -1.
        -12    1    5    5    0    0 -0.75452710674E+02 -0.30505926051E+02  0.96409103571E+02  0.12616829365E+03  0.00000000000E+00 0.  1.
          5    1    3    3  501    0  0.40003746996E+02  0.63808568168E+02 -0.39463158064E+03  0.40177529788E+03  0.41800000000E+01 0. -1.
         -5    1    3    3    0  501  0.54537841709E+02 -0.12597105016E+02 -0.61477832390E+02  0.83246978975E+02  0.41800000000E+01 0. -1.
</event>
<event>
11    1  0.2498402E-009  0.3898814E+03  0.7561462E-02  0.9680094E-01
         22   -1    0    0    0    0  0.00000000000E+00  0.00000000000E+00  0.49419323457E+03  0.49419323457E+03  0.00000000000E+00 0.  1.
         22   -1    0    0    0    0 -0.00000000000E+00 -0.00000000000E+00 -0.11590797611E+04  0.11590797611E+04  0.00000000000E+00 0.  1.
         25    2    1    2    0    0 -0.90543789745E+01  0.31158768590E+03 -0.44503412227E+03  0.55755859766E+03  0.12508937624E+03 0.  0.
         24    2    1    2    0    0  0.24821757632E+03 -0.45791856900E+03 -0.47374362090E+03  0.70858879803E+03  0.79772710331E+02 0.  0.
        -24    2    1    2    0    0 -0.23916319735E+03  0.14633088310E+03  0.25389121667E+03  0.38712559997E+03  0.82424013109E+02 0.  0.
        -13    1    4    4    0    0  0.13658832851E+03 -0.25881402443E+03 -0.31853595111E+03  0.43255776826E+03  0.00000000000E+00 0.  1.
         14    1    4    4    0    0  0.11162924781E+03 -0.19910454457E+03 -0.15520766979E+03  0.27603102977E+03  0.00000000000E+00 0. -1.
         13    1    5    5    0    0  0.16262283550E+01  0.19247133903E+02  0.10810605998E+02  0.22135175269E+02  0.00000000000E+00 0. -1.
        -14    1    5    5    0    0 -0.24078942570E+03  0.12708374919E+03  0.24308061067E+03  0.36499042470E+03  0.00000000000E+00 0.  1.
          5    1    3    3  501    0  0.11156879669E+01  0.20027457430E+03 -0.17774782774E+03  0.26781133758E+03  0.41800000000E+01 0. -1.
         -5    1    3    3    0  501 -0.10170066941E+02  0.11131311161E+03 -0.26728629454E+03  0.28974726008E+03  0.41800000000E+01 0. -1.
</event>
<event>
11    1  0.2498402E-009  0.3767871E+03  0.7561462E-02  0.9720846E-01
         22   -1    0    0    0    0  0.00000000000E+00  0.00000000000E+00  0.23434501704E+03  0.23434501704E+03  0.00000000000E+00 0. -1.
         22   -1    0    0    0    0 -0.00000000000E+00 -0.00000000000E+00 -0.52758231977E+03  0.52758231977E+03  0.00000000000E+00 0. -1.
         25    2    1    2    0    0 -0.61772031581E+02 -0.39693038683E+02 -0.13983424312E+03  0.20146566366E+03  0.12507388568E+03 0.  0.
        -24    2    1    2    0    0 -0.80115647776E+02 -0.19898172871E+03 -0.14660740620E+03  0.27183906592E+03  0.79940608144E+02 0.  0.
         24    2    1    2    0    0  0.14188767936E+03  0.23867476739E+03 -0.67956534100E+01  0.28862260723E+03  0.78479744895E+02 0.  0.
        -13    1    5    5    0    0  0.52241415977E+01  0.91011222523E+01 -0.18417982991E+02  0.21197739954E+02  0.00000000000E+00 0.  1.
         14    1    5    5    0    0  0.13666353776E+03  0.22957364514E+03  0.11622329581E+02  0.26742486728E+03  0.00000000000E+00 0. -1.
         13    1    4    4    0    0 -0.78335089807E+02 -0.88179033123E+02 -0.70658515883E+02  0.13749383275E+03  0.00000000000E+00 0. -1.
        -14    1    4    4    0    0 -0.17805579690E+01 -0.11080269558E+03 -0.75948890317E+02  0.13434523317E+03  0.00000000000E+00 0.  1.
          5    1    3    3  501    0 -0.33054667492E+02 -0.84728351778E+02 -0.95279292694E+02  0.13178437181E+03  0.41800000000E+01 0. -1.
         -5    1    3    3    0  501 -0.28717364088E+02  0.45035313095E+02 -0.44554950426E+02  0.69681291845E+02  0.41800000000E+01 0. -1.
</event>
<event>
11    1  0.2498402E-009  0.1592721E+03  0.7561462E-02  0.1087764E+00
         22   -1    0    0    0    0  0.00000000000E+00  0.00000000000E+00  0.30734305622E+03  0.30734305622E+03  0.00000000000E+00 0. -1.
         22   -1    0    0    0    0 -0.00000000000E+00 -0.00000000000E+00 -0.25158391414E+03  0.25158391414E+03  0.00000000000E+00 0. -1.
         25    2    1    2    0    0  0.42427469578E+02 -0.76223010691E+02 -0.14353401117E+03  0.20942729255E+03  0.12509093080E+03 0.  0.
        -24    2    1    2    0    0 -0.10363240302E+03  0.11903230038E+03  0.11707927468E+03  0.21211248689E+03  0.79848525627E+02 0.  0.
         24    2    1    2    0    0  0.61204933444E+02 -0.42809289692E+02  0.82213878569E+02  0.13738719092E+03  0.80854432401E+02 0.  0.
        -11    1    5    5    0    0 -0.86912343160E+01 -0.32402351978E+02  0.48800002620E+02  0.59219002215E+02  0.00000000000E+00 0.  1.
         12    1    5    5    0    0  0.69896167760E+02 -0.10406937714E+02  0.33413875948E+02  0.78168188709E+02  0.00000000000E+00 0. -1.
         11    1    4    4    0    0 -0.10888444421E+03  0.76624753666E+02  0.78623326840E+02  0.15462471533E+03  0.00000000000E+00 0. -1.
        -12    1    4    4    0    0  0.52520411929E+01  0.42407546716E+02  0.38455947838E+02  0.57487771563E+02  0.00000000000E+00 0.  1.
          5    1    3    3  501    0 -0.25187203502E+02 -0.54431862138E+02 -0.14150765428E+02  0.61765195687E+02  0.41800000000E+01 0.  1.
         -5    1    3    3    0  501  0.67614673080E+02 -0.21791148553E+02 -0.12938324574E+03  0.14766209686E+03  0.41800000000E+01 0.  1.
</event>
<event>
11    1  0.2498402E-009  0.1422437E+04  0.7561462E-02  0.8356522E-01
         22   -1    0    0    0    0  0.00000000000E+00  0.00000000000E+00  0.36215972477E+03  0.36215972477E+03  0.00000000000E+00 0. -1.
         22   -1    0    0    0    0 -0.00000000000E+00 -0.00000000000E+00 -0.13967094528E+04  0.13967094528E+04  0.00000000000E+00 0. -1.
         25    2    1    2    0    0 -0.41493088583E+03  0.23621690187E+03 -0.11168054313E+04  0.12210111268E+04  0.12509090918E+03 0.  0.
        -24    2    1    2    0    0  0.25680685298E+03 -0.17555115638E+03 -0.22655400097E+02  0.32286954710E+03  0.83447642553E+02 0.  0.
         24    2    1    2    0    0  0.15812403286E+03 -0.60665745490E+02  0.10491110342E+03  0.21498850366E+03  0.80809495997E+02 0.  0.
        -13    1    5    5    0    0  0.60815266810E+02  0.16532446158E+02  0.42176799775E+02  0.75833375848E+02  0.00000000000E+00 0.  1.
         14    1    5    5    0    0  0.97308766048E+02 -0.77198191648E+02  0.62734303640E+02  0.13915512781E+03  0.00000000000E+00 0. -1.
         11    1    4    4    0    0  0.23917490653E+03 -0.15741824543E+03  0.36825197421E+01  0.28635415286E+03  0.00000000000E+00 0. -1.
        -12    1    4    4    0    0  0.17631946448E+02 -0.18132910955E+02 -0.26337919839E+02  0.36515394243E+02  0.00000000000E+00 0.  1.
          5    1    3    3  501    0 -0.40207650790E+03  0.20503950929E+03 -0.10819969154E+04  0.11723657774E+04  0.41800000000E+01 0. -1.
         -5    1    3    3    0  501 -0.12854377934E+02  0.31177392584E+02 -0.34808515898E+02  0.48645349412E+02  0.41800000000E+01 0. -1.
</event>
<event>
11    1  0.2498402E-009  0.2023230E+03  0.7561462E-02  0.1052893E+00
         22   -1    0    0    0    0  0.00000000000E+00  0.00000000000E+00  0.10664444071E+04  0.10664444071E+04  0.00000000000E+00 0.  1.
         22   -1    0    0    0    0 -0.00000000000E+00 -0.00000000000E+00 -0.14706398748E+03  0.14706398748E+03  0.00000000000E+00 0. -1.
         25    2    1    2    0    0  0.54625567958E+02 -0.13536767170E+03  0.40076079860E+02  0.19637282597E+03  0.12509130821E+03 0.  0.
         24    2    1    2    0    0 -0.19169360329E+03  0.21001012679E+00  0.14776385981E+03  0.25570823233E+03  0.82498849511E+02 0.  0.
        -24    2    1    2    0    0  0.13706803533E+03  0.13515766157E+03  0.73154047995E+03  0.76142733628E+03  0.86976288930E+02 0.  0.
        -11    1    4    4    0    0 -0.46477247085E+01  0.12358765871E+02  0.33932391558E+02  0.36410817564E+02  0.00000000000E+00 0.  1.
         12    1    4    4    0    0 -0.18704587858E+03 -0.12148755744E+02  0.11383146825E+03  0.21929741477E+03  0.00000000000E+00 0. -1.
         13    1    5    5    0    0  0.64244302483E+02  0.73465110750E+02  0.21458779804E+03  0.23573793918E+03  0.00000000000E+00 0. -1.
        -14    1    5    5    0    0  0.72823732846E+02  0.61692550821E+02  0.51695268191E+03  0.52568939710E+03  0.00000000000E+00 0.  1.
          5    1    3    3  501    0  0.31731912541E+02 -0.20971713323E+02 -0.39575369106E+02  0.55049153246E+02  0.41800000000E+01 0. -1.
         -5    1    3    3    0  501  0.22893655416E+02 -0.11439595837E+03  0.79651448967E+02  0.14132367273E+03  0.41800000000E+01 0. -1.
</event>
<event>
11    1  0.2498402E-009  0.2350256E+03  0.7561462E-02  0.1032193E+00
         22   -1    0    0    0    0  0.00000000000E+00  0.00000000000E+00  0.12857252412E+04  0.12857252412E+04  0.00000000000E+00 0. -1.
         22   -1    0    0    0    0 -0.00000000000E+00 -0.00000000000E+00 -0.15422408508E+03  0.15422408508E+03  0.00000000000E+00 0. -1.
         25    2    1    2    0    0  0.17183966296E+03 -0.10241669888E+03  0.70460623016E+02  0.24622986842E+03  0.12508556564E+03 0.  0.
        -24    2    1    2    0    0 -0.15369937655E+03  0.12633570537E+03  0.11553991709E+03  0.24442113565E+03  0.82510667846E+02 0.  0.
         24    2    1    2    0    0 -0.18140286405E+02 -0.23919006490E+02  0.94550061604E+03  0.94929832223E+03  0.79339150458E+02 0.  0.
        -13    1    5    5    0    0 -0.29453002339E+02  0.18233765843E+02  0.60821587869E+03  0.60920153041E+03  0.00000000000E+00 0.  1.
         14    1    5    5    0    0  0.11312715934E+02 -0.42152772333E+02  0.33728473734E+03  0.34009679182E+03  0.00000000000E+00 0. -1.
         11    1    4    4    0    0 -0.63587092503E+02  0.22041817708E+02  0.45417342267E+01  0.67452111981E+02  0.00000000000E+00 0. -1.
        -12    1    4    4    0    0 -0.90112284051E+02  0.10429388767E+03  0.11099818286E+03  0.17696902367E+03  0.00000000000E+00 0.  1.
          5    1    3    3  501    0  0.24280669282E+02  0.29166533241E+02  0.10974243309E+02  0.39725860321E+02  0.41800000000E+01 0. -1.
         -5    1    3    3    0  501  0.14755899368E+03 -0.13158323212E+03  0.59486379707E+02  0.20650400810E+03  0.41800000000E+01 0. -1.
</event>
<event>
11    1  0.2498402E-009  0.1474755E+03  0.7561462E-02  0.1099487E+00
         22   -1    0    0    0    0  0.00000000000E+00  0.00000000000E+00  0.32947981071E+04  0.32947981071E+04  0.00000000000E+00 0.  1.
         22   -1    0    0    0    0 -0.00000000000E+00 -0.00000000000E+00 -0.13833365099E+03  0.13833365099E+03  0.00000000000E+00 0. -1.
         25    2    1    2    0    0  0.56826210701E+02  0.47525935558E+02 -0.80687131943E+02  0.16626468082E+03  0.12508236508E+03 0.  0.
        -24    2    1    2    0    0 -0.78565111259E+02 -0.75414842046E+02  0.30921261141E+03  0.33763169933E+03  0.80764164293E+02 0.  0.
         24    2    1    2    0    0  0.21738900559E+02  0.27888906488E+02  0.29279389766E+04  0.29292353779E+04  0.79642183713E+02 0.  0.
        -11    1    5    5    0    0 -0.12737058063E+02  0.14247967599E+02  0.23647807227E+04  0.23648579458E+04  0.00000000000E+00 0.  1.
         12    1    5    5    0    0  0.34475958622E+02  0.13640938889E+02  0.56315825394E+03  0.56437743214E+03  0.00000000000E+00 0. -1.
         11    1    4    4    0    0 -0.10571067178E+02 -0.26123920967E+02  0.15529850533E+02  0.32177367288E+02  0.00000000000E+00 0. -1.
        -12    1    4    4    0    0 -0.67994044081E+02 -0.49290921079E+02  0.29368276087E+03  0.30545433205E+03  0.00000000000E+00 0.  1.
          5    1    3    3  501    0  0.84629842350E+02  0.74904502568E+01 -0.80829974221E+02  0.11734255065E+03  0.41800000000E+01 0. -1.
         -5    1    3    3    0  501 -0.27803631650E+02  0.40035485301E+02  0.14284227740E+00  0.48922130168E+02  0.41800000000E+01 0. -1.
</event>
<event>
11    1  0.2498402E-009  0.3954347E+03  0.7561462E-02  0.9663325E-01
         22   -1    0    0    0    0  0.00000000000E+00  0.00000000000E+00  0.42193403688E+04  0.42193403688E+04  0.00000000000E+00 0.  1.
         22   -1    0    0    0    0 -0.00000000000E+00 -0.00000000000E+00 -0.20992314572E+03  0.20992314572E+03  0.00000000000E+00 0.  1.
         25    2    1    2    0    0 -0.40153400591E+03 -0.52808429290E+02  0.18411017882E+03  0.46214125697E+03  0.12513870440E+03 0.  0.
         24    2    1    2    0    0  0.32712839296E+03 -0.17286801059E+03  0.47767537528E+03  0.61009194030E+03  0.84510809389E+02 0.  0.
        -24    2    1    2    0    0  0.74405612955E+02  0.22567643988E+03  0.33476316689E+04  0.33570303172E+04  0.80924093880E+02 0.  0.
        -13    1    4    4    0    0  0.13763693273E+03 -0.53491918651E+02  0.25247201955E+03  0.29248492486E+03  0.00000000000E+00 0.  1.
         14    1    4    4    0    0  0.18949146023E+03 -0.11937609194E+03  0.22520335573E+03  0.31760701544E+03  0.00000000000E+00 0. -1.
         13    1    5    5    0    0  0.28162763322E+02  0.74664505988E+02  0.66819378669E+03  0.67294194866E+03  0.00000000000E+00 0. -1.
        -14    1    5    5    0    0  0.46242849632E+02  0.15101193390E+03  0.26794378823E+04  0.26840883685E+04  0.00000000000E+00 0.  1.
          5    1    3    3  501    0 -0.22949336001E+03  0.22029497121E+02  0.63882726957E+02  0.23927176230E+03  0.41800000000E+01 0. -1.
         -5    1    3    3    0  501 -0.17204064591E+03 -0.74837926411E+02  0.12022745186E+03  0.22286949467E+03  0.41800000000E+01 0. -1.
</event>
<event>
11    1  0.2498402E-009  0.1654822E+03  0.7561462E-02  0.1082031E+00
         22   -1    0    0    0    0  0.00000000000E+00  0.00000000000E+00  0.34901512579E+03  0.34901512579E+03  0.00000000000E+00 0. -1.
         22   -1    0    0    0    0 -0.00000000000E+00 -0.00000000000E+00 -0.93853856674E+03  0.93853856674E+03  0.00000000000E+00 0. -1.
         25    2    1    2    0    0  0.92806927656E+02  0.43055257999E+02 -0.74677580688E+03  0.76405996040E+03  0.12508651520E+03 0.  0.
        -24    2    1    2    0    0 -0.82789142785E+02 -0.17140011299E+03 -0.93283632654E+02  0.22684660465E+03  0.80780598051E+02 0.  0.
         24    2    1    2    0    0 -0.10017784871E+02  0.12834485499E+03  0.25053599859E+03  0.29664712748E+03  0.93050920678E+02 0.  0.
        -13    1    5    5    0    0  0.40169334902E+01  0.27068122176E+02  0.15270653946E+03  0.15513898990E+03  0.00000000000E+00 0.  1.
         14    1    5    5    0    0 -0.14034718361E+02  0.10127673282E+03  0.97829459127E+02  0.14150813758E+03  0.00000000000E+00 0. -1.
         11    1    4    4    0    0 -0.55266542601E+02 -0.16427097417E+03 -0.60788856326E+02  0.18366989067E+03  0.00000000000E+00 0. -1.
        -12    1    4    4    0    0 -0.27522600184E+02 -0.71291388256E+01 -0.32494776328E+02  0.43176713978E+02  0.00000000000E+00 0.  1.
          5    1    3    3  501    0  0.46207619375E+01  0.31456716789E+02 -0.51139786907E+03  0.51240231202E+03  0.41800000000E+01 0. -1.
         -5    1    3    3    0  501  0.88186165718E+02  0.11598541211E+02 -0.23537793782E+03  0.25165764839E+03  0.41800000000E+01 0. -1.
</event>
<event>
11    1  0.2498402E-009  0.1551641E+03  0.7561462E-02  0.1091716E+00
         22   -1    0    0    0    0  0.00000000000E+00  0.00000000000E+00  0.22058353870E+03  0.22058353870E+03  0.00000000000E+00 0.  1.
         22   -1    0    0    0    0 -0.00000000000E+00 -0.00000000000E+00 -0.11524075693E+04  0.11524075693E+04  0.00000000000E+00 0. -1.
         25    2    1    2    0    0  0.83102574918E+02  0.44211498496E+02 -0.93397632596E+03  0.94700560772E+03  0.12508856485E+03 0.  0.
         24    2    1    2    0    0 -0.20753512856E+02 -0.11636049347E+03 -0.16458514317E+03  0.21755669227E+03  0.79197047077E+02 0.  0.
        -24    2    1    2    0    0 -0.62349062062E+02  0.72148994972E+02  0.16673743855E+03  0.20842880798E+03  0.80921638426E+02 0.  0.
        -11    1    4    4    0    0 -0.49704628899E+02 -0.62445400015E+02 -0.78597692880E+02  0.11201596066E+03  0.00000000000E+00 0.  1.
         12    1    4    4    0    0  0.28951116043E+02 -0.53915093453E+02 -0.85987450285E+02  0.10554073161E+03  0.00000000000E+00 0. -1.
         13    1    5    5    0    0  0.10666435649E+02 -0.59092968343E+01  0.24587106641E+01  0.12439368820E+02  0.00000000000E+00 0. -1.
        -14    1    5    5    0    0 -0.73015497710E+02  0.78058291807E+02  0.16427872789E+03  0.19598943916E+03  0.00000000000E+00 0.  1.
          5    1    3    3  501    0 -0.14502477119E+02 -0.16508897014E+02 -0.40733848008E+03  0.40795217278E+03  0.41800000000E+01 0. -1.
         -5    1    3    3    0  501  0.97605052037E+02  0.60720395510E+02 -0.52663784588E+03  0.53905343495E+03  0.41800000000E+01 0. -1.
</event>
<event>
11    1  0.2498402E-009  0.2140322E+03  0.7561462E-02  0.1045022E+00
         22   -1    0    0    0    0  0.00000000000E+00  0.00000000000E+00  0.27189954217E+03  0.27189954217E+03  0.00000000000E+00 0. -1.
         22   -1    0    0    0    0 -0.00000000000E+00 -0.00000000000E+00 -0.40242396395E+03  0.40242396395E+03  0.00000000000E+00 0.  1.
         25    2    1    2    0    0 -0.69613216221E+02 -0.12392592209E+02 -0.18719965024E+03  0.23598905319E+03  0.12509015932E+03 0.  0.
        -24    2    1    2    0    0 -0.44864623428E+02  0.18859057770E+03  0.35054202219E+02  0.21241709387E+03  0.79454290268E+02 0.  0.
         24    2    1    2    0    0  0.11447783965E+03 -0.17619798549E+03  0.21621026247E+02  0.22591735906E+03  0.80126640316E+02 0.  0.
        -13    1    5    5    0    0  0.11234606809E+03 -0.17368991528E+03  0.28672352069E+01  0.20687688784E+03  0.00000000000E+00 0.  1.
         14    1    5    5    0    0  0.21317715626E+01 -0.25080702160E+01  0.18753791040E+02  0.19040471228E+02  0.00000000000E+00 0. -1.
         13    1    4    4    0    0 -0.35965026049E+02  0.18129435425E+03  0.51936284841E+02  0.19198568609E+03  0.00000000000E+00 0. -1.
        -14    1    4    4    0    0 -0.88995973789E+01  0.72962234534E+01 -0.16882082622E+02  0.20431407779E+02  0.00000000000E+00 0.  1.
          5    1    3    3  501    0  0.11216178014E+02  0.36695294669E+02 -0.10037538561E+03  0.10754086543E+03  0.41800000000E+01 0.  1.
         -5    1    3    3    0  501 -0.80829394235E+02 -0.49087886878E+02 -0.86824264629E+02  0.12844818776E+03  0.41800000000E+01 0.  1.
</event>
<event>
11    1  0.2498402E-009  0.1750100E+03  0.7561462E-02  0.1073752E+00
         22   -1    0    0    0    0  0.00000000000E+00  0.00000000000E+00  0.30363113501E+02  0.30363113501E+02  0.00000000000E+00 0.  1.
         22   -1    0    0    0    0 -0.00000000000E+00 -0.00000000000E+00 -0.18480164752E+04  0.18480164752E+04  0.00000000000E+00 0.  1.
         25    2    1    2    0    0  0.89210538202E+02 -0.58466859978E+02 -0.97635350545E+03  0.99009646575E+03  0.12509176648E+03 0.  0.
        -24    2    1    2    0    0 -0.10022010230E+03  0.12337088366E+03 -0.56362519473E+03  0.59174263031E+03  0.84979624352E+02 0.  0.
         24    2    1    2    0    0  0.11009564102E+02 -0.64904023681E+02 -0.27767466150E+03  0.29654049262E+03  0.80618256821E+02 0.  0.
        -13    1    5    5    0    0 -0.20317258518E+02 -0.69440274238E+02 -0.19832824135E+03  0.21111332028E+03  0.00000000000E+00 0.  1.
         14    1    5    5    0    0  0.31326822620E+02  0.45362505572E+01 -0.79346420145E+02  0.85427172342E+02  0.00000000000E+00 0. -1.
         13    1    4    4    0    0 -0.93054669365E+00  0.51047184202E+02 -0.24490545523E+03  0.25017066762E+03  0.00000000000E+00 0. -1.
        -14    1    4    4    0    0 -0.99289555611E+02  0.72323699457E+02 -0.31871973950E+03  0.34157196270E+03  0.00000000000E+00 0.  1.
          5    1    3    3  501    0 -0.19081717638E+02 -0.57145223500E+01 -0.43550877748E+03  0.43598409991E+03  0.41800000000E+01 0. -1.
         -5    1    3    3    0  501  0.10829225584E+03 -0.52752337628E+02 -0.54084472797E+03  0.55411236584E+03  0.41800000000E+01 0. -1.
</event>
<event>
11    1  0.2498402E-009  0.2245935E+03  0.7561462E-02  0.1038378E+00
         22   -1    0    0    0    0  0.00000000000E+00  0.00000000000E+00  0.55181674695E+03  0.55181674695E+03  0.00000000000E+00 0.  1.
         22   -1    0    0    0    0 -0.00000000000E+00 -0.00000000000E+00 -0.17740869737E+03  0.17740869737E+03  0.00000000000E+00 0.  1.
         25    2    1    2    0    0 -0.12371515576E+02 -0.18631699993E+03 -0.21527601393E+02  0.22578204590E+03  0.12508803207E+03 0.  0.
         24    2    1    2    0    0 -0.42330582494E+02  0.18692680015E+03  0.20019370143E+03  0.28816256021E+03  0.78909037425E+02 0.  0.
        -24    2    1    2    0    0  0.54702098070E+02 -0.60980021631E+00  0.19574194954E+03  0.21528083821E+03  0.70980540294E+02 0.  0.
        -13    1    4    4    0    0 -0.70586550023E+01  0.16617439585E+03  0.16224762450E+03  0.23235327866E+03  0.00000000000E+00 0.  1.
         14    1    4    4    0    0 -0.35271927492E+02  0.20752404295E+02  0.37946076928E+02  0.55809281551E+02  0.00000000000E+00 0. -1.
         13    1    5    5    0    0  0.66891571035E+01 -0.19955835132E+02  0.11663727599E+02  0.24062890933E+02  0.00000000000E+00 0. -1.
        -14    1    5    5    0    0  0.48012940967E+02  0.19346034916E+02  0.18407822194E+03  0.19121794727E+03  0.00000000000E+00 0.  1.
          5    1    3    3  501    0 -0.20523907603E+02 -0.17725558393E+03 -0.57539554903E+02  0.18753411849E+03  0.41800000000E+01 0.  1.
         -5    1    3    3    0  501  0.81523920269E+01 -0.90614160008E+01  0.36011953509E+02  0.38247927411E+02  0.41800000000E+01 0.  1.
</event>
<event>
11    1  0.2498402E-009  0.1454298E+03  0.7561462E-02  0.1101642E+00
         22   -1    0    0    0    0  0.00000000000E+00  0.00000000000E+00  0.31119322350E+04  0.31119322350E+04  0.00000000000E+00 0.  1.
         22   -1    0    0    0    0 -0.00000000000E+00 -0.00000000000E+00 -0.19067192027E+02  0.19067192027E+02  0.00000000000E+00 0.  1.
         25    2    1    2    0    0 -0.24025159357E+02  0.11474880598E+02  0.40923688419E+03  0.42875532490E+03  0.12508964817E+03 0.  0.
        -24    2    1    2    0    0  0.10763090042E+03 -0.88139600229E+02  0.98039496137E+03  0.99334682757E+03  0.78807611995E+02 0.  0.
         24    2    1    2    0    0 -0.83605741062E+02  0.76664719631E+02  0.17032331974E+04  0.17088972745E+04  0.80368968245E+02 0.  0.
        -13    1    5    5    0    0 -0.61846387540E+02  0.15351269903E+02  0.52223447247E+03  0.52610786097E+03  0.00000000000E+00 0.  1.
         14    1    5    5    0    0 -0.21759353522E+02  0.61313449728E+02  0.11809987249E+04  0.11827894135E+04  0.00000000000E+00 0. -1.
         13    1    4    4    0    0  0.55382720499E+02 -0.56502511222E+02  0.30144863247E+03  0.31165855920E+03  0.00000000000E+00 0. -1.
        -14    1    4    4    0    0  0.52248179920E+02 -0.31637089007E+02  0.67894632890E+03  0.68168826837E+03  0.00000000000E+00 0.  1.
          5    1    3    3  501    0  0.24358923174E+02  0.48800469304E+02  0.10479501621E+03  0.11821298899E+03  0.41800000000E+01 0. -1.
         -5    1    3    3    0  501 -0.48384082531E+02 -0.37325588706E+02  0.30444186798E+03  0.31054233592E+03  0.41800000000E+01 0. -1.
</event>
<event>
11    1  0.2498402E-009  0.2595984E+03  0.7561462E-02  0.1018907E+00
         22   -1    0    0    0    0  0.00000000000E+00  0.00000000000E+00  0.29596962169E+04  0.29596962169E+04  0.00000000000E+00 0. -1.
         22   -1    0    0    0    0 -0.00000000000E+00 -0.00000000000E+00 -0.22270230860E+03  0.22270230860E+03  0.00000000000E+00 0.  1.
         25    2    1    2    0    0  0.16569170486E+02 -0.23086135730E+03 -0.11715419167E+03  0.28799989835E+03  0.12508930059E+03 0.  0.
        -24    2    1    2    0    0  0.11730919890E+03  0.12259718625E+03  0.52678467244E+03  0.55933618528E+03  0.81014559318E+02 0.  0.
         24    2    1    2    0    0 -0.13387836939E+03  0.10826417105E+03  0.23273634275E+04  0.23350624418E+04  0.79066649895E+02 0.  0.
        -11    1    5    5    0    0 -0.30263381205E+02  0.11021346551E+02  0.16999152425E+03  0.17301578147E+03  0.00000000000E+00 0.  1.
         12    1    5    5    0    0 -0.10361498818E+03  0.97242824500E+02  0.21573719032E+04  0.21620466604E+04  0.00000000000E+00 0. -1.
         13    1    4    4    0    0  0.88617730528E+02  0.93629983126E+02  0.48123960302E+03  0.49820802022E+03  0.00000000000E+00 0. -1.
        -14    1    4    4    0    0  0.28691468375E+02  0.28967203123E+02  0.45545069425E+02  0.61128165057E+02  0.00000000000E+00 0.  1.
          5    1    3    3  501    0  0.66053567800E+02 -0.14708550845E+03 -0.98049768312E+02  0.18875500015E+03  0.41800000000E+01 0. -1.
         -5    1    3    3    0  501 -0.49484397314E+02 -0.83775848848E+02 -0.19104423357E+02  0.99244898204E+02  0.41800000000E+01 0. -1.
</event>
<event>
11    1  0.2498402E-009  0.1408086E+03  0.7561462E-02  0.1106659E+00
         22   -1    0    0    0    0  0.00000000000E+00  0.00000000000E+00  0.24646380064E+04  0.24646380064E+04  0.00000000000E+00 0. -1.
         22   -1    0    0    0    0 -0.00000000000E+00 -0.00000000000E+00 -0.19040944522E+03  0.19040944522E+03  0.00000000000E+00 0. -1.
         25    2    1    2    0    0 -0.46097862012E+02 -0.86973327176E+01 -0.88816499565E+02  0.16042837933E+03  0.12509291674E+03 0.  0.
        -24    2    1    2    0    0  0.11960829759E+03 -0.22921910403E+02  0.41975750703E+02  0.17032036012E+03  0.11142487422E+03 0.  0.
         24    2    1    2    0    0 -0.73510435580E+02  0.31619243121E+02  0.23210693101E+04  0.23242987122E+04  0.92726483344E+02 0.  0.
        -11    1    5    5    0    0  0.16059820721E+02  0.27334650154E+02  0.47897664113E+03  0.48002471154E+03  0.00000000000E+00 0.  1.
         12    1    5    5    0    0 -0.89570256301E+02  0.42845929671E+01  0.18420926689E+04  0.18442740007E+04  0.00000000000E+00 0. -1.
         11    1    4    4    0    0 -0.19860068446E+02  0.20757374259E+01 -0.57968829514E+01  0.20792663525E+02  0.00000000000E+00 0. -1.
        -12    1    4    4    0    0  0.13946836604E+03 -0.24997647829E+02  0.47772633654E+02  0.14952769659E+03  0.00000000000E+00 0.  1.
          5    1    3    3  501    0 -0.48479134147E+01  0.55543705825E+02 -0.26912290990E+02  0.62051183128E+02  0.41800000000E+01 0. -1.
         -5    1    3    3    0  501 -0.41249948598E+02 -0.64241038543E+02 -0.61904208574E+02  0.98377196197E+02  0.41800000000E+01 0. -1.
</event>
<event>
11    1  0.2498402E-009  0.2512069E+03  0.7561462E-02  0.1023258E+00
         22   -1    0    0    0    0  0.00000000000E+00  0.00000000000E+00  0.44490777979E+03  0.44490777979E+03  0.00000000000E+00 0. -1.
         22   -1    0    0    0    0 -0.00000000000E+00 -0.00000000000E+00 -0.30272296569E+03  0.30272296569E+03  0.00000000000E+00 0. -1.
         25    2    1    2    0    0  0.21317003837E+03 -0.14765989179E+03 -0.36804351267E+02  0.29024140436E+03  0.12506239895E+03 0.  0.
        -24    2    1    2    0    0 -0.20101721921E+03 -0.33576172801E+02  0.75102377811E+02  0.23270597708E+03  0.83524983179E+02 0.  0.
         24    2    1    2    0    0 -0.12152819162E+02  0.18123606460E+03  0.10388678755E+03  0.22468336404E+03  0.81828768321E+02 0.  0.
        -13    1    5    5    0    0 -0.15564833479E+02  0.26514644754E+01  0.24665149512E+02  0.29285899432E+02  0.00000000000E+00 0.  1.
         14    1    5    5    0    0  0.34120143165E+01  0.17858460012E+03  0.79221638042E+02  0.19539746461E+03  0.00000000000E+00 0. -1.
         11    1    4    4    0    0 -0.19452867206E+03 -0.92087943896E+01  0.70231659240E+02  0.20702340956E+03  0.00000000000E+00 0. -1.
        -12    1    4    4    0    0 -0.64885471528E+01 -0.24367378411E+02  0.48707185708E+01  0.25682567515E+02  0.00000000000E+00 0.  1.
          5    1    3    3  501    0  0.18823189187E+03 -0.16489543379E+03 -0.52686923702E+02  0.25576382374E+03  0.41800000000E+01 0. -1.
         -5    1    3    3    0  501  0.24938146497E+02  0.17235541997E+02  0.15882572436E+02  0.34477580626E+02  0.41800000000E+01 0. -1.
</event>
<event>
11    1  0.2498402E-009  0.1255851E+03  0.7561462E-02  0.1124816E+00
         22   -1    0    0    0    0  0.00000000000E+00  0.00000000000E+00  0.26576296959E+03  0.26576296959E+03  0.00000000000E+00 0. -1.
         22   -1    0    0    0    0 -0.00000000000E+00 -0.00000000000E+00 -0.85033456924E+03  0.85033456924E+03  0.00000000000E+00 0.  1.
         25    2    1    2    0    0  0.18061450521E+00 -0.69220250169E+01 -0.49222371657E+03  0.50791947663E+03  0.12510020199E+03 0.  0.
        -24    2    1    2    0    0 -0.71766084491E+01  0.12034008271E+02 -0.33913126515E+03  0.34892363035E+03  0.80878697756E+02 0.  0.
         24    2    1    2    0    0  0.69959939438E+01 -0.51119832543E+01  0.24678338207E+03  0.25925443184E+03  0.78966742741E+02 0.  0.
        -13    1    5    5    0    0  0.19619308202E+02 -0.37622506249E+00  0.98838530122E+01  0.21971557751E+02  0.00000000000E+00 0.  1.
         14    1    5    5    0    0 -0.12623314259E+02 -0.47357581918E+01  0.23689952906E+03  0.23728287409E+03  0.00000000000E+00 0. -1.
         13    1    4    4    0    0 -0.21672561512E+02 -0.77926233838E+01 -0.25613341832E+02  0.34445147430E+02  0.00000000000E+00 0. -1.
        -14    1    4    4    0    0  0.14495953063E+02  0.19826631655E+02 -0.31351792332E+03  0.31447848292E+03  0.00000000000E+00 0.  1.
          5    1    3    3  501    0  0.61685767693E+02  0.43718347111E+01 -0.21918351294E+03  0.22777869000E+03  0.41800000000E+01 0.  1.
         -5    1    3    3    0  501 -0.61505153188E+02 -0.11293859728E+02 -0.27304020363E+03  0.28014078663E+03  0.41800000000E+01 0.  1.
</event>
<event>
11    1  0.2498402E-009  0.1315037E+03  0.7561462E-02  0.1117435E+00
         22   -1    0    0    0    0  0.00000000000E+00  0.00000000000E+00  0.93685583451E+02  0.93685583451E+02  0.00000000000E+00 0. -1.
         22   -1    0    0    0    0 -0.00000000000E+00 -0.00000000000E+00 -0.31374515970E+03  0.31374515970E+03  0.00000000000E+00 0. -1.
         25    2    1    2    0    0 -0.46316824958E+02 -0.22185989725E+02 -0.15771554450E+03  0.20774636102E+03  0.12508753386E+03 0.  0.
        -24    2    1    2    0    0  0.32618281718E+02  0.43490804108E+01 -0.76459957643E+02  0.11620736178E+03  0.81087354166E+02 0.  0.
         24    2    1    2    0    0  0.13698543239E+02  0.17836909314E+02  0.14115925890E+02  0.83477020356E+02  0.79141317547E+02 0.  0.
        -13    1    5    5    0    0  0.11223123241E+02 -0.83973283084E+00 -0.31860698287E+02  0.33790053889E+02  0.00000000000E+00 0.  1.
         14    1    5    5    0    0  0.24754199987E+01  0.18676642145E+02  0.45976624177E+02  0.49686966467E+02  0.00000000000E+00 0. -1.
         11    1    4    4    0    0  0.41599245087E+02 -0.27681027210E+02 -0.62783471489E+02  0.80240268889E+02  0.00000000000E+00 0. -1.
        -12    1    4    4    0    0 -0.89809633689E+01  0.32030107621E+02 -0.13676486155E+02  0.35967092888E+02  0.00000000000E+00 0.  1.
          5    1    3    3  501    0  0.33687463493E+02  0.27311827463E+00 -0.56595027344E+01  0.34415434929E+02  0.41800000000E+01 0.  1.
         -5    1    3    3    0  501 -0.80004288450E+02 -0.22459108000E+02 -0.15205604176E+03  0.17333092609E+03  0.41800000000E+01 0.  1.
</event>
<event>
11    1  0.2498402E-009  0.3725810E+03  0.7561462E-02  0.9734313E-01
         22   -1    0    0    0    0  0.00000000000E+00  0.00000000000E+00  0.19866421880E+04  0.19866421880E+04  0.00000000000E+00 0. -1.
         22   -1    0    0    0    0 -0.00000000000E+00 -0.00000000000E+00 -0.23877686683E+03  0.23877686683E+03  0.00000000000E+00 0.  1.
         25    2    1    2    0    0  0.57056304872E+02  0.40033555092E+03  0.17908407764E+03  0.45961101291E+03  0.12508877274E+03 0.  0.
        -24    2    1    2    0    0 -0.47600971186E+02 -0.30315411525E+03  0.16799827463E+03  0.35923719610E+03  0.81606817936E+02 0.  0.
         24    2    1    2    0    0 -0.94553336856E+01 -0.97181435673E+02  0.14007829689E+04  0.14065708458E+04  0.81945003439E+02 0.  0.
        -13    1    5    5    0    0  0.11353140215E+00  0.14395365190E+02  0.10976691361E+03  0.11070688665E+03  0.00000000000E+00 0.  1.
         14    1    5    5    0    0 -0.95688650877E+01 -0.11157680086E+03  0.12910160553E+04  0.12958639592E+04  0.00000000000E+00 0. -1.
         11    1    4    4    0    0  0.81889026852E+01 -0.87818454525E+02  0.15533373195E+02  0.89556824225E+02  0.00000000000E+00 0. -1.
        -12    1    4    4    0    0 -0.55789873872E+02 -0.21533566072E+03  0.15246490143E+03  0.26968037188E+03  0.00000000000E+00 0.  1.
          5    1    3    3  501    0  0.92524468843E+02  0.34488386726E+03  0.15653853048E+03  0.38990696731E+03  0.41800000000E+01 0.  1.
         -5    1    3    3    0  501 -0.35468163971E+02  0.55451683658E+02  0.22545547156E+02  0.69704045596E+02  0.41800000000E+01 0.  1.
</event>
<event>
11    1  0.2498402E-009  0.1396055E+03  0.7561462E-02  0.1108000E+00
         22   -1    0    0    0    0  0.00000000000E+00  0.00000000000E+00  0.25122833727E+03  0.25122833727E+03  0.00000000000E+00 0. -1.
         22   -1    0    0    0    0 -0.00000000000E+00 -0.00000000000E+00 -0.91282190686E+03  0.91282190686E+03  0.00000000000E+00 0.  1.
         25    2    1    2    0    0 -0.19859782079E+02  0.58306628833E+02 -0.86740672147E+03  0.87854164137E+03  0.12508765430E+03 0.  0.
         24    2    1    2    0    0 -0.36496075419E+02 -0.82618049973E+00  0.72031041437E+02  0.11033268663E+03  0.75181012978E+02 0.  0.
        -24    2    1    2    0    0  0.56355857498E+02 -0.57480448333E+02  0.13378211044E+03  0.17517591613E+03  0.79428986549E+02 0.  0.
        -11    1    4    4    0    0 -0.32675526340E+02  0.15496935015E+02 -0.21738903014E+00  0.36164793301E+02  0.00000000000E+00 0.  1.
         12    1    4    4    0    0 -0.38205490784E+01 -0.16323115515E+02  0.72248430467E+02  0.74167893325E+02  0.00000000000E+00 0. -1.
         13    1    5    5    0    0 -0.51638464127E+01 -0.28402869628E+02  0.89376253365E+02  0.93922856528E+02  0.00000000000E+00 0. -1.
        -14    1    5    5    0    0  0.61519703911E+02 -0.29077578705E+02  0.44405857078E+02  0.81253059607E+02  0.00000000000E+00 0.  1.
          5    1    3    3  501    0 -0.68785007780E+02  0.31691120247E+02 -0.34973202170E+03  0.35786263258E+03  0.41800000000E+01 0.  1.
         -5    1    3    3    0  501  0.48925225700E+02  0.26615508586E+02 -0.51767469977E+03  0.52067900879E+03  0.41800000000E+01 0.  1.
</event>
<event>
11    1  0.2498402E-009  0.1364361E+04  0.7561462E-02  0.8393398E-01
         22   -1    0    0    0    0  0.00000000000E+00  0.00000000000E+00  0.24863965024E+04  0.24863965024E+04  0.00000000000E+00 0.  1.
         22   -1    0    0    0    0 -0.00000000000E+00 -0.00000000000E+00 -0.18716645027E+03  0.18716645027E+03  0.00000000000E+00 0.  1.
         25    2    1    2    0    0  0.95635272249E+01  0.38180277389E+03  0.77630975177E+02  0.40931655666E+03  0.12509458841E+03 0.  0.
         24    2    1    2    0    0  0.51030737396E+02 -0.24764085827E+03  0.15941290829E+04  0.16160153210E+04  0.79547808841E+02 0.  0.
        -24    2    1    2    0    0 -0.60594264620E+02 -0.13416191562E+03  0.62746999398E+03  0.64823107494E+03  0.69381904379E+02 0.  0.
        -13    1    4    4    0    0  0.52743092233E+02 -0.14565895075E+03  0.11461435279E+04  0.11565653247E+04  0.00000000000E+00 0.  1.
         14    1    4    4    0    0 -0.17123548371E+01 -0.10198190752E+03  0.44798555501E+03  0.45944999632E+03  0.00000000000E+00 0. -1.
         13    1    5    5    0    0 -0.24813062871E+01 -0.56347098838E+02  0.34381229612E+03  0.34840787504E+03  0.00000000000E+00 0. -1.
        -14    1    5    5    0    0 -0.58112958333E+02 -0.77814816785E+02  0.28365769787E+03  0.29982319990E+03  0.00000000000E+00 0.  1.
          5    1    3    3  501    0  0.16993040160E+02  0.13412286058E+03 -0.30936575040E+02  0.13875247464E+03  0.41800000000E+01 0.  1.
         -5    1    3    3    0  501 -0.74295129346E+01  0.24767991331E+03  0.10856755022E+03  0.27056408202E+03  0.41800000000E+01 0.  1.
</event>
<event>
11    1  0.2498402E-009  0.2540182E+03  0.7561462E-02  0.1021780E+00
         22   -1    0    0    0    0  0.00000000000E+00  0.00000000000E+00  0.48508024147E+03  0.48508024147E+03  0.00000000000E+00 0. -1.
         22   -1    0    0    0    0 -0.00000000000E+00 -0.00000000000E+00 -0.21207631637E+03  0.21207631637E+03  0.00000000000E+00 0. -1.
         25    2    1    2    0    0 -0.23523648723E+03 -0.57095827257E+02 -0.23023381581E+02  0.27344752246E+03  0.12508930020E+03 0.  0.
         24    2    1    2    0    0  0.18688601753E+03  0.17205608349E+02  0.15816864543E+03  0.25685505575E+03  0.75728348438E+02 0.  0.
        -24    2    1    2    0    0  0.48350469700E+02  0.39890218908E+02  0.13785866125E+03  0.16685397963E+03  0.70044575453E+02 0.  0.
        -13    1    4    4    0    0  0.91416273831E+02 -0.13313524874E+02  0.11555517592E+03  0.14794317743E+03  0.00000000000E+00 0.  1.
         14    1    4    4    0    0  0.95469743702E+02  0.30519133223E+02  0.42613469512E+02  0.10891187832E+03  0.00000000000E+00 0. -1.
         13    1    5    5    0    0  0.14336842894E+02 -0.85532652440E+01  0.87679594322E+02  0.89254773939E+02  0.00000000000E+00 0. -1.
        -14    1    5    5    0    0  0.34013626806E+02  0.48443484152E+02  0.50179066928E+02  0.77599205686E+02  0.00000000000E+00 0.  1.
          5    1    3    3  501    0 -0.10737180461E+03  0.18490285743E+02 -0.53980464104E+02  0.12166329766E+03  0.41800000000E+01 0. -1.
         -5    1    3    3    0  501 -0.12786468262E+03 -0.75586113000E+02  0.30957082523E+02  0.15178422480E+03  0.41800000000E+01 0. -1.
</event>
<event>
11    1  0.2498402E-009  0.4852495E+03  0.7561462E-02  0.9427099E-01
         22   -1    0    0    0    0  0.00000000000E+00  0.00000000000E+00  0.13235583284E+04  0.13235583284E+04  0.00000000000E+00 0.  1.
         22   -1    0    0    0    0 -0.00000000000E+00 -0.00000000000E+00 -0.48899260231E+03  0.48899260231E+03  0.00000000000E+00 0.  1.
         25    2    1    2    0    0 -0.15851516799E+03 -0.42236537015E+03 -0.22337048224E+03  0.51871142290E+03  0.12509038143E+03 0.  0.
        -24    2    1    2    0    0  0.25570488616E+03  0.52070131539E+03  0.81408325123E+03  0.10024201491E+04  0.74831588549E+02 0.  0.
         24    2    1    2    0    0 -0.97189718167E+02 -0.98335945236E+02  0.24385295716E+03  0.29141935880E+03  0.79656628892E+02 0.  0.
        -13    1    5    5    0    0 -0.11850287238E+00 -0.43374036161E+02  0.39808433862E+02  0.58873019817E+02  0.00000000000E+00 0.  1.
         14    1    5    5    0    0 -0.97071215295E+02 -0.54961909075E+02  0.20404452329E+03  0.23254633898E+03  0.00000000000E+00 0. -1.
         11    1    4    4    0    0  0.21642370105E+03  0.36867329614E+03  0.61119595888E+03  0.74586843197E+03  0.00000000000E+00 0. -1.
        -12    1    4    4    0    0  0.39281185106E+02  0.15202801925E+03  0.20288729235E+03  0.25655171708E+03  0.00000000000E+00 0.  1.
          5    1    3    3  501    0 -0.16412635494E+03 -0.42847658814E+03 -0.21849124615E+03  0.50821800835E+03  0.41800000000E+01 0. -1.
         -5    1    3    3    0  501  0.56111869462E+01  0.61112179839E+01 -0.48792360953E+01  0.10493414557E+02  0.41800000000E+01 0. -1.
</event>
<event>
11    1  0.2498402E-009  0.1981861E+03  0.7561462E-02  0.1055814E+00
         22   -1    0    0    0    0  0.00000000000E+00  0.00000000000E+00  0.19576021668E+03  0.19576021668E+03  0.00000000000E+00 0. -1.
         22   -1    0    0    0    0 -0.00000000000E+00 -0.00000000000E+00 -0.31769792500E+03  0.31769792500E+03  0.00000000000E+00 0. -1.
         25    2    1    2    0    0  0.93989898384E+02 -0.92724144972E+02 -0.85683468040E+02  0.20104693653E+03  0.12508535459E+03 0.  0.
         24    2    1    2    0    0 -0.15734839192E+03  0.10911481624E+03 -0.15777329128E+02  0.20845371647E+03  0.80866978613E+02 0.  0.
        -24    2    1    2    0    0  0.63358493540E+02 -0.16390671269E+02 -0.20476911153E+02  0.10395748868E+03  0.78133877115E+02 0.  0.
        -11    1    4    4    0    0  0.41627163231E+01  0.18143692362E+02 -0.13631559913E+02  0.23072520569E+02  0.00000000000E+00 0.  1.
         12    1    4    4    0    0 -0.16151110825E+03  0.90971123879E+02 -0.21457692143E+01  0.18538119590E+03  0.00000000000E+00 0. -1.
         13    1    5    5    0    0  0.40909968090E+02 -0.43173703610E+02 -0.31512312261E+02  0.67309880378E+02  0.00000000000E+00 0. -1.
        -14    1    5    5    0    0  0.22448525450E+02  0.26783032342E+02  0.11035401108E+02  0.36647608297E+02  0.00000000000E+00 0.  1.
          5    1    3    3  501    0  0.12147886094E+03 -0.56777971861E+02 -0.77303275696E+02  0.15483578584E+03  0.41800000000E+01 0. -1.
         -5    1    3    3    0  501 -0.27488962558E+02 -0.35946173111E+02 -0.83801923442E+01  0.46211150685E+02  0.41800000000E+01 0. -1.
</event>
<event>
11    1  0.2498402E-009  0.2804339E+03  0.7561462E-02  0.1008830E+00
         22   -1    0    0    0    0  0.00000000000E+00  0.00000000000E+00  0.95491654974E+03  0.95491654974E+03  0.00000000000E+00 0. -1.
         22   -1    0    0    0    0 -0.00000000000E+00 -0.00000000000E+00 -0.51972902542E+03  0.51972902542E+03  0.00000000000E+00 0. -1.
         25    2    1    2    0    0  0.86703147720E+02  0.12405164641E+03 -0.29036280677E+03  0.35052006199E+03  0.12508999762E+03 0.  0.
         24    2    1    2    0    0 -0.44533037577E+02  0.13090974672E+03 -0.14263156190E+03  0.21411551037E+03  0.79882013665E+02 0.  0.
        -24    2    1    2    0    0 -0.42170110143E+02 -0.25496139312E+03  0.86818189299E+03  0.91001000280E+03  0.87148010339E+02 0.  0.
        -13    1    4    4    0    0 -0.21759085313E+01  0.84311377873E+01 -0.59531691657E+02  0.60165114260E+02  0.00000000000E+00 0.  1.
         14    1    4    4    0    0 -0.42357129046E+02  0.12247860893E+03 -0.83099870245E+02  0.15395039611E+03  0.00000000000E+00 0. -1.
         11    1    5    5    0    0 -0.44789751872E+01 -0.21927441606E+03  0.73669843170E+03  0.76865200840E+03  0.00000000000E+00 0. -1.
        -12    1    5    5    0    0 -0.37691134956E+02 -0.35686977065E+02  0.13148346129E+03  0.14135799440E+03  0.00000000000E+00 0.  1.
          5    1    3    3  501    0  0.53099999600E+00  0.38186694784E+02 -0.18678274268E+03  0.19069287082E+03  0.41800000000E+01 0. -1.
         -5    1    3    3    0  501  0.86172147724E+02  0.85864951622E+02 -0.10358006409E+03  0.15982719117E+03  0.41800000000E+01 0. -1.
</event>
<event>
11    1  0.2498402E-009  0.1356101E+03  0.7561462E-02  0.1112562E+00
         22   -1    0    0    0    0  0.00000000000E+00  0.00000000000E+00  0.56456729903E+03  0.56456729903E+03  0.00000000000E+00 0. -1.
         22   -1    0    0    0    0 -0.00000000000E+00 -0.00000000000E+00 -0.23249591875E+03  0.23249591875E+03  0.00000000000E+00 0. -1.
         25    2    1    2    0    0 -0.34918673433E+02 -0.36064784519E+02 -0.17848723514E+03  0.22366383167E+03  0.12509130286E+03 0.  0.
         24    2    1    2    0    0  0.33975503059E+01 -0.61291849904E+02  0.98387679218E+02  0.14151096065E+03  0.81098596472E+02 0.  0.
        -24    2    1    2    0    0  0.31521123127E+02  0.97356634424E+02  0.41217093621E+03  0.43188842546E+03  0.78554668394E+02 0.  0.
        -13    1    4    4    0    0 -0.11955818266E+02  0.15528710604E+02  0.62489011267E+01  0.20570153347E+02  0.00000000000E+00 0.  1.
         14    1    4    4    0    0  0.15353368572E+02 -0.76820560508E+02  0.92138778091E+02  0.12094080730E+03  0.00000000000E+00 0. -1.
         13    1    5    5    0    0  0.74090685454E+01  0.10378631287E+03  0.33156763559E+03  0.34751056100E+03  0.00000000000E+00 0. -1.
        -14    1    5    5    0    0  0.24112054582E+02 -0.64296784469E+01  0.80603300612E+02  0.84377864459E+02  0.00000000000E+00 0.  1.
          5    1    3    3  501    0  0.42973788067E+02 -0.33114429563E+02 -0.53539698951E+02  0.76336646965E+02  0.41800000000E+01 0.  1.
         -5    1    3    3    0  501 -0.77892461501E+02 -0.29503549570E+01 -0.12494753619E+03  0.14732718470E+03  0.41800000000E+01 0.  1.
</event>
<event>
11    1  0.2498402E-009  0.1949378E+03  0.7561462E-02  0.1058162E+00
         22   -1    0    0    0    0  0.00000000000E+00  0.00000000000E+00  0.69975601964E+03  0.69975601964E+03  0.00000000000E+00 0. -1.
         22   -1    0    0    0    0 -0.00000000000E+00 -0.00000000000E+00 -0.18163448683E+03  0.18163448683E+03  0.00000000000E+00 0. -1.
         25    2    1    2    0    0  0.84179077101E+02 -0.76493000111E+02  0.20690483561E+02  0.17033371246E+03  0.12509269125E+03 0.  0.
         24    2    1    2    0    0 -0.10387831261E+03 -0.11065174356E+03 -0.13581509701E+01  0.17146994975E+03  0.79784628296E+02 0.  0.
        -24    2    1    2    0    0  0.19699235506E+02  0.18714474367E+03  0.49878920022E+03  0.53958684424E+03  0.83379141659E+02 0.  0.
        -13    1    4    4    0    0 -0.37393854758E+02 -0.75054738094E+02 -0.32428099649E+02  0.89906038345E+02  0.00000000000E+00 0.  1.
         14    1    4    4    0    0 -0.66484457849E+02 -0.35597005463E+02  0.31069948679E+02  0.81563911409E+02  0.00000000000E+00 0. -1.
         13    1    5    5    0    0  0.33863535977E+02  0.65534829890E+02  0.27240942624E+03  0.28222056712E+03  0.00000000000E+00 0. -1.
        -14    1    5    5    0    0 -0.14164300470E+02  0.12160991378E+03  0.22637977398E+03  0.25736627713E+03  0.00000000000E+00 0.  1.
          5    1    3    3  501    0 -0.16173715709E+02 -0.18856781818E+02 -0.33960034689E+02  0.42283846283E+02  0.41800000000E+01 0. -1.
         -5    1    3    3    0  501  0.10035279281E+03 -0.57636218293E+02  0.54650518250E+02  0.12804986618E+03  0.41800000000E+01 0. -1.
</event>
<event>
11    1  0.2498402E-009  0.4209692E+03  0.7561462E-02  0.9589836E-01
         22   -1    0    0    0    0  0.00000000000E+00  0.00000000000E+00  0.20021981610E+03  0.20021981610E+03  0.00000000000E+00 0.  1.
         22   -1    0    0    0    0 -0.00000000000E+00 -0.00000000000E+00 -0.22982130826E+04  0.22982130826E+04  0.00000000000E+00 0.  1.
         25    2    1    2    0    0  0.39058709749E+03  0.18462515006E+03 -0.18040214779E+04  0.18592432341E+04  0.12508870469E+03 0.  0.
        -24    2    1    2    0    0 -0.33317240016E+03 -0.71191728544E+01 -0.26328665377E+03  0.43229000511E+03  0.80624162703E+02 0.  0.
         24    2    1    2    0    0 -0.57414697326E+02 -0.17750597721E+03 -0.30685134783E+02  0.20689965945E+03  0.84030186071E+02 0.  0.
        -13    1    5    5    0    0 -0.42558074870E+02 -0.84928712263E+02  0.24499414863E+02  0.98103502649E+02  0.00000000000E+00 0.  1.
         14    1    5    5    0    0 -0.14856622456E+02 -0.92577264944E+02 -0.55184549647E+02  0.10879615680E+03  0.00000000000E+00 0. -1.
         11    1    4    4    0    0 -0.20707873544E+03  0.28579490220E+02 -0.18805406826E+03  0.28118094267E+03  0.00000000000E+00 0. -1.
        -12    1    4    4    0    0 -0.12609366472E+03 -0.35698663074E+02 -0.75232585515E+02  0.15110906244E+03  0.00000000000E+00 0.  1.
          5    1    3    3  501    0  0.37100800944E+03  0.15281724529E+03 -0.14939199472E+04  0.15468724365E+04  0.41800000000E+01 0.  1.
         -5    1    3    3    0  501  0.19579088050E+02  0.31807904766E+02 -0.31010153070E+03  0.31237079767E+03  0.41800000000E+01 0.  1.
</event>
<event>
11    1  0.2498402E-009  0.2018210E+03  0.7561462E-02  0.1053243E+00
         22   -1    0    0    0    0  0.00000000000E+00  0.00000000000E+00  0.19539494746E+04  0.19539494746E+04  0.00000000000E+00 0. -1.
         22   -1    0    0    0    0 -0.00000000000E+00 -0.00000000000E+00 -0.75220363195E+03  0.75220363195E+03  0.00000000000E+00 0. -1.
         25    2    1    2    0    0  0.13794917477E+03 -0.59906953572E+02 -0.70276896948E+03  0.72948590763E+03  0.12508655825E+03 0.  0.
         24    2    1    2    0    0  0.19899041252E+02  0.45828075006E+02  0.37074770758E+02  0.10077036876E+03  0.79271333357E+02 0.  0.
        -24    2    1    2    0    0 -0.15784821602E+03  0.14078878566E+02  0.18674400413E+04  0.18758968301E+04  0.80884703167E+02 0.  0.
        -11    1    4    4    0    0  0.78495293386E+01 -0.56211837396E+01 -0.20477394710E+02  0.22639269237E+02  0.00000000000E+00 0.  1.
         12    1    4    4    0    0  0.12049511913E+02  0.51449258745E+02  0.57552165469E+02  0.78131099524E+02  0.00000000000E+00 0. -1.
         11    1    5    5    0    0 -0.64340103566E+02 -0.27727063411E+02  0.99525900405E+03  0.99772186711E+03  0.00000000000E+00 0. -1.
        -12    1    5    5    0    0 -0.93508112456E+02  0.41805941977E+02  0.87218103727E+03  0.87817496301E+03  0.00000000000E+00 0.  1.
          5    1    3    3  501    0  0.39733248618E+02 -0.19915468532E+02 -0.45640623587E+02  0.63842743158E+02  0.41800000000E+01 0.  1.
         -5    1    3    3    0  501  0.98215926153E+02 -0.39991485040E+02 -0.65712834589E+03  0.66564316447E+03  0.41800000000E+01 0.  1.
</event>
<event>
11    1  0.2498402E-009  0.1654534E+03  0.7561462E-02  0.1082057E+00
         22   -1    0    0    0    0  0.00000000000E+00  0.00000000000E+00  0.22633362709E+04  0.22633362709E+04  0.00000000000E+00 0.  1.
         22   -1    0    0    0    0 -0.00000000000E+00 -0.00000000000E+00 -0.37711758118E+03  0.37711758118E+03  0.00000000000E+00 0.  1.
         25    2    1    2    0    0  0.12337696977E+03 -0.49480317015E+02 -0.20950759126E+03  0.27786852642E+03  0.12508920311E+03 0.  0.
        -24    2    1    2    0    0 -0.86028900788E+02  0.23259315142E+02 -0.10547294534E+03  0.15960628541E+03  0.80047839636E+02 0.  0.
         24    2    1    2    0    0 -0.37348068987E+02  0.26221001872E+02  0.22011992263E+04  0.22029790403E+04  0.75869615981E+02 0.  0.
        -13    1    5    5    0    0  0.57449069676E+01  0.42117635750E+02  0.10066333604E+04  0.10075304568E+04  0.00000000000E+00 0.  1.
         14    1    5    5    0    0 -0.43092975954E+02 -0.15896633877E+02  0.11945658660E+04  0.11954485835E+04  0.00000000000E+00 0. -1.
         13    1    4    4    0    0 -0.12504917183E+02 -0.20160157538E+02 -0.56247545085E+02  0.61045812582E+02  0.00000000000E+00 0. -1.
        -14    1    4    4    0    0 -0.73523983605E+02  0.43419472680E+02 -0.49225400259E+02  0.98560472825E+02  0.00000000000E+00 0.  1.
          5    1    3    3  501    0  0.13416017938E+03 -0.70575463521E+02 -0.20215398825E+03  0.25271240007E+03  0.41800000000E+01 0.  1.
         -5    1    3    3    0  501 -0.10783209605E+02  0.21095146506E+02 -0.73536030072E+01  0.25156126345E+02  0.41800000000E+01 0.  1.
</event>
<event>
11    1  0.2498402E-009  0.4006441E+03  0.7561462E-02  0.9647859E-01
         22   -1    0    0    0    0  0.00000000000E+00  0.00000000000E+00  0.67859545637E+03  0.67859545637E+03  0.00000000000E+00 0. -1.
         22   -1    0    0    0    0 -0.00000000000E+00 -0.00000000000E+00 -0.59135256668E+02  0.59135256668E+02  0.00000000000E+00 0.  1.
         25    2    1    2    0    0 -0.12139617101E+03  0.34515951047E+02  0.18759350251E+03  0.25839148015E+03  0.12508578503E+03 0.  0.
        -24    2    1    2    0    0  0.68767076204E+02 -0.11886885909E+02  0.18199910930E+03  0.21074362138E+03  0.80118595487E+02 0.  0.
         24    2    1    2    0    0  0.52629094802E+02 -0.22629065138E+02  0.24986758790E+03  0.26859561151E+03  0.80174153132E+02 0.  0.
        -13    1    5    5    0    0  0.39169349736E+02 -0.30953352848E+01  0.35605213176E+02  0.53024053641E+02  0.00000000000E+00 0.  1.
         14    1    5    5    0    0  0.13459745066E+02 -0.19533729853E+02  0.21426237472E+03  0.21557155787E+03  0.00000000000E+00 0. -1.
         13    1    4    4    0    0  0.13889151786E+02 -0.14478362298E+02  0.14041526312E+03  0.14184138193E+03  0.00000000000E+00 0. -1.
        -14    1    4    4    0    0  0.54877924418E+02  0.25914763889E+01  0.41583846178E+02  0.68902239450E+02  0.00000000000E+00 0.  1.
          5    1    3    3  501    0 -0.63478838419E+02  0.37842900756E+02  0.14026518083E+02  0.75338328055E+02  0.41800000000E+01 0. -1.
         -5    1    3    3    0  501 -0.57917332586E+02 -0.33269497086E+01  0.17356698442E+03  0.18305315209E+03  0.41800000000E+01 0. -1.
</event>
<event>
11    1  0.2498402E-009  0.1543391E+03  0.7561462E-02  0.1092526E+00
         22   -1    0    0    0    0  0.00000000000E+00  0.00000000000E+00  0.38996153211E+03  0.38996153211E+03  0.00000000000E+00 0. -1.
         22   -1    0    0    0    0 -0.00000000000E+00 -0.00000000000E+00 -0.32212437075E+03  0.32212437075E+03  0.00000000000E+00 0. -1.
         25    2    1    2    0    0  0.33420155717E+02  0.96426742596E+02 -0.21938556504E+03  0.27238509404E+03  0.12509432365E+03 0.  0.
        -24    2    1    2    0    0  0.36688833138E+01 -0.14521264062E+02 -0.40266675450E+02  0.90909530286E+02  0.80117474563E+02 0.  0.
         24    2    1    2    0    0 -0.37089039031E+02 -0.81905478535E+02  0.32748940185E+03  0.34879127854E+03  0.79510649789E+02 0.  0.
        -13    1    5    5    0    0 -0.27488218963E+02 -0.34228292612E+02  0.47780382660E+02  0.64885616003E+02  0.00000000000E+00 0.  1.
         14    1    5    5    0    0 -0.96008200679E+01 -0.47677185922E+02  0.27970901919E+03  0.28390566254E+03  0.00000000000E+00 0. -1.
         11    1    4    4    0    0  0.52209921491E+01 -0.47705310003E+02 -0.27568173846E+02  0.55344914587E+02  0.00000000000E+00 0. -1.
        -12    1    4    4    0    0 -0.15521088354E+01  0.33184045941E+02 -0.12698501603E+02  0.35564615699E+02  0.00000000000E+00 0.  1.
          5    1    3    3  501    0  0.56793137596E+02  0.97257818791E+02 -0.10004233198E+03  0.15069998136E+03  0.41800000000E+01 0. -1.
         -5    1    3    3    0  501 -0.23372981879E+02 -0.83107619452E+00 -0.11934323307E+03  0.12168511268E+03  0.41800000000E+01 0. -1.
</event>
<event>
11    1  0.2498402E-009  0.5916711E+03  0.7561462E-02  0.9209195E-01
         22   -1    0    0    0    0  0.00000000000E+00  0.00000000000E+00  0.25597068625E+03  0.25597068625E+03  0.00000000000E+00 0. -1.
         22   -1    0    0    0    0 -0.00000000000E+00 -0.00000000000E+00 -0.29778927069E+04  0.29778927069E+04  0.00000000000E+00 0. -1.
         25    2    1    2    0    0 -0.53613728380E+03 -0.31887154962E+03 -0.21671796431E+04  0.22586373196E+04  0.12511068595E+03 0.  0.
         24    2    1    2    0    0  0.45815345193E+03  0.18447569529E+03 -0.61240223715E+03  0.79035721594E+03  0.75446411710E+02 0.  0.
        -24    2    1    2    0    0  0.77983831870E+02  0.13439585433E+03  0.57659859591E+02  0.18486885763E+03  0.81903061123E+02 0.  0.
        -11    1    4    4    0    0  0.66848652757E+02  0.31262682015E+02 -0.13877966651E+03  0.15718108505E+03  0.00000000000E+00 0.  1.
         12    1    4    4    0    0  0.39130479918E+03  0.15321301328E+03 -0.47362257064E+03  0.63317613088E+03  0.00000000000E+00 0. -1.
         11    1    5    5    0    0  0.35403622925E+02  0.70230643742E+02 -0.13755153792E+02  0.79843372251E+02  0.00000000000E+00 0. -1.
        -12    1    5    5    0    0  0.42580208945E+02  0.64165210586E+02  0.71415013383E+02  0.10502548538E+03  0.00000000000E+00 0.  1.
          5    1    3    3  501    0 -0.37850325270E+03 -0.28753262062E+03 -0.16363636089E+04  0.17040079381E+04  0.41800000000E+01 0. -1.
         -5    1    3    3    0  501 -0.15763403111E+03 -0.31338929000E+02 -0.53081603421E+03  0.55462938149E+03  0.41800000000E+01 0. -1.
</event>
<event>
11    1  0.2498402E-009  0.8345805E+03  0.7561462E-02  0.8854540E-01
         22   -1    0    0    0    0  0.00000000000E+00  0.00000000000E+00  0.95962147651E+03  0.95962147651E+03  0.00000000000E+00 0.  1.
         22   -1    0    0    0    0 -0.00000000000E+00 -0.00000000000E+00 -0.17373069345E+04  0.17373069345E+04  0.00000000000E+00 0.  1.
         25    2    1    2    0    0 -0.62643228603E+03 -0.53749110529E+03 -0.10002136134E+04  0.13028396291E+04  0.12509887876E+03 0.  0.
         24    2    1    2    0    0  0.81310725258E+03  0.29213509207E+03 -0.17515481266E+03  0.88514088015E+03  0.79428289049E+02 0.  0.
        -24    2    1    2    0    0 -0.18667496655E+03  0.24535601321E+03  0.39768296806E+03  0.50894790177E+03  0.76348590532E+02 0.  0.
        -13    1    4    4    0    0  0.87464027140E+02  0.23963614319E+02 -0.42836960256E+02  0.10029564307E+03  0.00000000000E+00 0.  1.
         14    1    4    4    0    0  0.72564322544E+03  0.26817147775E+03 -0.13231785241E+03  0.78484523708E+03  0.00000000000E+00 0. -1.
         13    1    5    5    0    0 -0.13239137286E+03  0.17994808402E+03  0.22822624260E+03  0.31936813611E+03  0.00000000000E+00 0. -1.
        -14    1    5    5    0    0 -0.54283593684E+02  0.65407929197E+02  0.16945672546E+03  0.18957976566E+03  0.00000000000E+00 0.  1.
          5    1    3    3  501    0 -0.25884488897E+03 -0.20673488949E+03 -0.49715233539E+03  0.59742606912E+03  0.41800000000E+01 0. -1.
         -5    1    3    3    0  501 -0.36758739706E+03 -0.33075621579E+03 -0.50306127799E+03  0.70541355996E+03  0.41800000000E+01 0. -1.
</event>
<event>
11    1  0.2498402E-009  0.3026864E+03  0.7561462E-02  0.9990606E-01
         22   -1    0    0    0    0  0.00000000000E+00  0.00000000000E+00  0.10456086657E+03  0.10456086657E+03  0.00000000000E+00 0.  1.
         22   -1    0    0    0    0 -0.00000000000E+00 -0.00000000000E+00 -0.13692209956E+04  0.13692209956E+04  0.00000000000E+00 0. -1.
         25    2    1    2    0    0 -0.24255766945E+03  0.13713555852E+03 -0.68176762482E+03  0.74705746322E+03  0.12508946674E+03 0.  0.
        -24    2    1    2    0    0  0.28287142075E+03 -0.32120054572E+02 -0.40904429963E+03  0.50479466870E+03  0.80327329723E+02 0.  0.
         24    2    1    2    0    0 -0.40313751307E+02 -0.10501550394E+03 -0.17384820461E+03  0.22192973027E+03  0.79850812890E+02 0.  0.
        -11    1    5    5    0    0  0.18743733999E+02 -0.18030764280E+02 -0.11333371555E+02  0.28370430655E+02  0.00000000000E+00 0.  1.
         12    1    5    5    0    0 -0.59057485306E+02 -0.86984739664E+02 -0.16251483305E+03  0.19355929962E+03  0.00000000000E+00 0. -1.
         13    1    4    4    0    0  0.21342494870E+03  0.89019674903E+01 -0.31892224749E+03  0.38385004064E+03  0.00000000000E+00 0. -1.
        -14    1    4    4    0    0  0.69446472052E+02 -0.41022022063E+02 -0.90122052145E+02  0.12094462806E+03  0.00000000000E+00 0.  1.
          5    1    3    3  501    0 -0.78665179588E+02  0.51126955623E+01 -0.30940281729E+03  0.31931477555E+03  0.41800000000E+01 0. -1.
         -5    1    3    3    0  501 -0.16389248986E+03  0.13202286295E+03 -0.37236480752E+03  0.42774268767E+03  0.41800000000E+01 0. -1.
</event>
<event>
11    1  0.2498402E-009  0.3603830E+03  0.7561462E-02  0.9774472E-01
         22   -1    0    0    0    0  0.00000000000E+00  0.00000000000E+00  0.77730713911E+03  0.77730713911E+03  0.00000000000E+00 0.  1.
         22   -1    0    0    0    0 -0.00000000000E+00 -0.00000000000E+00 -0.94160024425E+03  0.94160024425E+03  0.00000000000E+00 0. -1.
         25    2    1    2    0    0 -0.33147277955E+03  0.23185729488E+03 -0.65887032660E+03  0.78319287509E+03  0.12509581748E+03 0.  0.
         24    2    1    2    0    0  0.23363733302E+03  0.92673675385E+02 -0.69845222945E+02  0.27266480218E+03  0.79327962861E+02 0.  0.
        -24    2    1    2    0    0  0.97835446532E+02 -0.32453097027E+03  0.56442244439E+03  0.66304970608E+03  0.78549931516E+02 0.  0.
        -13    1    4    4    0    0  0.11084233080E+03  0.80482236434E+02 -0.57815791323E+02  0.14868112995E+03  0.00000000000E+00 0.  1.
         14    1    4    4    0    0  0.12279500222E+03  0.12191438951E+02 -0.12029431622E+02  0.12398367223E+03  0.00000000000E+00 0. -1.
         13    1    5    5    0    0 -0.25580960836E+01 -0.55457001886E+02  0.54395551977E+02  0.77723220395E+02  0.00000000000E+00 0. -1.
        -14    1    5    5    0    0  0.10039354262E+03 -0.26907396838E+03  0.51002689242E+03  0.58532648569E+03  0.00000000000E+00 0.  1.
          5    1    3    3  501    0 -0.17318749871E+03  0.16278424563E+03 -0.47339500175E+03  0.52972910098E+03  0.41800000000E+01 0.  1.
         -5    1    3    3    0  501 -0.15828528084E+03  0.69073049248E+02 -0.18547532484E+03  0.25346377412E+03  0.41800000000E+01 0.  1.
</event>
<event>
11    1  0.2498402E-009  0.4594019E+03  0.7561462E-02  0.9489115E-01
         22   -1    0    0    0    0  0.00000000000E+00  0.00000000000E+00  0.97386242922E+03  0.97386242922E+03  0.00000000000E+00 0.  1.
         22   -1    0    0    0    0 -0.00000000000E+00 -0.00000000000E+00 -0.14634673033E+04  0.14634673033E+04  0.00000000000E+00 0. -1.
         25    2    1    2    0    0 -0.44961007301E+03  0.21239319649E+01 -0.13140018052E+04  0.13944179725E+04  0.12508800569E+03 0.  0.
        -24    2    1    2    0    0  0.15910856119E+03  0.99479537745E+02  0.56574539190E+02  0.21192293878E+03  0.80616008472E+02 0.  0.
         24    2    1    2    0    0  0.29050151182E+03 -0.10160346971E+03  0.76782239193E+03  0.83098882123E+03  0.79226271059E+02 0.  0.
        -13    1    5    5    0    0  0.21827857062E+03 -0.38422075259E+02  0.52216402091E+03  0.56725395987E+03  0.00000000000E+00 0.  1.
         14    1    5    5    0    0  0.72222941203E+02 -0.63181394451E+02  0.24565837103E+03  0.26373486136E+03  0.00000000000E+00 0. -1.
         13    1    4    4    0    0  0.13871269842E+03  0.11333488581E+03  0.45039573387E+02  0.18470130539E+03  0.00000000000E+00 0. -1.
        -14    1    4    4    0    0  0.20395862776E+02 -0.13855348060E+02  0.11534965803E+02  0.27221633389E+02  0.00000000000E+00 0.  1.
          5    1    3    3  501    0 -0.72169699246E+02  0.28916727052E+02 -0.35540417253E+03  0.36383270997E+03  0.41800000000E+01 0. -1.
         -5    1    3    3    0  501 -0.37744037377E+03 -0.26792795087E+02 -0.95859763269E+03  0.10305852626E+04  0.41800000000E+01 0. -1.
</event>
<event>
11    1  0.2498402E-009  0.1608556E+03  0.7561462E-02  0.1086275E+00
         22   -1    0    0    0    0  0.00000000000E+00  0.00000000000E+00  0.17712603893E+04  0.17712603893E+04  0.00000000000E+00 0. -1.
         22   -1    0    0    0    0 -0.00000000000E+00 -0.00000000000E+00 -0.64237797346E+02  0.64237797346E+02  0.00000000000E+00 0. -1.
         25    2    1    2    0    0  0.16663818281E+01  0.11535998491E+03  0.80190793221E+02  0.18812304931E+03  0.12509602478E+03 0.  0.
        -24    2    1    2    0    0 -0.18886309452E+02 -0.66394469462E+02  0.31142757990E+03  0.32855805569E+03  0.78729538146E+02 0.  0.
         24    2    1    2    0    0  0.17219927624E+02 -0.48965515453E+02  0.13154042188E+04  0.13188170816E+04  0.79347894164E+02 0.  0.
        -13    1    5    5    0    0 -0.22268997591E+02  0.61576863407E+01  0.52553176137E+03  0.52603940685E+03  0.00000000000E+00 0.  1.
         14    1    5    5    0    0  0.39488925215E+02 -0.55123201793E+02  0.78987245743E+03  0.79277767476E+03  0.00000000000E+00 0. -1.
         13    1    4    4    0    0  0.41758632948E+00 -0.80526269436E+02  0.24931650104E+03  0.26199880179E+03  0.00000000000E+00 0. -1.
        -14    1    4    4    0    0 -0.19303895781E+02  0.14131799974E+02  0.62111078858E+02  0.66559253901E+02  0.00000000000E+00 0.  1.
          5    1    3    3  501    0  0.58000580939E+02  0.43739665461E+02  0.60904632040E+02  0.94889790430E+02  0.41800000000E+01 0. -1.
         -5    1    3    3    0  501 -0.56334199111E+02  0.71620319453E+02  0.19286161181E+02  0.93233258879E+02  0.41800000000E+01 0. -1.
</event>
<event>
11    1  0.2498402E-009  0.7922058E+03  0.7561462E-02  0.8906469E-01
         22   -1    0    0    0    0  0.00000000000E+00  0.00000000000E+00  0.10609101528E+04  0.10609101528E+04  0.00000000000E+00 0. -1.
         22   -1    0    0    0    0 -0.00000000000E+00 -0.00000000000E+00 -0.14788953670E+03  0.14788953670E+03  0.00000000000E+00 0.  1.
         25    2    1    2    0    0 -0.96340535344E+02  0.20441702180E+03  0.11120563201E+02  0.25853335169E+03  0.12509200397E+03 0.  0.
         24    2    1    2    0    0  0.41383438105E+02 -0.10797378500E+03  0.28003904010E+03  0.31381980117E+03  0.81792887397E+02 0.  0.
        -24    2    1    2    0    0  0.54957097239E+02 -0.96443236796E+02  0.62186101281E+03  0.63644653666E+03  0.77662695741E+02 0.  0.
        -13    1    4    4    0    0 -0.13359695328E+02 -0.74006945315E+01  0.94975719766E+02  0.96195837144E+02  0.00000000000E+00 0.  1.
         14    1    4    4    0    0  0.54743133433E+02 -0.10057309047E+03  0.18506332033E+03  0.21762396402E+03  0.00000000000E+00 0. -1.
         13    1    5    5    0    0  0.71020268384E+02 -0.80653271750E+02  0.56780856918E+03  0.57788874361E+03  0.00000000000E+00 0. -1.
        -14    1    5    5    0    0 -0.16063171145E+02 -0.15789965046E+02  0.54052443634E+02  0.58557793044E+02  0.00000000000E+00 0.  1.
          5    1    3    3  501    0 -0.93302908158E+02  0.54245250586E+02  0.28170059563E+01  0.10804345332E+03  0.41800000000E+01 0.  1.
         -5    1    3    3    0  501 -0.30376271855E+01  0.15017177121E+03  0.83035572449E+01  0.15048989837E+03  0.41800000000E+01 0.  1.
</event>
<event>
11    1  0.2498402E-009  0.8307937E+03  0.7561462E-02  0.8859048E-01
         22   -1    0    0    0    0  0.00000000000E+00  0.00000000000E+00  0.35761273147E+03  0.35761273147E+03  0.00000000000E+00 0.  1.
         22   -1    0    0    0    0 -0.00000000000E+00 -0.00000000000E+00 -0.25803450002E+04  0.25803450002E+04  0.00000000000E+00 0.  1.
         25    2    1    2    0    0 -0.20949243360E+03 -0.78048935569E+03 -0.16159892842E+04  0.18111098023E+04  0.12508651170E+03 0.  0.
        -24    2    1    2    0    0  0.24852403510E+03  0.81600038545E+03 -0.56005293669E+03  0.10232680458E+04  0.76140505066E+02 0.  0.
         24    2    1    2    0    0 -0.39031601504E+02 -0.35511029757E+02 -0.46690047893E+02  0.10357988361E+03  0.75923201763E+02 0.  0.
        -11    1    5    5    0    0  0.80639430475E+01  0.17495480868E+02 -0.20129276784E+02  0.27862282967E+02  0.00000000000E+00 0.  1.
         12    1    5    5    0    0 -0.47095544551E+02 -0.53006510625E+02 -0.26560771108E+02  0.75717600642E+02  0.00000000000E+00 0. -1.
         13    1    4    4    0    0  0.14104267939E+03  0.33413997399E+03 -0.23942596432E+03  0.43458871594E+03  0.00000000000E+00 0. -1.
        -14    1    4    4    0    0  0.10748135571E+03  0.48186041146E+03 -0.32062697237E+03  0.58867932983E+03  0.00000000000E+00 0.  1.
          5    1    3    3  501    0  0.16687730433E+02 -0.70608032315E+02 -0.14630251838E+03  0.16335811538E+03  0.41800000000E+01 0.  1.
         -5    1    3    3    0  501 -0.22618016403E+03 -0.70988132338E+03 -0.14696867658E+04  0.16477516869E+04  0.41800000000E+01 0.  1.
</event>
<event>
11    1  0.2498402E-009  0.7481293E+03  0.7561462E-02  0.8964238E-01
         22   -1    0    0    0    0  0.00000000000E+00  0.00000000000E+00  0.15118907082E+04  0.15118907082E+04  0.00000000000E+00 0. -1.
         22   -1    0    0    0    0 -0.00000000000E+00 -0.00000000000E+00 -0.52720583933E+03  0.52720583933E+03  0.00000000000E+00 0. -1.
         25    2    1    2    0    0  0.74771618204E+03 -0.20170256732E+03  0.24010998985E+03  0.82040727006E+03  0.12510742181E+03 0.  0.
        -24    2    1    2    0    0 -0.70813906083E+03 -0.33367298198E+02  0.52186496462E+03  0.88399342961E+03  0.80790075154E+02 0.  0.
         24    2    1    2    0    0 -0.39577121211E+02  0.23506986552E+03  0.22270991446E+03  0.33469584790E+03  0.74815870025E+02 0.  0.
        -11    1    5    5    0    0 -0.38703855494E+02  0.78730321600E+02  0.47092951230E+02  0.99570065908E+02  0.00000000000E+00 0.  1.
         12    1    5    5    0    0 -0.87326571686E+00  0.15633954392E+03  0.17561696323E+03  0.23512578199E+03  0.00000000000E+00 0. -1.
         13    1    4    4    0    0 -0.60091416297E+03 -0.49473629838E+02  0.41658836602E+03  0.73286515678E+03  0.00000000000E+00 0. -1.
        -14    1    4    4    0    0 -0.10722489786E+03  0.16106331639E+02  0.10527659859E+03  0.15112827284E+03  0.00000000000E+00 0.  1.
          5    1    3    3  501    0  0.53199420734E+02  0.14935981377E+02  0.30635983924E+02  0.63319016236E+02  0.41800000000E+01 0.  1.
         -5    1    3    3    0  501  0.69451676130E+03 -0.21663854870E+03  0.20947400592E+03  0.75708825382E+03  0.41800000000E+01 0.  1.
</event>
<event>
11    1  0.2498402E-009  0.1476796E+03  0.7561462E-02  0.1099274E+00
         22   -1    0    0    0    0  0.00000000000E+00  0.00000000000E+00  0.11257885518E+03  0.11257885518E+03  0.00000000000E+00 0.  1.
         22   -1    0    0    0    0 -0.00000000000E+00 -0.00000000000E+00 -0.71475332973E+03  0.71475332973E+03  0.00000000000E+00 0.  1.
         25    2    1    2    0    0 -0.55483321931E+02  0.89222487116E+02 -0.45852307595E+03  0.48675405286E+03  0.12508815121E+03 0.  0.
         24    2    1    2    0    0  0.48949981227E+02 -0.12233169311E+02 -0.19498913026E+03  0.21692052717E+03  0.80548141469E+02 0.  0.
        -24    2    1    2    0    0  0.65333407036E+01 -0.76989317805E+02  0.51337731653E+02  0.12365760489E+03  0.81765524268E+02 0.  0.
        -13    1    4    4    0    0  0.15947737992E+02 -0.45482954196E+02 -0.98474766153E+02  0.10963716997E+03  0.00000000000E+00 0.  1.
         14    1    4    4    0    0  0.33002243235E+02  0.33249784886E+02 -0.96514364106E+02  0.10728335720E+03  0.00000000000E+00 0. -1.
         13    1    5    5    0    0  0.16768611541E+02 -0.73775814671E+02  0.47015483089E+01  0.75803441346E+02  0.00000000000E+00 0. -1.
        -14    1    5    5    0    0 -0.10235270838E+02 -0.32135031342E+01  0.46636183345E+02  0.47854163544E+02  0.00000000000E+00 0.  1.
          5    1    3    3  501    0 -0.21898773369E+02  0.63861322313E+02 -0.75360288486E+02  0.10126435821E+03  0.41800000000E+01 0.  1.
         -5    1    3    3    0  501 -0.33584548562E+02  0.25361164803E+02 -0.38316278746E+03  0.38548969465E+03  0.41800000000E+01 0.  1.
</event>
<event>
11    1  0.2498402E-009  0.7649594E+03  0.7561462E-02  0.8941697E-01
         22   -1    0    0    0    0  0.00000000000E+00  0.00000000000E+00  0.57421054636E+03  0.57421054636E+03  0.00000000000E+00 0. -1.
         22   -1    0    0    0    0 -0.00000000000E+00 -0.00000000000E+00 -0.20415341916E+04  0.20415341916E+04  0.00000000000E+00 0. -1.
         25    2    1    2    0    0  0.34735465804E+03 -0.62372334910E+03 -0.81002767798E+03  0.10869583967E+04  0.12509053642E+03 0.  0.
        -24    2    1    2    0    0 -0.52758682536E+03  0.61298449153E+03 -0.90394003470E+03  0.12155546939E+04  0.79798386151E+02 0.  0.
         24    2    1    2    0    0  0.18023216732E+03  0.10738857567E+02  0.24664406746E+03  0.31323164737E+03  0.68423765613E+02 0.  0.
        -13    1    5    5    0    0  0.22658025908E+02  0.23598172029E+02  0.25973673433E+02  0.41771899319E+02  0.00000000000E+00 0.  1.
         14    1    5    5    0    0  0.15757414141E+03 -0.12859314462E+02  0.22067039403E+03  0.27145974805E+03  0.00000000000E+00 0. -1.
         13    1    4    4    0    0 -0.38739033304E+03  0.41021088082E+03 -0.58950067359E+03  0.81599955946E+03  0.00000000000E+00 0. -1.
        -14    1    4    4    0    0 -0.14019649232E+03  0.20277361070E+03 -0.31443936111E+03  0.39955513446E+03  0.00000000000E+00 0.  1.
          5    1    3    3  501    0  0.27331535811E+03 -0.53989214577E+03 -0.61968374693E+03  0.86614677316E+03  0.41800000000E+01 0.  1.
         -5    1    3    3    0  501  0.74039299928E+02 -0.83831203326E+02 -0.19034393105E+03  0.22081162350E+03  0.41800000000E+01 0.  1.
</event>
<event>
11    1  0.2498402E-009  0.3061296E+03  0.7561462E-02  0.9976299E-01
         22   -1    0    0    0    0  0.00000000000E+00  0.00000000000E+00  0.27800992536E+04  0.27800992536E+04  0.00000000000E+00 0. -1.
         22   -1    0    0    0    0 -0.00000000000E+00 -0.00000000000E+00 -0.19254169424E+03  0.19254169424E+03  0.00000000000E+00 0.  1.
         25    2    1    2    0    0  0.21533289812E+03  0.37657665727E+02 -0.17419886699E+01  0.25186655540E+03  0.12508944962E+03 0.  0.
         24    2    1    2    0    0 -0.37256953810E+03 -0.25284952039E+03  0.90999552066E+03  0.10185422736E+04  0.81213144143E+02 0.  0.
        -24    2    1    2    0    0  0.15723663998E+03  0.21519185466E+03  0.16793040273E+04  0.17022321188E+04  0.80630483220E+02 0.  0.
        -13    1    4    4    0    0 -0.13064437783E+03 -0.72984778487E+02  0.22593035213E+03  0.27099678109E+03  0.00000000000E+00 0.  1.
         14    1    4    4    0    0 -0.24192516027E+03 -0.17986474191E+03  0.68406516854E+03  0.74754549250E+03  0.00000000000E+00 0. -1.
         11    1    5    5    0    0  0.97336938061E+02  0.18996403622E+03  0.12857210225E+04  0.13033185959E+04  0.00000000000E+00 0. -1.
        -12    1    5    5    0    0  0.59899701916E+02  0.25227818443E+02  0.39358300481E+03  0.39891352295E+03  0.00000000000E+00 0.  1.
          5    1    3    3  501    0  0.11778425720E+03  0.75742642442E+02  0.28119185423E+02  0.14289240748E+03  0.41800000000E+01 0. -1.
         -5    1    3    3    0  501  0.97548640922E+02 -0.38084976715E+02 -0.29861174093E+02  0.10897414792E+03  0.41800000000E+01 0. -1.
</event>
<event>
11    1  0.2498402E-009  0.1596486E+03  0.7561462E-02  0.1087408E+00
         22   -1    0    0    0    0  0.00000000000E+00  0.00000000000E+00  0.29430652832E+03  0.29430652832E+03  0.00000000000E+00 0. -1.
         22   -1    0    0    0    0 -0.00000000000E+00 -0.00000000000E+00 -0.57663920201E+03  0.57663920201E+03  0.00000000000E+00 0. -1.
         25    2    1    2    0    0  0.66005068750E+02 -0.16881855405E+02 -0.18548246131E+03  0.23386360952E+03  0.12508708273E+03 0.  0.
        -24    2    1    2    0    0 -0.56737127966E+02 -0.12120684800E+03 -0.32344261622E+03  0.35919639233E+03  0.80602236840E+02 0.  0.
         24    2    1    2    0    0 -0.92679407849E+01  0.13808870340E+03  0.22659240384E+03  0.27788572848E+03  0.81987656900E+02 0.  0.
        -13    1    5    5    0    0  0.28703658208E+02  0.26137593126E+02  0.32513075840E+02  0.50637672433E+02  0.00000000000E+00 0.  1.
         14    1    5    5    0    0 -0.37971598993E+02  0.11195111028E+03  0.19407932800E+03  0.22724805605E+03  0.00000000000E+00 0. -1.
         11    1    4    4    0    0 -0.75662315540E+02 -0.77170567735E+02 -0.21505884080E+03  0.24068732315E+03  0.00000000000E+00 0. -1.
        -12    1    4    4    0    0  0.18925187575E+02 -0.44036280261E+02 -0.10838377542E+03  0.11850906918E+03  0.00000000000E+00 0.  1.
          5    1    3    3  501    0  0.71914264987E+02  0.41693541826E+02 -0.11435661590E+03  0.14143875331E+03  0.41800000000E+01 0. -1.
         -5    1    3    3    0  501 -0.59091962368E+01 -0.58575397231E+02 -0.71125845407E+02  0.92424856212E+02  0.41800000000E+01 0. -1.
</event>
<event>
11    1  0.2498402E-009  0.1485761E+03  0.7561462E-02  0.1098343E+00
         22   -1    0    0    0    0  0.00000000000E+00  0.00000000000E+00  0.25123846776E+04  0.25123846776E+04  0.00000000000E+00 0.  1.
         22   -1    0    0    0    0 -0.00000000000E+00 -0.00000000000E+00 -0.10020360307E+03  0.10020360307E+03  0.00000000000E+00 0.  1.
         25    2    1    2    0    0 -0.11160695320E+03  0.34147235454E+02  0.33115126704E+02  0.17426019509E+03  0.12509139972E+03 0.  0.
         24    2    1    2    0    0  0.32925818908E+02 -0.22631722540E+02  0.41983963346E+02  0.98645698353E+02  0.79824909705E+02 0.  0.
        -24    2    1    2    0    0  0.78681134290E+02 -0.11515512914E+02  0.23370819845E+04  0.23396823873E+04  0.76407741913E+02 0.  0.
        -11    1    4    4    0    0  0.41257539962E+02  0.17119665248E+02  0.36454537608E+02  0.57655883084E+02  0.00000000000E+00 0.  1.
         12    1    4    4    0    0 -0.83317210544E+01 -0.39751387788E+02  0.55294257377E+01  0.40989815269E+02  0.00000000000E+00 0. -1.
         13    1    5    5    0    0  0.16543490185E+01 -0.24096336709E+01  0.25990762648E+01  0.39113172376E+01  0.00000000000E+00 0. -1.
        -14    1    5    5    0    0  0.77026785271E+02 -0.91058792432E+01  0.23344829082E+04  0.23357710700E+04  0.00000000000E+00 0.  1.
          5    1    3    3  501    0 -0.91047354769E+02 -0.92976230093E+00  0.73282467951E+02  0.11695416956E+03  0.41800000000E+01 0.  1.
         -5    1    3    3    0  501 -0.20559598428E+02  0.35076997755E+02 -0.40167341247E+02  0.57306025529E+02  0.41800000000E+01 0.  1.
</event>
<event>
11    1  0.2498402E-009  0.6963562E+03  0.7561462E-02  0.9037692E-01
         22   -1    0    0    0    0  0.00000000000E+00  0.00000000000E+00  0.20212952040E+03  0.20212952040E+03  0.00000000000E+00 0.  1.
         22   -1    0    0    0    0 -0.00000000000E+00 -0.00000000000E+00 -0.59975397348E+03  0.59975397348E+03  0.00000000000E+00 0.  1.
         25    2    1    2    0    0 -0.26360690572E+02 -0.16334638155E+03 -0.49065699805E+03  0.53270088101E+03  0.12509601322E+03 0.  0.
        -24    2    1    2    0    0  0.49895629451E+02  0.11472725872E+03  0.78998781659E+02  0.16592381685E+03  0.75086535160E+02 0.  0.
         24    2    1    2    0    0 -0.23534938879E+02  0.48619122831E+02  0.14033763304E+02  0.10325879602E+03  0.86877615012E+02 0.  0.
        -11    1    5    5    0    0 -0.16632384389E+02  0.32608983614E+01 -0.33283331169E+02  0.37350365491E+02  0.00000000000E+00 0.  1.
         12    1    5    5    0    0 -0.69025544903E+01  0.45358224469E+02  0.47317094473E+02  0.65908430530E+02  0.00000000000E+00 0. -1.
         13    1    4    4    0    0  0.31319939884E+02  0.27938749583E+02 -0.67542160050E+01  0.42510372810E+02  0.00000000000E+00 0. -1.
        -14    1    4    4    0    0  0.18575689567E+02  0.86788509138E+02  0.85752997664E+02  0.12341344404E+03  0.00000000000E+00 0.  1.
          5    1    3    3  501    0 -0.60430546409E+02 -0.45267504140E+02 -0.26661259751E+03  0.27712947772E+03  0.41800000000E+01 0. -1.
         -5    1    3    3    0  501  0.34069855837E+02 -0.11807887741E+03 -0.22404440053E+03  0.25557140329E+03  0.41800000000E+01 0. -1.
</event>
<event>
11    1  0.2498402E-009  0.1821023E+03  0.7561462E-02  0.1067955E+00
         22   -1    0    0    0    0  0.00000000000E+00  0.00000000000E+00  0.13440676067E+04  0.13440676067E+04  0.00000000000E+00 0.  1.
         22   -1    0    0    0    0 -0.00000000000E+00 -0.00000000000E+00 -0.11920341181E+03  0.11920341181E+03  0.00000000000E+00 0.  1.
         25    2    1    2    0    0 -0.23705228799E+02  0.12320691863E+02  0.78578063879E+02  0.15011809647E+03  0.12508874228E+03 0.  0.
        -24    2    1    2    0    0  0.12602437719E+03  0.11482270279E+03  0.40499283881E+02  0.19254867710E+03  0.79802282777E+02 0.  0.
         24    2    1    2    0    0 -0.10231914839E+03 -0.12714339465E+03  0.11057868472E+04  0.11206042450E+04  0.79716193886E+02 0.  0.
        -11    1    5    5    0    0 -0.53335030837E+02 -0.12072994722E+03  0.77823663052E+03  0.78934947821E+03  0.00000000000E+00 0.  1.
         12    1    5    5    0    0 -0.48984117553E+02 -0.64134474272E+01  0.32755021666E+03  0.33125476678E+03  0.00000000000E+00 0. -1.
         11    1    4    4    0    0  0.54715488239E+02  0.97117482383E+02  0.41836412002E+02  0.11906248530E+03  0.00000000000E+00 0. -1.
        -12    1    4    4    0    0  0.71308888949E+02  0.17705220405E+02 -0.13371281214E+01  0.73486191794E+02  0.00000000000E+00 0.  1.
          5    1    3    3  501    0  0.27404096780E+02 -0.41283948753E+02  0.13732698156E+02  0.51588839332E+02  0.41800000000E+01 0. -1.
         -5    1    3    3    0  501 -0.51109325579E+02  0.53604640617E+02  0.64845365723E+02  0.98529257140E+02  0.41800000000E+01 0. -1.
</event>
<event>
11    1  0.2498402E-009  0.1875368E+03  0.7561462E-02  0.1063704E+00
         22   -1    0    0    0    0  0.00000000000E+00  0.00000000000E+00  0.13095231330E+03  0.13095231330E+03  0.00000000000E+00 0. -1.
         22   -1    0    0    0    0 -0.00000000000E+00 -0.00000000000E+00 -0.46395011086E+03  0.46395011086E+03  0.00000000000E+00 0. -1.
         25    2    1    2    0    0 -0.11087455152E+03 -0.82561991464E+02 -0.19332444765E+03  0.26857256428E+03  0.12508889485E+03 0.  0.
        -24    2    1    2    0    0  0.88858851537E+02  0.11249994576E+03 -0.16522257874E+03  0.23325746311E+03  0.80984012480E+02 0.  0.
         24    2    1    2    0    0  0.22015699982E+02 -0.29937954292E+02  0.25549228833E+02  0.93072396779E+02  0.81417048554E+02 0.  0.
        -11    1    5    5    0    0 -0.26355837028E+02  0.78784776363E+01  0.30341415543E+01  0.27675017078E+02  0.00000000000E+00 0.  1.
         12    1    5    5    0    0  0.48371537010E+02 -0.37816431928E+02  0.22515087278E+02  0.65397379700E+02  0.00000000000E+00 0. -1.
         13    1    4    4    0    0  0.14788914909E+02 -0.52122688861E+01 -0.50784729993E+02  0.53150433221E+02  0.00000000000E+00 0. -1.
        -14    1    4    4    0    0  0.74069936629E+02  0.11771221464E+03 -0.11443784875E+03  0.18010702989E+03  0.00000000000E+00 0.  1.
          5    1    3    3  501    0 -0.22232131156E+02  0.29332986636E+02 -0.14644127078E+02  0.39832331323E+02  0.41800000000E+01 0.  1.
         -5    1    3    3    0  501 -0.88642420363E+02 -0.11189497810E+03 -0.17868032058E+03  0.22874023296E+03  0.41800000000E+01 0.  1.
</event>
<event>
11    1  0.2498402E-009  0.2307981E+03  0.7561462E-02  0.1034656E+00
         22   -1    0    0    0    0  0.00000000000E+00  0.00000000000E+00  0.41673972341E+03  0.41673972341E+03  0.00000000000E+00 0.  1.
         22   -1    0    0    0    0 -0.00000000000E+00 -0.00000000000E+00 -0.10540482110E+04  0.10540482110E+04  0.00000000000E+00 0. -1.
         25    2    1    2    0    0 -0.19776033831E+03 -0.98621590266E+02 -0.70849775123E+03  0.75263188616E+03  0.12510125131E+03 0.  0.
         24    2    1    2    0    0  0.58106301310E+01  0.12988397747E+03 -0.27347172524E+03  0.31400398795E+03  0.83115034246E+02 0.  0.
        -24    2    1    2    0    0  0.19194970818E+03 -0.31262387202E+02  0.34466098890E+03  0.40415206029E+03  0.82010141111E+02 0.  0.
        -11    1    4    4    0    0 -0.35010504619E+02  0.92589281131E+02 -0.17245051255E+03  0.19884086525E+03  0.00000000000E+00 0.  1.
         12    1    4    4    0    0  0.40821134750E+02  0.37294696338E+02 -0.10102121269E+03  0.11516312270E+03  0.00000000000E+00 0. -1.
         13    1    5    5    0    0  0.41693741096E+02 -0.31448797783E+02  0.45030170072E+02  0.68957313936E+02  0.00000000000E+00 0. -1.
        -14    1    5    5    0    0  0.15025596709E+03  0.18641058117E+00  0.29963081882E+03  0.33519474635E+03  0.00000000000E+00 0.  1.
          5    1    3    3  501    0 -0.12867559358E+03 -0.69060130808E+02 -0.61748526780E+03  0.63453308692E+03  0.41800000000E+01 0.  1.
         -5    1    3    3    0  501 -0.69084744729E+02 -0.29561459458E+02 -0.91012483437E+02  0.11809879924E+03  0.41800000000E+01 0.  1.
</event>
<event>
11    1  0.2498402E-009  0.3290285E+03  0.7561462E-02  0.9886029E-01
         22   -1    0    0    0    0  0.00000000000E+00  0.00000000000E+00  0.38131775022E+03  0.38131775022E+03  0.00000000000E+00 0. -1.
         22   -1    0    0    0    0 -0.00000000000E+00 -0.00000000000E+00 -0.11457704400E+04  0.11457704400E+04  0.00000000000E+00 0. -1.
         25    2    1    2    0    0  0.90335840218E+02  0.34294593420E+03 -0.77447276137E+03  0.86094579243E+03  0.12508845503E+03 0.  0.
         24    2    1    2    0    0  0.13639748218E+03 -0.23557520647E+03 -0.18506617964E+03  0.33824647796E+03  0.77853952712E+02 0.  0.
        -24    2    1    2    0    0 -0.22673332240E+03 -0.10737072773E+03  0.19508625119E+03  0.32789591987E+03  0.80750332516E+02 0.  0.
        -13    1    4    4    0    0  0.63747586767E+02 -0.46606291401E+02 -0.69103482602E+02  0.10493422952E+03  0.00000000000E+00 0.  1.
         14    1    4    4    0    0  0.72649895416E+02 -0.18896891507E+03 -0.11596269704E+03  0.23331224844E+03  0.00000000000E+00 0. -1.
         11    1    5    5    0    0 -0.15489372531E+03 -0.90561459016E+02  0.93446877775E+02  0.20230116897E+03  0.00000000000E+00 0. -1.
        -12    1    5    5    0    0 -0.71839597086E+02 -0.16809268713E+02  0.10163937342E+03  0.12559475090E+03  0.00000000000E+00 0.  1.
          5    1    3    3  501    0  0.98853681331E+02  0.13244839485E+03 -0.34517481948E+03  0.38272412521E+03  0.41800000000E+01 0.  1.
         -5    1    3    3    0  501 -0.85178411127E+01  0.21049753935E+03 -0.42929794189E+03  0.47822166722E+03  0.41800000000E+01 0.  1.
</event>
<event>
11    1  0.2498402E-009  0.2309724E+03  0.7561462E-02  0.1034554E+00
         22   -1    0    0    0    0  0.00000000000E+00  0.00000000000E+00  0.29705208097E+03  0.29705208097E+03  0.00000000000E+00 0.  1.
         22   -1    0    0    0    0 -0.00000000000E+00 -0.00000000000E+00 -0.32454495273E+03  0.32454495273E+03  0.00000000000E+00 0.  1.
         25    2    1    2    0    0 -0.18434649380E+03  0.26028931013E+02 -0.16056041117E+03  0.27584233837E+03  0.12509282545E+03 0.  0.
        -24    2    1    2    0    0  0.21612269606E+03 -0.18545530514E+02  0.80174276910E+02  0.24479225395E+03  0.80264415917E+02 0.  0.
         24    2    1    2    0    0 -0.31776202263E+02 -0.74834004994E+01  0.52893262497E+02  0.10096244137E+03  0.79561228223E+02 0.  0.
        -13    1    5    5    0    0 -0.54533443689E+02 -0.18002295538E+02  0.22785500157E+02  0.61783154198E+02  0.00000000000E+00 0.  1.
         14    1    5    5    0    0  0.22757241425E+02  0.10518895039E+02  0.30107762340E+02  0.39179287172E+02  0.00000000000E+00 0. -1.
         11    1    4    4    0    0  0.94974789863E+02 -0.24666252334E+02  0.74776108678E+02  0.12336977402E+03  0.00000000000E+00 0. -1.
        -12    1    4    4    0    0  0.12114790620E+03  0.61207218205E+01  0.53981682319E+01  0.12142247993E+03  0.00000000000E+00 0.  1.
          5    1    3    3  501    0 -0.32683741305E+02  0.56527298478E+02 -0.73010138895E+02  0.98038335361E+02  0.41800000000E+01 0.  1.
         -5    1    3    3    0  501 -0.15166275249E+03 -0.30498367464E+02 -0.87550272272E+02  0.17780400301E+03  0.41800000000E+01 0.  1.
</event>
<event>
11    1  0.2498402E-009  0.1643960E+03  0.7561462E-02  0.1083014E+00
         22   -1    0    0    0    0  0.00000000000E+00  0.00000000000E+00  0.12182729973E+04  0.12182729973E+04  0.00000000000E+00 0. -1.
         22   -1    0    0    0    0 -0.00000000000E+00 -0.00000000000E+00 -0.53184891807E+03  0.53184891807E+03  0.00000000000E+00 0.  1.
         25    2    1    2    0    0 -0.71413048093E+02  0.29179691593E+01 -0.45146749463E+03  0.47389501287E+03  0.12508095992E+03 0.  0.
         24    2    1    2    0    0 -0.29087630948E+02 -0.39682511423E+02 -0.31081383014E+02  0.99656442765E+02  0.80898468635E+02 0.  0.
        -24    2    1    2    0    0  0.10050067904E+03  0.36764542264E+02  0.11689729568E+04  0.11765704597E+04  0.79801345807E+02 0.  0.
        -13    1    4    4    0    0 -0.48437328267E+01  0.24449899365E+02 -0.15483175395E+02  0.29342597823E+02  0.00000000000E+00 0.  1.
         14    1    4    4    0    0 -0.24243898121E+02 -0.64132410788E+02 -0.15598207619E+02  0.70313844942E+02  0.00000000000E+00 0. -1.
         11    1    5    5    0    0  0.77252466828E+02  0.38589819618E+01  0.99461522340E+03  0.99761830275E+03  0.00000000000E+00 0. -1.
        -12    1    5    5    0    0  0.23248212213E+02  0.32905560302E+02  0.17435773344E+03  0.17895215696E+03  0.00000000000E+00 0.  1.
          5    1    3    3  501    0 -0.98724727818E+02 -0.23827753344E+02 -0.37161798889E+03  0.38526839447E+03  0.41800000000E+01 0. -1.
         -5    1    3    3    0  501  0.27311679725E+02  0.26745722503E+02 -0.79849505735E+02  0.88626618393E+02  0.41800000000E+01 0. -1.
</event>
<event>
11    1  0.2498402E-009  0.3984260E+03  0.7561462E-02  0.9654414E-01
         22   -1    0    0    0    0  0.00000000000E+00  0.00000000000E+00  0.20600689755E+04  0.20600689755E+04  0.00000000000E+00 0. -1.
         22   -1    0    0    0    0 -0.00000000000E+00 -0.00000000000E+00 -0.11173328906E+04  0.11173328906E+04  0.00000000000E+00 0. -1.
         25    2    1    2    0    0  0.17371230051E+03  0.88260081767E+02 -0.71364471347E+03  0.75026778242E+03  0.12508862018E+03 0.  0.
        -24    2    1    2    0    0  0.21385058471E+03 -0.17888723383E+03 -0.30674691358E+03  0.42242409325E+03  0.81337141351E+02 0.  0.
         24    2    1    2    0    0 -0.38756288522E+03  0.90627152064E+02  0.19631277119E+04  0.20047099905E+04  0.81076888563E+02 0.  0.
        -13    1    5    5    0    0 -0.77758140345E+02  0.37488170259E+01  0.54548616561E+03  0.55101319303E+03  0.00000000000E+00 0.  1.
         14    1    5    5    0    0 -0.30980474487E+03  0.86878335038E+02  0.14176415463E+04  0.14536967974E+04  0.00000000000E+00 0. -1.
         13    1    4    4    0    0  0.20963566736E+03 -0.14900221560E+03 -0.29104938492E+03  0.38840509490E+03  0.00000000000E+00 0. -1.
        -14    1    4    4    0    0  0.42149173546E+01 -0.29885018232E+02 -0.15697528654E+02  0.34018998352E+02  0.00000000000E+00 0.  1.
          5    1    3    3  501    0  0.40028197792E+02 -0.22436775352E+02 -0.71455366149E+02  0.85023568839E+02  0.41800000000E+01 0.  1.
         -5    1    3    3    0  501  0.13368410271E+03  0.11069685712E+03 -0.64218934732E+03  0.66524421358E+03  0.41800000000E+01 0.  1.
</event>
<event>
11    1  0.2498402E-009  0.3160806E+03  0.7561462E-02  0.9936062E-01
         22   -1    0    0    0    0  0.00000000000E+00  0.00000000000E+00  0.10848171573E+04  0.10848171573E+04  0.00000000000E+00 0. -1.
         22   -1    0    0    0    0 -0.00000000000E+00 -0.00000000000E+00 -0.43758263277E+03  0.43758263277E+03  0.00000000000E+00 0.  1.
         25    2    1    2    0    0  0.26514659952E+03 -0.62975393720E+02 -0.15920155625E+03  0.33950185096E+03  0.12509097427E+03 0.  0.
        -24    2    1    2    0    0 -0.34890597466E+03 -0.13016739849E+03  0.38889910127E+02  0.38290142404E+03  0.80138284466E+02 0.  0.
         24    2    1    2    0    0  0.83759375146E+02  0.19314279221E+03  0.76754617070E+03  0.79999651511E+03  0.80916802516E+02 0.  0.
        -13    1    5    5    0    0 -0.10236684461E+02  0.30695403728E+02  0.18956979082E+03  0.19231147421E+03  0.00000000000E+00 0.  1.
         14    1    5    5    0    0  0.93996059607E+02  0.16244738848E+03  0.57797637988E+03  0.60768504091E+03  0.00000000000E+00 0. -1.
         11    1    4    4    0    0 -0.19511608133E+03 -0.67559447032E+02  0.61208893683E+02  0.21536270044E+03  0.00000000000E+00 0. -1.
        -12    1    4    4    0    0 -0.15378989334E+03 -0.62607951454E+02 -0.22318983556E+02  0.16753872360E+03  0.00000000000E+00 0.  1.
          5    1    3    3  501    0  0.25183996383E+03 -0.52271768526E+02 -0.17872074635E+03  0.31323199508E+03  0.41800000000E+01 0.  1.
         -5    1    3    3    0  501  0.13306635688E+02 -0.10703625194E+02  0.19519190103E+02  0.26269855879E+02  0.41800000000E+01 0.  1.
</event>
<event>
11    1  0.2498402E-009  0.6923739E+03  0.7561462E-02  0.9043619E-01
         22   -1    0    0    0    0  0.00000000000E+00  0.00000000000E+00  0.20761006781E+03  0.20761006781E+03  0.00000000000E+00 0. -1.
         22   -1    0    0    0    0 -0.00000000000E+00 -0.00000000000E+00 -0.57726205298E+03  0.57726205298E+03  0.00000000000E+00 0.  1.
         25    2    1    2    0    0 -0.76650891012E+02  0.13051044621E+03 -0.45888267894E+03  0.49912535429E+03  0.12507785815E+03 0.  0.
         24    2    1    2    0    0  0.13823248517E+02 -0.10650053621E+02 -0.30925164056E+02  0.88082069035E+02  0.80607563366E+02 0.  0.
        -24    2    1    2    0    0  0.62827642495E+02 -0.11986039258E+03  0.12015585783E+03  0.19766469746E+03  0.79498906161E+02 0.  0.
        -11    1    4    4    0    0 -0.77316243314E+01 -0.39894895432E+02 -0.41379019328E+00  0.40639290332E+02  0.00000000000E+00 0.  1.
         12    1    4    4    0    0  0.21554872848E+02  0.29244841812E+02 -0.30511373862E+02  0.47442778703E+02  0.00000000000E+00 0. -1.
         13    1    5    5    0    0  0.68349185500E+02 -0.99602461425E+02  0.12729364310E+03  0.17548770058E+03  0.00000000000E+00 0. -1.
        -14    1    5    5    0    0 -0.55215430046E+01 -0.20257931160E+02 -0.71377852776E+01  0.22176996882E+02  0.00000000000E+00 0.  1.
          5    1    3    3  501    0  0.10870825179E+01  0.75663319311E+02 -0.87642375107E+02  0.11586534405E+03  0.41800000000E+01 0.  1.
         -5    1    3    3    0  501 -0.77737973530E+02  0.54847126894E+02 -0.37124030383E+03  0.38326001024E+03  0.41800000000E+01 0.  1.
</event>
<event>
11    1  0.2498402E-009  0.1974871E+03  0.7561462E-02  0.1056315E+00
         22   -1    0    0    0    0  0.00000000000E+00  0.00000000000E+00  0.38500408088E+03  0.38500408088E+03  0.00000000000E+00 0.  1.
         22   -1    0    0    0    0 -0.00000000000E+00 -0.00000000000E+00 -0.25818264452E+03  0.25818264452E+03  0.00000000000E+00 0.  1.
         25    2    1    2    0    0  0.47856292583E+01  0.13193860452E+03 -0.85559553646E+02  0.20100587033E+03  0.12510885291E+03 0.  0.
         24    2    1    2    0    0 -0.12110553673E+03 -0.13897577510E+02 -0.14300128832E+02  0.15003975154E+03  0.86300287779E+02 0.  0.
        -24    2    1    2    0    0  0.11631990747E+03 -0.11804102701E+03  0.22668111885E+03  0.29214110352E+03  0.80610730008E+02 0.  0.
        -11    1    4    4    0    0 -0.93391658455E+02  0.16938421814E+02  0.19078010309E+02  0.96813648210E+02  0.00000000000E+00 0.  1.
         12    1    4    4    0    0 -0.27713878277E+02 -0.30835999324E+02 -0.33378139141E+02  0.53226103333E+02  0.00000000000E+00 0. -1.
         13    1    5    5    0    0  0.86030532857E+01 -0.39225356404E+02  0.10148489759E+03  0.10914131001E+03  0.00000000000E+00 0. -1.
        -14    1    5    5    0    0  0.10771685419E+03 -0.78815670610E+02  0.12519622125E+03  0.18299979351E+03  0.00000000000E+00 0.  1.
          5    1    3    3  501    0 -0.18799644943E+02  0.12907721521E+03 -0.21126316393E+02  0.13220494613E+03  0.41800000000E+01 0.  1.
         -5    1    3    3    0  501  0.23585274202E+02  0.28613893091E+01 -0.64433237253E+02  0.68800924201E+02  0.41800000000E+01 0.  1.
</event>
<event>
11    1  0.2498402E-009  0.4279607E+04  0.7561462E-02  0.7488744E-01
         22   -1    0    0    0    0  0.00000000000E+00  0.00000000000E+00  0.24106893460E+04  0.24106893460E+04  0.00000000000E+00 0. -1.
         22   -1    0    0    0    0 -0.00000000000E+00 -0.00000000000E+00 -0.18993563810E+04  0.18993563810E+04  0.00000000000E+00 0. -1.
         25    2    1    2    0    0  0.16927691534E+04  0.20133869023E+03 -0.91508471651E+03  0.19388223841E+04  0.12509006288E+03 0.  0.
         24    2    1    2    0    0 -0.81652380984E+03 -0.36809113895E+03  0.33479777650E+03  0.95916730202E+03  0.75565491558E+02 0.  0.
        -24    2    1    2    0    0 -0.87624534355E+03  0.16675244872E+03  0.10916199049E+04  0.14120560409E+04  0.81584094990E+02 0.  0.
        -13    1    4    4    0    0 -0.74226264789E+03 -0.34803386101E+03  0.32392286327E+03  0.88148024834E+03  0.00000000000E+00 0.  1.
         14    1    4    4    0    0 -0.74261161947E+02 -0.20057277936E+02  0.10874913229E+02  0.77687053681E+02  0.00000000000E+00 0. -1.
         13    1    5    5    0    0 -0.28287011340E+03  0.25627590674E+02  0.30664194052E+03  0.41797315003E+03  0.00000000000E+00 0. -1.
        -14    1    5    5    0    0 -0.59337523015E+03  0.14112485804E+03  0.78497796442E+03  0.99408289088E+03  0.00000000000E+00 0.  1.
          5    1    3    3  501    0  0.71870245237E+03  0.99975498588E+02 -0.32173529250E+03  0.79376280223E+03  0.41800000000E+01 0.  1.
         -5    1    3    3    0  501  0.97406670102E+03  0.10136319164E+03 -0.59334942401E+03  0.11450595819E+04  0.41800000000E+01 0.  1.
</event>
<event>
11    1  0.2498402E-009  0.1636683E+03  0.7561462E-02  0.1083677E+00
         22   -1    0    0    0    0  0.00000000000E+00  0.00000000000E+00  0.83709533020E+02  0.83709533020E+02  0.00000000000E+00 0. -1.
         22   -1    0    0    0    0 -0.00000000000E+00 -0.00000000000E+00 -0.10233004811E+04  0.10233004811E+04  0.00000000000E+00 0. -1.
         25    2    1    2    0    0  0.10179063307E+03  0.26045797125E+02 -0.64953130582E+03  0.66975950678E+03  0.12508862121E+03 0.  0.
         24    2    1    2    0    0 -0.11625543031E+03  0.95253577218E+02 -0.21313449014E+03  0.27294688045E+03  0.80530240346E+02 0.  0.
        -24    2    1    2    0    0  0.14464797241E+02 -0.12129937434E+03 -0.76925152175E+02  0.16430362694E+03  0.78456575336E+02 0.  0.
        -11    1    4    4    0    0 -0.79623698150E+02  0.27061837798E+02 -0.15425805015E+03  0.17569240851E+03  0.00000000000E+00 0.  1.
         12    1    4    4    0    0 -0.36631732164E+02  0.68191739420E+02 -0.58876439989E+02  0.97254471940E+02  0.00000000000E+00 0. -1.
         13    1    5    5    0    0 -0.21838200640E+02 -0.10053816031E+03 -0.60644547534E+02  0.11942608522E+03  0.00000000000E+00 0. -1.
        -14    1    5    5    0    0  0.36302997881E+02 -0.20761214032E+02 -0.16280604640E+02  0.44877541718E+02  0.00000000000E+00 0.  1.
          5    1    3    3  501    0  0.86164109782E+02  0.32733103713E+02 -0.20412466426E+03  0.22400906422E+03  0.41800000000E+01 0.  1.
         -5    1    3    3    0  501  0.15626523291E+02 -0.66873065883E+01 -0.44540664156E+03  0.44575044256E+03  0.41800000000E+01 0.  1.
</event>
<event>
11    1  0.2498402E-009  0.1756289E+04  0.7561462E-02  0.8174952E-01
         22   -1    0    0    0    0  0.00000000000E+00  0.00000000000E+00  0.86936833259E+03  0.86936833259E+03  0.00000000000E+00 0. -1.
         22   -1    0    0    0    0 -0.00000000000E+00 -0.00000000000E+00 -0.88700947380E+03  0.88700947380E+03  0.00000000000E+00 0. -1.
         25    2    1    2    0    0 -0.11926830955E+01 -0.82726557820E+03 -0.13211397677E+03  0.84703725619E+03  0.12509297000E+03 0.  0.
        -24    2    1    2    0    0  0.12295225335E+03  0.66669734377E+03  0.62200433211E+02  0.68567999462E+03  0.81765251429E+02 0.  0.
         24    2    1    2    0    0 -0.12175957026E+03  0.16056823444E+03  0.52272402347E+02  0.22366055558E+03  0.81756279385E+02 0.  0.
        -11    1    5    5    0    0 -0.41190016682E+02  0.74071110401E+02 -0.17295861284E+02  0.86500252530E+02  0.00000000000E+00 0.  1.
         12    1    5    5    0    0 -0.80569553573E+02  0.86497124035E+02  0.69568263631E+02  0.13716030305E+03  0.00000000000E+00 0. -1.
         11    1    4    4    0    0  0.45389492519E+02  0.90263574811E+02  0.34568279732E+01  0.10109237671E+03  0.00000000000E+00 0. -1.
        -12    1    4    4    0    0  0.77562760832E+02  0.57643376896E+03  0.58743605238E+02  0.58458761792E+03  0.00000000000E+00 0.  1.
          5    1    3    3  501    0 -0.50208366646E+02 -0.29621476137E+03 -0.14027613214E+02  0.30079612908E+03  0.41800000000E+01 0. -1.
         -5    1    3    3    0  501  0.49015683550E+02 -0.53105081683E+03 -0.11808636355E+03  0.54624112712E+03  0.41800000000E+01 0. -1.
</event>
<event>
11    1  0.2498402E-009  0.4099733E+03  0.7561462E-02  0.9620781E-01
         22   -1    0    0    0    0  0.00000000000E+00  0.00000000000E+00  0.44036046089E+03  0.44036046089E+03  0.00000000000E+00 0.  1.
         22   -1    0    0    0    0 -0.00000000000E+00 -0.00000000000E+00 -0.14276718003E+04  0.14276718003E+04  0.00000000000E+00 0. -1.
         25    2    1    2    0    0 -0.19546767533E+03  0.10141888254E+03 -0.54215700619E+03  0.59839389319E+03  0.12509048810E+03 0.  0.
         24    2    1    2    0    0  0.66532903065E+02 -0.47582547843E+03 -0.65332900263E+03  0.81503209404E+03  0.81252787733E+02 0.  0.
        -24    2    1    2    0    0  0.12893477226E+03  0.37440659589E+03  0.20817466947E+03  0.45460627391E+03  0.80781784614E+02 0.  0.
        -11    1    4    4    0    0  0.57548337993E+02 -0.47474815580E+03 -0.64072746870E+03  0.79951817477E+03  0.00000000000E+00 0.  1.
         12    1    4    4    0    0  0.89845650719E+01 -0.10773226332E+01 -0.12601533931E+02  0.15513919267E+02  0.00000000000E+00 0. -1.
         11    1    5    5    0    0  0.79508625207E+02  0.16058930381E+03  0.56700821708E+02  0.18795086901E+03  0.00000000000E+00 0. -1.
        -12    1    5    5    0    0  0.49426147058E+02  0.21381729208E+03  0.15147384776E+03  0.26665540490E+03  0.00000000000E+00 0.  1.
          5    1    3    3  501    0  0.18722402879E+01  0.29738005422E+02 -0.15556799239E+03  0.15845102368E+03  0.41800000000E+01 0. -1.
         -5    1    3    3    0  501 -0.19733991562E+03  0.71680877116E+02 -0.38658901381E+03  0.43994286951E+03  0.41800000000E+01 0. -1.
</event>
<event>
11    1  0.2498402E-009  0.1851613E+03  0.7561462E-02  0.1065543E+00
         22   -1    0    0    0    0  0.00000000000E+00  0.00000000000E+00  0.69125914524E+03  0.69125914524E+03  0.00000000000E+00 0.  1.
         22   -1    0    0    0    0 -0.00000000000E+00 -0.00000000000E+00 -0.83819380245E+03  0.83819380245E+03  0.00000000000E+00 0. -1.
         25    2    1    2    0    0  0.10949538405E+03 -0.63408428221E+02 -0.75874103736E+03  0.77932394533E+03  0.12509189457E+03 0.  0.
        -24    2    1    2    0    0 -0.17983078931E+02 -0.38168316253E+02 -0.23702305570E+02  0.95116683225E+02  0.81885118581E+02 0.  0.
         24    2    1    2    0    0 -0.91512305120E+02  0.10157674447E+03  0.63550868572E+03  0.65501231915E+03  0.80482989500E+02 0.  0.
        -11    1    5    5    0    0 -0.34128255357E+02  0.36253508472E+02  0.41506788209E+03  0.41804354012E+03  0.00000000000E+00 0.  1.
         12    1    5    5    0    0 -0.57384049762E+02  0.65323236003E+02  0.22044080363E+03  0.23696877903E+03  0.00000000000E+00 0. -1.
         11    1    4    4    0    0  0.29262769171E+02 -0.33462878764E+02 -0.84637671544E+01  0.45251621730E+02  0.00000000000E+00 0. -1.
        -12    1    4    4    0    0 -0.47245848102E+02 -0.47054374892E+01 -0.15238538416E+02  0.49865061495E+02  0.00000000000E+00 0.  1.
          5    1    3    3  501    0  0.11236631978E+03  0.38685198501E+00 -0.43346270078E+03  0.44780992044E+03  0.41800000000E+01 0.  1.
         -5    1    3    3    0  501 -0.28709357314E+01 -0.63795280206E+02 -0.32527833658E+03  0.33151402489E+03  0.41800000000E+01 0.  1.
</event>
<event>
11    1  0.2498402E-009  0.3060981E+03  0.7561462E-02  0.9976429E-01
         22   -1    0    0    0    0  0.00000000000E+00  0.00000000000E+00  0.26340988349E+04  0.26340988349E+04  0.00000000000E+00 0.  1.
         22   -1    0    0    0    0 -0.00000000000E+00 -0.00000000000E+00 -0.13352194762E+03  0.13352194762E+03  0.00000000000E+00 0.  1.
         25    2    1    2    0    0  0.13694671737E+03  0.26040548703E+03  0.19385205353E+03  0.37388680933E+03  0.12508919401E+03 0.  0.
        -24    2    1    2    0    0  0.10979116138E+03 -0.29589669298E+03  0.78756210306E+03  0.85213729834E+03  0.79214626261E+02 0.  0.
         24    2    1    2    0    0 -0.24673787874E+03  0.35491205945E+02  0.15191627307E+04  0.15415966748E+04  0.80781799385E+02 0.  0.
        -13    1    5    5    0    0 -0.18251347228E+03  0.20517629016E+02  0.87504294176E+03  0.89410977546E+03  0.00000000000E+00 0.  1.
         14    1    5    5    0    0 -0.64224406468E+02  0.14973576929E+02  0.64411978892E+03  0.64748689938E+03  0.00000000000E+00 0. -1.
         13    1    4    4    0    0  0.16355041497E+02 -0.40409891668E+02  0.19941310101E+03  0.20412258959E+03  0.00000000000E+00 0. -1.
        -14    1    4    4    0    0  0.93436119880E+02 -0.25548680131E+03  0.58814900205E+03  0.64801470875E+03  0.00000000000E+00 0.  1.
          5    1    3    3  501    0  0.14905050538E+03  0.26444986923E+03  0.17399848710E+03  0.34991817958E+03  0.41800000000E+01 0. -1.
         -5    1    3    3    0  501 -0.12103788012E+02 -0.40443822004E+01  0.19853566438E+02  0.23968629746E+02  0.41800000000E+01 0. -1.
</event>
<event>
11    1  0.2498402E-009  0.7010955E+03  0.7561462E-02  0.9030692E-01
         22   -1    0    0    0    0  0.00000000000E+00  0.00000000000E+00  0.59242281124E+03  0.59242281124E+03  0.00000000000E+00 0. -1.
         22   -1    0    0    0    0 -0.00000000000E+00 -0.00000000000E+00 -0.21156775316E+04  0.21156775316E+04  0.00000000000E+00 0. -1.
         25    2    1    2    0    0 -0.63773971035E+03 -0.26599794542E+03 -0.14942504620E+04  0.16510299085E+04  0.12509384624E+03 0.  0.
        -24    2    1    2    0    0  0.69897937863E+03  0.91354181537E+02 -0.25537576850E+03  0.75406611546E+03  0.80505683680E+02 0.  0.
         24    2    1    2    0    0 -0.61239668286E+02  0.17464376388E+03  0.22637151020E+03  0.30300431886E+03  0.79478395709E+02 0.  0.
        -13    1    5    5    0    0 -0.14121519533E+02  0.17952741155E+01  0.48501920096E+02  0.50547765293E+02  0.00000000000E+00 0.  1.
         14    1    5    5    0    0 -0.47118148753E+02  0.17284848977E+03  0.17786959010E+03  0.25245655357E+03  0.00000000000E+00 0. -1.
         13    1    4    4    0    0  0.59987915045E+03  0.63810147965E+02 -0.19123355291E+03  0.63284832456E+03  0.00000000000E+00 0. -1.
        -14    1    4    4    0    0  0.99100228178E+02  0.27544033572E+02 -0.64142215588E+02  0.12121779090E+03  0.00000000000E+00 0.  1.
          5    1    3    3  501    0 -0.63046594499E+03 -0.27660628537E+03 -0.14594793599E+04  0.16137211095E+04  0.41800000000E+01 0.  1.
         -5    1    3    3    0  501 -0.72737653532E+01  0.10608339946E+02 -0.34771102167E+02  0.37308799025E+02  0.41800000000E+01 0.  1.
</event>
<event>
11    1  0.2498402E-009  0.2799470E+03  0.7561462E-02  0.1009054E+00
         22   -1    0    0    0    0  0.00000000000E+00  0.00000000000E+00  0.16647312826E+04  0.16647312826E+04  0.00000000000E+00 0.  1.
         22   -1    0    0    0    0 -0.00000000000E+00 -0.00000000000E+00 -0.27183994569E+03  0.27183994569E+03  0.00000000000E+00 0.  1.
         25    2    1    2    0    0 -0.90079311925E+02 -0.10945901111E+03  0.84597330283E+01  0.18924953081E+03  0.12509300651E+03 0.  0.
         24    2    1    2    0    0 -0.18443794568E+03  0.10027186201E+03 -0.92061813671E+02  0.24326156446E+03  0.81418726895E+02 0.  0.
        -24    2    1    2    0    0  0.27451725761E+03  0.91871491040E+01  0.14764934176E+04  0.15040601330E+04  0.81975259894E+02 0.  0.
        -11    1    4    4    0    0 -0.16531621013E+03  0.75846773368E+02 -0.45800524124E+02  0.18756297708E+03  0.00000000000E+00 0.  1.
         12    1    4    4    0    0 -0.19121735558E+02  0.24425088637E+02 -0.46261289548E+02  0.55698587382E+02  0.00000000000E+00 0. -1.
         13    1    5    5    0    0  0.15663807414E+02 -0.75657052968E+01  0.31638423657E+02  0.36105188143E+02  0.00000000000E+00 0. -1.
        -14    1    5    5    0    0  0.25885345019E+03  0.16752854401E+02  0.14448549939E+04  0.14679549449E+04  0.00000000000E+00 0.  1.
          5    1    3    3  501    0  0.25994044134E+02 -0.52653760060E+02  0.11199232719E+02  0.59924986378E+02  0.41800000000E+01 0.  1.
         -5    1    3    3    0  501 -0.11607335606E+03 -0.56805251049E+02 -0.27394996905E+01  0.12932454443E+03  0.41800000000E+01 0.  1.
</event>
<event>
11    1  0.2498402E-009  0.1471811E+03  0.7561462E-02  0.1099794E+00
         22   -1    0    0    0    0  0.00000000000E+00  0.00000000000E+00  0.27859279303E+02  0.27859279303E+02  0.00000000000E+00 0.  1.
         22   -1    0    0    0    0 -0.00000000000E+00 -0.00000000000E+00 -0.14857059334E+04  0.14857059334E+04  0.00000000000E+00 0.  1.
         25    2    1    2    0    0  0.58249605180E+02  0.49450589222E+02 -0.10433974631E+04  0.10536435518E+04  0.12509232935E+03 0.  0.
        -24    2    1    2    0    0 -0.64684963227E+02 -0.48891528341E+02 -0.19925890983E+03  0.23009011957E+03  0.81626123049E+02 0.  0.
         24    2    1    2    0    0  0.64353580463E+01 -0.55906088117E+00 -0.21519028113E+03  0.22983154135E+03  0.80460884438E+02 0.  0.
        -13    1    5    5    0    0 -0.50348593566E+01  0.29277181287E+02 -0.31182554536E+02  0.43068025962E+02  0.00000000000E+00 0.  1.
         14    1    5    5    0    0  0.11470217403E+02 -0.29836242168E+02 -0.18400772660E+03  0.18676351539E+03  0.00000000000E+00 0. -1.
         11    1    4    4    0    0  0.13619382598E+01  0.12172859404E+02 -0.78833103681E+02  0.79779017403E+02  0.00000000000E+00 0. -1.
        -12    1    4    4    0    0 -0.66046901486E+02 -0.61064387745E+02 -0.12042580615E+03  0.15031110216E+03  0.00000000000E+00 0.  1.
          5    1    3    3  501    0  0.48203799093E+02  0.67912404222E+02 -0.10131417476E+04  0.10165674469E+04  0.41800000000E+01 0.  1.
         -5    1    3    3    0  501  0.10045806087E+02 -0.18461814999E+02 -0.30255715497E+02  0.37076104882E+02  0.41800000000E+01 0.  1.
</event>
<event>
11    1  0.2498402E-009  0.1968536E+03  0.7561462E-02  0.1056771E+00
         22   -1    0    0    0    0  0.00000000000E+00  0.00000000000E+00  0.12895913848E+04  0.12895913848E+04  0.00000000000E+00 0.  1.
         22   -1    0    0    0    0 -0.00000000000E+00 -0.00000000000E+00 -0.74117897451E+02  0.74117897451E+02  0.00000000000E+00 0. -1.
         25    2    1    2    0    0 -0.40964304116E+02  0.13881805409E+03  0.13297029031E+03  0.23297327969E+03  0.12508766762E+03 0.  0.
        -24    2    1    2    0    0 -0.66618480781E+02  0.21765255178E+02  0.22923762848E+03  0.25232041049E+03  0.78765163136E+02 0.  0.
         24    2    1    2    0    0  0.10758278490E+03 -0.16058330926E+03  0.85326556860E+03  0.87841559211E+03  0.78681427892E+02 0.  0.
        -11    1    5    5    0    0  0.74275308449E+02 -0.15001908163E+03  0.77225896682E+03  0.79019393704E+03  0.00000000000E+00 0.  1.
         12    1    5    5    0    0  0.33307476447E+02 -0.10564227633E+02  0.81006601777E+02  0.88221655075E+02  0.00000000000E+00 0. -1.
         11    1    4    4    0    0 -0.68617760822E+02  0.27535755747E+02  0.10774069638E+03  0.13067009069E+03  0.00000000000E+00 0. -1.
        -12    1    4    4    0    0  0.19992800412E+01 -0.57705005696E+01  0.12149693209E+03  0.12165031979E+03  0.00000000000E+00 0.  1.
          5    1    3    3  501    0  0.27289783752E+02  0.10589076659E+03  0.10620773237E+03  0.15249636573E+03  0.41800000000E+01 0. -1.
         -5    1    3    3    0  501 -0.68254087868E+02  0.32927287496E+02  0.26762557945E+02  0.80476913959E+02  0.41800000000E+01 0. -1.
</event>
<event>
11    1  0.2498402E-009  0.1884530E+03  0.7561462E-02  0.1063003E+00
         22   -1    0    0    0    0  0.00000000000E+00  0.00000000000E+00  0.38010320591E+03  0.38010320591E+03  0.00000000000E+00 0. -1.
         22   -1    0    0    0    0 -0.00000000000E+00 -0.00000000000E+00 -0.17785290734E+03  0.17785290734E+03  0.00000000000E+00 0.  1.
         25    2    1    2    0    0 -0.19197150359E+02 -0.29296186818E+02  0.23893424978E+01  0.12990943429E+03  0.12507579709E+03 0.  0.
        -24    2    1    2    0    0 -0.10315505829E+03  0.14212080011E+03  0.10943522373E+03  0.22211313474E+03  0.80739634353E+02 0.  0.
         24    2    1    2    0    0  0.12235220865E+03 -0.11282461329E+03  0.90425732350E+02  0.20593354422E+03  0.80822987067E+02 0.  0.
        -13    1    5    5    0    0  0.10252023433E+03 -0.74211660641E+02  0.27543421238E+02  0.12952377803E+03  0.00000000000E+00 0.  1.
         14    1    5    5    0    0  0.19831974314E+02 -0.38612952650E+02  0.62882311112E+02  0.76409766184E+02  0.00000000000E+00 0. -1.
         11    1    4    4    0    0 -0.92179410706E+01  0.79279834523E+02  0.52802853973E+02  0.95699550612E+02  0.00000000000E+00 0. -1.
        -12    1    4    4    0    0 -0.93937117217E+02  0.62840965586E+02  0.56632369755E+02  0.12641358412E+03  0.00000000000E+00 0.  1.
          5    1    3    3  501    0 -0.82325570503E+01 -0.43406525138E+02  0.57034146320E+02  0.72265259057E+02  0.41800000000E+01 0. -1.
         -5    1    3    3    0  501 -0.10964593309E+02  0.14110338320E+02 -0.54644803822E+02  0.57644175237E+02  0.41800000000E+01 0. -1.
</event>
<event>
11    1  0.2498402E-009  0.1424294E+04  0.7561462E-02  0.8355374E-01
         22   -1    0    0    0    0  0.00000000000E+00  0.00000000000E+00  0.27641475962E+03  0.27641475962E+03  0.00000000000E+00 0.  1.
         22   -1    0    0    0    0 -0.00000000000E+00 -0.00000000000E+00 -0.18347556679E+04  0.18347556679E+04  0.00000000000E+00 0.  1.
         25    2    1    2    0    0  0.21838663739E+03 -0.28926104189E+03 -0.16465206631E+04  0.16905743952E+04  0.12508724177E+03 0.  0.
        -24    2    1    2    0    0 -0.15754617643E+03  0.14515177535E+03  0.14252865689E+02  0.22977714321E+03  0.81881351777E+02 0.  0.
         24    2    1    2    0    0 -0.60840460966E+02  0.14410926654E+03  0.73926889053E+02  0.19081888916E+03  0.80483670018E+02 0.  0.
        -11    1    5    5    0    0 -0.43046750063E+02  0.15075828448E+03  0.68238943439E+02  0.17099016473E+03  0.00000000000E+00 0.  1.
         12    1    5    5    0    0 -0.17793710903E+02 -0.66490179393E+01  0.56879456144E+01  0.19828724431E+02  0.00000000000E+00 0. -1.
         11    1    4    4    0    0 -0.51350860806E+02  0.10295334098E+03  0.59146709437E+01  0.11520106188E+03  0.00000000000E+00 0. -1.
        -12    1    4    4    0    0 -0.10619531562E+03  0.42198434367E+02  0.83381947450E+01  0.11457608134E+03  0.00000000000E+00 0.  1.
          5    1    3    3  501    0  0.16079768150E+03 -0.12912433120E+03 -0.10584567786E+04  0.10783678462E+04  0.41800000000E+01 0. -1.
         -5    1    3    3    0  501  0.57588955891E+02 -0.16013671069E+03 -0.58806388451E+03  0.61220654898E+03  0.41800000000E+01 0. -1.
</event>
<event>
11    1  0.2498402E-009  0.7640635E+03  0.7561462E-02  0.8942882E-01
         22   -1    0    0    0    0  0.00000000000E+00  0.00000000000E+00  0.16938912712E+04  0.16938912712E+04  0.00000000000E+00 0.  1.
         22   -1    0    0    0    0 -0.00000000000E+00 -0.00000000000E+00 -0.87187846580E+03  0.87187846580E+03  0.00000000000E+00 0.  1.
         25    2    1    2    0    0  0.35154381057E+03 -0.10235241037E+03 -0.30961303637E+03  0.49554727768E+03  0.12509118862E+03 0.  0.
        -24    2    1    2    0    0 -0.38149486473E+03 -0.67666800667E+03  0.10108818263E+04  0.12772914884E+04  0.78571983012E+02 0.  0.
         24    2    1    2    0    0  0.29951054161E+02  0.77902041704E+03  0.12074401544E+03  0.79293097089E+03  0.79940800106E+02 0.  0.
        -11    1    5    5    0    0  0.35294412815E+02  0.68297571047E+03  0.80314504687E+02  0.68858691269E+03  0.00000000000E+00 0.  1.
         12    1    5    5    0    0 -0.53433586542E+01  0.96044706577E+02  0.40429510748E+02  0.10434405820E+03  0.00000000000E+00 0. -1.
         13    1    4    4    0    0 -0.85822737901E+02 -0.17756050400E+03  0.31082440077E+03  0.36811015068E+03  0.00000000000E+00 0. -1.
        -14    1    4    4    0    0 -0.29567212683E+03 -0.49910750268E+03  0.70005742558E+03  0.90918133775E+03  0.00000000000E+00 0.  1.
          5    1    3    3  501    0  0.29296918351E+02 -0.18557696504E+02  0.74902145637E+01  0.35724966600E+02  0.41800000000E+01 0. -1.
         -5    1    3    3    0  501  0.32224689222E+03 -0.83794713868E+02 -0.31710325093E+03  0.45982231108E+03  0.41800000000E+01 0. -1.
</event>
<event>
11    1  0.2498402E-009  0.1724431E+03  0.7561462E-02  0.1075925E+00
         22   -1    0    0    0    0  0.00000000000E+00  0.00000000000E+00  0.44795020641E+03  0.44795020641E+03  0.00000000000E+00 0. -1.
         22   -1    0    0    0    0 -0.00000000000E+00 -0.00000000000E+00 -0.17730803759E+03  0.17730803759E+03  0.00000000000E+00 0.  1.
         25    2    1    2    0    0  0.42213182507E+02 -0.11776895661E+03 -0.40295788339E+02  0.18145210996E+03  0.12509851212E+03 0.  0.
        -24    2    1    2    0    0 -0.13346702689E+02  0.11226522178E+03  0.19185350712E+02  0.13987499649E+03  0.80095708159E+02 0.  0.
         24    2    1    2    0    0 -0.28866479818E+02  0.55037348226E+01  0.29175260645E+03  0.30393113756E+03  0.79943656751E+02 0.  0.
        -11    1    5    5    0    0 -0.98696631557E+01  0.29511654579E+01 -0.11829704849E+01  0.10369139190E+02  0.00000000000E+00 0.  1.
         12    1    5    5    0    0 -0.18996816662E+02  0.25525693646E+01  0.29293557693E+03  0.29356199837E+03  0.00000000000E+00 0. -1.
         11    1    4    4    0    0  0.31484391197E+02  0.45546641010E+02 -0.58684453279E+01  0.55679458033E+02  0.00000000000E+00 0. -1.
        -12    1    4    4    0    0 -0.44831093886E+02  0.66718580773E+02  0.25053796040E+02  0.84195538453E+02  0.00000000000E+00 0.  1.
          5    1    3    3  501    0  0.43924700838E+02  0.12417160174E+02 -0.29118567140E+01  0.45929473326E+02  0.41800000000E+01 0. -1.
         -5    1    3    3    0  501 -0.17115183310E+01 -0.13018611678E+03 -0.37383931625E+02  0.13552263664E+03  0.41800000000E+01 0. -1.
</event>
<event>
11    1  0.2498402E-009  0.1394411E+03  0.7561462E-02  0.1108184E+00
         22   -1    0    0    0    0  0.00000000000E+00  0.00000000000E+00  0.64953251232E+03  0.64953251232E+03  0.00000000000E+00 0.  1.
         22   -1    0    0    0    0 -0.00000000000E+00 -0.00000000000E+00 -0.58427128653E+02  0.58427128653E+02  0.00000000000E+00 0.  1.
         25    2    1    2    0    0  0.57389936167E+01 -0.57294412565E+02  0.13003782892E+03  0.18940220076E+03  0.12509105062E+03 0.  0.
        -24    2    1    2    0    0 -0.77978233290E+02 -0.11397569138E+01  0.17847140276E+03  0.21011864890E+03  0.78840986150E+02 0.  0.
         24    2    1    2    0    0  0.72239239673E+02  0.58434169479E+02  0.28259615198E+03  0.30843879131E+03  0.81491367401E+02 0.  0.
        -11    1    5    5    0    0  0.35429091421E+02  0.60665440071E+02  0.10034103472E+03  0.12249016036E+03  0.00000000000E+00 0.  1.
         12    1    5    5    0    0  0.36810148252E+02 -0.22312705924E+01  0.18225511726E+03  0.18594863095E+03  0.00000000000E+00 0. -1.
         11    1    4    4    0    0 -0.98789537042E+01 -0.31006576089E+02  0.30923148732E+02  0.44891453692E+02  0.00000000000E+00 0. -1.
        -12    1    4    4    0    0 -0.68099279586E+02  0.29866819175E+02  0.14754825403E+03  0.16522719521E+03  0.00000000000E+00 0.  1.
          5    1    3    3  501    0 -0.23949641961E+02 -0.61464667050E+02  0.11538377661E+02  0.67097669145E+02  0.41800000000E+01 0. -1.
         -5    1    3    3    0  501  0.29688635577E+02  0.41702544853E+01  0.11849945126E+03  0.12230453162E+03  0.41800000000E+01 0. -1.
</event>
<event>
11    1  0.2498402E-009  0.2148583E+03  0.7561462E-02  0.1044487E+00
         22   -1    0    0    0    0  0.00000000000E+00  0.00000000000E+00  0.72489178372E+03  0.72489178372E+03  0.00000000000E+00 0. -1.
         22   -1    0    0    0    0 -0.00000000000E+00 -0.00000000000E+00 -0.33998740312E+03  0.33998740312E+03  0.00000000000E+00 0. -1.
         25    2    1    2    0    0  0.84261740285E+02  0.13298239715E+03 -0.24207546495E+03  0.31469275086E+03  0.12508652161E+03 0.  0.
        -24    2    1    2    0    0  0.80498573626E+02 -0.67400829067E+02  0.51297979003E+02  0.14247476860E+03  0.81514936812E+02 0.  0.
         24    2    1    2    0    0 -0.16476031391E+03 -0.65581568081E+02  0.57568186655E+03  0.60771166737E+03  0.80355186968E+02 0.  0.
        -11    1    5    5    0    0 -0.90563410328E+02  0.64437774865E+01  0.24772600302E+03  0.26383977360E+03  0.00000000000E+00 0.  1.
         12    1    5    5    0    0 -0.74196903583E+02 -0.72025345568E+02  0.32795586353E+03  0.34387189378E+03  0.00000000000E+00 0. -1.
         13    1    4    4    0    0  0.87914714226E+02 -0.44530863528E+02  0.16109992153E+02  0.99857531669E+02  0.00000000000E+00 0. -1.
        -14    1    4    4    0    0 -0.74161405998E+01 -0.22869965540E+02  0.35187986849E+02  0.42617236932E+02  0.00000000000E+00 0.  1.
          5    1    3    3  501    0  0.90663736400E+02  0.27543117061E+02 -0.10331562614E+03  0.14025023137E+03  0.41800000000E+01 0. -1.
         -5    1    3    3    0  501 -0.64019961148E+01  0.10543928009E+03 -0.13875983881E+03  0.17444251949E+03  0.41800000000E+01 0. -1.
</event>
<event>
11    1  0.2498402E-009  0.1618503E+03  0.7561462E-02  0.1085350E+00
         22   -1    0    0    0    0  0.00000000000E+00  0.00000000000E+00  0.59952149151E+02  0.59952149151E+02  0.00000000000E+00 0.  1.
         22   -1    0    0    0    0 -0.00000000000E+00 -0.00000000000E+00 -0.15099277402E+04  0.15099277402E+04  0.00000000000E+00 0. -1.
         25    2    1    2    0    0  0.11466326795E+03 -0.18717261752E+02 -0.83085774014E+03  0.84821565310E+03  0.12508880410E+03 0.  0.
        -24    2    1    2    0    0 -0.91302484026E+02  0.19599825339E+02 -0.62604962304E+03  0.63812633509E+03  0.80912250532E+02 0.  0.
         24    2    1    2    0    0 -0.23360783923E+02 -0.88256358709E+00  0.69317721146E+01  0.83537901175E+02  0.79900102154E+02 0.  0.
        -11    1    5    5    0    0 -0.31527957137E+02  0.24346637277E+01  0.39040886272E+02  0.50240725209E+02  0.00000000000E+00 0.  1.
         12    1    5    5    0    0  0.81671732142E+01 -0.33172273148E+01 -0.32109114157E+02  0.33297175966E+02  0.00000000000E+00 0. -1.
         13    1    4    4    0    0 -0.83322432233E+02  0.37877750454E+02 -0.58881960952E+03  0.59589083249E+03  0.00000000000E+00 0. -1.
        -14    1    4    4    0    0 -0.79800517926E+01 -0.18277925115E+02 -0.37230013519E+02  0.42235502599E+02  0.00000000000E+00 0.  1.
          5    1    3    3  501    0  0.41936474176E+02 -0.35697426849E+02 -0.65215998779E+03  0.65449453490E+03  0.41800000000E+01 0.  1.
         -5    1    3    3    0  501  0.72726793773E+02  0.16980165097E+02 -0.17869775235E+03  0.19372111819E+03  0.41800000000E+01 0.  1.
</event>
<event>
11    1  0.2498402E-009  0.2024520E+03  0.7561462E-02  0.1052803E+00
         22   -1    0    0    0    0  0.00000000000E+00  0.00000000000E+00  0.58779557976E+02  0.58779557976E+02  0.00000000000E+00 0. -1.
         22   -1    0    0    0    0 -0.00000000000E+00 -0.00000000000E+00 -0.21520888851E+04  0.21520888851E+04  0.00000000000E+00 0.  1.
         25    2    1    2    0    0  0.94657316379E+01  0.13843410770E+03 -0.10303527283E+04  0.10471547057E+04  0.12511047401E+03 0.  0.
         24    2    1    2    0    0 -0.12703684406E+03  0.10394019946E+03 -0.53629964681E+03  0.56664314091E+03  0.80778791575E+02 0.  0.
        -24    2    1    2    0    0  0.11757111242E+03 -0.24237430716E+03 -0.52665695205E+03  0.59707059649E+03  0.80978273705E+02 0.  0.
        -11    1    4    4    0    0 -0.20772102356E+02  0.35432723528E+02 -0.25432524699E+03  0.25762043666E+03  0.00000000000E+00 0.  1.
         12    1    4    4    0    0 -0.10626474170E+03  0.68507475930E+02 -0.28197439982E+03  0.30902270425E+03  0.00000000000E+00 0. -1.
         11    1    5    5    0    0  0.27684761150E+02 -0.33799710132E+02 -0.36799999987E+02  0.57123606364E+02  0.00000000000E+00 0. -1.
        -12    1    5    5    0    0  0.89886351268E+02 -0.20857459702E+03 -0.48985695206E+03  0.53994699013E+03  0.00000000000E+00 0.  1.
          5    1    3    3  501    0  0.31871847124E+02  0.13813946735E+03 -0.99521791966E+03  0.10052733494E+04  0.41800000000E+01 0.  1.
         -5    1    3    3    0  501 -0.22406115486E+02  0.29464034907E+00 -0.35134808631E+02  0.41881356254E+02  0.41800000000E+01 0.  1.
</event>
<event>
11    1  0.2498402E-009  0.1936516E+03  0.7561462E-02  0.1059106E+00
         22   -1    0    0    0    0  0.00000000000E+00  0.00000000000E+00  0.33828004372E+03  0.33828004372E+03  0.00000000000E+00 0.  1.
         22   -1    0    0    0    0 -0.00000000000E+00 -0.00000000000E+00 -0.19642747509E+03  0.19642747509E+03  0.00000000000E+00 0.  1.
         25    2    1    2    0    0  0.71129618238E+02 -0.55223448539E+02  0.11104487781E+03  0.18996697297E+03  0.12508970411E+03 0.  0.
         24    2    1    2    0    0 -0.11653088772E+03  0.13541606384E+03 -0.45614666601E+02  0.20233277043E+03  0.83312028219E+02 0.  0.
        -24    2    1    2    0    0  0.45401269477E+02 -0.80192615296E+02  0.76422357430E+02  0.14240777540E+03  0.77119822111E+02 0.  0.
        -13    1    4    4    0    0 -0.87564226797E+02  0.11687785041E+03 -0.10543634445E+01  0.14604464185E+03  0.00000000000E+00 0.  1.
         14    1    4    4    0    0 -0.28966660918E+02  0.18538213420E+02 -0.44560303157E+02  0.56288128579E+02  0.00000000000E+00 0. -1.
         11    1    5    5    0    0  0.18874213846E+02  0.12903530837E+02  0.96838904096E+01  0.24829715863E+02  0.00000000000E+00 0. -1.
        -12    1    5    5    0    0  0.26527055631E+02 -0.93096146134E+02  0.66738467020E+02  0.11757805954E+03  0.00000000000E+00 0.  1.
          5    1    3    3  501    0  0.70924513631E+02 -0.29381478502E+02  0.13443115398E+03  0.15486369966E+03  0.41800000000E+01 0.  1.
         -5    1    3    3    0  501  0.20510460765E+00 -0.25841970037E+02 -0.23386276177E+02  0.35103273305E+02  0.41800000000E+01 0.  1.
</event>
<event>
11    1  0.2498402E-009  0.2761836E+03  0.7561462E-02  0.1010807E+00
         22   -1    0    0    0    0  0.00000000000E+00  0.00000000000E+00  0.84121404895E+03  0.84121404895E+03  0.00000000000E+00 0. -1.
         22   -1    0    0    0    0 -0.00000000000E+00 -0.00000000000E+00 -0.68849999556E+03  0.68849999556E+03  0.00000000000E+00 0.  1.
         25    2    1    2    0    0  0.10866203794E+03  0.21627419778E+03 -0.58811575901E+03  0.64815824472E+03  0.12508795745E+03 0.  0.
        -24    2    1    2    0    0 -0.19396458478E+03 -0.27307283526E+03  0.55983207424E+03  0.65809657822E+03  0.86533932134E+02 0.  0.
         24    2    1    2    0    0  0.85302546844E+02  0.56798637487E+02  0.18099773816E+03  0.22345922156E+03  0.81677614831E+02 0.  0.
        -13    1    5    5    0    0  0.89250595138E+02  0.69443921548E+02  0.17620568845E+03  0.20937185010E+03  0.00000000000E+00 0.  1.
         14    1    5    5    0    0 -0.39480482945E+01 -0.12645284061E+02  0.47920497103E+01  0.14087371463E+02  0.00000000000E+00 0. -1.
         13    1    4    4    0    0 -0.11559749059E+03 -0.22147193674E+03  0.43904982961E+03  0.50515082053E+03  0.00000000000E+00 0. -1.
        -14    1    4    4    0    0 -0.78367094187E+02 -0.51600898520E+02  0.12078224463E+03  0.15294575770E+03  0.00000000000E+00 0.  1.
          5    1    3    3  501    0 -0.26675383919E+02  0.30150572907E+02 -0.63900043163E+02  0.75639414792E+02  0.41800000000E+01 0. -1.
         -5    1    3    3    0  501  0.13533742186E+03  0.18612362487E+03 -0.52421571584E+03  0.57251882993E+03  0.41800000000E+01 0. -1.
</event>
<event>
11    1  0.2498402E-009  0.1919474E+03  0.7561462E-02  0.1060369E+00
         22   -1    0    0    0    0  0.00000000000E+00  0.00000000000E+00  0.75218507094E+03  0.75218507094E+03  0.00000000000E+00 0.  1.
         22   -1    0    0    0    0 -0.00000000000E+00 -0.00000000000E+00 -0.15664645610E+03  0.15664645610E+03  0.00000000000E+00 0. -1.
         25    2    1    2    0    0 -0.21847613378E+03 -0.61414003113E+02  0.12355921896E+03  0.28708296568E+03  0.12508496226E+03 0.  0.
         24    2    1    2    0    0  0.11458220625E+03  0.15105068595E+02  0.12461153965E+02  0.14160451124E+03  0.80866013612E+02 0.  0.
        -24    2    1    2    0    0  0.10389392753E+03  0.46308934518E+02  0.45951824192E+03  0.48014405012E+03  0.80267232530E+02 0.  0.
        -13    1    4    4    0    0 -0.92258582156E+00  0.13999044651E+02  0.21575162150E+02  0.25735423788E+02  0.00000000000E+00 0.  1.
         14    1    4    4    0    0  0.11550479207E+03  0.11060239439E+01 -0.91140081849E+01  0.11586908745E+03  0.00000000000E+00 0. -1.
         13    1    5    5    0    0  0.40077809689E+02 -0.18831134715E+02  0.10235123060E+03  0.11151958066E+03  0.00000000000E+00 0. -1.
        -14    1    5    5    0    0  0.63816117840E+02  0.65140069233E+02  0.35716701131E+03  0.36862446946E+03  0.00000000000E+00 0.  1.
          5    1    3    3  501    0 -0.21151009545E+03 -0.38198946658E+02  0.14086095799E+03  0.25701159874E+03  0.41800000000E+01 0. -1.
         -5    1    3    3    0  501 -0.69660383339E+01 -0.23215056455E+02 -0.17301739027E+02  0.30071366940E+02  0.41800000000E+01 0. -1.
</event>
<event>
11    1  0.2498402E-009  0.3476058E+03  0.7561462E-02  0.9818405E-01
         22   -1    0    0    0    0  0.00000000000E+00  0.00000000000E+00  0.11673857430E+03  0.11673857430E+03  0.00000000000E+00 0.  1.
         22   -1    0    0    0    0 -0.00000000000E+00 -0.00000000000E+00 -0.28311047073E+04  0.28311047073E+04  0.00000000000E+00 0. -1.
         25    2    1    2    0    0 -0.16859734877E+03  0.46450695540E+02 -0.13226095749E+04  0.13399725570E+04  0.12509049840E+03 0.  0.
        -24    2    1    2    0    0  0.70284210222E+02 -0.36467593846E+03 -0.10703561386E+04  0.11357091221E+04  0.79022379072E+02 0.  0.
         24    2    1    2    0    0  0.98313138553E+02  0.31822524292E+03 -0.32140041957E+03  0.47216160250E+03  0.93303648016E+02 0.  0.
        -11    1    5    5    0    0  0.87679801734E+02  0.28390360462E+03 -0.31930350381E+03  0.43616938441E+03  0.00000000000E+00 0.  1.
         12    1    5    5    0    0  0.10633336819E+02  0.34321638300E+02 -0.20969157562E+01  0.35992218092E+02  0.00000000000E+00 0. -1.
         13    1    4    4    0    0  0.28560194123E+02 -0.15854355285E+03 -0.58435926409E+03  0.60615797641E+03  0.00000000000E+00 0. -1.
        -14    1    4    4    0    0  0.41724016099E+02 -0.20613238562E+03 -0.48599687446E+03  0.52955114570E+03  0.00000000000E+00 0.  1.
          5    1    3    3  501    0 -0.10712098660E+03  0.25006229356E+02 -0.11530693963E+04  0.11583120142E+04  0.41800000000E+01 0. -1.
         -5    1    3    3    0  501 -0.61476362171E+02  0.21444466184E+02 -0.16954017864E+03  0.18166054280E+03  0.41800000000E+01 0. -1.
</event>
<event>
11    1  0.2498402E-009  0.8231832E+03  0.7561462E-02  0.8868184E-01
         22   -1    0    0    0    0  0.00000000000E+00  0.00000000000E+00  0.30520541097E+03  0.30520541097E+03  0.00000000000E+00 0.  1.
         22   -1    0    0    0    0 -0.00000000000E+00 -0.00000000000E+00 -0.55506112235E+03  0.55506112235E+03  0.00000000000E+00 0.  1.
         25    2    1    2    0    0  0.59502963861E+02  0.26352510033E+03 -0.40726018813E+03  0.50447417071E+03  0.12508895584E+03 0.  0.
        -24    2    1    2    0    0 -0.35112245664E+02 -0.15840472286E+03  0.11360274515E+03  0.21400181029E+03  0.81032493992E+02 0.  0.
         24    2    1    2    0    0 -0.24390718197E+02 -0.10512037747E+03  0.43801731595E+02  0.14179055232E+03  0.80875015566E+02 0.  0.
        -11    1    5    5    0    0 -0.25947091641E+02 -0.91679674399E+02 -0.69383422996E+00  0.95283239180E+02  0.00000000000E+00 0.  1.
         12    1    5    5    0    0  0.15563734446E+01 -0.13440703069E+02  0.44495565825E+02  0.46507313139E+02  0.00000000000E+00 0. -1.
         11    1    4    4    0    0 -0.26079914482E+02 -0.81610644333E+01  0.35764063574E+01  0.27560036185E+02  0.00000000000E+00 0. -1.
        -12    1    4    4    0    0 -0.90323311822E+01 -0.15024365843E+03  0.11002633879E+03  0.18644177411E+03  0.00000000000E+00 0.  1.
          5    1    3    3  501    0  0.71727340153E+02  0.15776766263E+03 -0.33034167814E+03  0.37306640617E+03  0.41800000000E+01 0. -1.
         -5    1    3    3    0  501 -0.12224376292E+02  0.10575743770E+03 -0.76918509990E+02  0.13140776455E+03  0.41800000000E+01 0. -1.
</event>
<event>
11    1  0.2498402E-009  0.1534616E+03  0.7561462E-02  0.1093393E+00
         22   -1    0    0    0    0  0.00000000000E+00  0.00000000000E+00  0.10962717958E+04  0.10962717958E+04  0.00000000000E+00 0.  1.
         22   -1    0    0    0    0 -0.00000000000E+00 -0.00000000000E+00 -0.11551717731E+03  0.11551717731E+03  0.00000000000E+00 0. -1.
         25    2    1    2    0    0  0.24192539724E+02  0.66492262466E+02  0.32977381141E+00  0.14371964659E+03  0.12509487647E+03 0.  0.
        -24    2    1    2    0    0  0.13778509457E+02  0.14941751718E+02  0.57053475429E+00  0.80732724659E+02  0.78130301764E+02 0.  0.
         24    2    1    2    0    0 -0.37971049180E+02 -0.81434014183E+02  0.97985430993E+03  0.98733660186E+03  0.81521760507E+02 0.  0.
        -13    1    5    5    0    0 -0.19393450716E+02 -0.92862289235E+02  0.88166047959E+03  0.88674952042E+03  0.00000000000E+00 0.  1.
         14    1    5    5    0    0 -0.18577598464E+02  0.11428275051E+02  0.98193830338E+02  0.10058708144E+03  0.00000000000E+00 0. -1.
         13    1    4    4    0    0 -0.17746840539E+02  0.19517372408E+02 -0.27620817201E+02  0.38194079616E+02  0.00000000000E+00 0. -1.
        -14    1    4    4    0    0  0.31525349996E+02 -0.45756206901E+01  0.28191351956E+02  0.42538645044E+02  0.00000000000E+00 0.  1.
          5    1    3    3  501    0 -0.19054006724E+02  0.56976490347E+02 -0.48751972873E+02  0.77482919947E+02  0.41800000000E+01 0. -1.
         -5    1    3    3    0  501  0.43246546448E+02  0.95157721187E+01  0.49081746685E+02  0.66236726643E+02  0.41800000000E+01 0. -1.
</event>
<event>
11    1  0.2498402E-009  0.4661820E+03  0.7561462E-02  0.9472435E-01
         22   -1    0    0    0    0  0.00000000000E+00  0.00000000000E+00  0.68366383678E+03  0.68366383678E+03  0.00000000000E+00 0.  1.
         22   -1    0    0    0    0 -0.00000000000E+00 -0.00000000000E+00 -0.61996553995E+03  0.61996553995E+03  0.00000000000E+00 0.  1.
         25    2    1    2    0    0 -0.25031292067E+03 -0.11889409632E+03 -0.76500851543E+02  0.31351521991E+03  0.12508816265E+03 0.  0.
        -24    2    1    2    0    0  0.37270614106E+02 -0.40125541293E+03  0.46034568391E+02  0.41378864760E+03  0.81895410850E+02 0.  0.
         24    2    1    2    0    0  0.21304230657E+03  0.52014950925E+03  0.94164579978E+02  0.57632550922E+03  0.85683067688E+02 0.  0.
        -11    1    5    5    0    0  0.21662256504E+03  0.46812440147E+03  0.93203089971E+02  0.52416849096E+03  0.00000000000E+00 0.  1.
         12    1    5    5    0    0 -0.35802584684E+01  0.52025107783E+02  0.96149000715E+00  0.52157018258E+02  0.00000000000E+00 0. -1.
         13    1    4    4    0    0  0.50536938501E+02 -0.19335774335E+03 -0.25853320258E+01  0.19986966505E+03  0.00000000000E+00 0. -1.
        -14    1    4    4    0    0 -0.13266324395E+02 -0.20789766958E+03  0.48619900416E+02  0.21391898255E+03  0.00000000000E+00 0.  1.
          5    1    3    3  501    0 -0.69070878058E+02  0.23843013803E+02 -0.22054078129E+02  0.76440370650E+02  0.41800000000E+01 0.  1.
         -5    1    3    3    0  501 -0.18124204262E+03 -0.14273711013E+03 -0.54446773414E+02  0.23707484926E+03  0.41800000000E+01 0.  1.
</event>
<event>
11    1  0.2498402E-009  0.2362297E+03  0.7561462E-02  0.1031502E+00
         22   -1    0    0    0    0  0.00000000000E+00  0.00000000000E+00  0.12820452878E+04  0.12820452878E+04  0.00000000000E+00 0.  1.
         22   -1    0    0    0    0 -0.00000000000E+00 -0.00000000000E+00 -0.57529441341E+03  0.57529441341E+03  0.00000000000E+00 0. -1.
         25    2    1    2    0    0 -0.17858582557E+03 -0.49474082512E+02 -0.26892686149E+03  0.34972653277E+03  0.12508560651E+03 0.  0.
        -24    2    1    2    0    0  0.21683197775E+03  0.39285890392E+02 -0.21206065237E+03  0.31648286789E+03  0.81438305637E+02 0.  0.
         24    2    1    2    0    0 -0.38246152185E+02  0.10188192120E+02  0.11877383882E+04  0.11911303005E+04  0.80637129037E+02 0.  0.
        -11    1    5    5    0    0 -0.30318994297E+02  0.17228418382E+02  0.11696065773E+04  0.11701263203E+04  0.00000000000E+00 0.  1.
         12    1    5    5    0    0 -0.79271578884E+01 -0.70402262616E+01  0.18131810918E+02  0.21003980222E+02  0.00000000000E+00 0. -1.
         11    1    4    4    0    0  0.18456754979E+03  0.73783806456E+01 -0.19334278891E+03  0.26739681180E+03  0.00000000000E+00 0. -1.
        -12    1    4    4    0    0  0.32264427958E+02  0.31907509746E+02 -0.18717863452E+02  0.49086056084E+02  0.00000000000E+00 0.  1.
          5    1    3    3  501    0 -0.56175021828E+02 -0.19667115592E+02 -0.19425837228E+03  0.20321470447E+03  0.41800000000E+01 0. -1.
         -5    1    3    3    0  501 -0.12241080374E+03 -0.29806966920E+02 -0.74668489211E+02  0.14651182829E+03  0.41800000000E+01 0. -1.
</event>
<event>
11    1  0.2498402E-009  0.1341599E+03  0.7561462E-02  0.1114261E+00
         22   -1    0    0    0    0  0.00000000000E+00  0.00000000000E+00  0.72004104273E+03  0.72004104273E+03  0.00000000000E+00 0.  1.
         22   -1    0    0    0    0 -0.00000000000E+00 -0.00000000000E+00 -0.29632825540E+03  0.29632825540E+03  0.00000000000E+00 0.  1.
         25    2    1    2    0    0  0.31975737444E+02  0.26874810032E+02 -0.14794145104E+03  0.19818641154E+03  0.12508588084E+03 0.  0.
        -24    2    1    2    0    0  0.16383067421E+02 -0.33981282890E+02 -0.10405197792E+03  0.13614798370E+03  0.79286359928E+02 0.  0.
         24    2    1    2    0    0 -0.48358804866E+02  0.71064728576E+01  0.67570621630E+03  0.68203490288E+03  0.78763202355E+02 0.  0.
        -11    1    5    5    0    0 -0.26032756037E+02  0.33978690304E+02  0.54696872849E+03  0.54864109008E+03  0.00000000000E+00 0.  1.
         12    1    5    5    0    0 -0.22326048829E+02 -0.26872217446E+02  0.12873748781E+03  0.13339381280E+03  0.00000000000E+00 0. -1.
         11    1    4    4    0    0 -0.15513261666E+02  0.80421990468E+01 -0.72715880160E+02  0.74785944405E+02  0.00000000000E+00 0. -1.
        -12    1    4    4    0    0  0.31896329088E+02 -0.42023481937E+02 -0.31336097764E+02  0.61362039295E+02  0.00000000000E+00 0.  1.
          5    1    3    3  501    0  0.10016159145E+02  0.54721199543E+02 -0.15231580802E+03  0.16221069908E+03  0.41800000000E+01 0. -1.
         -5    1    3    3    0  501  0.21959578299E+02 -0.27846389511E+02  0.43743569884E+01  0.35975712459E+02  0.41800000000E+01 0. -1.
</event>
<event>
11    1  0.2498402E-009  0.1297606E+03  0.7561462E-02  0.1119564E+00
         22   -1    0    0    0    0  0.00000000000E+00  0.00000000000E+00  0.72445493484E+03  0.72445493484E+03  0.00000000000E+00 0.  1.
         22   -1    0    0    0    0 -0.00000000000E+00 -0.00000000000E+00 -0.63702146433E+03  0.63702146433E+03  0.00000000000E+00 0. -1.
         25    2    1    2    0    0  0.23783743969E+02  0.62939841447E+01 -0.37169135036E+03  0.39294703085E+03  0.12509048087E+03 0.  0.
        -24    2    1    2    0    0 -0.14858585040E+02 -0.48039823457E+02 -0.24264178192E+03  0.26078446780E+03  0.81270548948E+02 0.  0.
         24    2    1    2    0    0 -0.89251589288E+01  0.41745839312E+02  0.70176660280E+03  0.70774490051E+03  0.81265649812E+02 0.  0.
        -13    1    5    5    0    0 -0.40146712340E+02  0.28057698869E+02  0.55097781642E+03  0.55315056464E+03  0.00000000000E+00 0.  1.
         14    1    5    5    0    0  0.31221553411E+02  0.13688140444E+02  0.15078878638E+03  0.15459433587E+03  0.00000000000E+00 0. -1.
         13    1    4    4    0    0 -0.72805366102E+01  0.70122754662E+00 -0.18404415222E+03  0.18418943482E+03  0.00000000000E+00 0. -1.
        -14    1    4    4    0    0 -0.75780484300E+01 -0.48741051004E+02 -0.58597629703E+02  0.76595032984E+02  0.00000000000E+00 0.  1.
          5    1    3    3  501    0  0.42729090266E+02  0.26857784705E+02 -0.35794729290E+03  0.36151189835E+03  0.41800000000E+01 0.  1.
         -5    1    3    3    0  501 -0.18945346297E+02 -0.20563800560E+02 -0.13744057466E+02  0.31435132502E+02  0.41800000000E+01 0.  1.
</event>
<event>
11    1  0.2498402E-009  0.5816323E+03  0.7561462E-02  0.9227595E-01
         22   -1    0    0    0    0  0.00000000000E+00  0.00000000000E+00  0.88761367825E+02  0.88761367825E+02  0.00000000000E+00 0. -1.
         22   -1    0    0    0    0 -0.00000000000E+00 -0.00000000000E+00 -0.95282472946E+03  0.95282472946E+03  0.00000000000E+00 0. -1.
         25    2    1    2    0    0  0.11966704031E+03 -0.14683562185E+03 -0.71147456870E+03  0.74680958643E+03  0.12509035172E+03 0.  0.
        -24    2    1    2    0    0 -0.46680378084E+02  0.50342441913E+02 -0.68388333571E+02  0.12709413055E+03  0.82234631970E+02 0.  0.
         24    2    1    2    0    0 -0.72986662223E+02  0.96493179937E+02 -0.84200459359E+02  0.16768238030E+03  0.79935453158E+02 0.  0.
        -13    1    5    5    0    0 -0.30385948738E+02  0.93836743849E+02 -0.75273165723E+02  0.12407533943E+03  0.00000000000E+00 0.  1.
         14    1    5    5    0    0 -0.42600713486E+02  0.26564360885E+01 -0.89272936360E+01  0.43607040875E+02  0.00000000000E+00 0. -1.
         13    1    4    4    0    0 -0.69773310766E+02  0.32745146081E+02 -0.57192139325E+02  0.95976561137E+02  0.00000000000E+00 0. -1.
        -14    1    4    4    0    0  0.23092932682E+02  0.17597295832E+02 -0.11196194246E+02  0.31117569411E+02  0.00000000000E+00 0.  1.
          5    1    3    3  501    0  0.94238683300E+02 -0.70249887711E+02 -0.22718553404E+03  0.25582555664E+03  0.41800000000E+01 0.  1.
         -5    1    3    3    0  501  0.25428357007E+02 -0.76585734140E+02 -0.48428903467E+03  0.49098402979E+03  0.41800000000E+01 0.  1.
</event>
<event>
11    1  0.2498402E-009  0.1457287E+03  0.7561462E-02  0.1101325E+00
         22   -1    0    0    0    0  0.00000000000E+00  0.00000000000E+00  0.11799658212E+03  0.11799658212E+03  0.00000000000E+00 0.  1.
         22   -1    0    0    0    0 -0.00000000000E+00 -0.00000000000E+00 -0.58013970959E+03  0.58013970959E+03  0.00000000000E+00 0.  1.
         25    2    1    2    0    0  0.20797603899E+02  0.43334991805E+02 -0.33313969680E+03  0.35908262255E+03  0.12509120830E+03 0.  0.
        -24    2    1    2    0    0 -0.10883965240E+03 -0.10490960494E+03 -0.11015323551E+03  0.20350879685E+03  0.80187280523E+02 0.  0.
         24    2    1    2    0    0  0.88042048503E+02  0.61574613138E+02 -0.18850195164E+02  0.13554487230E+03  0.80462707274E+02 0.  0.
        -11    1    5    5    0    0  0.88938978938E+02  0.30932118883E+02  0.83869759785E+01  0.94537184849E+02  0.00000000000E+00 0.  1.
         12    1    5    5    0    0 -0.89693043503E+00  0.30642494256E+02 -0.27237171142E+02  0.41007687453E+02  0.00000000000E+00 0. -1.
         11    1    4    4    0    0 -0.29271427421E+02 -0.81740924899E+02 -0.69431643129E+02  0.11117170654E+03  0.00000000000E+00 0. -1.
        -12    1    4    4    0    0 -0.79568224981E+02 -0.23168680044E+02 -0.40721592384E+02  0.92337090315E+02  0.00000000000E+00 0.  1.
          5    1    3    3  501    0  0.92360103896E+01  0.81636326612E+02 -0.28347941036E+03  0.29517425736E+03  0.41800000000E+01 0.  1.
         -5    1    3    3    0  501  0.11561593510E+02 -0.38301334807E+02 -0.49660286436E+02  0.63908365191E+02  0.41800000000E+01 0.  1.
</event>
<event>
11    1  0.2498402E-009  0.2788855E+03  0.7561462E-02  0.1009546E+00
         22   -1    0    0    0    0  0.00000000000E+00  0.00000000000E+00  0.70742866545E+03  0.70742866545E+03  0.00000000000E+00 0.  1.
         22   -1    0    0    0    0 -0.00000000000E+00 -0.00000000000E+00 -0.89215978470E+03  0.89215978470E+03  0.00000000000E+00 0. -1.
         25    2    1    2    0    0  0.74006535111E+01  0.25920668088E+03 -0.82282620574E+03  0.87174260243E+03  0.12509727003E+03 0.  0.
        -24    2    1    2    0    0 -0.69558398096E+02 -0.14498584320E+03  0.21403115635E+03  0.27995560106E+03  0.81893450287E+02 0.  0.
         24    2    1    2    0    0  0.62157744584E+02 -0.11422083767E+03  0.42406393014E+03  0.44789024666E+03  0.62172914072E+02 0.  0.
        -11    1    5    5    0    0  0.66800757225E+02 -0.65674007628E+02  0.24481555351E+03  0.26212606067E+03  0.00000000000E+00 0.  1.
         12    1    5    5    0    0 -0.46430126405E+01 -0.48546830043E+02  0.17924837663E+03  0.18576418599E+03  0.00000000000E+00 0. -1.
         13    1    4    4    0    0 -0.15882955251E+02 -0.29233536482E+02  0.30700089500E+01  0.33410969422E+02  0.00000000000E+00 0. -1.
        -14    1    4    4    0    0 -0.53675442844E+02 -0.11575230672E+03  0.21096114740E+03  0.24654463164E+03  0.00000000000E+00 0.  1.
          5    1    3    3  501    0 -0.49877462838E+02  0.88405108974E+02 -0.21547158637E+03  0.23821985963E+03  0.41800000000E+01 0.  1.
         -5    1    3    3    0  501  0.57278116349E+02  0.17080157190E+03 -0.60735461937E+03  0.63352274280E+03  0.41800000000E+01 0.  1.
</event>
<event>
11    1  0.2498402E-009  0.3987893E+03  0.7561462E-02  0.9653337E-01
         22   -1    0    0    0    0  0.00000000000E+00  0.00000000000E+00  0.16546600871E+04  0.16546600871E+04  0.00000000000E+00 0. -1.
         22   -1    0    0    0    0 -0.00000000000E+00 -0.00000000000E+00 -0.35072015791E+03  0.35072015791E+03  0.00000000000E+00 0.  1.
         25    2    1    2    0    0 -0.37048972660E+03 -0.60485509959E+02 -0.15315452179E+03  0.42429310528E+03  0.12508875736E+03 0.  0.
         24    2    1    2    0    0  0.31936123710E+02 -0.11332519858E+03  0.11337429154E+03  0.18225404482E+03  0.80624377463E+02 0.  0.
        -24    2    1    2    0    0  0.33855360289E+03  0.17381070854E+03  0.13437201594E+04  0.13988330949E+04  0.79507585140E+02 0.  0.
        -11    1    4    4    0    0 -0.24773205791E+02 -0.15213392947E+02  0.18486237790E+02  0.34451415613E+02  0.00000000000E+00 0.  1.
         12    1    4    4    0    0  0.56709329500E+02 -0.98111805631E+02  0.94888053746E+02  0.14780262921E+03  0.00000000000E+00 0. -1.
         11    1    5    5    0    0  0.21109874031E+03  0.80897412174E+02  0.89835715135E+03  0.92636528478E+03  0.00000000000E+00 0. -1.
        -12    1    5    5    0    0  0.12745486258E+03  0.92913296363E+02  0.44536300809E+03  0.47246781013E+03  0.00000000000E+00 0.  1.
          5    1    3    3  501    0 -0.13907705554E+03 -0.17886419244E+01 -0.11897942004E+03  0.18308249892E+03  0.41800000000E+01 0. -1.
         -5    1    3    3    0  501 -0.23141267106E+03 -0.58696868035E+02 -0.34175101748E+02  0.24121060636E+03  0.41800000000E+01 0. -1.
</event>
<event>
11    1  0.2498402E-009  0.1667439E+03  0.7561462E-02  0.1080901E+00
         22   -1    0    0    0    0  0.00000000000E+00  0.00000000000E+00  0.99737270725E+02  0.99737270725E+02  0.00000000000E+00 0. -1.
         22   -1    0    0    0    0 -0.00000000000E+00 -0.00000000000E+00 -0.15302505014E+04  0.15302505014E+04  0.00000000000E+00 0.  1.
         25    2    1    2    0    0 -0.28471324178E+02  0.76640833660E+02 -0.11280407297E+04  0.11378960921E+04  0.12508874768E+03 0.  0.
        -24    2    1    2    0    0  0.11807158294E+03 -0.44923547784E+01 -0.31666532371E+03  0.34716160025E+03  0.79266446257E+02 0.  0.
         24    2    1    2    0    0 -0.89600258764E+02 -0.72148478882E+02  0.14192822818E+02  0.14493007972E+03  0.87003921821E+02 0.  0.
        -13    1    5    5    0    0  0.65442780954E+01 -0.34587140847E+02 -0.14071335047E+02  0.37909106528E+02  0.00000000000E+00 0.  1.
         14    1    5    5    0    0 -0.96144536859E+02 -0.37561338035E+02  0.28264157865E+02  0.10702097319E+03  0.00000000000E+00 0. -1.
         11    1    4    4    0    0  0.12305187700E+03 -0.87632986047E+01 -0.31742758800E+03  0.34055665234E+03  0.00000000000E+00 0. -1.
        -12    1    4    4    0    0 -0.49802940542E+01  0.42709438263E+01  0.76226428968E+00  0.66049479090E+01  0.00000000000E+00 0.  1.
          5    1    3    3  501    0 -0.52136550754E+02  0.90685564666E+02 -0.10467492830E+04  0.10519713044E+04  0.41800000000E+01 0.  1.
         -5    1    3    3    0  501  0.23665226576E+02 -0.14044731006E+02 -0.81291446762E+02  0.85924787661E+02  0.41800000000E+01 0.  1.
</event>
<event>
11    1  0.2498402E-009  0.5450789E+03  0.7561462E-02  0.9298074E-01
         22   -1    0    0    0    0  0.00000000000E+00  0.00000000000E+00  0.93855212528E+03  0.93855212528E+03  0.00000000000E+00 0. -1.
         22   -1    0    0    0    0 -0.00000000000E+00 -0.00000000000E+00 -0.10733703027E+04  0.10733703027E+04  0.00000000000E+00 0. -1.
         25    2    1    2    0    0 -0.64295431136E+03  0.26084740709E+03 -0.31199723774E+03  0.77098687359E+03  0.12508743587E+03 0.  0.
         24    2    1    2    0    0  0.30231031967E+03 -0.35949783181E+03 -0.35689009540E+03  0.59517806976E+03  0.78969450232E+02 0.  0.
        -24    2    1    2    0    0  0.34064399169E+03  0.98650424721E+02  0.53406915574E+03  0.64575748461E+03  0.77476644538E+02 0.  0.
        -13    1    4    4    0    0  0.16345147613E+02  0.15667825925E+00 -0.77289683063E+01  0.18081077116E+02  0.00000000000E+00 0.  1.
         14    1    4    4    0    0  0.28596517206E+03 -0.35965451007E+03 -0.34916112710E+03  0.57709699264E+03  0.00000000000E+00 0. -1.
         13    1    5    5    0    0  0.14926963980E+03  0.47433039656E+02  0.16913022197E+03  0.23051323302E+03  0.00000000000E+00 0. -1.
        -14    1    5    5    0    0  0.19137435189E+03  0.51217385065E+02  0.36493893377E+03  0.41524425159E+03  0.00000000000E+00 0.  1.
          5    1    3    3  501    0 -0.27219834221E+03  0.45199642277E+02 -0.12992324089E+03  0.30501223924E+03  0.41800000000E+01 0. -1.
         -5    1    3    3    0  501 -0.37075596915E+03  0.21564776481E+03 -0.18207399685E+03  0.46597463435E+03  0.41800000000E+01 0. -1.
</event>
<event>
11    1  0.2498402E-009  0.1435491E+03  0.7561462E-02  0.1103659E+00
         22   -1    0    0    0    0  0.00000000000E+00  0.00000000000E+00  0.15730055171E+03  0.15730055171E+03  0.00000000000E+00 0. -1.
         22   -1    0    0    0    0 -0.00000000000E+00 -0.00000000000E+00 -0.37975265604E+03  0.37975265604E+03  0.00000000000E+00 0.  1.
         25    2    1    2    0    0 -0.28779864281E+02  0.69509008017E+02 -0.15610981260E+03  0.21372451570E+03  0.12509241479E+03 0.  0.
         24    2    1    2    0    0 -0.51667439229E+02 -0.67497393451E+02 -0.14182965798E+03  0.18578348207E+03  0.84701994826E+02 0.  0.
        -24    2    1    2    0    0  0.80447303509E+02 -0.20116145657E+01  0.75487366249E+02  0.13754520998E+03  0.82125069808E+02 0.  0.
        -13    1    4    4    0    0  0.26657351355E+01  0.16636544310E+02 -0.80639244659E+01  0.18679069253E+02  0.00000000000E+00 0.  1.
         14    1    4    4    0    0 -0.54333174364E+02 -0.84133937761E+02 -0.13376573352E+03  0.16710441282E+03  0.00000000000E+00 0. -1.
         13    1    5    5    0    0  0.38282415633E+02 -0.15670689160E+02  0.82862446342E+02  0.92613707728E+02  0.00000000000E+00 0. -1.
        -14    1    5    5    0    0  0.42164887877E+02  0.13659074594E+02 -0.73750800933E+01  0.44931502254E+02  0.00000000000E+00 0.  1.
          5    1    3    3  501    0  0.31903939403E+02  0.55594788399E+02 -0.13205631357E+03  0.14685021008E+03  0.41800000000E+01 0. -1.
         -5    1    3    3    0  501 -0.60683803683E+02  0.13914219618E+02 -0.24053499032E+02  0.66874305624E+02  0.41800000000E+01 0. -1.
</event>
<event>
11    1  0.2498402E-009  0.4410476E+03  0.7561462E-02  0.9535851E-01
         22   -1    0    0    0    0  0.00000000000E+00  0.00000000000E+00  0.67699430693E+03  0.67699430693E+03  0.00000000000E+00 0.  1.
         22   -1    0    0    0    0 -0.00000000000E+00 -0.00000000000E+00 -0.82885819825E+03  0.82885819825E+03  0.00000000000E+00 0. -1.
         25    2    1    2    0    0  0.39469105690E+02 -0.88772330492E+02 -0.24273344531E+03  0.28985799538E+03  0.12513910281E+03 0.  0.
         24    2    1    2    0    0  0.22267143061E+03 -0.15328953751E+03 -0.46887227154E+03  0.54734311511E+03  0.81627387022E+02 0.  0.
        -24    2    1    2    0    0 -0.26214053630E+03  0.24206186801E+03  0.55974182553E+03  0.66865139469E+03  0.80449783491E+02 0.  0.
        -13    1    4    4    0    0  0.58398620737E+02 -0.11781358164E+01 -0.91345716686E+02  0.10842429094E+03  0.00000000000E+00 0.  1.
         14    1    4    4    0    0  0.16427280987E+03 -0.15211140170E+03 -0.37752655486E+03  0.43891882417E+03  0.00000000000E+00 0. -1.
         13    1    5    5    0    0 -0.14530209754E+02  0.56416078548E+01  0.66094781178E+02  0.67907840738E+02  0.00000000000E+00 0. -1.
        -14    1    5    5    0    0 -0.24761032655E+03  0.23642026015E+03  0.49364704435E+03  0.60074355395E+03  0.00000000000E+00 0.  1.
          5    1    3    3  501    0  0.31652157529E+01 -0.23549874253E+02  0.10135183854E+02  0.26168865467E+02  0.41800000000E+01 0. -1.
         -5    1    3    3    0  501  0.36303889937E+02 -0.65222456240E+02 -0.25286862916E+03  0.26368912992E+03  0.41800000000E+01 0. -1.
</event>
<event>
11    1  0.2498402E-009  0.9275341E+03  0.7561462E-02  0.8751168E-01
         22   -1    0    0    0    0  0.00000000000E+00  0.00000000000E+00  0.17584394707E+04  0.17584394707E+04  0.00000000000E+00 0.  1.
         22   -1    0    0    0    0 -0.00000000000E+00 -0.00000000000E+00 -0.90580656504E+03  0.90580656504E+03  0.00000000000E+00 0.  1.
         25    2    1    2    0    0  0.28475928676E+03 -0.41027525063E+03 -0.94704135149E+02  0.52347931006E+03  0.12509229461E+03 0.  0.
         24    2    1    2    0    0 -0.87818023366E+03 -0.35218042954E+03  0.45913726194E+03  0.10544031621E+04  0.75679754478E+02 0.  0.
        -24    2    1    2    0    0  0.59342094690E+03  0.76245568017E+03  0.48819977884E+03  0.10863635635E+04  0.91431305794E+02 0.  0.
        -11    1    4    4    0    0 -0.55498539193E+03 -0.18984627761E+03  0.26090243367E+03  0.64196610057E+03  0.00000000000E+00 0.  1.
         12    1    4    4    0    0 -0.32319484173E+03 -0.16233415192E+03  0.19823482827E+03  0.41243706155E+03  0.00000000000E+00 0. -1.
         13    1    5    5    0    0  0.44162990370E+03  0.59989992844E+03  0.33822920480E+03  0.81811728436E+03  0.00000000000E+00 0. -1.
        -14    1    5    5    0    0  0.15179104320E+03  0.16255575173E+03  0.14997057404E+03  0.26824627918E+03  0.00000000000E+00 0.  1.
          5    1    3    3  501    0  0.16643256854E+03 -0.23536494214E+03  0.84519400605E+01  0.28841872954E+03  0.41800000000E+01 0. -1.
         -5    1    3    3    0  501  0.11832671823E+03 -0.17491030849E+03 -0.10315607521E+03  0.23506058052E+03  0.41800000000E+01 0. -1.
</event>
<event>
11    1  0.2498402E-009  0.3545243E+03  0.7561462E-02  0.9794370E-01
         22   -1    0    0    0    0  0.00000000000E+00  0.00000000000E+00  0.16865068346E+03  0.16865068346E+03  0.00000000000E+00 0.  1.
         22   -1    0    0    0    0 -0.00000000000E+00 -0.00000000000E+00 -0.32386600506E+04  0.32386600506E+04  0.00000000000E+00 0.  1.
         25    2    1    2    0    0 -0.22376844840E+03 -0.23341578762E+03 -0.21126005376E+04  0.21408605318E+04  0.12509011495E+03 0.  0.
        -24    2    1    2    0    0  0.22311483378E+03  0.26941752550E+03 -0.10666965018E+04  0.11256900341E+04  0.83490082191E+02 0.  0.
         24    2    1    2    0    0  0.65361461261E+00 -0.36001737881E+02  0.10928767225E+03  0.14076016815E+03  0.81074516896E+02 0.  0.
        -13    1    5    5    0    0  0.38988019097E+02 -0.30480123395E+02  0.68585089638E+02  0.84575517001E+02  0.00000000000E+00 0.  1.
         14    1    5    5    0    0 -0.38334404485E+02 -0.55216144862E+01  0.40702582608E+02  0.56184651148E+02  0.00000000000E+00 0. -1.
         11    1    4    4    0    0  0.32471321521E+02  0.20939400872E+02 -0.59674239396E+02  0.71090506242E+02  0.00000000000E+00 0. -1.
        -12    1    4    4    0    0  0.19064351226E+03  0.24847812462E+03 -0.10070222624E+04  0.10545995279E+04  0.00000000000E+00 0.  1.
          5    1    3    3  501    0 -0.82130696402E+02 -0.16553725767E+03 -0.96367339069E+03  0.98123998660E+03  0.41800000000E+01 0.  1.
         -5    1    3    3    0  501 -0.14163775199E+03 -0.67878529946E+02 -0.11489271469E+04  0.11596205452E+04  0.41800000000E+01 0.  1.
</event>
<event>
11    1  0.2498402E-009  0.1461566E+03  0.7561462E-02  0.1100872E+00
         22   -1    0    0    0    0  0.00000000000E+00  0.00000000000E+00  0.27082550002E+02  0.27082550002E+02  0.00000000000E+00 0.  1.
         22   -1    0    0    0    0 -0.00000000000E+00 -0.00000000000E+00 -0.19950895084E+04  0.19950895084E+04  0.00000000000E+00 0.  1.
         25    2    1    2    0    0  0.22005251991E+02  0.15018136022E+02 -0.10098059679E+04  0.10178732146E+04  0.12509201640E+03 0.  0.
         24    2    1    2    0    0 -0.32110988699E+02 -0.12606124313E+03 -0.60519038564E+03  0.62421051833E+03  0.80379199492E+02 0.  0.
        -24    2    1    2    0    0  0.10105736708E+02  0.11104310710E+03 -0.35301060487E+03  0.38008832554E+03  0.86127524672E+02 0.  0.
        -11    1    4    4    0    0 -0.72532231268E+01 -0.51527668186E+02 -0.97881840306E+02  0.11085379784E+03  0.00000000000E+00 0.  1.
         12    1    4    4    0    0 -0.24857765572E+02 -0.74533574941E+02 -0.50730854533E+03  0.51335672049E+03  0.00000000000E+00 0. -1.
         11    1    5    5    0    0  0.30801029941E+02  0.58650211566E+01 -0.53987254450E+02  0.62431767247E+02  0.00000000000E+00 0. -1.
        -12    1    5    5    0    0 -0.20695293233E+02  0.10517808595E+03 -0.29902335042E+03  0.31765655829E+03  0.00000000000E+00 0.  1.
          5    1    3    3  501    0  0.55346456587E+02  0.47923310809E+02 -0.77105696073E+03  0.77453610831E+03  0.41800000000E+01 0.  1.
         -5    1    3    3    0  501 -0.33341204596E+02 -0.32905174787E+02 -0.23874900720E+03  0.24333710628E+03  0.41800000000E+01 0.  1.
</event>
<event>
11    1  0.2498402E-009  0.1667482E+03  0.7561462E-02  0.1080897E+00
         22   -1    0    0    0    0  0.00000000000E+00  0.00000000000E+00  0.39889696652E+03  0.39889696652E+03  0.00000000000E+00 0.  1.
         22   -1    0    0    0    0 -0.00000000000E+00 -0.00000000000E+00 -0.54905890198E+03  0.54905890198E+03  0.00000000000E+00 0. -1.
         25    2    1    2    0    0  0.57082536390E+02 -0.56042456400E+02 -0.36893130025E+03  0.39769172377E+03  0.12509688234E+03 0.  0.
         24    2    1    2    0    0  0.47573702335E+02  0.17563466145E+02 -0.13757061396E+03  0.16809079583E+03  0.82201638194E+02 0.  0.
        -24    2    1    2    0    0 -0.10465623872E+03  0.38478990255E+02  0.35633997875E+03  0.38217334890E+03  0.81515195869E+02 0.  0.
        -11    1    4    4    0    0  0.65978238617E+02 -0.44839394839E+01 -0.80324834732E+02  0.10404476325E+03  0.00000000000E+00 0.  1.
         12    1    4    4    0    0 -0.18404536282E+02  0.22047405629E+02 -0.57245779225E+02  0.64046032584E+02  0.00000000000E+00 0. -1.
         11    1    5    5    0    0 -0.49689810917E+02  0.32731759416E+01  0.56510544574E+02  0.75320864558E+02  0.00000000000E+00 0. -1.
        -12    1    5    5    0    0 -0.54966427808E+02  0.35205814313E+02  0.29982943418E+03  0.30685248434E+03  0.00000000000E+00 0.  1.
          5    1    3    3  501    0  0.26808562673E+01 -0.30444361658E+02 -0.31593288297E+03  0.31743519825E+03  0.41800000000E+01 0.  1.
         -5    1    3    3    0  501  0.54401680123E+02 -0.25598094742E+02 -0.52998417283E+02  0.80256525524E+02  0.41800000000E+01 0.  1.
</event>
<event>
11    1  0.2498402E-009  0.1457598E+03  0.7561462E-02  0.1101292E+00
         22   -1    0    0    0    0  0.00000000000E+00  0.00000000000E+00  0.45425166187E+03  0.45425166187E+03  0.00000000000E+00 0. -1.
         22   -1    0    0    0    0 -0.00000000000E+00 -0.00000000000E+00 -0.99006468958E+03  0.99006468958E+03  0.00000000000E+00 0.  1.
         25    2    1    2    0    0  0.17661025197E+02  0.53479864955E+01 -0.39208857581E+03  0.41197199683E+03  0.12508781764E+03 0.  0.
         24    2    1    2    0    0  0.75030445142E+01  0.66288733832E+02 -0.57655389850E+03  0.58565143464E+03  0.78247767460E+02 0.  0.
        -24    2    1    2    0    0 -0.25164069711E+02 -0.71636720327E+02  0.43282944659E+03  0.44669291998E+03  0.80175961575E+02 0.  0.
        -11    1    4    4    0    0 -0.17528045451E+02  0.41534892870E+02 -0.49200885441E+03  0.49406992675E+03  0.00000000000E+00 0.  1.
         12    1    4    4    0    0  0.25031089965E+02  0.24753840962E+02 -0.84545044094E+02  0.91581507894E+02  0.00000000000E+00 0. -1.
         11    1    5    5    0    0 -0.39471043323E+02 -0.20889534225E+02  0.30747797024E+03  0.31070410052E+03  0.00000000000E+00 0. -1.
        -12    1    5    5    0    0  0.14306973612E+02 -0.50747186102E+02  0.12535147636E+03  0.13598881945E+03  0.00000000000E+00 0.  1.
          5    1    3    3  501    0  0.54923345223E+02 -0.18792322310E+02 -0.33244050459E+03  0.33749649883E+03  0.41800000000E+01 0.  1.
         -5    1    3    3    0  501 -0.37262320026E+02  0.24140308805E+02 -0.59648071218E+02  0.74475498004E+02  0.41800000000E+01 0.  1.
</event>
<event>
11    1  0.2498402E-009  0.1256380E+03  0.7561462E-02  0.1124748E+00
         22   -1    0    0    0    0  0.00000000000E+00  0.00000000000E+00  0.20763145100E+03  0.20763145100E+03  0.00000000000E+00 0.  1.
         22   -1    0    0    0    0 -0.00000000000E+00 -0.00000000000E+00 -0.24343291072E+03  0.24343291072E+03  0.00000000000E+00 0. -1.
         25    2    1    2    0    0  0.39218169006E+00  0.28507127484E+02 -0.14054431542E+03  0.19029874108E+03  0.12509235044E+03 0.  0.
         24    2    1    2    0    0 -0.45390060739E+01 -0.18553450622E+02 -0.44566011141E+02  0.91017776412E+02  0.77027742845E+02 0.  0.
        -24    2    1    2    0    0  0.41468243839E+01 -0.99536768622E+01  0.14930886684E+03  0.16974784422E+03  0.80030750739E+02 0.  0.
        -13    1    4    4    0    0 -0.26799516939E+02 -0.38409254970E+02 -0.15406130806E+02  0.49303487117E+02  0.00000000000E+00 0.  1.
         14    1    4    4    0    0  0.22260510865E+02  0.19855804348E+02 -0.29159880335E+02  0.41714289295E+02  0.00000000000E+00 0. -1.
         11    1    5    5    0    0  0.39173472957E+02  0.97519710402E+01  0.80723176560E+02  0.90254601859E+02  0.00000000000E+00 0. -1.
        -12    1    5    5    0    0 -0.35026648573E+02 -0.19705647902E+02  0.68585690277E+02  0.79493242356E+02  0.00000000000E+00 0.  1.
          5    1    3    3  501    0 -0.44567875495E+02  0.25304288501E+02 -0.10339971989E+02  0.52449880490E+02  0.41800000000E+01 0.  1.
         -5    1    3    3    0  501  0.44960057185E+02  0.32028389829E+01 -0.13020434343E+03  0.13784886059E+03  0.41800000000E+01 0.  1.
</event>
<event>
11    1  0.2498402E-009  0.1816350E+03  0.7561462E-02  0.1068328E+00
         22   -1    0    0    0    0  0.00000000000E+00  0.00000000000E+00  0.18582959574E+03  0.18582959574E+03  0.00000000000E+00 0.  1.
         22   -1    0    0    0    0 -0.00000000000E+00 -0.00000000000E+00 -0.33408721784E+03  0.33408721784E+03  0.00000000000E+00 0.  1.
         25    2    1    2    0    0  0.59894794390E+02  0.83662507279E+02 -0.89746152349E+02  0.18518307128E+03  0.12510634079E+03 0.  0.
        -24    2    1    2    0    0 -0.14979312327E+03 -0.97678672780E+02 -0.72283231649E+02  0.21006144670E+03  0.83197613660E+02 0.  0.
         24    2    1    2    0    0  0.89898328879E+02  0.14016165501E+02  0.13771761891E+02  0.12467229560E+03  0.84115143907E+02 0.  0.
        -13    1    5    5    0    0  0.33448125332E+02 -0.17467128338E+02 -0.28632824810E+02  0.47367882760E+02  0.00000000000E+00 0.  1.
         14    1    5    5    0    0  0.56450203547E+02  0.31483293839E+02  0.42404586701E+02  0.77304412842E+02  0.00000000000E+00 0. -1.
         11    1    4    4    0    0 -0.81544236203E+01  0.12319916212E+02 -0.16727656035E+02  0.22317917387E+02  0.00000000000E+00 0. -1.
        -12    1    4    4    0    0 -0.14163869965E+03 -0.10999858899E+03 -0.55555575613E+02  0.18774352932E+03  0.00000000000E+00 0.  1.
          5    1    3    3  501    0  0.17330331327E+02  0.43638195023E+02  0.27173789037E+02  0.54410657590E+02  0.41800000000E+01 0.  1.
         -5    1    3    3    0  501  0.42564463063E+02  0.40024312257E+02 -0.11691994139E+03  0.13077241369E+03  0.41800000000E+01 0.  1.
</event>
<event>
11    1  0.2498402E-009  0.2066345E+03  0.7561462E-02  0.1049929E+00
         22   -1    0    0    0    0  0.00000000000E+00  0.00000000000E+00  0.68483202157E+03  0.68483202157E+03  0.00000000000E+00 0. -1.
         22   -1    0    0    0    0 -0.00000000000E+00 -0.00000000000E+00 -0.25526209068E+03  0.25526209068E+03  0.00000000000E+00 0.  1.
         25    2    1    2    0    0 -0.14162781041E+03 -0.74963982530E+02 -0.29008140325E+02  0.20534835348E+03  0.12509371972E+03 0.  0.
         24    2    1    2    0    0  0.14853453210E+03  0.77511127344E+02 -0.70730155280E+02  0.19909794300E+03  0.81035510434E+02 0.  0.
        -24    2    1    2    0    0 -0.69067216925E+01 -0.25471448143E+01  0.52930822649E+03  0.53564781577E+03  0.81836380395E+02 0.  0.
        -13    1    4    4    0    0  0.14212236077E+03  0.90148434714E+02 -0.75058792434E+02  0.18428056879E+03  0.00000000000E+00 0.  1.
         14    1    4    4    0    0  0.64121713279E+01 -0.12637307370E+02  0.43286371544E+01  0.14817374204E+02  0.00000000000E+00 0. -1.
         13    1    5    5    0    0  0.45790088080E+01 -0.24422724421E+02  0.47855856339E+03  0.47920322973E+03  0.00000000000E+00 0. -1.
        -14    1    5    5    0    0 -0.11485730501E+02  0.21875579606E+02  0.50749663098E+02  0.56444586036E+02  0.00000000000E+00 0.  1.
          5    1    3    3  501    0  0.22745930452E+02 -0.54585382356E+01 -0.10156536737E+02  0.25841838756E+02  0.41800000000E+01 0. -1.
         -5    1    3    3    0  501 -0.16437374086E+03 -0.69505444294E+02 -0.18851603587E+02  0.17950651472E+03  0.41800000000E+01 0. -1.
</event>
<event>
11    1  0.2498402E-009  0.2919576E+03  0.7561462E-02  0.1003654E+00
         22   -1    0    0    0    0  0.00000000000E+00  0.00000000000E+00  0.39613235675E+03  0.39613235675E+03  0.00000000000E+00 0.  1.
         22   -1    0    0    0    0 -0.00000000000E+00 -0.00000000000E+00 -0.56961539016E+03  0.56961539016E+03  0.00000000000E+00 0.  1.
         25    2    1    2    0    0 -0.83271397553E+02 -0.21828887272E+03 -0.33637574685E+03  0.42822974582E+03  0.12509162457E+03 0.  0.
        -24    2    1    2    0    0  0.11764767411E+03 -0.52870445185E+02 -0.72483307735E+02  0.16794609401E+03  0.79472016433E+02 0.  0.
         24    2    1    2    0    0 -0.34376276555E+02  0.27115931791E+03  0.23537602117E+03  0.36957190707E+03  0.80451346044E+02 0.  0.
        -13    1    5    5    0    0 -0.44118687958E+02  0.76689667375E+02  0.55177334884E+02  0.10427033132E+03  0.00000000000E+00 0.  1.
         14    1    5    5    0    0  0.97424114035E+01  0.19446965053E+03  0.18019868628E+03  0.26530157575E+03  0.00000000000E+00 0. -1.
         13    1    4    4    0    0  0.18134213328E+02 -0.40231550428E+01  0.17230536097E+02  0.25336275253E+02  0.00000000000E+00 0. -1.
        -14    1    4    4    0    0  0.99513460780E+02 -0.48847290143E+02 -0.89713843832E+02  0.14260981876E+03  0.00000000000E+00 0.  1.
          5    1    3    3  501    0 -0.89664147503E+02 -0.10699628143E+03 -0.11729491213E+03  0.18238265377E+03  0.41800000000E+01 0. -1.
         -5    1    3    3    0  501  0.63927499493E+01 -0.11129259130E+03 -0.21908083472E+03  0.24584709205E+03  0.41800000000E+01 0. -1.
</event>
<event>
11    1  0.2706204E-009  0.1278177E+04  0.7561462E-02  0.8451788E-01
         22   -1    0    0    0    0  0.00000000000E+00  0.00000000000E+00  0.41622939021E+03  0.41622939021E+03  0.00000000000E+00 0.  1.
         22   -1    0    0    0    0 -0.00000000000E+00 -0.00000000000E+00 -0.98127221535E+03  0.98127221535E+03  0.00000000000E+00 0.  1.
         25    2    1    2    0    0 -0.12910472045E+03  0.40302677970E+03 -0.74376926800E+03  0.86483439017E+03  0.12508870611E+03 0.  0.
         24    2    1    2    0    0  0.11456101653E+03 -0.33711829635E+03  0.20609421320E+03  0.41893759933E+03  0.79125944998E+02 0.  0.
        -24    2    1    2    0    0  0.14543703920E+02 -0.65908483343E+02 -0.27367770349E+02  0.11372961606E+03  0.87349775128E+02 0.  0.
        -11    1    4    4    0    0  0.92035350516E+02 -0.15550082707E+03  0.86640790369E+02  0.20039371128E+03  0.00000000000E+00 0.  1.
         12    1    4    4    0    0  0.22525666018E+02 -0.18161746928E+03  0.11945342283E+03  0.21854388805E+03  0.00000000000E+00 0. -1.
         13    1    5    5    0    0  0.33110005518E+02 -0.77357045154E+02 -0.79383198903E+01  0.84518647783E+02  0.00000000000E+00 0. -1.
        -14    1    5    5    0    0 -0.18566301598E+02  0.11448561811E+02 -0.19429450458E+02  0.29210968277E+02  0.00000000000E+00 0.  1.
          5    1    3    3  501    0 -0.98514676945E+02  0.38664565745E+03 -0.71794354391E+03  0.82137714275E+03  0.41800000000E+01 0. -1.
         -5    1    3    3    0  501 -0.30590043508E+02  0.16381122249E+02 -0.25825724096E+02  0.43457247417E+02  0.41800000000E+01 0. -1.
</event>
<event>
11    1  0.2498402E-009  0.1703703E+04  0.7561462E-02  0.8200636E-01
         22   -1    0    0    0    0  0.00000000000E+00  0.00000000000E+00  0.15652250328E+04  0.15652250328E+04  0.00000000000E+00 0. -1.
         22   -1    0    0    0    0 -0.00000000000E+00 -0.00000000000E+00 -0.22544295541E+04  0.22544295541E+04  0.00000000000E+00 0. -1.
         25    2    1    2    0    0  0.15054087544E+04 -0.74735389175E+03 -0.97453307554E+03  0.19468323507E+04  0.12509248250E+03 0.  0.
        -24    2    1    2    0    0 -0.15792648959E+04  0.72530879492E+03  0.26138392188E+03  0.17592318772E+04  0.80154747787E+02 0.  0.
         24    2    1    2    0    0  0.73856141524E+02  0.22045096830E+02  0.23944632392E+02  0.11359035902E+03  0.79929395766E+02 0.  0.
        -11    1    5    5    0    0  0.52630719112E+02 -0.87428783063E+01  0.45767627210E+02  0.70293002609E+02  0.00000000000E+00 0.  1.
         12    1    5    5    0    0  0.21225422412E+02  0.30787975137E+02 -0.21822994818E+02  0.43297356414E+02  0.00000000000E+00 0. -1.
         11    1    4    4    0    0 -0.21821417923E+03  0.11559933916E+03  0.12748058512E+02  0.24727140600E+03  0.00000000000E+00 0. -1.
        -12    1    4    4    0    0 -0.13610507167E+04  0.60970945577E+03  0.24863586337E+03  0.15119604712E+04  0.00000000000E+00 0.  1.
          5    1    3    3  501    0  0.13606077673E+04 -0.65680433816E+03 -0.83485389123E+03  0.17261645134E+04  0.41800000000E+01 0. -1.
         -5    1    3    3    0  501  0.14480098709E+03 -0.90549553589E+02 -0.13967918431E+03  0.22066783737E+03  0.41800000000E+01 0. -1.
</event>
<event>
11    1  0.2498402E-009  0.5882374E+03  0.7561462E-02  0.9215445E-01
         22   -1    0    0    0    0  0.00000000000E+00  0.00000000000E+00  0.27256479114E+04  0.27256479114E+04  0.00000000000E+00 0.  1.
         22   -1    0    0    0    0 -0.00000000000E+00 -0.00000000000E+00 -0.15407168750E+04  0.15407168750E+04  0.00000000000E+00 0.  1.
         25    2    1    2    0    0  0.56071892674E+03 -0.49329208892E+02 -0.12462788320E+04  0.13732056154E+04  0.12507457540E+03 0.  0.
        -24    2    1    2    0    0 -0.79444274506E+03 -0.39073242080E+03  0.83711010075E+03  0.12211245160E+04  0.81121285836E+02 0.  0.
         24    2    1    2    0    0  0.23372381832E+03  0.44006162970E+03  0.15940997676E+04  0.16720346550E+04  0.79150220479E+02 0.  0.
        -11    1    5    5    0    0  0.22215458896E+03  0.40239956671E+03  0.13857830778E+04  0.14600249352E+04  0.00000000000E+00 0.  1.
         12    1    5    5    0    0  0.11569229359E+02  0.37662062982E+02  0.20831668982E+03  0.21200971985E+03  0.00000000000E+00 0. -1.
         13    1    4    4    0    0 -0.33796481930E+03 -0.15858828789E+03  0.40769460344E+03  0.55279775127E+03  0.00000000000E+00 0. -1.
        -14    1    4    4    0    0 -0.45647792576E+03 -0.23214413291E+03  0.42941549731E+03  0.66832676475E+03  0.00000000000E+00 0.  1.
          5    1    3    3  501    0  0.23127110827E+03 -0.82202812792E+02 -0.52473801016E+03  0.57931949705E+03  0.41800000000E+01 0.  1.
         -5    1    3    3    0  501  0.32944781847E+03  0.32873603900E+02 -0.72154082180E+03  0.79388611832E+03  0.41800000000E+01 0.  1.
</event>
<event>
11    1  0.2498402E-009  0.9856767E+03  0.7561462E-02  0.8692758E-01
         22   -1    0    0    0    0  0.00000000000E+00  0.00000000000E+00  0.18374543600E+04  0.18374543600E+04  0.00000000000E+00 0.  1.
         22   -1    0    0    0    0 -0.00000000000E+00 -0.00000000000E+00 -0.67597681314E+03  0.67597681314E+03  0.00000000000E+00 0.  1.
         25    2    1    2    0    0 -0.91591466731E+03  0.93093928131E+02  0.37576575438E+03  0.10022044551E+04  0.12509080848E+03 0.  0.
         24    2    1    2    0    0  0.10245077205E+04 -0.23685337250E+03  0.50798868173E+03  0.11705737181E+04  0.80465764387E+02 0.  0.
        -24    2    1    2    0    0 -0.10859305322E+03  0.14375944437E+03  0.27772311072E+03  0.34065299994E+03  0.80343705978E+02 0.  0.
        -11    1    4    4    0    0  0.16596877809E+03 -0.34263473301E+02  0.50233085974E+02  0.17675684946E+03  0.00000000000E+00 0.  1.
         12    1    4    4    0    0  0.85853894243E+03 -0.20258989920E+03  0.45775559575E+03  0.99381686863E+03  0.00000000000E+00 0. -1.
         11    1    5    5    0    0  0.76999634014E+01  0.41992075322E+02  0.63020240136E+02  0.76119475123E+02  0.00000000000E+00 0. -1.
        -12    1    5    5    0    0 -0.11629301662E+03  0.10176736905E+03  0.21470287058E+03  0.26453352482E+03  0.00000000000E+00 0.  1.
          5    1    3    3  501    0 -0.62748386987E+03  0.13287965980E+02  0.28605334889E+03  0.68975109119E+03  0.41800000000E+01 0.  1.
         -5    1    3    3    0  501 -0.28843079744E+03  0.79805962151E+02  0.89712405489E+02  0.31245336388E+03  0.41800000000E+01 0.  1.
</event>
<event>
11    1  0.2498402E-009  0.2743766E+03  0.7561462E-02  0.1011659E+00
         22   -1    0    0    0    0  0.00000000000E+00  0.00000000000E+00  0.64192532046E+03  0.64192532046E+03  0.00000000000E+00 0. -1.
         22   -1    0    0    0    0 -0.00000000000E+00 -0.00000000000E+00 -0.10271997421E+04  0.10271997421E+04  0.00000000000E+00 0. -1.
         25    2    1    2    0    0 -0.11474860723E+03 -0.42917540945E+02 -0.80472533266E+03  0.82355307249E+03  0.12509054317E+03 0.  0.
         24    2    1    2    0    0 -0.10877842258E+03 -0.65782040630E+02 -0.15336650177E+03  0.21476447721E+03  0.80265027996E+02 0.  0.
        -24    2    1    2    0    0  0.22352702981E+03  0.10869958157E+03  0.57281741280E+03  0.63080751285E+03  0.89545506742E+02 0.  0.
        -13    1    4    4    0    0 -0.85883302383E+02 -0.84710052016E+02 -0.12239471708E+03  0.17184935644E+03  0.00000000000E+00 0.  1.
         14    1    4    4    0    0 -0.22895120193E+02  0.18928011386E+02 -0.30971784687E+02  0.42915120767E+02  0.00000000000E+00 0. -1.
         11    1    5    5    0    0  0.23125787300E+03  0.99032535283E+02  0.53970336061E+03  0.59545559392E+03  0.00000000000E+00 0. -1.
        -12    1    5    5    0    0 -0.77308431904E+01  0.96670462919E+01  0.33114052184E+02  0.35351918936E+02  0.00000000000E+00 0.  1.
          5    1    3    3  501    0 -0.49024579644E+02 -0.14140214372E+02 -0.78107360065E+02  0.93389438204E+02  0.41800000000E+01 0.  1.
         -5    1    3    3    0  501 -0.65724027589E+02 -0.28777326573E+02 -0.72661797260E+03  0.73016363428E+03  0.41800000000E+01 0.  1.
</event>
<event>
11    1  0.2498402E-009  0.1562151E+03  0.7561462E-02  0.1090692E+00
         22   -1    0    0    0    0  0.00000000000E+00  0.00000000000E+00  0.18735532043E+04  0.18735532043E+04  0.00000000000E+00 0. -1.
         22   -1    0    0    0    0 -0.00000000000E+00 -0.00000000000E+00 -0.49084260694E+02  0.49084260694E+02  0.00000000000E+00 0. -1.
         25    2    1    2    0    0  0.24059644316E+02 -0.30052285081E+02  0.91514470196E+02  0.15967203239E+03  0.12505300216E+03 0.  0.
         24    2    1    2    0    0 -0.80965576555E+02 -0.10131198695E+03  0.10218468121E+04  0.10332137828E+04  0.80871937616E+02 0.  0.
        -24    2    1    2    0    0  0.56905932239E+02  0.13136427203E+03  0.71110766126E+03  0.72975164976E+03  0.79802928037E+02 0.  0.
        -11    1    4    4    0    0 -0.49908181547E+01 -0.28511711522E+02  0.72672079035E+02  0.78224401762E+02  0.00000000000E+00 0.  1.
         12    1    4    4    0    0 -0.75974758400E+02 -0.72800275426E+02  0.94917473310E+03  0.95498938108E+03  0.00000000000E+00 0. -1.
         13    1    5    5    0    0  0.58715636360E+01  0.27217044000E+02  0.40246295872E+02  0.48938809498E+02  0.00000000000E+00 0. -1.
        -14    1    5    5    0    0  0.51034368603E+02  0.10414722803E+03  0.67086136539E+03  0.68081284026E+03  0.00000000000E+00 0.  1.
          5    1    3    3  501    0 -0.23965152879E+02 -0.60247240993E+02  0.77416989502E+02  0.10106889365E+03  0.41800000000E+01 0.  1.
         -5    1    3    3    0  501  0.48024797195E+02  0.30194955912E+02  0.14097480693E+02  0.58603138739E+02  0.41800000000E+01 0.  1.
</event>
<event>
11    1  0.2498402E-009  0.1448562E+03  0.7561462E-02  0.1102254E+00
         22   -1    0    0    0    0  0.00000000000E+00  0.00000000000E+00  0.47540045361E+03  0.47540045361E+03  0.00000000000E+00 0. -1.
         22   -1    0    0    0    0 -0.00000000000E+00 -0.00000000000E+00 -0.80891960160E+02  0.80891960160E+02  0.00000000000E+00 0.  1.
         25    2    1    2    0    0 -0.35333920600E+02  0.59389596720E+02  0.59392349843E+02  0.15476593888E+03  0.12509769972E+03 0.  0.
         24    2    1    2    0    0 -0.62527236836E+01 -0.89441407615E+02  0.17474885208E+03  0.21259573372E+03  0.81369052730E+02 0.  0.
        -24    2    1    2    0    0  0.41586644284E+02  0.30051810895E+02  0.16036729153E+03  0.18893074117E+03  0.85700621033E+02 0.  0.
        -11    1    4    4    0    0  0.30794212391E+02 -0.26617488632E+02  0.30180353528E+02  0.50671766863E+02  0.00000000000E+00 0.  1.
         12    1    4    4    0    0 -0.37046936074E+02 -0.62823918983E+02  0.14456849855E+03  0.16192396685E+03  0.00000000000E+00 0. -1.
         11    1    5    5    0    0  0.39950764499E+02  0.51858791311E+02  0.15203375244E+03  0.16552842566E+03  0.00000000000E+00 0. -1.
        -12    1    5    5    0    0  0.16358797845E+01 -0.21806980416E+02  0.83335390915E+01  0.23402315512E+02  0.00000000000E+00 0.  1.
          5    1    3    3  501    0  0.35779968692E+02 -0.12001661644E+01 -0.11034460588E+02  0.37694539113E+02  0.41800000000E+01 0.  1.
         -5    1    3    3    0  501 -0.71113889292E+02  0.60589762884E+02  0.70426810432E+02  0.11707139977E+03  0.41800000000E+01 0.  1.
</event>
<event>
11    1  0.2498402E-009  0.1277623E+03  0.7561462E-02  0.1122049E+00
         22   -1    0    0    0    0  0.00000000000E+00  0.00000000000E+00  0.43460477877E+03  0.43460477877E+03  0.00000000000E+00 0.  1.
         22   -1    0    0    0    0 -0.00000000000E+00 -0.00000000000E+00 -0.59010650986E+03  0.59010650986E+03  0.00000000000E+00 0. -1.
         25    2    1    2    0    0 -0.14074733346E+02  0.15766811375E+02 -0.27369230882E+03  0.30166465076E+03  0.12508953255E+03 0.  0.
         24    2    1    2    0    0 -0.78093479523E+01 -0.30842432721E+02 -0.29140408023E+03  0.30470064536E+03  0.83149887177E+02 0.  0.
        -24    2    1    2    0    0  0.21884081299E+02  0.15075621346E+02  0.40959465796E+03  0.41834599250E+03  0.80866545862E+02 0.  0.
        -11    1    4    4    0    0  0.27775439872E+02  0.10864737802E+02 -0.61505210452E+02  0.68355018106E+02  0.00000000000E+00 0.  1.
         12    1    4    4    0    0 -0.35584787824E+02 -0.41707170522E+02 -0.22989886978E+03  0.23634562726E+03  0.00000000000E+00 0. -1.
         11    1    5    5    0    0 -0.17099959209E+02  0.17689649207E+02  0.41962608605E+02  0.48643527987E+02  0.00000000000E+00 0. -1.
        -12    1    5    5    0    0  0.38984040507E+02 -0.26140278612E+01  0.36763204935E+03  0.36970246451E+03  0.00000000000E+00 0.  1.
          5    1    3    3  501    0 -0.28014379309E+02 -0.46503396436E+02 -0.18130279648E+03  0.18930279379E+03  0.41800000000E+01 0. -1.
         -5    1    3    3    0  501  0.13939645963E+02  0.62270207811E+02 -0.92389512343E+02  0.11236185697E+03  0.41800000000E+01 0. -1.
</event>
<event>
11    1  0.2498402E-009  0.7467048E+03  0.7561462E-02  0.8966174E-01
         22   -1    0    0    0    0  0.00000000000E+00  0.00000000000E+00  0.34535420692E+03  0.34535420692E+03  0.00000000000E+00 0.  1.
         22   -1    0    0    0    0 -0.00000000000E+00 -0.00000000000E+00 -0.40362043340E+03  0.40362043340E+03  0.00000000000E+00 0. -1.
         25    2    1    2    0    0 -0.36302394380E+02 -0.21155094427E+03 -0.29066474489E+03  0.38236981177E+03  0.12509601582E+03 0.  0.
        -24    2    1    2    0    0 -0.15873563984E+02  0.13633724736E+03  0.15859374430E+03  0.22435949861E+03  0.79657980328E+02 0.  0.
         24    2    1    2    0    0  0.52175958364E+02  0.75213696907E+02  0.73804774104E+02  0.14224532995E+03  0.80044727354E+02 0.  0.
        -11    1    5    5    0    0  0.42601541390E+01  0.57362548988E+02  0.70524429164E+02  0.91007175808E+02  0.00000000000E+00 0.  1.
         12    1    5    5    0    0  0.47915804225E+02  0.17851147919E+02  0.32803449404E+01  0.51238154138E+02  0.00000000000E+00 0. -1.
         11    1    4    4    0    0 -0.41074179537E+02  0.70321883183E+02  0.52521684905E+02  0.96906051742E+02  0.00000000000E+00 0. -1.
        -12    1    4    4    0    0  0.25200615553E+02  0.66015364182E+02  0.10607205940E+03  0.12745344686E+03  0.00000000000E+00 0.  1.
          5    1    3    3  501    0 -0.22319359578E+01  0.12679645411E+02 -0.49356819024E+02  0.51179321313E+02  0.41800000000E+01 0. -1.
         -5    1    3    3    0  501 -0.34070458422E+02 -0.22423058968E+03 -0.24130792586E+03  0.33119049046E+03  0.41800000000E+01 0. -1.
</event>
<event>
11    1  0.2498402E-009  0.4203649E+03  0.7561462E-02  0.9591510E-01
         22   -1    0    0    0    0  0.00000000000E+00  0.00000000000E+00  0.15417084357E+03  0.15417084357E+03  0.00000000000E+00 0.  1.
         22   -1    0    0    0    0 -0.00000000000E+00 -0.00000000000E+00 -0.35799145625E+04  0.35799145625E+04  0.00000000000E+00 0.  1.
         25    2    1    2    0    0  0.42350091319E+03  0.97484150029E+02 -0.30377133403E+04  0.30711896167E+04  0.12508853237E+03 0.  0.
         24    2    1    2    0    0 -0.20634399804E+03  0.89126666707E+02 -0.15430839355E+03  0.28452765832E+03  0.81384886686E+02 0.  0.
        -24    2    1    2    0    0 -0.21715691514E+03 -0.18661081674E+03 -0.23372198510E+03  0.37836813107E+03  0.80967608192E+02 0.  0.
        -13    1    4    4    0    0 -0.13234203212E+03  0.96085775870E+02 -0.92727302958E+02  0.18800330450E+03  0.00000000000E+00 0.  1.
         14    1    4    4    0    0 -0.74001965925E+02 -0.69591091629E+01 -0.61581090588E+02  0.96524353813E+02  0.00000000000E+00 0. -1.
         13    1    5    5    0    0 -0.82040617902E+02 -0.28441426606E+02 -0.92901024506E+02  0.12716201511E+03  0.00000000000E+00 0. -1.
        -14    1    5    5    0    0 -0.13511629724E+03 -0.15816939013E+03 -0.14082096060E+03  0.25120611596E+03  0.00000000000E+00 0.  1.
          5    1    3    3  501    0  0.38983468364E+03  0.55366404037E+02 -0.27893130329E+04  0.28169702141E+04  0.41800000000E+01 0. -1.
         -5    1    3    3    0  501  0.33666229542E+02  0.42117745992E+02 -0.24840030738E+03  0.25421940257E+03  0.41800000000E+01 0. -1.
</event>
<event>
11    1  0.2498402E-009  0.2285418E+03  0.7561462E-02  0.1035995E+00
         22   -1    0    0    0    0  0.00000000000E+00  0.00000000000E+00  0.21141499037E+03  0.21141499037E+03  0.00000000000E+00 0. -1.
         22   -1    0    0    0    0 -0.00000000000E+00 -0.00000000000E+00 -0.40349956742E+03  0.40349956742E+03  0.00000000000E+00 0. -1.
         25    2    1    2    0    0 -0.57281021800E+02  0.14251710546E+03 -0.64204664039E+02  0.20823636233E+03  0.12509157808E+03 0.  0.
        -24    2    1    2    0    0  0.14450878575E+03 -0.18249972115E+03 -0.13838207405E+03  0.28251409422E+03  0.80471595202E+02 0.  0.
         24    2    1    2    0    0 -0.87227763955E+02  0.39982615690E+02  0.10502161049E+02  0.12416410124E+03  0.78096967207E+02 0.  0.
        -13    1    5    5    0    0 -0.26413284237E+01  0.10484265891E+02  0.30514678586E+02  0.32373477668E+02  0.00000000000E+00 0.  1.
         14    1    5    5    0    0 -0.84586435531E+02  0.29498349799E+02 -0.20012517537E+02  0.91790623567E+02  0.00000000000E+00 0. -1.
         11    1    4    4    0    0  0.94061515194E+02 -0.16487669480E+03 -0.12546689575E+03  0.22753864520E+03  0.00000000000E+00 0. -1.
        -12    1    4    4    0    0  0.50447270560E+02 -0.17623026345E+02 -0.12915178304E+02  0.54975449022E+02  0.00000000000E+00 0.  1.
          5    1    3    3  501    0  0.32367708331E+01  0.58558999932E+02  0.31939471407E+02  0.66912146821E+02  0.41800000000E+01 0. -1.
         -5    1    3    3    0  501 -0.60517792633E+02  0.83958105527E+02 -0.96144135446E+02  0.14132421551E+03  0.41800000000E+01 0. -1.
</event>
<event>
11    1  0.2498402E-009  0.1368351E+03  0.7561462E-02  0.1111145E+00
         22   -1    0    0    0    0  0.00000000000E+00  0.00000000000E+00  0.39364941030E+03  0.39364941030E+03  0.00000000000E+00 0. -1.
         22   -1    0    0    0    0 -0.00000000000E+00 -0.00000000000E+00 -0.73615805979E+02  0.73615805979E+02  0.00000000000E+00 0. -1.
         25    2    1    2    0    0 -0.35886460989E+02 -0.34151860427E+02  0.11777124161E+03  0.17880646218E+03  0.12508995929E+03 0.  0.
        -24    2    1    2    0    0  0.20091668510E+01  0.65426009018E+02  0.64069525229E+02  0.12166337698E+03  0.80077923476E+02 0.  0.
         24    2    1    2    0    0  0.33877294138E+02 -0.31274148590E+02  0.13819283749E+03  0.16679537712E+03  0.81226190763E+02 0.  0.
        -11    1    5    5    0    0  0.56087988206E+02 -0.20383420426E+02  0.59358697350E+02  0.84171261131E+02  0.00000000000E+00 0.  1.
         12    1    5    5    0    0 -0.22210694068E+02 -0.10890728165E+02  0.78834140139E+02  0.82624115985E+02  0.00000000000E+00 0. -1.
         13    1    4    4    0    0  0.89211040811E+00  0.63056675414E+02  0.57935400493E+01  0.63328550288E+02  0.00000000000E+00 0. -1.
        -14    1    4    4    0    0  0.11170564429E+01  0.23693336037E+01  0.58275985180E+02  0.58334826694E+02  0.00000000000E+00 0.  1.
          5    1    3    3  501    0 -0.27829830287E+02  0.26772721579E+02  0.11007900518E+03  0.11673104924E+03  0.41800000000E+01 0. -1.
         -5    1    3    3    0  501 -0.80566307016E+01 -0.60924582007E+02  0.76922364228E+01  0.62075412944E+02  0.41800000000E+01 0. -1.
</event>
<event>
11    1  0.2498402E-009  0.5160721E+03  0.7561462E-02  0.9358308E-01
         22   -1    0    0    0    0  0.00000000000E+00  0.00000000000E+00  0.10477250062E+04  0.10477250062E+04  0.00000000000E+00 0. -1.
         22   -1    0    0    0    0 -0.00000000000E+00 -0.00000000000E+00 -0.69803012775E+03  0.69803012775E+03  0.00000000000E+00 0. -1.
         25    2    1    2    0    0 -0.47253974311E+03 -0.14336049289E+03 -0.46979889477E+03  0.69296806496E+03  0.12509075818E+03 0.  0.
        -24    2    1    2    0    0  0.52224503358E+03  0.17764956504E+03  0.72826398195E+03  0.91713485907E+03  0.80428099936E+02 0.  0.
         24    2    1    2    0    0 -0.49705290464E+02 -0.34289072146E+02  0.91229791312E+02  0.13565220996E+03  0.80201564048E+02 0.  0.
        -11    1    5    5    0    0 -0.41558808529E+02 -0.59221920209E+02  0.54791825132E+02  0.90755245032E+02  0.00000000000E+00 0.  1.
         12    1    5    5    0    0 -0.81464819355E+01  0.24932848063E+02  0.36437966180E+02  0.44896964928E+02  0.00000000000E+00 0. -1.
         11    1    4    4    0    0  0.44126786562E+03  0.13376981300E+03  0.64575357492E+03  0.79347928242E+03  0.00000000000E+00 0. -1.
        -12    1    4    4    0    0  0.80977167960E+02  0.43879752040E+02  0.82510407030E+02  0.12365557666E+03  0.00000000000E+00 0.  1.
          5    1    3    3  501    0 -0.29849901558E+02  0.10763085041E+02 -0.42249593326E+01  0.32282863937E+02  0.41800000000E+01 0.  1.
         -5    1    3    3    0  501 -0.44268984155E+03 -0.15412357793E+03 -0.46557393544E+03  0.66068520102E+03  0.41800000000E+01 0.  1.
</event>
<event>
11    1  0.2498402E-009  0.1507567E+03  0.7561462E-02  0.1096108E+00
         22   -1    0    0    0    0  0.00000000000E+00  0.00000000000E+00  0.60111687812E+03  0.60111687812E+03  0.00000000000E+00 0. -1.
         22   -1    0    0    0    0 -0.00000000000E+00 -0.00000000000E+00 -0.45295152498E+03  0.45295152498E+03  0.00000000000E+00 0. -1.
         25    2    1    2    0    0  0.77540220173E+02 -0.77708304369E+02 -0.22558655143E+03  0.28033646776E+03  0.12509267229E+03 0.  0.
         24    2    1    2    0    0 -0.56064337134E+02  0.42368635065E+02 -0.18118618251E+03  0.21147229724E+03  0.83389379623E+02 0.  0.
        -24    2    1    2    0    0 -0.21475883038E+02  0.35339669303E+02  0.55493808707E+03  0.56225963810E+03  0.80433291441E+02 0.  0.
        -13    1    4    4    0    0 -0.17727504489E+02  0.10877144795E+02  0.27345853359E+01  0.20977479621E+02  0.00000000000E+00 0.  1.
         14    1    4    4    0    0 -0.38336832646E+02  0.31491490270E+02 -0.18392076784E+03  0.19049481762E+03  0.00000000000E+00 0. -1.
         11    1    5    5    0    0 -0.40408750051E+02  0.51058551707E+02  0.43239507202E+03  0.43727032953E+03  0.00000000000E+00 0. -1.
        -12    1    5    5    0    0  0.18932867012E+02 -0.15718882404E+02  0.12254301505E+03  0.12498930856E+03  0.00000000000E+00 0.  1.
          5    1    3    3  501    0 -0.26844327332E+02 -0.39723174410E+02 -0.34302597464E+02  0.59098977046E+02  0.41800000000E+01 0. -1.
         -5    1    3    3    0  501  0.10438454750E+03 -0.37985129959E+02 -0.19128395396E+03  0.22123749072E+03  0.41800000000E+01 0. -1.
</event>
<event>
11    1  0.2498402E-009  0.1588621E+03  0.7561462E-02  0.1088152E+00
         22   -1    0    0    0    0  0.00000000000E+00  0.00000000000E+00  0.55299486155E+03  0.55299486155E+03  0.00000000000E+00 0. -1.
         22   -1    0    0    0    0 -0.00000000000E+00 -0.00000000000E+00 -0.14652666328E+03  0.14652666328E+03  0.00000000000E+00 0.  1.
         25    2    1    2    0    0 -0.67205571271E+02 -0.84311052961E+00 -0.41081811135E+01  0.14205382220E+03  0.12508042055E+03 0.  0.
        -24    2    1    2    0    0  0.29560948166E+02  0.13508298364E+03  0.57523056667E+02  0.17059662675E+03  0.81688707211E+02 0.  0.
         24    2    1    2    0    0  0.37644623105E+02 -0.13423987311E+03  0.35305332272E+03  0.38687107588E+03  0.74733657007E+02 0.  0.
        -11    1    5    5    0    0  0.57346859604E+01  0.72226489486E+01  0.67456767461E+01  0.11426173273E+02  0.00000000000E+00 0.  1.
         12    1    5    5    0    0  0.31909937145E+02 -0.14146252206E+03  0.34630764597E+03  0.37544490261E+03  0.00000000000E+00 0. -1.
         13    1    4    4    0    0  0.27890176548E+02  0.75536902988E+02  0.73391770616E+02  0.10894970241E+03  0.00000000000E+00 0. -1.
        -14    1    4    4    0    0  0.16707716181E+01  0.59546080648E+02 -0.15868713949E+02  0.61646924342E+02  0.00000000000E+00 0.  1.
          5    1    3    3  501    0 -0.75707048492E+02  0.26680179455E+01  0.47469570076E+02  0.89495854621E+02  0.41800000000E+01 0.  1.
         -5    1    3    3    0  501  0.85014772209E+01 -0.35111284752E+01 -0.51577751190E+02  0.52557967578E+02  0.41800000000E+01 0.  1.
</event>
<event>
11    1  0.2498402E-009  0.1470333E+03  0.7561462E-02  0.1099949E+00
         22   -1    0    0    0    0  0.00000000000E+00  0.00000000000E+00  0.42750695256E+03  0.42750695256E+03  0.00000000000E+00 0.  1.
         22   -1    0    0    0    0 -0.00000000000E+00 -0.00000000000E+00 -0.13271535477E+04  0.13271535477E+04  0.00000000000E+00 0. -1.
         25    2    1    2    0    0 -0.62086625238E+02  0.37696183753E+02 -0.80013044988E+03  0.81310044041E+03  0.12509131891E+03 0.  0.
        -24    2    1    2    0    0 -0.12845340798E+02 -0.57580056792E+02 -0.50798288715E+03  0.51781801492E+03  0.81292171952E+02 0.  0.
         24    2    1    2    0    0  0.74931966037E+02  0.19883873039E+02  0.40846674188E+03  0.42374204494E+03  0.81866192606E+02 0.  0.
        -11    1    5    5    0    0  0.28165666263E+02 -0.16998137567E+02  0.28244778571E+03  0.28435715762E+03  0.00000000000E+00 0.  1.
         12    1    5    5    0    0  0.46766299774E+02  0.36882010607E+02  0.12601895617E+03  0.13938488733E+03  0.00000000000E+00 0. -1.
         13    1    4    4    0    0 -0.11189827399E+02 -0.55210232483E+02 -0.51073165511E+03  0.51382896526E+03  0.00000000000E+00 0. -1.
        -14    1    4    4    0    0 -0.16555133999E+01 -0.23698243085E+01  0.27487679636E+01  0.39890496597E+01  0.00000000000E+00 0.  1.
          5    1    3    3  501    0  0.11476540349E+02 -0.36991669347E+02 -0.18113537142E+03  0.18527706215E+03  0.41800000000E+01 0. -1.
         -5    1    3    3    0  501 -0.73563165587E+02  0.74687853100E+02 -0.61899507846E+03  0.62782337826E+03  0.41800000000E+01 0. -1.
</event>
<event>
11    1  0.2498402E-009  0.1291290E+03  0.7561462E-02  0.1120344E+00
         22   -1    0    0    0    0  0.00000000000E+00  0.00000000000E+00  0.54536574011E+02  0.54536574011E+02  0.00000000000E+00 0.  1.
         22   -1    0    0    0    0 -0.00000000000E+00 -0.00000000000E+00 -0.74093418929E+03  0.74093418929E+03  0.00000000000E+00 0. -1.
         25    2    1    2    0    0  0.19609026164E+02  0.48229833517E+01 -0.40857232697E+03  0.42777016474E+03  0.12509273522E+03 0.  0.
        -24    2    1    2    0    0 -0.26838122333E+02  0.85259623747E+02 -0.14362311186E+03  0.18716828588E+03  0.80092950548E+02 0.  0.
         24    2    1    2    0    0  0.72290961690E+01 -0.90082607099E+02 -0.13420217646E+03  0.18053231268E+03  0.80090922225E+02 0.  0.
        -13    1    5    5    0    0  0.17139670681E+02 -0.58035560726E+02 -0.23595844029E+02  0.64951200722E+02  0.00000000000E+00 0.  1.
         14    1    5    5    0    0 -0.99105745125E+01 -0.32047046373E+02 -0.11060633243E+03  0.11558111196E+03  0.00000000000E+00 0. -1.
         13    1    4    4    0    0  0.74254038650E+01 -0.12624066424E+02 -0.29674780790E+02  0.33092239129E+02  0.00000000000E+00 0. -1.
        -14    1    4    4    0    0 -0.34263526198E+02  0.97883690172E+02 -0.11394833107E+03  0.15407604675E+03  0.00000000000E+00 0.  1.
          5    1    3    3  501    0 -0.31887336878E+02  0.21260498286E+02 -0.41222657786E+02  0.56441039638E+02  0.41800000000E+01 0. -1.
         -5    1    3    3    0  501  0.51496363042E+02 -0.16437514934E+02 -0.36734966918E+03  0.37132912510E+03  0.41800000000E+01 0. -1.
</event>
<event>
11    1  0.2498402E-009  0.5206711E+03  0.7561462E-02  0.9348481E-01
         22   -1    0    0    0    0  0.00000000000E+00  0.00000000000E+00  0.33753535061E+04  0.33753535061E+04  0.00000000000E+00 0.  1.
         22   -1    0    0    0    0 -0.00000000000E+00 -0.00000000000E+00 -0.36828540089E+03  0.36828540089E+03  0.00000000000E+00 0.  1.
         25    2    1    2    0    0 -0.49069335599E+03  0.11495143703E+03 -0.13903428151E+03  0.53756090785E+03  0.12508955084E+03 0.  0.
        -24    2    1    2    0    0  0.50956445440E+03 -0.12926969983E+03  0.27631622514E+04  0.28138073898E+04  0.77973141805E+02 0.  0.
         24    2    1    2    0    0 -0.18871098409E+02  0.14318262795E+02  0.38294013533E+03  0.39227060935E+03  0.81682021908E+02 0.  0.
        -11    1    5    5    0    0 -0.31081909101E+02 -0.19646824103E+02  0.29392817782E+03  0.29621927096E+03  0.00000000000E+00 0.  1.
         12    1    5    5    0    0  0.12210810692E+02  0.33965086898E+02  0.89011957517E+02  0.96051338391E+02  0.00000000000E+00 0. -1.
         11    1    4    4    0    0  0.23529149970E+03 -0.82482908754E+02  0.11372901052E+04  0.11642999199E+04  0.00000000000E+00 0. -1.
        -12    1    4    4    0    0  0.27427295470E+03 -0.46786791076E+02  0.16258721462E+04  0.16495074699E+04  0.00000000000E+00 0.  1.
          5    1    3    3  501    0 -0.33323859437E+03  0.41547098370E+02 -0.41809596251E+02  0.33843705013E+03  0.41800000000E+01 0. -1.
         -5    1    3    3    0  501 -0.15745476162E+03  0.73404338664E+02 -0.97224685262E+02  0.19912385773E+03  0.41800000000E+01 0. -1.
</event>
<event>
11    1  0.2498402E-009  0.1977326E+03  0.7561462E-02  0.1056139E+00
         22   -1    0    0    0    0  0.00000000000E+00  0.00000000000E+00  0.62630950717E+03  0.62630950717E+03  0.00000000000E+00 0. -1.
         22   -1    0    0    0    0 -0.00000000000E+00 -0.00000000000E+00 -0.16752367247E+03  0.16752367247E+03  0.00000000000E+00 0.  1.
         25    2    1    2    0    0  0.15543333732E+03 -0.54332958270E+02  0.15348116044E+03  0.25751796707E+03  0.12508974398E+03 0.  0.
        -24    2    1    2    0    0 -0.11272047643E+03  0.10277644094E+03 -0.38740833728E+02  0.17709672403E+03  0.81200337727E+02 0.  0.
         24    2    1    2    0    0 -0.42712860891E+02 -0.48443482674E+02  0.34404550799E+03  0.35921848854E+03  0.80619175376E+02 0.  0.
        -11    1    5    5    0    0 -0.24752334452E+02 -0.10591422946E+02  0.22880849794E+02  0.35332557057E+02  0.00000000000E+00 0.  1.
         12    1    5    5    0    0 -0.17960526439E+02 -0.37852059728E+02  0.32116465820E+03  0.32388593148E+03  0.00000000000E+00 0. -1.
         13    1    4    4    0    0 -0.17328072092E+02 -0.29801138268E+01  0.16713874980E+02  0.24258952526E+02  0.00000000000E+00 0. -1.
        -14    1    4    4    0    0 -0.95392404333E+02  0.10575655477E+03 -0.55454708708E+02  0.15283777151E+03  0.00000000000E+00 0.  1.
          5    1    3    3  501    0  0.70749398742E+02  0.15785494340E+02  0.50902953338E+01  0.72787655275E+02  0.41800000000E+01 0.  1.
         -5    1    3    3    0  501  0.84683938574E+02 -0.70118452609E+02  0.14839086510E+03  0.18473031179E+03  0.41800000000E+01 0.  1.
</event>
<event>
11    1  0.2498402E-009  0.1827452E+03  0.7561462E-02  0.1067444E+00
         22   -1    0    0    0    0  0.00000000000E+00  0.00000000000E+00  0.13094214964E+04  0.13094214964E+04  0.00000000000E+00 0.  1.
         22   -1    0    0    0    0 -0.00000000000E+00 -0.00000000000E+00 -0.13747448514E+03  0.13747448514E+03  0.00000000000E+00 0.  1.
         25    2    1    2    0    0 -0.81687253544E+02  0.82318757489E+02 -0.35210132171E+02  0.17417377577E+03  0.12509022957E+03 0.  0.
         24    2    1    2    0    0 -0.18846157663E+02  0.64097533519E+01  0.37085807479E+02  0.92286952939E+02  0.82129543830E+02 0.  0.
        -24    2    1    2    0    0  0.10053341121E+03 -0.88728510841E+02  0.11700713360E+04  0.11804352528E+04  0.79879531016E+02 0.  0.
        -11    1    4    4    0    0  0.88773183463E+01  0.35144376205E+02 -0.21439427952E+01  0.36311574609E+02  0.00000000000E+00 0.  1.
         12    1    4    4    0    0 -0.27723476009E+02 -0.28734622854E+02  0.39229750275E+02  0.55975378330E+02  0.00000000000E+00 0. -1.
         11    1    5    5    0    0  0.25848568325E+02  0.38769768242E+01  0.86780584482E+02  0.90631392336E+02  0.00000000000E+00 0. -1.
        -12    1    5    5    0    0  0.74684842882E+02 -0.92605487665E+02  0.10832907515E+04  0.10898038605E+04  0.00000000000E+00 0.  1.
          5    1    3    3  501    0 -0.67344511017E+02 -0.17154688505E+02 -0.20038025951E+02  0.72446955670E+02  0.41800000000E+01 0.  1.
         -5    1    3    3    0  501 -0.14342742527E+02  0.99473445995E+02 -0.15172106220E+02  0.10172682010E+03  0.41800000000E+01 0.  1.
</event>
<event>
11    1  0.2498402E-009  0.1262476E+03  0.7561462E-02  0.1123967E+00
         22   -1    0    0    0    0  0.00000000000E+00  0.00000000000E+00  0.23048458504E+02  0.23048458504E+02  0.00000000000E+00 0. -1.
         22   -1    0    0    0    0 -0.00000000000E+00 -0.00000000000E+00 -0.20708684898E+04  0.20708684898E+04  0.00000000000E+00 0. -1.
         25    2    1    2    0    0  0.25325321274E+01  0.99237465931E+00 -0.12700207402E+04  0.12761690138E+04  0.12508905971E+03 0.  0.
         24    2    1    2    0    0 -0.45535892686E+02 -0.86089852780E+02 -0.38053532957E+03  0.40117394230E+03  0.81537811177E+02 0.  0.
        -24    2    1    2    0    0  0.43003360558E+02  0.85097478121E+02 -0.39726396158E+03  0.41657399220E+03  0.81390208326E+02 0.  0.
        -11    1    4    4    0    0 -0.15012334648E+02  0.51953124386E+01 -0.15692900407E+03  0.15773101718E+03  0.00000000000E+00 0.  1.
         12    1    4    4    0    0 -0.30523558038E+02 -0.91285165219E+02 -0.22360632551E+03  0.24344292512E+03  0.00000000000E+00 0. -1.
         11    1    5    5    0    0  0.24845113259E+02  0.99145040091E+02 -0.31508493963E+03  0.33124845329E+03  0.00000000000E+00 0. -1.
        -12    1    5    5    0    0  0.18158247299E+02 -0.14047561970E+02 -0.82179021951E+02  0.85325538915E+02  0.00000000000E+00 0.  1.
          5    1    3    3  501    0 -0.85951551999E+01  0.40778191115E+02 -0.16060393142E+03  0.16597539803E+03  0.41800000000E+01 0.  1.
         -5    1    3    3    0  501  0.11127687327E+02 -0.39785816455E+02 -0.11094168087E+04  0.11101936158E+04  0.41800000000E+01 0.  1.
</event>
<event>
11    1  0.2498402E-009  0.3890187E+03  0.7561462E-02  0.9682726E-01
         22   -1    0    0    0    0  0.00000000000E+00  0.00000000000E+00  0.14974406882E+04  0.14974406882E+04  0.00000000000E+00 0.  1.
         22   -1    0    0    0    0 -0.00000000000E+00 -0.00000000000E+00 -0.49386421301E+03  0.49386421301E+03  0.00000000000E+00 0.  1.
         25    2    1    2    0    0 -0.38459192550E+03 -0.96229271043E+02 -0.34617385304E+03  0.54097604586E+03  0.12509086259E+03 0.  0.
        -24    2    1    2    0    0  0.24534036110E+03  0.50378392253E+02  0.36618685697E+03  0.45281403221E+03  0.90652404070E+02 0.  0.
         24    2    1    2    0    0  0.13925156440E+03  0.45850878790E+02  0.98356347124E+03  0.99751482312E+03  0.78392723592E+02 0.  0.
        -13    1    5    5    0    0  0.14389972136E+03  0.41749261400E+02  0.97723937893E+03  0.98865915985E+03  0.00000000000E+00 0.  1.
         14    1    5    5    0    0 -0.46481569573E+01  0.41016173899E+01  0.63240923109E+01  0.88556632654E+01  0.00000000000E+00 0. -1.
         11    1    4    4    0    0  0.32686553037E+02  0.22357968813E+02  0.17186386723E+02  0.43170144863E+02  0.00000000000E+00 0. -1.
        -12    1    4    4    0    0  0.21265380806E+03  0.28020423439E+02  0.34900047024E+03  0.40964388735E+03  0.00000000000E+00 0.  1.
          5    1    3    3  501    0 -0.36330109686E+02 -0.51338081013E+02 -0.70188446599E+02  0.94336450367E+02  0.41800000000E+01 0. -1.
         -5    1    3    3    0  501 -0.34826181581E+03 -0.44891190030E+02 -0.27598540644E+03  0.44663959550E+03  0.41800000000E+01 0. -1.
</event>
<event>
11    1  0.2498402E-009  0.1433854E+04  0.7561462E-02  0.8349488E-01
         22   -1    0    0    0    0  0.00000000000E+00  0.00000000000E+00  0.16711866047E+04  0.16711866047E+04  0.00000000000E+00 0.  1.
         22   -1    0    0    0    0 -0.00000000000E+00 -0.00000000000E+00 -0.17711444219E+04  0.17711444219E+04  0.00000000000E+00 0.  1.
         25    2    1    2    0    0  0.81237234643E+03 -0.12145496372E+04 -0.79207510128E+03  0.16667664318E+04  0.12509085245E+03 0.  0.
         24    2    1    2    0    0 -0.91957886465E+03  0.99868579697E+03  0.68262743039E+03  0.15216754116E+04  0.80729425182E+02 0.  0.
        -24    2    1    2    0    0  0.10720651822E+03  0.21586384028E+03  0.94898536663E+01  0.25388918326E+03  0.79241560844E+02 0.  0.
        -13    1    4    4    0    0 -0.20427733978E+03  0.19343342613E+03  0.17144391034E+03  0.32945217602E+03  0.00000000000E+00 0.  1.
         14    1    4    4    0    0 -0.71530152487E+03  0.80525237084E+03  0.51118352004E+03  0.11922232356E+04  0.00000000000E+00 0. -1.
         11    1    5    5    0    0  0.71616578672E+02  0.60065809350E+02  0.10631735831E+02  0.94073745542E+02  0.00000000000E+00 0. -1.
        -12    1    5    5    0    0  0.35589939552E+02  0.15579803093E+03 -0.11418821643E+01  0.15981543772E+03  0.00000000000E+00 0.  1.
          5    1    3    3  501    0  0.63406895782E+03 -0.10135661552E+04 -0.68180832438E+03  0.13763138660E+04  0.41800000000E+01 0. -1.
         -5    1    3    3    0  501  0.17830338861E+03 -0.20098348203E+03 -0.11026677690E+03  0.29045256571E+03  0.41800000000E+01 0. -1.
</event>
<event>
11    1  0.2498402E-009  0.1455105E+04  0.7561462E-02  0.8336575E-01
         22   -1    0    0    0    0  0.00000000000E+00  0.00000000000E+00  0.99674363436E+03  0.99674363436E+03  0.00000000000E+00 0.  1.
         22   -1    0    0    0    0 -0.00000000000E+00 -0.00000000000E+00 -0.53106181376E+03  0.53106181376E+03  0.00000000000E+00 0.  1.
         25    2    1    2    0    0  0.54620878593E+03  0.28448262678E+03 -0.11067497113E+03  0.63810009037E+03  0.12509345836E+03 0.  0.
         24    2    1    2    0    0 -0.31214151343E+03 -0.18513140735E+03  0.18823329745E+03  0.41873180036E+03  0.90546032309E+02 0.  0.
        -24    2    1    2    0    0 -0.23406727250E+03 -0.99351219431E+02  0.38812349429E+03  0.47097355740E+03  0.80734701900E+02 0.  0.
        -13    1    4    4    0    0 -0.27934443617E+03 -0.19128489445E+03  0.18331060133E+03  0.38500130055E+03  0.00000000000E+00 0.  1.
         14    1    4    4    0    0 -0.32797077258E+02  0.61534870990E+01  0.49226961203E+01  0.33730499808E+02  0.00000000000E+00 0. -1.
         13    1    5    5    0    0 -0.13445510641E+03 -0.62867482046E+02  0.29316849826E+03  0.32860046304E+03  0.00000000000E+00 0. -1.
        -14    1    5    5    0    0 -0.99612166085E+02 -0.36483737385E+02  0.94954996035E+02  0.14237309436E+03  0.00000000000E+00 0.  1.
          5    1    3    3  501    0  0.37640566690E+03  0.23369204341E+03 -0.12463434169E+03  0.46026556330E+03  0.41800000000E+01 0. -1.
         -5    1    3    3    0  501  0.16980311903E+03  0.50790583369E+02  0.13959370562E+02  0.17783452707E+03  0.41800000000E+01 0. -1.
</event>
<event>
11    1  0.2498402E-009  0.2043443E+03  0.7561462E-02  0.1051493E+00
         22   -1    0    0    0    0  0.00000000000E+00  0.00000000000E+00  0.29276967000E+03  0.29276967000E+03  0.00000000000E+00 0. -1.
         22   -1    0    0    0    0 -0.00000000000E+00 -0.00000000000E+00 -0.11132724672E+04  0.11132724672E+04  0.00000000000E+00 0.  1.
         25    2    1    2    0    0  0.49351051284E+02  0.16891123857E+03 -0.28553940897E+03  0.35797666782E+03  0.12509199754E+03 0.  0.
        -24    2    1    2    0    0 -0.27938370527E+02 -0.15500573951E+03 -0.77421135449E+03  0.79585054189E+03  0.95747228534E+02 0.  0.
         24    2    1    2    0    0 -0.21412680758E+02 -0.13905499060E+02  0.23924796624E+03  0.25221492751E+03  0.75636727232E+02 0.  0.
        -13    1    5    5    0    0  0.80289372475E+01  0.17118564327E+02  0.15596052911E+02  0.24510119224E+02  0.00000000000E+00 0.  1.
         14    1    5    5    0    0 -0.29441618005E+02 -0.31024063388E+02  0.22365191333E+03  0.22770480829E+03  0.00000000000E+00 0. -1.
         11    1    4    4    0    0 -0.16563000871E+02 -0.37389481413E+02 -0.64512886080E+02  0.76382058028E+02  0.00000000000E+00 0. -1.
        -12    1    4    4    0    0 -0.11375369656E+02 -0.11761625810E+03 -0.70969846841E+03  0.71946848386E+03  0.00000000000E+00 0.  1.
          5    1    3    3  501    0 -0.29863916654E+02  0.41246902199E+01 -0.62711665638E+02  0.69707187538E+02  0.41800000000E+01 0.  1.
         -5    1    3    3    0  501  0.79214967939E+02  0.16478654835E+03 -0.22282774334E+03  0.28826948028E+03  0.41800000000E+01 0.  1.
</event>
<event>
11    1  0.2498402E-009  0.3388219E+03  0.7561462E-02  0.9849800E-01
         22   -1    0    0    0    0  0.00000000000E+00  0.00000000000E+00  0.81823890547E+03  0.81823890547E+03  0.00000000000E+00 0.  1.
         22   -1    0    0    0    0 -0.00000000000E+00 -0.00000000000E+00 -0.22465733839E+03  0.22465733839E+03  0.00000000000E+00 0.  1.
         25    2    1    2    0    0  0.18096207162E+02  0.85231547455E+02 -0.65762181666E+02  0.16603889037E+03  0.12510938887E+03 0.  0.
         24    2    1    2    0    0 -0.42323217724E+01  0.15825913992E+03  0.86331517101E+01  0.17756550059E+03  0.79944404268E+02 0.  0.
        -24    2    1    2    0    0 -0.13863885389E+02 -0.24349068738E+03  0.65071059704E+03  0.69929185289E+03  0.78133810018E+02 0.  0.
        -11    1    4    4    0    0  0.16520921006E+02  0.84974396314E+02  0.39790397512E+02  0.95272580494E+02  0.00000000000E+00 0.  1.
         12    1    4    4    0    0 -0.20753242779E+02  0.73284743611E+02 -0.31157245801E+02  0.82292920095E+02  0.00000000000E+00 0. -1.
         13    1    5    5    0    0  0.10933017497E+02 -0.14410175379E+03  0.46824539388E+03  0.49003938128E+03  0.00000000000E+00 0. -1.
        -14    1    5    5    0    0 -0.24796902886E+02 -0.99388933586E+02  0.18246520316E+03  0.20925247161E+03  0.00000000000E+00 0.  1.
          5    1    3    3  501    0  0.60923000328E+02  0.50800619217E+01 -0.22196218847E+02  0.65173334495E+02  0.41800000000E+01 0.  1.
         -5    1    3    3    0  501 -0.42826793166E+02  0.80151485533E+02 -0.43565962818E+02  0.10086555588E+03  0.41800000000E+01 0.  1.
</event>
<event>
11    1  0.2498402E-009  0.2133118E+03  0.7561462E-02  0.1045490E+00
         22   -1    0    0    0    0  0.00000000000E+00  0.00000000000E+00  0.54055610186E+03  0.54055610186E+03  0.00000000000E+00 0. -1.
         22   -1    0    0    0    0 -0.00000000000E+00 -0.00000000000E+00 -0.24120033863E+03  0.24120033863E+03  0.00000000000E+00 0. -1.
         25    2    1    2    0    0  0.30254965204E+02 -0.19346796425E+03 -0.28493817698E+02  0.23410387528E+03  0.12509001024E+03 0.  0.
        -24    2    1    2    0    0 -0.65526115164E+01  0.15650870040E+03 -0.29992022363E+02  0.17829642653E+03  0.79700591512E+02 0.  0.
         24    2    1    2    0    0 -0.23702353687E+02  0.36959263849E+02  0.35784160329E+03  0.36935613868E+03  0.80284216250E+02 0.  0.
        -13    1    5    5    0    0 -0.31409261452E+02  0.42676761908E+02  0.11833437981E+03  0.12965675130E+03  0.00000000000E+00 0.  1.
         14    1    5    5    0    0  0.77069077648E+01 -0.57174980583E+01  0.23950722348E+03  0.23969938738E+03  0.00000000000E+00 0. -1.
         13    1    4    4    0    0  0.29382538973E+02  0.93823455048E+02 -0.38408893998E+02  0.10555291304E+03  0.00000000000E+00 0. -1.
        -14    1    4    4    0    0 -0.35935150490E+02  0.62685245356E+02  0.84168716351E+01  0.72743513485E+02  0.00000000000E+00 0.  1.
          5    1    3    3  501    0  0.56004404206E+02 -0.18617175386E+03 -0.48517006910E+02  0.20041903000E+03  0.41800000000E+01 0.  1.
         -5    1    3    3    0  501 -0.25749439003E+02 -0.72962103888E+01  0.20023189213E+02  0.33684845276E+02  0.41800000000E+01 0.  1.
</event>
<event>
11    1  0.2498402E-009  0.1970871E+03  0.7561462E-02  0.1056603E+00
         22   -1    0    0    0    0  0.00000000000E+00  0.00000000000E+00  0.41361721710E+03  0.41361721710E+03  0.00000000000E+00 0.  1.
         22   -1    0    0    0    0 -0.00000000000E+00 -0.00000000000E+00 -0.85357349660E+03  0.85357349660E+03  0.00000000000E+00 0.  1.
         25    2    1    2    0    0  0.32454412955E+02 -0.14913396710E+03 -0.78812833416E+03  0.81245817016E+03  0.12509107922E+03 0.  0.
         24    2    1    2    0    0  0.40328442035E+02  0.15766928880E+03  0.18493226781E+03  0.25900348964E+03  0.79980473238E+02 0.  0.
        -24    2    1    2    0    0 -0.72782854990E+02 -0.85353217088E+01  0.16323978686E+03  0.19572905389E+03  0.79324894126E+02 0.  0.
        -11    1    4    4    0    0  0.58836708698E+02  0.12618575967E+03  0.11693656698E+03  0.18182069445E+03  0.00000000000E+00 0.  1.
         12    1    4    4    0    0 -0.18508266663E+02  0.31483529137E+02  0.67995700834E+02  0.77182795193E+02  0.00000000000E+00 0. -1.
         13    1    5    5    0    0  0.15144240698E+02  0.86435631789E+01  0.17854730463E+02  0.24956975191E+02  0.00000000000E+00 0. -1.
        -14    1    5    5    0    0 -0.87927095688E+02 -0.17178884888E+02  0.14538505639E+03  0.17077207870E+03  0.00000000000E+00 0.  1.
          5    1    3    3  501    0  0.19316573996E+02 -0.11951880169E+03 -0.30427902204E+03  0.32750735815E+03  0.41800000000E+01 0.  1.
         -5    1    3    3    0  501  0.13137838959E+02 -0.29615165402E+02 -0.48384931212E+03  0.48495081201E+03  0.41800000000E+01 0.  1.
</event>
<event>
11    1  0.2498402E-009  0.1876265E+03  0.7561462E-02  0.1063636E+00
         22   -1    0    0    0    0  0.00000000000E+00  0.00000000000E+00  0.39680504596E+04  0.39680504596E+04  0.00000000000E+00 0. -1.
         22   -1    0    0    0    0 -0.00000000000E+00 -0.00000000000E+00 -0.12258468545E+02  0.12258468545E+02  0.00000000000E+00 0. -1.
         25    2    1    2    0    0 -0.13050713479E+03  0.73439012796E+02  0.14814468113E+04  0.14942414985E+04  0.12509036835E+03 0.  0.
         24    2    1    2    0    0  0.12545046044E+03 -0.38404417645E+02  0.15424771746E+04  0.15500570277E+04  0.78919183998E+02 0.  0.
        -24    2    1    2    0    0  0.50566743575E+01 -0.35034595151E+02  0.93186800512E+03  0.93601040194E+03  0.80526397872E+02 0.  0.
        -13    1    4    4    0    0  0.39178532593E+02 -0.97971641538E+01  0.92959912257E+03  0.93047593763E+03  0.00000000000E+00 0.  1.
         14    1    4    4    0    0  0.86271927844E+02 -0.28607253491E+02  0.61287805205E+03  0.61958109007E+03  0.00000000000E+00 0. -1.
         13    1    5    5    0    0 -0.29856798993E+02  0.95385482346E+01  0.33360153830E+03  0.33507073687E+03  0.00000000000E+00 0. -1.
        -14    1    5    5    0    0  0.34913473350E+02 -0.44573143386E+02  0.59826646682E+03  0.60093966507E+03  0.00000000000E+00 0.  1.
          5    1    3    3  501    0 -0.61262677682E+02 -0.17049216372E+02  0.86459710477E+03  0.86694256871E+03  0.41800000000E+01 0.  1.
         -5    1    3    3    0  501 -0.69244457112E+02  0.90488229168E+02  0.61684970654E+03  0.62729892979E+03  0.41800000000E+01 0.  1.
</event>
<event>
11    1  0.2498402E-009  0.1389747E+03  0.7561462E-02  0.1108709E+00
         22   -1    0    0    0    0  0.00000000000E+00  0.00000000000E+00  0.72645120080E+02  0.72645120080E+02  0.00000000000E+00 0. -1.
         22   -1    0    0    0    0 -0.00000000000E+00 -0.00000000000E+00 -0.15924207323E+04  0.15924207323E+04  0.00000000000E+00 0. -1.
         25    2    1    2    0    0 -0.33663253060E+02 -0.41806669263E+02 -0.76666031292E+03  0.77865097267E+03  0.12509312381E+03 0.  0.
         24    2    1    2    0    0  0.58801513069E+02  0.30582136802E+02 -0.78734926150E+03  0.79423627551E+03  0.80619580224E+02 0.  0.
        -24    2    1    2    0    0 -0.25138260009E+02  0.11224532460E+02  0.34233962235E+02  0.92178604172E+02  0.81037081954E+02 0.  0.
        -13    1    4    4    0    0  0.40081131133E+02 -0.12311658395E+02 -0.58690423943E+03  0.58840008521E+03  0.00000000000E+00 0.  1.
         14    1    4    4    0    0  0.18720381936E+02  0.42893795198E+02 -0.20044502207E+03  0.20583619030E+03  0.00000000000E+00 0. -1.
         13    1    5    5    0    0  0.14762718511E+02 -0.36469514150E+01  0.45630531438E+02  0.48097645595E+02  0.00000000000E+00 0. -1.
        -14    1    5    5    0    0 -0.39900978520E+02  0.14871483875E+02 -0.11396569203E+02  0.44080958578E+02  0.00000000000E+00 0.  1.
          5    1    3    3  501    0  0.70940278584E+01 -0.71035316147E+02 -0.26522863336E+03  0.27469991213E+03  0.41800000000E+01 0.  1.
         -5    1    3    3    0  501 -0.40757280918E+02  0.29228646884E+02 -0.50143167956E+03  0.50395106054E+03  0.41800000000E+01 0.  1.
</event>
<event>
11    1  0.2498402E-009  0.1282585E+03  0.7561462E-02  0.1121427E+00
         22   -1    0    0    0    0  0.00000000000E+00  0.00000000000E+00  0.13127466107E+04  0.13127466107E+04  0.00000000000E+00 0. -1.
         22   -1    0    0    0    0 -0.00000000000E+00 -0.00000000000E+00 -0.35995610449E+03  0.35995610449E+03  0.00000000000E+00 0.  1.
         25    2    1    2    0    0 -0.10682312859E+02  0.32570446430E+02 -0.18327878843E+03  0.22452660038E+03  0.12508450824E+03 0.  0.
         24    2    1    2    0    0 -0.13914159659E+02 -0.18420521650E+02 -0.14360663632E+03  0.16569875208E+03  0.79374372368E+02 0.  0.
        -24    2    1    2    0    0  0.24596472518E+02 -0.14149924779E+02  0.12796759310E+04  0.12824773627E+04  0.79827882191E+02 0.  0.
        -13    1    4    4    0    0 -0.16293736777E+00 -0.47664373498E+02 -0.10527549952E+03  0.11556318553E+03  0.00000000000E+00 0.  1.
         14    1    4    4    0    0 -0.13751222291E+02  0.29243851847E+02 -0.38331136802E+02  0.50135566556E+02  0.00000000000E+00 0. -1.
         13    1    5    5    0    0  0.81455076771E+01  0.11084645639E+01  0.11902862988E+04  0.11903146857E+04  0.00000000000E+00 0. -1.
        -14    1    5    5    0    0  0.16450964841E+02 -0.15258389343E+02  0.89389632222E+02  0.92162677036E+02  0.00000000000E+00 0.  1.
          5    1    3    3  501    0 -0.57287262736E+02  0.26310153838E+02 -0.42757378234E+02  0.76287092357E+02  0.41800000000E+01 0.  1.
         -5    1    3    3    0  501  0.46604949878E+02  0.62602925922E+01 -0.14052141019E+03  0.14823950802E+03  0.41800000000E+01 0.  1.
</event>
<event>
11    1  0.2498402E-009  0.2321752E+03  0.7561462E-02  0.1033848E+00
         22   -1    0    0    0    0  0.00000000000E+00  0.00000000000E+00  0.49283161273E+03  0.49283161273E+03  0.00000000000E+00 0.  1.
         22   -1    0    0    0    0 -0.00000000000E+00 -0.00000000000E+00 -0.17826808021E+03  0.17826808021E+03  0.00000000000E+00 0. -1.
         25    2    1    2    0    0 -0.17501887494E+03  0.16595495010E+02  0.32212954329E+02  0.21814396796E+03  0.12506837846E+03 0.  0.
        -24    2    1    2    0    0  0.23299210159E+03 -0.45352488144E+02  0.19893149874E+03  0.32020320927E+03  0.81327648733E+02 0.  0.
         24    2    1    2    0    0 -0.57973226657E+02  0.28756993133E+02  0.83419079445E+02  0.13275251572E+03  0.80477499658E+02 0.  0.
        -13    1    5    5    0    0 -0.51085721912E+02  0.42929841358E+02  0.92885619378E+02  0.11436984108E+03  0.00000000000E+00 0.  1.
         14    1    5    5    0    0 -0.68875047458E+01 -0.14172848225E+02 -0.94665399335E+01  0.18382674635E+02  0.00000000000E+00 0. -1.
         13    1    4    4    0    0  0.81954067687E+02  0.19932250998E+01  0.26540767032E+02  0.86167595251E+02  0.00000000000E+00 0. -1.
        -14    1    4    4    0    0  0.15103803391E+03 -0.47345713244E+02  0.17239073171E+03  0.23403561402E+03  0.00000000000E+00 0.  1.
          5    1    3    3  501    0 -0.73835881352E+02 -0.50215522684E+02 -0.93977167940E+01  0.89883956157E+02  0.41800000000E+01 0.  1.
         -5    1    3    3    0  501 -0.10118299358E+03  0.66811017695E+02  0.41610671123E+02  0.12826001180E+03  0.41800000000E+01 0.  1.
</event>
<event>
11    1  0.2498402E-009  0.1439342E+03  0.7561462E-02  0.1103243E+00
         22   -1    0    0    0    0  0.00000000000E+00  0.00000000000E+00  0.15224814568E+03  0.15224814568E+03  0.00000000000E+00 0. -1.
         22   -1    0    0    0    0 -0.00000000000E+00 -0.00000000000E+00 -0.65786237444E+03  0.65786237444E+03  0.00000000000E+00 0. -1.
         25    2    1    2    0    0 -0.43125608788E+02 -0.49867574584E+02 -0.37139898266E+03  0.39740592585E+03  0.12509065691E+03 0.  0.
         24    2    1    2    0    0  0.69573292454E+02  0.36562067593E+02 -0.24492890590E+03  0.26947609474E+03  0.80311698303E+02 0.  0.
        -24    2    1    2    0    0 -0.26447683666E+02  0.13305506991E+02  0.11071365981E+03  0.14322849953E+03  0.85909092193E+02 0.  0.
        -13    1    4    4    0    0 -0.91949133983E+01  0.14326144161E+02 -0.80010181190E+01  0.18809602066E+02  0.00000000000E+00 0.  1.
         14    1    4    4    0    0  0.78768205852E+02  0.22235923431E+02 -0.23692788778E+03  0.25066649268E+03  0.00000000000E+00 0. -1.
         11    1    5    5    0    0 -0.76219528726E+01  0.33420952708E+02  0.11048112726E+03  0.11567685044E+03  0.00000000000E+00 0. -1.
        -12    1    5    5    0    0 -0.18825730793E+02 -0.20115445717E+02  0.23253254446E+00  0.27551649092E+02  0.00000000000E+00 0.  1.
          5    1    3    3  501    0 -0.63275811268E+02  0.14627044752E+02 -0.11414925191E+03  0.13139749938E+03  0.41800000000E+01 0.  1.
         -5    1    3    3    0  501  0.20150202480E+02 -0.64494619336E+02 -0.25724973075E+03  0.26600842647E+03  0.41800000000E+01 0.  1.
</event>
<event>
11    1  0.2498402E-009  0.2559034E+03  0.7561462E-02  0.1020801E+00
         22   -1    0    0    0    0  0.00000000000E+00  0.00000000000E+00  0.28969959416E+03  0.28969959416E+03  0.00000000000E+00 0. -1.
         22   -1    0    0    0    0 -0.00000000000E+00 -0.00000000000E+00 -0.17252157949E+04  0.17252157949E+04  0.00000000000E+00 0. -1.
         25    2    1    2    0    0  0.21728379610E+03  0.20353495907E+02 -0.15267760768E+04  0.15473595997E+04  0.12510007719E+03 0.  0.
         24    2    1    2    0    0 -0.31886264625E+03  0.86319121804E+01  0.55568928853E+02  0.32927222980E+03  0.59869845347E+02 0.  0.
        -24    2    1    2    0    0  0.10157885015E+03 -0.28985408088E+02  0.35690947238E+02  0.13828355951E+03  0.81792924109E+02 0.  0.
        -11    1    4    4    0    0 -0.43782369778E+02  0.12121065460E+01  0.29612873071E+02  0.52870477179E+02  0.00000000000E+00 0.  1.
         12    1    4    4    0    0 -0.27508027647E+03  0.74198056344E+01  0.25956055782E+02  0.27640175262E+03  0.00000000000E+00 0. -1.
         11    1    5    5    0    0  0.10312797561E+03 -0.77273174263E+01  0.85447514337E+01  0.10376947318E+03  0.00000000000E+00 0. -1.
        -12    1    5    5    0    0 -0.15491254516E+01 -0.21258090661E+02  0.27146195804E+02  0.34514086326E+02  0.00000000000E+00 0.  1.
          5    1    3    3  501    0  0.17152699889E+03  0.55080592149E+02 -0.13354359268E+04  0.13475392277E+04  0.41800000000E+01 0.  1.
         -5    1    3    3    0  501  0.45756797204E+02 -0.34727096242E+02 -0.19134014993E+03  0.19982037204E+03  0.41800000000E+01 0.  1.
</event>
<event>
11    1  0.2498402E-009  0.2651172E+03  0.7561462E-02  0.1016141E+00
         22   -1    0    0    0    0  0.00000000000E+00  0.00000000000E+00  0.28699748518E+03  0.28699748518E+03  0.00000000000E+00 0. -1.
         22   -1    0    0    0    0 -0.00000000000E+00 -0.00000000000E+00 -0.84037797598E+03  0.84037797598E+03  0.00000000000E+00 0. -1.
         25    2    1    2    0    0  0.18029285197E+03  0.13367426588E+03 -0.55836267796E+03  0.61464645968E+03  0.12508824254E+03 0.  0.
        -24    2    1    2    0    0 -0.14950530680E+03 -0.28543833847E+03  0.39469259279E+02  0.33450778286E+03  0.80689234315E+02 0.  0.
         24    2    1    2    0    0 -0.30787545162E+02  0.15176407259E+03 -0.34487072116E+02  0.17822121862E+03  0.81198755877E+02 0.  0.
        -11    1    5    5    0    0  0.54729529170E+01  0.13059382499E+03 -0.13863598665E+02  0.13144162091E+03  0.00000000000E+00 0.  1.
         12    1    5    5    0    0 -0.36260498079E+02  0.21170247597E+02 -0.20623473451E+02  0.46779597705E+02  0.00000000000E+00 0. -1.
         13    1    4    4    0    0 -0.75780921935E+02 -0.68938110878E+02  0.16388373147E+00  0.10244626942E+03  0.00000000000E+00 0. -1.
        -14    1    4    4    0    0 -0.73724384869E+02 -0.21650022759E+03  0.39305375548E+02  0.23206151343E+03  0.00000000000E+00 0.  1.
          5    1    3    3  501    0  0.17128208754E+03  0.71106254258E+02 -0.47504353194E+03  0.50997792358E+03  0.41800000000E+01 0.  1.
         -5    1    3    3    0  501  0.90107644264E+01  0.62568011618E+02 -0.83319146026E+02  0.10466853609E+03  0.41800000000E+01 0.  1.
</event>
<event>
11    1  0.2498402E-009  0.1380533E+03  0.7561462E-02  0.1109752E+00
         22   -1    0    0    0    0  0.00000000000E+00  0.00000000000E+00  0.11378585505E+03  0.11378585505E+03  0.00000000000E+00 0.  1.
         22   -1    0    0    0    0 -0.00000000000E+00 -0.00000000000E+00 -0.10895089996E+04  0.10895089996E+04  0.00000000000E+00 0. -1.
         25    2    1    2    0    0 -0.37227844460E+02 -0.22235466952E+01 -0.64008665023E+03  0.65326249841E+03  0.12510042153E+03 0.  0.
        -24    2    1    2    0    0  0.83640960511E+02 -0.13641810040E+02 -0.41464858123E+03  0.43066785902E+03  0.79746157355E+02 0.  0.
         24    2    1    2    0    0 -0.46413116051E+02  0.15865356735E+02  0.79012086868E+02  0.11936449727E+03  0.74827043581E+02 0.  0.
        -11    1    5    5    0    0 -0.51941763950E+02  0.36972681906E+02  0.72602368735E+02  0.96623133853E+02  0.00000000000E+00 0.  1.
         12    1    5    5    0    0  0.55286478986E+01 -0.21107325171E+02  0.64097181331E+01  0.22741363416E+02  0.00000000000E+00 0. -1.
         13    1    4    4    0    0  0.70064481288E+02  0.58978254633E+01 -0.39045331212E+03  0.39673366990E+03  0.00000000000E+00 0. -1.
        -14    1    4    4    0    0  0.13576479223E+02 -0.19539635503E+02 -0.24195269114E+02  0.33934189119E+02  0.00000000000E+00 0.  1.
          5    1    3    3  501    0 -0.29231941068E+02  0.48997602691E+02 -0.50947046020E+03  0.51267230631E+03  0.41800000000E+01 0.  1.
         -5    1    3    3    0  501 -0.79959033914E+01 -0.51221149386E+02 -0.13061619004E+03  0.14059019210E+03  0.41800000000E+01 0.  1.
</event>
<event>
11    1  0.2498402E-009  0.1758209E+03  0.7561462E-02  0.1073074E+00
         22   -1    0    0    0    0  0.00000000000E+00  0.00000000000E+00  0.48375345221E+03  0.48375345221E+03  0.00000000000E+00 0.  1.
         22   -1    0    0    0    0 -0.00000000000E+00 -0.00000000000E+00 -0.67647322581E+03  0.67647322581E+03  0.00000000000E+00 0. -1.
         25    2    1    2    0    0  0.20242275090E+00  0.11972272969E+03 -0.34241100564E+03  0.38370055365E+03  0.12508894878E+03 0.  0.
         24    2    1    2    0    0 -0.82455684601E+02 -0.26057466722E+02 -0.28945322279E+03  0.31311030025E+03  0.82322296163E+02 0.  0.
        -24    2    1    2    0    0  0.82253261850E+02 -0.93665262963E+02  0.43914445483E+03  0.46341582412E+03  0.79797200870E+02 0.  0.
        -11    1    4    4    0    0 -0.72455351009E+02 -0.15508895285E+02 -0.10741379197E+03  0.13049148029E+03  0.00000000000E+00 0.  1.
         12    1    4    4    0    0 -0.10000333592E+02 -0.10548571438E+02 -0.18203943082E+03  0.18261881996E+03  0.00000000000E+00 0. -1.
         11    1    5    5    0    0  0.80416256459E+02 -0.40539008560E+02  0.21589440810E+03  0.23392430606E+03  0.00000000000E+00 0. -1.
        -12    1    5    5    0    0  0.18370053908E+01 -0.53126254403E+02  0.22325004674E+03  0.22949151806E+03  0.00000000000E+00 0.  1.
          5    1    3    3  501    0  0.65341032640E+01  0.69887571584E+02 -0.48315322190E+02  0.85315941803E+02  0.41800000000E+01 0.  1.
         -5    1    3    3    0  501 -0.63316805131E+01  0.49835158101E+02 -0.29409568345E+03  0.29838461185E+03  0.41800000000E+01 0.  1.
</event>
<event>
11    1  0.2498402E-009  0.3742978E+03  0.7561462E-02  0.9728793E-01
         22   -1    0    0    0    0  0.00000000000E+00  0.00000000000E+00  0.88218216860E+03  0.88218216860E+03  0.00000000000E+00 0. -1.
         22   -1    0    0    0    0 -0.00000000000E+00 -0.00000000000E+00 -0.40733567786E+03  0.40733567786E+03  0.00000000000E+00 0. -1.
         25    2    1    2    0    0 -0.31524929299E+03 -0.27534536212E+03 -0.12494900339E+03  0.45437622698E+03  0.12509323334E+03 0.  0.
         24    2    1    2    0    0  0.25156364661E+03  0.11613312186E+03  0.10800784207E+03  0.30803854016E+03  0.80317357946E+02 0.  0.
        -24    2    1    2    0    0  0.63685646380E+02  0.15921224026E+03  0.49178765206E+03  0.52710307932E+03  0.81105872194E+02 0.  0.
        -13    1    4    4    0    0  0.11493785629E+03  0.89127830627E+02  0.30340726166E+02  0.14857671643E+03  0.00000000000E+00 0.  1.
         14    1    4    4    0    0  0.13662579032E+03  0.27005291235E+02  0.77667115900E+02  0.15946182373E+03  0.00000000000E+00 0. -1.
         11    1    5    5    0    0  0.48524433964E+02  0.11925938506E+03  0.44711003993E+03  0.46527928110E+03  0.00000000000E+00 0. -1.
        -12    1    5    5    0    0  0.15161212416E+02  0.39952855195E+02  0.44677612133E+02  0.61823798217E+02  0.00000000000E+00 0.  1.
          5    1    3    3  501    0 -0.20873890570E+03 -0.10847597175E+03 -0.38878442587E+02  0.23847006709E+03  0.41800000000E+01 0.  1.
         -5    1    3    3    0  501 -0.10651038729E+03 -0.16686939037E+03 -0.86070560798E+02  0.21590615989E+03  0.41800000000E+01 0.  1.
</event>
<event>
11    1  0.2498402E-009  0.6390938E+03  0.7561462E-02  0.9127210E-01
         22   -1    0    0    0    0  0.00000000000E+00  0.00000000000E+00  0.27873347637E+04  0.27873347637E+04  0.00000000000E+00 0.  1.
         22   -1    0    0    0    0 -0.00000000000E+00 -0.00000000000E+00 -0.33313931328E+03  0.33313931328E+03  0.00000000000E+00 0.  1.
         25    2    1    2    0    0  0.75275017844E+02 -0.62956255134E+03  0.43476702887E+03  0.77889988016E+03  0.12508924639E+03 0.  0.
        -24    2    1    2    0    0 -0.66562608674E+02  0.61582353593E+03  0.44913821873E+03  0.76915990289E+03  0.78820101532E+02 0.  0.
         24    2    1    2    0    0 -0.87124091692E+01  0.13739015402E+02  0.15702902028E+04  0.15724142939E+04  0.80066997626E+02 0.  0.
        -13    1    5    5    0    0  0.28043655922E+02  0.28637037045E+02  0.96030972250E+03  0.96114582122E+03  0.00000000000E+00 0.  1.
         14    1    5    5    0    0 -0.36756065092E+02 -0.14898021643E+02  0.60998048030E+03  0.61126847270E+03  0.00000000000E+00 0. -1.
         11    1    4    4    0    0  0.15377843752E+02  0.44768039268E+02  0.38846218302E+02  0.61234664160E+02  0.00000000000E+00 0. -1.
        -12    1    4    4    0    0 -0.81940452426E+02  0.57105549666E+03  0.41029200043E+03  0.70792523873E+03  0.00000000000E+00 0.  1.
          5    1    3    3  501    0  0.79294360232E+02 -0.18099964199E+03  0.13556298672E+03  0.23967323950E+03  0.41800000000E+01 0.  1.
         -5    1    3    3    0  501 -0.40193423888E+01 -0.44856290934E+03  0.29920404215E+03  0.53922664065E+03  0.41800000000E+01 0.  1.
</event>
<event>
11    1  0.2498402E-009  0.1592980E+03  0.7561462E-02  0.1087739E+00
         22   -1    0    0    0    0  0.00000000000E+00  0.00000000000E+00  0.50560800491E+03  0.50560800491E+03  0.00000000000E+00 0.  1.
         22   -1    0    0    0    0 -0.00000000000E+00 -0.00000000000E+00 -0.14004073748E+03  0.14004073748E+03  0.00000000000E+00 0. -1.
         25    2    1    2    0    0 -0.10020365216E+03  0.15755971018E+02 -0.25448410253E+02  0.16304583425E+03  0.12508916801E+03 0.  0.
        -24    2    1    2    0    0  0.95910607164E+02  0.35938244579E+02  0.70030548094E+02  0.14771716837E+03  0.80160352890E+02 0.  0.
         24    2    1    2    0    0  0.42930449919E+01 -0.51694215598E+02  0.32098512959E+03  0.33488573978E+03  0.80164101251E+02 0.  0.
        -11    1    5    5    0    0  0.29307661645E+02 -0.52983294225E+02  0.28286495807E+03  0.28927280032E+03  0.00000000000E+00 0.  1.
         12    1    5    5    0    0 -0.25014616653E+02  0.12890786271E+01  0.38120171515E+02  0.45612939462E+02  0.00000000000E+00 0. -1.
         13    1    4    4    0    0  0.87126332730E+02  0.34838889840E+01  0.23494190824E+02  0.90305660620E+02  0.00000000000E+00 0. -1.
        -14    1    4    4    0    0  0.87842744335E+01  0.32454355595E+02  0.46536357270E+02  0.57411507752E+02  0.00000000000E+00 0.  1.
          5    1    3    3  501    0 -0.11060187394E+03 -0.23680435063E+02 -0.39233218548E+02  0.11979255136E+03  0.41800000000E+01 0.  1.
         -5    1    3    3    0  501  0.10398221782E+02  0.39436406082E+02  0.13784808294E+02  0.43253282888E+02  0.41800000000E+01 0.  1.
</event>
<event>
11    1  0.2498402E-009  0.2443562E+03  0.7561462E-02  0.1026949E+00
         22   -1    0    0    0    0  0.00000000000E+00  0.00000000000E+00  0.32985232685E+03  0.32985232685E+03  0.00000000000E+00 0. -1.
         22   -1    0    0    0    0 -0.00000000000E+00 -0.00000000000E+00 -0.26231183215E+03  0.26231183215E+03  0.00000000000E+00 0. -1.
         25    2    1    2    0    0  0.17926992999E+03 -0.10092024509E+03  0.31119038606E+02  0.24277434586E+03  0.12509350413E+03 0.  0.
         24    2    1    2    0    0 -0.21492017478E+03  0.39428867367E+02 -0.95534762419E+01  0.23260051554E+03  0.79160683493E+02 0.  0.
        -24    2    1    2    0    0  0.35650244789E+02  0.61491377718E+02  0.45974932337E+02  0.11678929761E+03  0.80460649665E+02 0.  0.
        -13    1    4    4    0    0 -0.71989862530E+02 -0.13847363218E+02  0.22595545397E+02  0.76712765867E+02  0.00000000000E+00 0.  1.
         14    1    4    4    0    0 -0.14293031225E+03  0.53276230585E+02 -0.32149021639E+02  0.15588774967E+03  0.00000000000E+00 0. -1.
         13    1    5    5    0    0  0.32088009221E+02 -0.11632015361E+02  0.15618326884E+02  0.37535000357E+02  0.00000000000E+00 0. -1.
        -14    1    5    5    0    0  0.35622355677E+01  0.73123393080E+02  0.30356605454E+02  0.79254297249E+02  0.00000000000E+00 0.  1.
          5    1    3    3  501    0  0.26115381362E+01 -0.66458214196E+01 -0.31785740969E+02  0.32844981393E+02  0.41800000000E+01 0.  1.
         -5    1    3    3    0  501  0.17665839186E+03 -0.94274423666E+02  0.62904779574E+02  0.20992936446E+03  0.41800000000E+01 0.  1.
</event>
<event>
11    1  0.2498402E-009  0.1383893E+03  0.7561462E-02  0.1109370E+00
         22   -1    0    0    0    0  0.00000000000E+00  0.00000000000E+00  0.70709720306E+03  0.70709720306E+03  0.00000000000E+00 0. -1.
         22   -1    0    0    0    0 -0.00000000000E+00 -0.00000000000E+00 -0.56920992368E+02  0.56920992368E+02  0.00000000000E+00 0. -1.
         25    2    1    2    0    0 -0.29130696427E+02 -0.13364400982E+02  0.17768760612E+03  0.21965295879E+03  0.12508929711E+03 0.  0.
         24    2    1    2    0    0  0.64763421070E+02 -0.77850346038E+02  0.15413143018E+03  0.20183674491E+03  0.82015832260E+02 0.  0.
        -24    2    1    2    0    0 -0.35632724643E+02  0.91214747020E+02  0.31835717439E+03  0.34252849172E+03  0.79904042535E+02 0.  0.
        -11    1    4    4    0    0 -0.12852575369E+02  0.17357292947E+00  0.51262752575E+00  0.12863965491E+02  0.00000000000E+00 0.  1.
         12    1    4    4    0    0  0.77615996439E+02 -0.78023918968E+02  0.15361880265E+03  0.18897277942E+03  0.00000000000E+00 0. -1.
         11    1    5    5    0    0 -0.39166466216E+02  0.51691591996E+02  0.27973631326E+03  0.28715577256E+03  0.00000000000E+00 0. -1.
        -12    1    5    5    0    0  0.35337415728E+01  0.39523155024E+02  0.38620861137E+02  0.55372719163E+02  0.00000000000E+00 0.  1.
          5    1    3    3  501    0  0.18184258539E+02 -0.47275438834E+02  0.25923430267E+02  0.57053755462E+02  0.41800000000E+01 0. -1.
         -5    1    3    3    0  501 -0.47314954966E+02  0.33911037852E+02  0.15176417585E+03  0.16259920333E+03  0.41800000000E+01 0. -1.
</event>
<event>
11    1  0.2498402E-009  0.1137180E+04  0.7561462E-02  0.8558472E-01
         22   -1    0    0    0    0  0.00000000000E+00  0.00000000000E+00  0.14808071246E+04  0.14808071246E+04  0.00000000000E+00 0. -1.
         22   -1    0    0    0    0 -0.00000000000E+00 -0.00000000000E+00 -0.28409075036E+04  0.28409075036E+04  0.00000000000E+00 0. -1.
         25    2    1    2    0    0  0.19569901536E+03 -0.10713396003E+04 -0.20075017377E+04  0.22873079723E+04  0.12509152448E+03 0.  0.
         24    2    1    2    0    0 -0.21942262438E+02  0.13543667566E+04  0.64236201030E+02  0.13585630066E+04  0.82318766206E+02 0.  0.
        -24    2    1    2    0    0 -0.17375675292E+03 -0.28302715624E+03  0.58316515766E+03  0.67584364934E+03  0.79920315931E+02 0.  0.
        -11    1    4    4    0    0  0.12221182038E+01  0.72002598273E+03  0.73181086562E+02  0.72373640285E+03  0.00000000000E+00 0.  1.
         12    1    4    4    0    0 -0.23164380641E+02  0.63434077385E+03 -0.89448855315E+01  0.63482660378E+03  0.00000000000E+00 0. -1.
         11    1    5    5    0    0 -0.15733276115E+03 -0.23217110790E+03  0.42773501786E+03  0.51148242060E+03  0.00000000000E+00 0. -1.
        -12    1    5    5    0    0 -0.16423991770E+02 -0.50856048340E+02  0.15543013979E+03  0.16436122874E+03  0.00000000000E+00 0.  1.
          5    1    3    3  501    0  0.98207681729E+02 -0.40065489100E+03 -0.64682533039E+03  0.76718287968E+03  0.41800000000E+01 0. -1.
         -5    1    3    3    0  501  0.97491333631E+02 -0.67068470933E+03 -0.13606764073E+04  0.15201250926E+04  0.41800000000E+01 0. -1.
</event>
<event>
11    1  0.2498402E-009  0.4169033E+03  0.7561462E-02  0.9601159E-01
         22   -1    0    0    0    0  0.00000000000E+00  0.00000000000E+00  0.21558162752E+03  0.21558162752E+03  0.00000000000E+00 0.  1.
         22   -1    0    0    0    0 -0.00000000000E+00 -0.00000000000E+00 -0.18546303194E+04  0.18546303194E+04  0.00000000000E+00 0.  1.
         25    2    1    2    0    0  0.34876596065E+03  0.29183604840E+03 -0.13774699114E+04  0.14559797298E+04  0.12509053691E+03 0.  0.
        -24    2    1    2    0    0 -0.28814825827E+03 -0.81188926682E+02 -0.21313335651E+03  0.37608201248E+03  0.79942428621E+02 0.  0.
         24    2    1    2    0    0 -0.60617702384E+02 -0.21064712171E+03 -0.48445424001E+02  0.23815020463E+03  0.79510031630E+02 0.  0.
        -13    1    5    5    0    0 -0.77149030818E+02 -0.19745240478E+03 -0.45142142851E+02  0.21674233129E+03  0.00000000000E+00 0.  1.
         14    1    5    5    0    0  0.16531328434E+02 -0.13194716930E+02 -0.33032811502E+01  0.21407873342E+02  0.00000000000E+00 0. -1.
         11    1    4    4    0    0 -0.72736876047E+02 -0.24027524654E+02 -0.10051513657E+03  0.12637748121E+03  0.00000000000E+00 0. -1.
        -12    1    4    4    0    0 -0.21541138222E+03 -0.57161402028E+02 -0.11261821994E+03  0.24970453126E+03  0.00000000000E+00 0.  1.
          5    1    3    3  501    0  0.26094523566E+03  0.28027834525E+03 -0.11206898168E+04  0.11843190047E+04  0.41800000000E+01 0. -1.
         -5    1    3    3    0  501  0.87820724987E+02  0.11557703144E+02 -0.25678009457E+03  0.27166072518E+03  0.41800000000E+01 0. -1.
</event>
<event>
11    1  0.2498402E-009  0.1605675E+03  0.7561462E-02  0.1086545E+00
         22   -1    0    0    0    0  0.00000000000E+00  0.00000000000E+00  0.24927188365E+03  0.24927188365E+03  0.00000000000E+00 0. -1.
         22   -1    0    0    0    0 -0.00000000000E+00 -0.00000000000E+00 -0.93359070893E+03  0.93359070893E+03  0.00000000000E+00 0. -1.
         25    2    1    2    0    0 -0.15000970459E+02  0.92818037996E+02 -0.68310625873E+03  0.70080090361E+03  0.12509008148E+03 0.  0.
         24    2    1    2    0    0 -0.10468395214E+03 -0.13835290917E+03 -0.16740940495E+03  0.25417184200E+03  0.80480799483E+02 0.  0.
        -24    2    1    2    0    0  0.11968492260E+03  0.45534871178E+02  0.16619683841E+03  0.22788984697E+03  0.88963408581E+02 0.  0.
        -11    1    4    4    0    0 -0.29180952723E+02 -0.50377382146E+02 -0.11078246103E+03  0.12514856094E+03  0.00000000000E+00 0.  1.
         12    1    4    4    0    0 -0.75502999418E+02 -0.87975527028E+02 -0.56626943924E+02  0.12902328106E+03  0.00000000000E+00 0. -1.
         11    1    5    5    0    0  0.12431626023E+03  0.34483178374E+02  0.17164859796E+03  0.21472508780E+03  0.00000000000E+00 0. -1.
        -12    1    5    5    0    0 -0.46313376306E+01  0.11051692804E+02 -0.54517595481E+01  0.13164759179E+02  0.00000000000E+00 0.  1.
          5    1    3    3  501    0 -0.51635513689E+02  0.10740335137E+02 -0.40647769750E+03  0.40990629666E+03  0.41800000000E+01 0. -1.
         -5    1    3    3    0  501  0.36634543230E+02  0.82077702859E+02 -0.27662856123E+03  0.29089460695E+03  0.41800000000E+01 0. -1.
</event>
<event>
11    1  0.2498402E-009  0.2010490E+03  0.7561462E-02  0.1053784E+00
         22   -1    0    0    0    0  0.00000000000E+00  0.00000000000E+00  0.15758027866E+03  0.15758027866E+03  0.00000000000E+00 0.  1.
         22   -1    0    0    0    0 -0.00000000000E+00 -0.00000000000E+00 -0.49297150328E+03  0.49297150328E+03  0.00000000000E+00 0. -1.
         25    2    1    2    0    0 -0.36461418660E+02  0.96348041493E+02 -0.28169923675E+03  0.32498294836E+03  0.12508827519E+03 0.  0.
        -24    2    1    2    0    0  0.60612406071E+02 -0.16088665031E+03  0.29638141077E+02  0.19173027936E+03  0.79521711514E+02 0.  0.
         24    2    1    2    0    0 -0.24150987412E+02  0.64538608814E+02 -0.83330128937E+02  0.13383855421E+03  0.78869170051E+02 0.  0.
        -13    1    5    5    0    0 -0.17590714867E+02  0.30527805337E+01  0.11057037045E+02  0.21000256825E+02  0.00000000000E+00 0.  1.
         14    1    5    5    0    0 -0.65602725448E+01  0.61485828280E+02 -0.94387165982E+02  0.11283829739E+03  0.00000000000E+00 0. -1.
         11    1    4    4    0    0  0.39951364847E+02 -0.59853731818E+02 -0.23524175574E+02  0.75709758962E+02  0.00000000000E+00 0. -1.
        -12    1    4    4    0    0  0.20661041224E+02 -0.10103291849E+03  0.53162316651E+02  0.11602052040E+03  0.00000000000E+00 0.  1.
          5    1    3    3  501    0  0.27272463612E+02 -0.35918282128E+01 -0.12719988381E+03  0.13020741662E+03  0.41800000000E+01 0. -1.
         -5    1    3    3    0  501 -0.63733882271E+02  0.99939869706E+02 -0.15449935294E+03  0.19477553174E+03  0.41800000000E+01 0. -1.
</event>
<event>
11    1  0.2498402E-009  0.2032172E+03  0.7561462E-02  0.1052272E+00
         22   -1    0    0    0    0  0.00000000000E+00  0.00000000000E+00  0.51467457711E+02  0.51467457711E+02  0.00000000000E+00 0.  1.
         22   -1    0    0    0    0 -0.00000000000E+00 -0.00000000000E+00 -0.15404233368E+04  0.15404233368E+04  0.00000000000E+00 0.  1.
         25    2    1    2    0    0 -0.12220703161E+03 -0.14355282139E+03 -0.10395962774E+04  0.10639312484E+04  0.12508920883E+03 0.  0.
         24    2    1    2    0    0  0.13766027183E+02  0.10415341069E+03 -0.27227663762E+03  0.30245294521E+03  0.79408942883E+02 0.  0.
        -24    2    1    2    0    0  0.10844100443E+03  0.39399410694E+02 -0.17708296405E+03  0.22550660092E+03  0.78632600710E+02 0.  0.
        -13    1    4    4    0    0 -0.67681783158E+01  0.87328146750E+02 -0.25767522030E+03  0.27215534646E+03  0.00000000000E+00 0.  1.
         14    1    4    4    0    0  0.20534205499E+02  0.16825263942E+02 -0.14601417325E+02  0.30297598751E+02  0.00000000000E+00 0. -1.
         11    1    5    5    0    0  0.36851800231E+02  0.51112512708E+02 -0.10963946034E+03  0.12645693100E+03  0.00000000000E+00 0. -1.
        -12    1    5    5    0    0  0.71589204197E+02 -0.11713102014E+02 -0.67443503714E+02  0.99049669912E+02  0.00000000000E+00 0.  1.
          5    1    3    3  501    0 -0.95557252535E+02 -0.30417815551E+02 -0.63747109714E+03  0.64532418528E+03  0.41800000000E+01 0.  1.
         -5    1    3    3    0  501 -0.26649779076E+02 -0.11313500583E+03 -0.40212518026E+03  0.41860706309E+03  0.41800000000E+01 0.  1.
</event>
<event>
11    1  0.2498402E-009  0.1987716E+03  0.7561462E-02  0.1055396E+00
         22   -1    0    0    0    0  0.00000000000E+00  0.00000000000E+00  0.15602896621E+03  0.15602896621E+03  0.00000000000E+00 0. -1.
         22   -1    0    0    0    0 -0.00000000000E+00 -0.00000000000E+00 -0.19802597800E+04  0.19802597800E+04  0.00000000000E+00 0. -1.
         25    2    1    2    0    0 -0.73376172308E+02  0.13811226987E+03 -0.17620060376E+04  0.17733502445E+04  0.12508697505E+03 0.  0.
         24    2    1    2    0    0  0.11041684576E+03  0.90331638842E+01 -0.12101354358E+03  0.18257524268E+03  0.80099710548E+02 0.  0.
        -24    2    1    2    0    0 -0.37040673456E+02 -0.14714543375E+03  0.58788767397E+02  0.18036325904E+03  0.77788147394E+02 0.  0.
        -11    1    4    4    0    0  0.39768267498E+02  0.35218708374E+02 -0.82067312658E+02  0.97759482027E+02  0.00000000000E+00 0.  1.
         12    1    4    4    0    0  0.70648578266E+02 -0.26185544490E+02 -0.38946230922E+02  0.84815760648E+02  0.00000000000E+00 0. -1.
         13    1    5    5    0    0  0.15651381817E+02 -0.95350391780E+02  0.33070611056E+02  0.10212897865E+03  0.00000000000E+00 0. -1.
        -14    1    5    5    0    0 -0.52692055273E+02 -0.51795041971E+02  0.25718156341E+02  0.78234280384E+02  0.00000000000E+00 0.  1.
          5    1    3    3  501    0 -0.10038194944E+03  0.59302471887E+02 -0.98949201097E+03  0.99634593948E+03  0.41800000000E+01 0. -1.
         -5    1    3    3    0  501  0.27005777135E+02  0.78809797980E+02 -0.77251402664E+03  0.77700430501E+03  0.41800000000E+01 0. -1.
</event>
<event>
11    1  0.2498402E-009  0.3149571E+03  0.7561462E-02  0.9940525E-01
         22   -1    0    0    0    0  0.00000000000E+00  0.00000000000E+00  0.93641143788E+03  0.93641143788E+03  0.00000000000E+00 0.  1.
         22   -1    0    0    0    0 -0.00000000000E+00 -0.00000000000E+00 -0.37637396737E+03  0.37637396737E+03  0.00000000000E+00 0.  1.
         25    2    1    2    0    0  0.80191884380E+02 -0.34699575419E+03 -0.15304128988E+03  0.40731579291E+03  0.12509087496E+03 0.  0.
         24    2    1    2    0    0  0.48380477503E+02  0.21054048370E+03  0.86961940002E+02  0.24690622992E+03  0.82050846945E+02 0.  0.
        -24    2    1    2    0    0 -0.12857236188E+03  0.13645527049E+03  0.62611682039E+03  0.65856338243E+03  0.80824271158E+02 0.  0.
        -11    1    4    4    0    0  0.37832930585E+02  0.20572962115E+03  0.60088310681E+02  0.21763872068E+03  0.00000000000E+00 0.  1.
         12    1    4    4    0    0  0.10547546918E+02  0.48108625439E+01  0.26873629321E+02  0.29267509243E+02  0.00000000000E+00 0. -1.
         13    1    5    5    0    0 -0.67325575384E+02  0.16287554121E+02  0.20790551917E+03  0.21914087346E+03  0.00000000000E+00 0. -1.
        -14    1    5    5    0    0 -0.61246786499E+02  0.12016771637E+03  0.41821130123E+03  0.43942250897E+03  0.00000000000E+00 0.  1.
          5    1    3    3  501    0  0.77487651478E+01  0.16858858818E+01  0.11838574534E+02  0.14849573042E+02  0.41800000000E+01 0.  1.
         -5    1    3    3    0  501  0.72443119232E+02 -0.34868164007E+03 -0.16487986442E+03  0.39246621987E+03  0.41800000000E+01 0.  1.
</event>
<event>
11    1  0.2498402E-009  0.1344881E+03  0.7561462E-02  0.1113874E+00
         22   -1    0    0    0    0  0.00000000000E+00  0.00000000000E+00  0.55479675279E+03  0.55479675279E+03  0.00000000000E+00 0.  1.
         22   -1    0    0    0    0 -0.00000000000E+00 -0.00000000000E+00 -0.52522919983E+02  0.52522919983E+02  0.00000000000E+00 0.  1.
         25    2    1    2    0    0 -0.32408522412E+02 -0.21748978421E+02  0.13755513773E+03  0.18997930267E+03  0.12508952450E+03 0.  0.
         24    2    1    2    0    0  0.33352953997E+02  0.48840848131E+02  0.11136009920E+03  0.15024034907E+03  0.81689918653E+02 0.  0.
        -24    2    1    2    0    0 -0.94443158534E+00 -0.27091869710E+02  0.25335859588E+03  0.26710002103E+03  0.80106065763E+02 0.  0.
        -13    1    4    4    0    0  0.15004688512E+02  0.65375955210E+02  0.48707874467E+02  0.82895194264E+02  0.00000000000E+00 0.  1.
         14    1    4    4    0    0  0.18348265486E+02 -0.16535107079E+02  0.62652224729E+02  0.67345154807E+02  0.00000000000E+00 0. -1.
         13    1    5    5    0    0 -0.26334042374E+02  0.18552644191E+02  0.10378231232E+03  0.10866669565E+03  0.00000000000E+00 0. -1.
        -14    1    5    5    0    0  0.25389610788E+02 -0.45644513902E+02  0.14957628356E+03  0.15843332537E+03  0.00000000000E+00 0.  1.
          5    1    3    3  501    0  0.20149846171E+02 -0.70406779310E+01  0.13331533251E+03  0.13507789505E+03  0.41800000000E+01 0.  1.
         -5    1    3    3    0  501 -0.52558368583E+02 -0.14708300490E+02  0.42398052192E+01  0.54901407630E+02  0.41800000000E+01 0.  1.
</event>
<event>
11    1  0.2498402E-009  0.2104713E+03  0.7561462E-02  0.1047356E+00
         22   -1    0    0    0    0  0.00000000000E+00  0.00000000000E+00  0.43920506588E+03  0.43920506588E+03  0.00000000000E+00 0. -1.
         22   -1    0    0    0    0 -0.00000000000E+00 -0.00000000000E+00 -0.37605935007E+03  0.37605935007E+03  0.00000000000E+00 0. -1.
         25    2    1    2    0    0 -0.85789435435E+02  0.46189938115E+02 -0.75965459137E+02  0.17581448258E+03  0.12508654479E+03 0.  0.
         24    2    1    2    0    0  0.26644112066E+03 -0.24769630129E+02 -0.12930171890E+03  0.30432882612E+03  0.65518657965E+02 0.  0.
        -24    2    1    2    0    0 -0.18065168522E+03 -0.21420307986E+02  0.26841289385E+03  0.33512110725E+03  0.84657037339E+02 0.  0.
        -13    1    4    4    0    0  0.20850873959E+02  0.86175312644E+01  0.39891975974E+01  0.22911448829E+02  0.00000000000E+00 0.  1.
         14    1    4    4    0    0  0.24559024670E+03 -0.33387161394E+02 -0.13329091650E+03  0.28141737729E+03  0.00000000000E+00 0. -1.
         11    1    5    5    0    0 -0.16146625094E+03 -0.51407570321E+01  0.26410230819E+03  0.30959296950E+03  0.00000000000E+00 0. -1.
        -12    1    5    5    0    0 -0.19185434283E+02 -0.16279550953E+02  0.43105856565E+01  0.25528137742E+02  0.00000000000E+00 0.  1.
          5    1    3    3  501    0 -0.11466704142E+03  0.16250102997E+02 -0.47542950993E+02  0.12526133012E+03  0.41800000000E+01 0. -1.
         -5    1    3    3    0  501  0.28877605984E+02  0.29939835118E+02 -0.28422508143E+02  0.50553152458E+02  0.41800000000E+01 0. -1.
</event>
<event>
11    1  0.2498402E-009  0.1617435E+03  0.7561462E-02  0.1085449E+00
         22   -1    0    0    0    0  0.00000000000E+00  0.00000000000E+00  0.67267166172E+02  0.67267166172E+02  0.00000000000E+00 0.  1.
         22   -1    0    0    0    0 -0.00000000000E+00 -0.00000000000E+00 -0.76181927801E+03  0.76181927801E+03  0.00000000000E+00 0.  1.
         25    2    1    2    0    0 -0.34927941561E+01 -0.85233026503E+02 -0.41698200176E+03  0.44361902798E+03  0.12508790421E+03 0.  0.
         24    2    1    2    0    0 -0.12439145729E+02  0.13466992927E+03 -0.22312728310E+03  0.27268073730E+03  0.79235584383E+02 0.  0.
        -24    2    1    2    0    0  0.15931939885E+02 -0.49436902768E+02 -0.54442826976E+02  0.11278667890E+03  0.84017733035E+02 0.  0.
        -13    1    4    4    0    0 -0.25379372398E+02  0.13080783593E+03 -0.16044514647E+03  0.20856041693E+03  0.00000000000E+00 0.  1.
         14    1    4    4    0    0  0.12940226669E+02  0.38620933404E+01 -0.62682136637E+02  0.64120320372E+02  0.00000000000E+00 0. -1.
         11    1    5    5    0    0  0.39337442017E+02 -0.49076969290E+02 -0.61872072708E+02  0.88227754365E+02  0.00000000000E+00 0. -1.
        -12    1    5    5    0    0 -0.23405502132E+02 -0.35993347824E+00  0.74292457321E+01  0.24558924535E+02  0.00000000000E+00 0.  1.
          5    1    3    3  501    0  0.30517655888E+02 -0.10214340884E+03 -0.24135493573E+03  0.26388308148E+03  0.41800000000E+01 0.  1.
         -5    1    3    3    0  501 -0.34010450044E+02  0.16910382338E+02 -0.17562706602E+03  0.17973594650E+03  0.41800000000E+01 0.  1.
</event>
<event>
11    1  0.2498402E-009  0.1928862E+03  0.7561462E-02  0.1059671E+00
         22   -1    0    0    0    0  0.00000000000E+00  0.00000000000E+00  0.13473096928E+03  0.13473096928E+03  0.00000000000E+00 0.  1.
         22   -1    0    0    0    0 -0.00000000000E+00 -0.00000000000E+00 -0.49553336724E+03  0.49553336724E+03  0.00000000000E+00 0.  1.
         25    2    1    2    0    0 -0.14938645133E+03  0.51697033864E+02 -0.25151921597E+03  0.32233213039E+03  0.12508873304E+03 0.  0.
        -24    2    1    2    0    0  0.13151891468E+03 -0.35408014042E+02 -0.14784612394E+03  0.21581629237E+03  0.78531798113E+02 0.  0.
         24    2    1    2    0    0  0.17867536649E+02 -0.16289019822E+02  0.38562941943E+02  0.92115913744E+02  0.80085329748E+02 0.  0.
        -13    1    5    5    0    0  0.43064057124E+02  0.12847434108E+02  0.17617729837E+02  0.48269596888E+02  0.00000000000E+00 0.  1.
         14    1    5    5    0    0 -0.25196520475E+02 -0.29136453929E+02  0.20945212107E+02  0.43846316856E+02  0.00000000000E+00 0. -1.
         13    1    4    4    0    0  0.84599628221E+02  0.41281789371E+01 -0.12361448906E+03  0.14984886007E+03  0.00000000000E+00 0. -1.
        -14    1    4    4    0    0  0.46919286455E+02 -0.39536192979E+02 -0.24231634873E+02  0.65967432308E+02  0.00000000000E+00 0.  1.
          5    1    3    3  501    0  0.18247993010E+02  0.25767158814E+02 -0.42535299294E+02  0.53138120105E+02  0.41800000000E+01 0. -1.
         -5    1    3    3    0  501 -0.16763444434E+03  0.25929875049E+02 -0.20898391667E+03  0.26919401029E+03  0.41800000000E+01 0. -1.
</event>
<event>
11    1  0.2498402E-009  0.5934179E+03  0.7561462E-02  0.9206032E-01
         22   -1    0    0    0    0  0.00000000000E+00  0.00000000000E+00  0.38019042871E+03  0.38019042871E+03  0.00000000000E+00 0. -1.
         22   -1    0    0    0    0 -0.00000000000E+00 -0.00000000000E+00 -0.15770689855E+04  0.15770689855E+04  0.00000000000E+00 0. -1.
         25    2    1    2    0    0 -0.41632787179E+03 -0.34527434341E+03 -0.78469042970E+03  0.96121409405E+03  0.12510073976E+03 0.  0.
         24    2    1    2    0    0  0.60591298482E+03  0.33391162032E+03 -0.28842379019E+03  0.75421685141E+03  0.83828759103E+02 0.  0.
        -24    2    1    2    0    0 -0.18958511303E+03  0.11362723093E+02 -0.12376433686E+03  0.24182846870E+03  0.84212651304E+02 0.  0.
        -11    1    4    4    0    0  0.22710533567E+03  0.12098280034E+03 -0.64108562478E+02  0.26518593336E+03  0.00000000000E+00 0.  1.
         12    1    4    4    0    0  0.37880764915E+03  0.21292881998E+03 -0.22431522771E+03  0.48903091806E+03  0.00000000000E+00 0. -1.
         11    1    5    5    0    0 -0.84485283415E+02  0.45392968960E+02 -0.71444365483E+02  0.11959340326E+03  0.00000000000E+00 0. -1.
        -12    1    5    5    0    0 -0.10509982961E+03 -0.34030245867E+02 -0.52319971372E+02  0.12223506544E+03  0.00000000000E+00 0.  1.
          5    1    3    3  501    0 -0.28490611350E+03 -0.29322063283E+03 -0.63538288671E+03  0.75556516473E+03  0.41800000000E+01 0.  1.
         -5    1    3    3    0  501 -0.13142175829E+03 -0.52053710580E+02 -0.14930754299E+03  0.20564892932E+03  0.41800000000E+01 0.  1.
</event>
<event>
11    1  0.2498402E-009  0.1966780E+03  0.7561462E-02  0.1056898E+00
         22   -1    0    0    0    0  0.00000000000E+00  0.00000000000E+00  0.13306267605E+03  0.13306267605E+03  0.00000000000E+00 0.  1.
         22   -1    0    0    0    0 -0.00000000000E+00 -0.00000000000E+00 -0.51560077527E+03  0.51560077527E+03  0.00000000000E+00 0.  1.
         25    2    1    2    0    0 -0.15577945001E+03  0.11747761604E+03 -0.26575487057E+03  0.35262048970E+03  0.12508929295E+03 0.  0.
         24    2    1    2    0    0  0.10991338440E+03 -0.46354200343E+02 -0.11400944576E+03  0.18324284307E+03  0.79687651838E+02 0.  0.
        -24    2    1    2    0    0  0.45866065609E+02 -0.71123415698E+02 -0.27737828962E+01  0.11280011856E+03  0.74524738445E+02 0.  0.
        -11    1    4    4    0    0  0.90027279223E+02 -0.67970885328E+02 -0.99793577272E+02  0.15061112283E+03  0.00000000000E+00 0.  1.
         12    1    4    4    0    0  0.19886105174E+02  0.21616684986E+02 -0.14215868485E+02  0.32631720235E+02  0.00000000000E+00 0. -1.
         11    1    5    5    0    0  0.30812927280E+02  0.57881605308E+01 -0.12653450534E+02  0.33809009159E+02  0.00000000000E+00 0. -1.
        -12    1    5    5    0    0  0.15053138329E+02 -0.76911576229E+02  0.98796676382E+01  0.78991109400E+02  0.00000000000E+00 0.  1.
          5    1    3    3  501    0 -0.87273488760E+01  0.78672960805E+02 -0.81873374032E+02  0.11395754980E+03  0.41800000000E+01 0.  1.
         -5    1    3    3    0  501 -0.14705210113E+03  0.38804655236E+02 -0.18388149654E+03  0.23866293990E+03  0.41800000000E+01 0.  1.
</event>
<event>
11    1  0.2498402E-009  0.1621366E+03  0.7561462E-02  0.1085085E+00
         22   -1    0    0    0    0  0.00000000000E+00  0.00000000000E+00  0.21227836689E+04  0.21227836689E+04  0.00000000000E+00 0.  1.
         22   -1    0    0    0    0 -0.00000000000E+00 -0.00000000000E+00 -0.22905691619E+02  0.22905691619E+02  0.00000000000E+00 0. -1.
         25    2    1    2    0    0  0.52344666453E+02 -0.64573209317E+02  0.52836555106E+03  0.54929647398E+03  0.12508715887E+03 0.  0.
        -24    2    1    2    0    0 -0.12645078670E+03  0.52147241975E+02  0.69436781968E+03  0.71221924624E+03  0.80002808727E+02 0.  0.
         24    2    1    2    0    0  0.74106120252E+02  0.12425967341E+02  0.87714460654E+03  0.88417364030E+03  0.82062437749E+02 0.  0.
        -13    1    5    5    0    0  0.76631795996E+02  0.30457462563E+02  0.82144306663E+03  0.82557180238E+03  0.00000000000E+00 0.  1.
         14    1    5    5    0    0 -0.25256757448E+01 -0.18031495222E+02  0.55701539915E+02  0.58601837913E+02  0.00000000000E+00 0. -1.
         11    1    4    4    0    0 -0.12245123376E+03  0.63907003833E+02  0.54117803348E+03  0.55852669919E+03  0.00000000000E+00 0. -1.
        -12    1    4    4    0    0 -0.39995529488E+01 -0.11759761858E+02  0.15318978620E+03  0.15369254705E+03  0.00000000000E+00 0.  1.
          5    1    3    3  501    0  0.67822206080E+02  0.14319190754E+02  0.22927931921E+03  0.23956495879E+03  0.41800000000E+01 0. -1.
         -5    1    3    3    0  501 -0.15477539627E+02 -0.78892400070E+02  0.29908623185E+03  0.30973151519E+03  0.41800000000E+01 0. -1.
</event>
<event>
11    1  0.2498402E-009  0.1878583E+04  0.7561462E-02  0.8118656E-01
         22   -1    0    0    0    0  0.00000000000E+00  0.00000000000E+00  0.22417961637E+04  0.22417961637E+04  0.00000000000E+00 0.  1.
         22   -1    0    0    0    0 -0.00000000000E+00 -0.00000000000E+00 -0.39355436125E+03  0.39355436125E+03  0.00000000000E+00 0.  1.
         25    2    1    2    0    0  0.34901669116E+03  0.16812618625E+03 -0.26080945368E+03  0.48347447844E+03  0.12508770905E+03 0.  0.
        -24    2    1    2    0    0 -0.23622166416E+03 -0.13451790347E+03  0.13766788617E+04  0.14055799877E+04  0.80713522425E+02 0.  0.
         24    2    1    2    0    0 -0.11279502700E+03 -0.33608282780E+02  0.73237239443E+03  0.74629605877E+03  0.82074651518E+02 0.  0.
        -13    1    5    5    0    0 -0.65827995340E+02 -0.49984162858E+02  0.58371698377E+03  0.58953987028E+03  0.00000000000E+00 0.  1.
         14    1    5    5    0    0 -0.46967031656E+02  0.16375880078E+02  0.14865541066E+03  0.15675618849E+03  0.00000000000E+00 0. -1.
         13    1    4    4    0    0 -0.69270783272E+02 -0.14913403419E+02  0.23043807782E+03  0.24108620601E+03  0.00000000000E+00 0. -1.
        -14    1    4    4    0    0 -0.16695088089E+03 -0.11960450005E+03  0.11462407839E+04  0.11644937817E+04  0.00000000000E+00 0.  1.
          5    1    3    3  501    0  0.21643663243E+03  0.10260123662E+03 -0.23051904365E+03  0.33245801464E+03  0.41800000000E+01 0. -1.
         -5    1    3    3    0  501  0.13258005873E+03  0.65524949638E+02 -0.30290410036E+02  0.15101646380E+03  0.41800000000E+01 0. -1.
</event>
<event>
11    1  0.2498402E-009  0.4332929E+03  0.7561462E-02  0.9556331E-01
         22   -1    0    0    0    0  0.00000000000E+00  0.00000000000E+00  0.11830643728E+04  0.11830643728E+04  0.00000000000E+00 0. -1.
         22   -1    0    0    0    0 -0.00000000000E+00 -0.00000000000E+00 -0.18389584489E+04  0.18389584489E+04  0.00000000000E+00 0. -1.
         25    2    1    2    0    0  0.15976889560E+03  0.38670237577E+03 -0.16788253238E+04  0.17346946590E+04  0.12508503022E+03 0.  0.
        -24    2    1    2    0    0 -0.24576864003E+03 -0.39143281794E+02  0.77417904569E+02  0.27310506535E+03  0.81599165687E+02 0.  0.
         24    2    1    2    0    0  0.85999744430E+02 -0.34755909398E+03  0.94551334301E+03  0.10142230974E+04  0.80372442856E+02 0.  0.
        -13    1    5    5    0    0  0.28043658878E+02 -0.87048450756E+02  0.34801636141E+03  0.35983227675E+03  0.00000000000E+00 0.  1.
         14    1    5    5    0    0  0.57956085552E+02 -0.26051064322E+03  0.59749698161E+03  0.65439082062E+03  0.00000000000E+00 0. -1.
         11    1    4    4    0    0 -0.93743186981E+02 -0.41691379709E+02  0.24939730785E+00  0.10259638613E+03  0.00000000000E+00 0. -1.
        -12    1    4    4    0    0 -0.15202545305E+03  0.25480979151E+01  0.77168507261E+02  0.17050867922E+03  0.00000000000E+00 0.  1.
          5    1    3    3  501    0  0.14201450534E+03  0.38949865780E+03 -0.16416012753E+04  0.16931478209E+04  0.41800000000E+01 0.  1.
         -5    1    3    3    0  501  0.17754390255E+02 -0.27962820246E+01 -0.37224048511E+02  0.41546838075E+02  0.41800000000E+01 0.  1.
</event>
<event>
11    1  0.2498402E-009  0.2180710E+03  0.7561462E-02  0.1042433E+00
         22   -1    0    0    0    0  0.00000000000E+00  0.00000000000E+00  0.95883732611E+03  0.95883732611E+03  0.00000000000E+00 0. -1.
         22   -1    0    0    0    0 -0.00000000000E+00 -0.00000000000E+00 -0.13766793234E+03  0.13766793234E+03  0.00000000000E+00 0.  1.
         25    2    1    2    0    0  0.17327098788E+03  0.10067709613E+03  0.10408360141E+03  0.25814553441E+03  0.12508800073E+03 0.  0.
         24    2    1    2    0    0  0.78422060932E+00 -0.17778247219E+03  0.19470683579E+03  0.27650882593E+03  0.83301599608E+02 0.  0.
        -24    2    1    2    0    0 -0.17405520849E+03  0.77105376060E+02  0.52237895657E+03  0.56185089809E+03  0.80970382247E+02 0.  0.
        -11    1    4    4    0    0  0.48507352268E+01 -0.39625745157E+02  0.28139832602E+01  0.40020592365E+02  0.00000000000E+00 0.  1.
         12    1    4    4    0    0 -0.40665146175E+01 -0.13815672703E+03  0.19189285253E+03  0.23648823357E+03  0.00000000000E+00 0. -1.
         11    1    5    5    0    0 -0.14497837764E+03  0.71103853612E+02  0.49771219164E+03  0.52325129114E+03  0.00000000000E+00 0. -1.
        -12    1    5    5    0    0 -0.29076830857E+02  0.60015224473E+01  0.24666764933E+02  0.38599606949E+02  0.00000000000E+00 0.  1.
          5    1    3    3  501    0  0.46554491383E+02 -0.24071099188E+02  0.10396797978E+01  0.52586042046E+02  0.41800000000E+01 0.  1.
         -5    1    3    3    0  501  0.12671649650E+03  0.12474819532E+03  0.10304392161E+03  0.20555949237E+03  0.41800000000E+01 0.  1.
</event>
<event>
11    1  0.2498402E-009  0.1600008E+03  0.7561462E-02  0.1087077E+00
         22   -1    0    0    0    0  0.00000000000E+00  0.00000000000E+00  0.19547388954E+03  0.19547388954E+03  0.00000000000E+00 0. -1.
         22   -1    0    0    0    0 -0.00000000000E+00 -0.00000000000E+00 -0.29895262843E+03  0.29895262843E+03  0.00000000000E+00 0.  1.
         25    2    1    2    0    0 -0.21077286917E+02  0.69804954012E+02 -0.10982223324E+03  0.18172836188E+03  0.12508913210E+03 0.  0.
         24    2    1    2    0    0  0.90211205127E+02 -0.13917491571E+03 -0.15522157973E+02  0.18360746824E+03  0.77220763464E+02 0.  0.
        -24    2    1    2    0    0 -0.69133918210E+02  0.69369961702E+02  0.21865652321E+02  0.12909068784E+03  0.81207196127E+02 0.  0.
        -11    1    4    4    0    0  0.67028308789E+02 -0.14395545636E+03 -0.17977709816E+02  0.15980977956E+03  0.00000000000E+00 0.  1.
         12    1    4    4    0    0  0.23182896338E+02  0.47805406410E+01  0.24555518433E+01  0.23797688675E+02  0.00000000000E+00 0. -1.
         11    1    5    5    0    0 -0.77551866928E+02  0.24154488528E+02  0.14590513460E+02  0.82526447052E+02  0.00000000000E+00 0. -1.
        -12    1    5    5    0    0  0.84179487178E+01  0.45215473174E+02  0.72751388615E+01  0.46564240791E+02  0.00000000000E+00 0.  1.
          5    1    3    3  501    0 -0.28453512279E+02 -0.31740331175E+02 -0.34917599214E+02  0.55260855214E+02  0.41800000000E+01 0.  1.
         -5    1    3    3    0  501  0.73762253622E+01  0.10154528519E+03 -0.74904634025E+02  0.12646750667E+03  0.41800000000E+01 0.  1.
</event>
<event>
11    1  0.2498402E-009  0.3409453E+03  0.7561462E-02  0.9842118E-01
         22   -1    0    0    0    0  0.00000000000E+00  0.00000000000E+00  0.86192540198E+03  0.86192540198E+03  0.00000000000E+00 0.  1.
         22   -1    0    0    0    0 -0.00000000000E+00 -0.00000000000E+00 -0.15533227497E+04  0.15533227497E+04  0.00000000000E+00 0.  1.
         25    2    1    2    0    0 -0.14887768837E+03 -0.82964785859E+02 -0.13212401663E+04  0.13380475561E+04  0.12509181980E+03 0.  0.
         24    2    1    2    0    0 -0.13251031107E+03 -0.71240815168E+02 -0.15237275193E+03  0.22787245360E+03  0.77936918687E+02 0.  0.
        -24    2    1    2    0    0  0.28138799944E+03  0.15420560103E+03  0.78221557056E+03  0.84932814200E+03  0.80861117613E+02 0.  0.
        -13    1    4    4    0    0 -0.12787717749E+03 -0.74105850927E+02 -0.16043860789E+03  0.21813939709E+03  0.00000000000E+00 0.  1.
         14    1    4    4    0    0 -0.46331335810E+01  0.28650357592E+01  0.80658559564E+01  0.97330565081E+01  0.00000000000E+00 0. -1.
         13    1    5    5    0    0  0.10332486404E+01 -0.56503185590E+00  0.51576856181E+02  0.51590299062E+02  0.00000000000E+00 0. -1.
        -14    1    5    5    0    0  0.28035475080E+03  0.15477063288E+03  0.73063871438E+03  0.79773784293E+03  0.00000000000E+00 0.  1.
          5    1    3    3  501    0 -0.36240193586E+02  0.17651155000E+01 -0.70224590473E+03  0.70319503011E+03  0.41800000000E+01 0.  1.
         -5    1    3    3    0  501 -0.11263749478E+03 -0.84729901359E+02 -0.61899426160E+03  0.63485252596E+03  0.41800000000E+01 0.  1.
</event>
<event>
11    1  0.2498402E-009  0.1507106E+03  0.7561462E-02  0.1096155E+00
         22   -1    0    0    0    0  0.00000000000E+00  0.00000000000E+00  0.23823853683E+03  0.23823853683E+03  0.00000000000E+00 0.  1.
         22   -1    0    0    0    0 -0.00000000000E+00 -0.00000000000E+00 -0.75735935268E+03  0.75735935268E+03  0.00000000000E+00 0. -1.
         25    2    1    2    0    0 -0.11967340452E+02  0.13856826545E+02 -0.61537165201E+03  0.62822384079E+03  0.12509074767E+03 0.  0.
         24    2    1    2    0    0 -0.71891611700E+02  0.49173532577E+01 -0.94397831226E+02  0.14308793135E+03  0.79816172300E+02 0.  0.
        -24    2    1    2    0    0  0.83858952152E+02 -0.18774179803E+02  0.19064866738E+03  0.22428611738E+03  0.81071292040E+02 0.  0.
        -13    1    4    4    0    0 -0.62091372527E+02 -0.25236744580E+02 -0.88207420436E+02  0.11078258365E+03  0.00000000000E+00 0.  1.
         14    1    4    4    0    0 -0.98002391730E+01  0.30154097837E+02 -0.61904107901E+01  0.32305347700E+02  0.00000000000E+00 0. -1.
         11    1    5    5    0    0  0.87475717101E+02 -0.63121767390E+01  0.10126024792E+03  0.13396074972E+03  0.00000000000E+00 0. -1.
        -12    1    5    5    0    0 -0.36167649487E+01 -0.12462003064E+02  0.89388419463E+02  0.90325367661E+02  0.00000000000E+00 0.  1.
          5    1    3    3  501    0  0.93382233489E-01  0.69026979997E+02 -0.30654265761E+03  0.31424609150E+03  0.41800000000E+01 0. -1.
         -5    1    3    3    0  501 -0.12060722685E+02 -0.55170153452E+02 -0.30882899440E+03  0.31397774929E+03  0.41800000000E+01 0. -1.
</event>
<event>
11    1  0.2498402E-009  0.4940411E+03  0.7561462E-02  0.9406936E-01
         22   -1    0    0    0    0  0.00000000000E+00  0.00000000000E+00  0.29350565371E+04  0.29350565371E+04  0.00000000000E+00 0. -1.
         22   -1    0    0    0    0 -0.00000000000E+00 -0.00000000000E+00 -0.11526143740E+04  0.11526143740E+04  0.00000000000E+00 0. -1.
         25    2    1    2    0    0 -0.79872830801E+02  0.15278192151E+03 -0.10343740928E+04  0.10560783179E+04  0.12509862094E+03 0.  0.
         24    2    1    2    0    0  0.54349699021E+03 -0.14818167003E+03  0.95963047588E+03  0.11155844164E+04  0.79316796882E+02 0.  0.
        -24    2    1    2    0    0 -0.46362415941E+03 -0.46002514801E+01  0.18571857801E+04  0.19160081768E+04  0.83545125937E+02 0.  0.
        -13    1    4    4    0    0  0.51736126853E+03 -0.12286133676E+03  0.88295350564E+03  0.10307106691E+04  0.00000000000E+00 0.  1.
         14    1    4    4    0    0  0.26135721675E+02 -0.25320333270E+02  0.76676970247E+02  0.84873747358E+02  0.00000000000E+00 0. -1.
         11    1    5    5    0    0 -0.29107039027E+03  0.37335969694E+02  0.11742929841E+04  0.12104048741E+04  0.00000000000E+00 0. -1.
        -12    1    5    5    0    0 -0.17255376914E+03 -0.41936221174E+02  0.68289279596E+03  0.70560330261E+03  0.00000000000E+00 0.  1.
          5    1    3    3  501    0 -0.69704395604E+02  0.93282220337E+02 -0.91354083811E+03  0.92094224069E+03  0.41800000000E+01 0. -1.
         -5    1    3    3    0  501 -0.10168435198E+02  0.59499701172E+02 -0.12083325471E+03  0.13513607718E+03  0.41800000000E+01 0. -1.
</event>
<event>
11    1  0.2498402E-009  0.1303284E+03  0.7561462E-02  0.1118866E+00
         22   -1    0    0    0    0  0.00000000000E+00  0.00000000000E+00  0.28471034603E+02  0.28471034603E+02  0.00000000000E+00 0.  1.
         22   -1    0    0    0    0 -0.00000000000E+00 -0.00000000000E+00 -0.29653486765E+04  0.29653486765E+04  0.00000000000E+00 0.  1.
         25    2    1    2    0    0  0.23259337243E+02 -0.40695956656E+02 -0.17854661428E+04  0.17904562750E+04  0.12508864136E+03 0.  0.
         24    2    1    2    0    0 -0.17770412999E+02  0.51151955053E+01 -0.10364421021E+04  0.10396105175E+04  0.78967362923E+02 0.  0.
        -24    2    1    2    0    0 -0.54889242438E+01  0.35580761151E+02 -0.11496939705E+03  0.16375291852E+03  0.11090959027E+03 0.  0.
        -11    1    4    4    0    0 -0.25216786026E+02 -0.33413979334E+02 -0.53447195388E+03  0.53610880406E+03  0.00000000000E+00 0.  1.
         12    1    4    4    0    0  0.74463730272E+01  0.38529174839E+02 -0.50197014821E+03  0.50350171348E+03  0.00000000000E+00 0. -1.
         11    1    5    5    0    0 -0.32047512269E+02  0.20625234604E+02 -0.12576886899E+03  0.13141632986E+03  0.00000000000E+00 0. -1.
        -12    1    5    5    0    0  0.26558588025E+02  0.14955526547E+02  0.10799471949E+02  0.32336588666E+02  0.00000000000E+00 0.  1.
          5    1    3    3  501    0  0.48552877185E+02 -0.55435216822E+02 -0.58659035098E+03  0.59121582980E+03  0.41800000000E+01 0.  1.
         -5    1    3    3    0  501 -0.25293539942E+02  0.14739260165E+02 -0.11988757918E+04  0.11992404452E+04  0.41800000000E+01 0.  1.
</event>
<event>
11    1  0.2498402E-009  0.9531265E+03  0.7561462E-02  0.8724921E-01
         22   -1    0    0    0    0  0.00000000000E+00  0.00000000000E+00  0.69725523671E+03  0.69725523671E+03  0.00000000000E+00 0.  1.
         22   -1    0    0    0    0 -0.00000000000E+00 -0.00000000000E+00 -0.15101949587E+04  0.15101949587E+04  0.00000000000E+00 0.  1.
         25    2    1    2    0    0  0.79969866120E+03  0.51044908402E+03 -0.68375016374E+03  0.11761116334E+04  0.12509225307E+03 0.  0.
         24    2    1    2    0    0 -0.79814645834E+03 -0.49346885877E+03 -0.10602594537E+03  0.94777453437E+03  0.80534361481E+02 0.  0.
        -24    2    1    2    0    0 -0.15522028584E+01 -0.16980225256E+02 -0.23163612895E+02  0.83564027620E+02  0.78457991093E+02 0.  0.
        -11    1    4    4    0    0 -0.69019757618E+03 -0.45743062010E+03 -0.93612881697E+02  0.83329396853E+03  0.00000000000E+00 0.  1.
         12    1    4    4    0    0 -0.10794888216E+03 -0.36038238671E+02 -0.12413063669E+02  0.11448056585E+03  0.00000000000E+00 0. -1.
         11    1    5    5    0    0  0.31755484199E+02 -0.28628548780E+01  0.11076558144E+02  0.33753471749E+02  0.00000000000E+00 0. -1.
        -12    1    5    5    0    0 -0.33307687058E+02 -0.14117370378E+02 -0.34240171038E+02  0.49810555872E+02  0.00000000000E+00 0.  1.
          5    1    3    3  501    0  0.98074148743E+01 -0.66724123273E+01 -0.61468384104E+01  0.13998660480E+02  0.41800000000E+01 0.  1.
         -5    1    3    3    0  501  0.78989124633E+03  0.51712149635E+03 -0.67760332533E+03  0.11621129730E+04  0.41800000000E+01 0.  1.
</event>
<event>
11    1  0.2498402E-009  0.2365658E+03  0.7561462E-02  0.1031309E+00
         22   -1    0    0    0    0  0.00000000000E+00  0.00000000000E+00  0.26466343537E+03  0.26466343537E+03  0.00000000000E+00 0. -1.
         22   -1    0    0    0    0 -0.00000000000E+00 -0.00000000000E+00 -0.12944129581E+04  0.12944129581E+04  0.00000000000E+00 0.  1.
         25    2    1    2    0    0  0.52011906437E+02 -0.21895792521E+03 -0.11491244110E+04  0.11776169735E+04  0.12508802109E+03 0.  0.
         24    2    1    2    0    0  0.23036975713E+01  0.12201578675E+03 -0.59638160674E+02  0.15603650910E+03  0.76795330089E+02 0.  0.
        -24    2    1    2    0    0 -0.54315604008E+02  0.96942138461E+02  0.17901304889E+03  0.22542291088E+03  0.80136471260E+02 0.  0.
        -11    1    4    4    0    0 -0.27633131351E+02  0.17485359957E+02 -0.14961726779E+01  0.32734787211E+02  0.00000000000E+00 0.  1.
         12    1    4    4    0    0  0.29936828922E+02  0.10453042680E+03 -0.58141987996E+02  0.12330172189E+03  0.00000000000E+00 0. -1.
         13    1    5    5    0    0  0.15902392951E+02  0.48215756307E+02  0.78464751158E+02  0.93457810974E+02  0.00000000000E+00 0. -1.
        -14    1    5    5    0    0 -0.70217996960E+02  0.48726382154E+02  0.10054829774E+03  0.13196509990E+03  0.00000000000E+00 0.  1.
          5    1    3    3  501    0 -0.15984635869E+02 -0.17553063621E+03 -0.81716193740E+03  0.83596508131E+03  0.41800000000E+01 0.  1.
         -5    1    3    3    0  501  0.67996542306E+02 -0.43427289004E+02 -0.33196247356E+03  0.34165189220E+03  0.41800000000E+01 0.  1.
</event>
<event>
11    1  0.4221770E-009  0.2026939E+04  0.7561462E-02  0.8056028E-01
         22   -1    0    0    0    0  0.00000000000E+00  0.00000000000E+00  0.11422110181E+04  0.11422110181E+04  0.00000000000E+00 0.  1.
         22   -1    0    0    0    0 -0.00000000000E+00 -0.00000000000E+00 -0.89923859562E+03  0.89923859562E+03  0.00000000000E+00 0.  1.
         25    2    1    2    0    0 -0.72652782493E+02  0.37369706872E+03 -0.81082731691E+03  0.90444234141E+03  0.12508830931E+03 0.  0.
        -24    2    1    2    0    0  0.48951670612E+02 -0.26763932341E+03  0.80622250699E+03  0.85472551542E+03  0.80832558070E+02 0.  0.
         24    2    1    2    0    0  0.23701111881E+02 -0.10605774531E+03  0.24757723235E+03  0.28228175684E+03  0.81108052765E+02 0.  0.
        -11    1    5    5    0    0 -0.17833010958E+02 -0.13745278826E+02  0.10523317304E+03  0.10761491382E+03  0.00000000000E+00 0.  1.
         12    1    5    5    0    0  0.41534122838E+02 -0.92312466485E+02  0.14234405931E+03  0.17466684302E+03  0.00000000000E+00 0. -1.
         13    1    4    4    0    0 -0.14993059828E+02 -0.92908870206E+02  0.33890367740E+03  0.35172795249E+03  0.00000000000E+00 0. -1.
        -14    1    4    4    0    0  0.63944730440E+02 -0.17473045320E+03  0.46731882959E+03  0.50299756294E+03  0.00000000000E+00 0.  1.
          5    1    3    3  501    0 -0.45160163590E+02  0.22207474426E+03 -0.61356918074E+03  0.65409574557E+03  0.41800000000E+01 0.  1.
         -5    1    3    3    0  501 -0.27492618903E+02  0.15162232446E+03 -0.19725813616E+03  0.25034659584E+03  0.41800000000E+01 0.  1.
</event>
<event>
11    1  0.2498402E-009  0.5069597E+03  0.7561462E-02  0.9378103E-01
         22   -1    0    0    0    0  0.00000000000E+00  0.00000000000E+00  0.24894867177E+04  0.24894867177E+04  0.00000000000E+00 0.  1.
         22   -1    0    0    0    0 -0.00000000000E+00 -0.00000000000E+00 -0.25809350737E+02  0.25809350737E+02  0.00000000000E+00 0.  1.
         25    2    1    2    0    0 -0.10990405596E+03 -0.33862427706E+02  0.34334952280E+03  0.38309816503E+03  0.12509893572E+03 0.  0.
         24    2    1    2    0    0  0.20766438695E+02 -0.62711775877E+01  0.48982715757E+03  0.49681230517E+03  0.80132700150E+02 0.  0.
        -24    2    1    2    0    0  0.89137617269E+02  0.40133605294E+02  0.16305006866E+04  0.16353855983E+04  0.79983403478E+02 0.  0.
        -11    1    4    4    0    0  0.28427843159E+02  0.32127235994E+02  0.21814155270E+03  0.22231967653E+03  0.00000000000E+00 0.  1.
         12    1    4    4    0    0 -0.76614044642E+01 -0.38398413582E+02  0.27168560487E+03  0.27449262864E+03  0.00000000000E+00 0. -1.
         11    1    5    5    0    0 -0.13025762038E+02  0.17028769908E+02  0.25080734453E+03  0.25172201643E+03  0.00000000000E+00 0. -1.
        -12    1    5    5    0    0  0.10216337931E+03  0.23104835386E+02  0.13796933421E+04  0.13836635818E+04  0.00000000000E+00 0.  1.
          5    1    3    3  501    0  0.18032245285E+02  0.52103879721E+01  0.12880254420E+03  0.13023009562E+03  0.41800000000E+01 0. -1.
         -5    1    3    3    0  501 -0.12793630125E+03 -0.39072815678E+02  0.21454697859E+03  0.25286806941E+03  0.41800000000E+01 0. -1.
</event>
<event>
11    1  0.2498402E-009  0.2440520E+04  0.7561462E-02  0.7907080E-01
         22   -1    0    0    0    0  0.00000000000E+00  0.00000000000E+00  0.41595725284E+04  0.41595725284E+04  0.00000000000E+00 0. -1.
         22   -1    0    0    0    0 -0.00000000000E+00 -0.00000000000E+00 -0.18593731060E+04  0.18593731060E+04  0.00000000000E+00 0. -1.
         25    2    1    2    0    0  0.64314483519E+03 -0.21840550510E+04  0.60629159125E+03  0.23594421015E+04  0.12508314027E+03 0.  0.
        -24    2    1    2    0    0 -0.70548105439E+03  0.25416815021E+04  0.90913710623E+03  0.27911745346E+04  0.79225174093E+02 0.  0.
         24    2    1    2    0    0  0.62336219194E+02 -0.35762645111E+03  0.78477072500E+03  0.86832899836E+03  0.79672302741E+02 0.  0.
        -11    1    5    5    0    0  0.42957587078E+02 -0.10723936295E+03  0.18505617078E+03  0.21815458189E+03  0.00000000000E+00 0.  1.
         12    1    5    5    0    0  0.19378632116E+02 -0.25038708816E+03  0.59971455421E+03  0.65017441647E+03  0.00000000000E+00 0. -1.
         11    1    4    4    0    0 -0.50592141976E+03  0.17661338905E+04  0.66806640759E+03  0.19548652452E+04  0.00000000000E+00 0. -1.
        -12    1    4    4    0    0 -0.19955963463E+03  0.77554761162E+03  0.24107069864E+03  0.83630928932E+03  0.00000000000E+00 0.  1.
          5    1    3    3  501    0  0.41284480597E+03 -0.15252005487E+04  0.46768793246E+03  0.16478552795E+04  0.41800000000E+01 0. -1.
         -5    1    3    3    0  501  0.23030002922E+03 -0.65885450225E+03  0.13860365880E+03  0.71158682199E+03  0.41800000000E+01 0. -1.
</event>
<event>
11    1  0.2498402E-009  0.2606200E+03  0.7561462E-02  0.1018389E+00
         22   -1    0    0    0    0  0.00000000000E+00  0.00000000000E+00  0.31862650643E+03  0.31862650643E+03  0.00000000000E+00 0. -1.
         22   -1    0    0    0    0 -0.00000000000E+00 -0.00000000000E+00 -0.32935982251E+03  0.32935982251E+03  0.00000000000E+00 0. -1.
         25    2    1    2    0    0  0.18983879121E+03 -0.14741533392E+03 -0.75257839466E+02  0.28121234420E+03  0.12508634140E+03 0.  0.
         24    2    1    2    0    0 -0.19148084157E+03  0.10503886727E+03 -0.30632138070E+02  0.23591271243E+03  0.83775913448E+02 0.  0.
        -24    2    1    2    0    0  0.16420503672E+01  0.42376466647E+02  0.95156661455E+02  0.13086127231E+03  0.79192304655E+02 0.  0.
        -13    1    4    4    0    0  0.34717710880E+01  0.12457361677E+01 -0.13942476612E+02  0.14422125611E+02  0.00000000000E+00 0.  1.
         14    1    4    4    0    0 -0.19495261266E+03  0.10379313111E+03 -0.16689661458E+02  0.22149058682E+03  0.00000000000E+00 0. -1.
         13    1    5    5    0    0 -0.20368229765E+02  0.52747030434E+02  0.36348481275E+02  0.67218495180E+02  0.00000000000E+00 0. -1.
        -14    1    5    5    0    0  0.22010280132E+02 -0.10370563787E+02  0.58808180180E+02  0.63642777130E+02  0.00000000000E+00 0.  1.
          5    1    3    3  501    0  0.14344362313E+03 -0.56875461251E+02  0.39152337440E+00  0.15436488201E+03  0.41800000000E+01 0. -1.
         -5    1    3    3    0  501  0.46395168080E+02 -0.90539872670E+02 -0.75649362840E+02  0.12684746218E+03  0.41800000000E+01 0. -1.
</event>
<event>
11    1  0.2498402E-009  0.1754869E+03  0.7561462E-02  0.1073353E+00
         22   -1    0    0    0    0  0.00000000000E+00  0.00000000000E+00  0.13080484438E+03  0.13080484438E+03  0.00000000000E+00 0.  1.
         22   -1    0    0    0    0 -0.00000000000E+00 -0.00000000000E+00 -0.39635697956E+03  0.39635697956E+03  0.00000000000E+00 0. -1.
         25    2    1    2    0    0  0.71230453024E+02  0.90488170605E+02 -0.14447323370E+03  0.22311975402E+03  0.12509205779E+03 0.  0.
        -24    2    1    2    0    0  0.60117916872E+02 -0.55119426913E+02 -0.84595835688E+02  0.14164942958E+03  0.79093554294E+02 0.  0.
         24    2    1    2    0    0 -0.13134836990E+03 -0.35368743691E+02 -0.36483065800E+02  0.16239264034E+03  0.80851798016E+02 0.  0.
        -11    1    5    5    0    0 -0.80711965993E+02 -0.30048391266E+02  0.17825803614E+02  0.87949340797E+02  0.00000000000E+00 0.  1.
         12    1    5    5    0    0 -0.50636403903E+02 -0.53203524252E+01 -0.54308869413E+02  0.74443299545E+02  0.00000000000E+00 0. -1.
         13    1    4    4    0    0  0.72833230794E+02 -0.52436796703E+02 -0.45844275252E+02  0.10077695535E+03  0.00000000000E+00 0. -1.
        -14    1    4    4    0    0 -0.12715313922E+02 -0.26826302101E+01 -0.38751560436E+02  0.40872474224E+02  0.00000000000E+00 0.  1.
          5    1    3    3  501    0 -0.33635728558E+02  0.34465755057E+02 -0.60802434755E+02  0.77676630845E+02  0.41800000000E+01 0.  1.
         -5    1    3    3    0  501  0.10486618158E+03  0.56022415548E+02 -0.83670798942E+02  0.14544312318E+03  0.41800000000E+01 0.  1.
</event>
<event>
11    1  0.2498402E-009  0.1339106E+03  0.7561462E-02  0.1114555E+00
         22   -1    0    0    0    0  0.00000000000E+00  0.00000000000E+00  0.35215286160E+02  0.35215286160E+02  0.00000000000E+00 0.  1.
         22   -1    0    0    0    0 -0.00000000000E+00 -0.00000000000E+00 -0.16658176001E+04  0.16658176001E+04  0.00000000000E+00 0. -1.
         25    2    1    2    0    0  0.82476161656E+02  0.11953350639E+02 -0.11464960079E+04  0.11563068941E+04  0.12508931772E+03 0.  0.
        -24    2    1    2    0    0 -0.39661832089E+02  0.35972590626E+01 -0.43561003429E+03  0.44094227872E+03  0.55569685907E+02 0.  0.
         24    2    1    2    0    0 -0.42814329567E+02 -0.15550609701E+02 -0.48496271674E+02  0.10378371335E+03  0.79651004464E+02 0.  0.
        -13    1    5    5    0    0 -0.53375553338E+02 -0.36572058081E+02 -0.21976597996E+02  0.68333271442E+02  0.00000000000E+00 0.  1.
         14    1    5    5    0    0  0.10561223771E+02  0.21021448380E+02 -0.26519673679E+02  0.35450441909E+02  0.00000000000E+00 0. -1.
         11    1    4    4    0    0 -0.47691464706E+02 -0.11050719268E+02 -0.37064434444E+03  0.37386337647E+03  0.00000000000E+00 0. -1.
        -12    1    4    4    0    0  0.80296326165E+01  0.14647978330E+02 -0.64965689850E+02  0.67078902248E+02  0.00000000000E+00 0.  1.
          5    1    3    3  501    0 -0.23305679307E+02  0.34703567001E+02 -0.32794782449E+03  0.33062779713E+03  0.41800000000E+01 0. -1.
         -5    1    3    3    0  501  0.10578184096E+03 -0.22750216363E+02 -0.81854818344E+03  0.82567909701E+03  0.41800000000E+01 0. -1.
</event>
<event>
11    1  0.2498402E-009  0.1407182E+03  0.7561462E-02  0.1106759E+00
         22   -1    0    0    0    0  0.00000000000E+00  0.00000000000E+00  0.33206421501E+03  0.33206421501E+03  0.00000000000E+00 0.  1.
         22   -1    0    0    0    0 -0.00000000000E+00 -0.00000000000E+00 -0.15027897374E+03  0.15027897374E+03  0.00000000000E+00 0.  1.
         25    2    1    2    0    0 -0.50313267072E+02  0.77550741306E+02  0.27378249008E+02  0.15793094091E+03  0.12508825387E+03 0.  0.
        -24    2    1    2    0    0  0.39544773086E+02 -0.38464373040E+02 -0.42959991478E+02  0.10784719024E+03  0.82110647923E+02 0.  0.
         24    2    1    2    0    0  0.10768493986E+02 -0.39086368265E+02  0.19736698375E+03  0.21656505760E+03  0.79391392815E+02 0.  0.
        -11    1    5    5    0    0 -0.49766396264E+01  0.11768398529E+02  0.13035848955E+03  0.13098319719E+03  0.00000000000E+00 0.  1.
         12    1    5    5    0    0  0.15745133613E+02 -0.50854766794E+02  0.67008494193E+02  0.85581860416E+02  0.00000000000E+00 0. -1.
         11    1    4    4    0    0  0.80973396133E+00 -0.28360991386E+01  0.23155476043E+02  0.23342561945E+02  0.00000000000E+00 0. -1.
        -12    1    4    4    0    0  0.38735039125E+02 -0.35628273902E+02 -0.66115467521E+02  0.84504628292E+02  0.00000000000E+00 0.  1.
          5    1    3    3  501    0  0.32477823968E+02  0.58264867936E+02  0.28876180690E+02  0.72807349194E+02  0.41800000000E+01 0.  1.
         -5    1    3    3    0  501 -0.82791091041E+02  0.19285873369E+02 -0.14979316822E+01  0.85123591716E+02  0.41800000000E+01 0.  1.
</event>
<event>
11    1  0.2498402E-009  0.2927684E+03  0.7561462E-02  0.1003299E+00
         22   -1    0    0    0    0  0.00000000000E+00  0.00000000000E+00  0.14853113686E+04  0.14853113686E+04  0.00000000000E+00 0. -1.
         22   -1    0    0    0    0 -0.00000000000E+00 -0.00000000000E+00 -0.26982633309E+03  0.26982633309E+03  0.00000000000E+00 0.  1.
         25    2    1    2    0    0  0.19314221917E+03  0.11967278142E+03 -0.11261600380E+03  0.28276420820E+03  0.12509093366E+03 0.  0.
        -24    2    1    2    0    0 -0.26521555842E+03  0.16221153409E+03  0.82942156828E+03  0.88949112017E+03  0.81255404290E+02 0.  0.
         24    2    1    2    0    0  0.72073339249E+02 -0.28188431550E+03  0.49867947104E+03  0.58288237332E+03  0.80108131511E+02 0.  0.
        -11    1    5    5    0    0  0.65052531324E+02 -0.27944993428E+03  0.45034527574E+03  0.53398030392E+03  0.00000000000E+00 0.  1.
         12    1    5    5    0    0  0.70208079254E+01 -0.24343812269E+01  0.48334195300E+02  0.48902069396E+02  0.00000000000E+00 0. -1.
         13    1    4    4    0    0 -0.14323790888E+03  0.41493116591E+02  0.41263780455E+03  0.43875817373E+03  0.00000000000E+00 0. -1.
        -14    1    4    4    0    0 -0.12197764954E+03  0.12071841749E+03  0.41678376372E+03  0.45073294645E+03  0.00000000000E+00 0.  1.
          5    1    3    3  501    0  0.37261158060E+02  0.71650677600E+02 -0.84922182055E+02  0.11726663168E+03  0.41800000000E+01 0. -1.
         -5    1    3    3    0  501  0.15588106112E+03  0.48022103818E+02 -0.27693821750E+02  0.16549757652E+03  0.41800000000E+01 0. -1.
</event>
<event>
11    1  0.2498402E-009  0.4673148E+03  0.7561462E-02  0.9469677E-01
         22   -1    0    0    0    0  0.00000000000E+00  0.00000000000E+00  0.12589016960E+03  0.12589016960E+03  0.00000000000E+00 0.  1.
         22   -1    0    0    0    0 -0.00000000000E+00 -0.00000000000E+00 -0.31353392245E+04  0.31353392245E+04  0.00000000000E+00 0.  1.
         25    2    1    2    0    0  0.32668166293E+03  0.31360186985E+03 -0.16897764617E+04  0.17538698505E+04  0.12509164835E+03 0.  0.
         24    2    1    2    0    0 -0.18148207312E+03 -0.43300827619E+03 -0.11348943060E+04  0.12308416193E+04  0.80957370597E+02 0.  0.
        -24    2    1    2    0    0 -0.14519958981E+03  0.11940640634E+03 -0.18477828723E+03  0.27651792429E+03  0.83536436765E+02 0.  0.
        -11    1    4    4    0    0 -0.12832485859E+03 -0.33808618227E+03 -0.94740943379E+03  0.10140779907E+04  0.00000000000E+00 0.  1.
         12    1    4    4    0    0 -0.53157214538E+02 -0.94922093922E+02 -0.18748487219E+03  0.21676362857E+03  0.00000000000E+00 0. -1.
         11    1    5    5    0    0 -0.10800814537E+03  0.72279628271E+02 -0.17124561306E+03  0.21497712465E+03  0.00000000000E+00 0. -1.
        -12    1    5    5    0    0 -0.37191444444E+02  0.47126778067E+02 -0.13532674168E+02  0.61540799645E+02  0.00000000000E+00 0.  1.
          5    1    3    3  501    0  0.26513833180E+03  0.17648154613E+03 -0.10956200969E+04  0.11409841981E+04  0.41800000000E+01 0.  1.
         -5    1    3    3    0  501  0.61543331131E+02  0.13712032373E+03 -0.59415636479E+03  0.61288565247E+03  0.41800000000E+01 0.  1.
</event>
<event>
11    1  0.2498402E-009  0.1548539E+03  0.7561462E-02  0.1092020E+00
         22   -1    0    0    0    0  0.00000000000E+00  0.00000000000E+00  0.50467156283E+03  0.50467156283E+03  0.00000000000E+00 0.  1.
         22   -1    0    0    0    0 -0.00000000000E+00 -0.00000000000E+00 -0.33834199077E+03  0.33834199077E+03  0.00000000000E+00 0. -1.
         25    2    1    2    0    0 -0.95397875616E+02 -0.16943898578E+02 -0.11768381548E+03  0.19719109026E+03  0.12508795018E+03 0.  0.
        -24    2    1    2    0    0  0.73869910886E+02  0.54061337458E+02 -0.15117679668E+03  0.20132015823E+03  0.96415716123E+02 0.  0.
         24    2    1    2    0    0  0.21527964730E+02 -0.37117438880E+02  0.43519018423E+03  0.44450230511E+03  0.79690935897E+02 0.  0.
        -13    1    5    5    0    0  0.35890786361E+02 -0.26323089393E+02  0.41538113112E+03  0.41775894685E+03  0.00000000000E+00 0.  1.
         14    1    5    5    0    0 -0.14362821631E+02 -0.10794349487E+02  0.19809053108E+02  0.26743358261E+02  0.00000000000E+00 0. -1.
         13    1    4    4    0    0  0.75898229247E+02  0.77900919314E+02 -0.12858531959E+03  0.16841401024E+03  0.00000000000E+00 0. -1.
        -14    1    4    4    0    0 -0.20283183610E+01 -0.23839581856E+02 -0.22591477089E+02  0.32906147990E+02  0.00000000000E+00 0.  1.
          5    1    3    3  501    0 -0.73324063010E+02  0.37135445648E+02 -0.11110112482E+03  0.13826204062E+03  0.41800000000E+01 0. -1.
         -5    1    3    3    0  501 -0.22073812606E+02 -0.54079344227E+02 -0.65826906637E+01  0.58929049639E+02  0.41800000000E+01 0. -1.
</event>
<event>
11    1  0.2498402E-009  0.3999244E+03  0.7561462E-02  0.9649981E-01
         22   -1    0    0    0    0  0.00000000000E+00  0.00000000000E+00  0.10614900705E+04  0.10614900705E+04  0.00000000000E+00 0. -1.
         22   -1    0    0    0    0 -0.00000000000E+00 -0.00000000000E+00 -0.46493874684E+03  0.46493874684E+03  0.00000000000E+00 0.  1.
         25    2    1    2    0    0  0.28969960883E+03 -0.26498885249E+03 -0.14422344432E+03  0.43656611959E+03  0.12507845372E+03 0.  0.
        -24    2    1    2    0    0 -0.21914735627E+03  0.29277702307E+03  0.36247302395E+02  0.37682358642E+03  0.83295854352E+02 0.  0.
         24    2    1    2    0    0 -0.70552252559E+02 -0.27788170576E+02  0.70452746557E+03  0.71303911132E+03  0.79473402879E+02 0.  0.
        -11    1    5    5    0    0 -0.47111842687E+02 -0.11257983370E+02  0.14701169751E+03  0.15478600427E+03  0.00000000000E+00 0.  1.
         12    1    5    5    0    0 -0.23440409872E+02 -0.16530187206E+02  0.55751576805E+03  0.55825310705E+03  0.00000000000E+00 0. -1.
         11    1    4    4    0    0 -0.10589920832E+03  0.20630307554E+03  0.33548402101E+02  0.23430983032E+03  0.00000000000E+00 0. -1.
        -12    1    4    4    0    0 -0.11324814794E+03  0.86473947529E+02  0.26989002932E+01  0.14251375610E+03  0.00000000000E+00 0.  1.
          5    1    3    3  501    0  0.20982888185E+03 -0.25188409923E+03 -0.13654738553E+03  0.35515689491E+03  0.41800000000E+01 0.  1.
         -5    1    3    3    0  501  0.79870726971E+02 -0.13104753263E+02 -0.76760587878E+01  0.81409224682E+02  0.41800000000E+01 0.  1.
</event>
<event>
11    1  0.2498402E-009  0.1342176E+03  0.7561462E-02  0.1114193E+00
         22   -1    0    0    0    0  0.00000000000E+00  0.00000000000E+00  0.21043846736E+04  0.21043846736E+04  0.00000000000E+00 0.  1.
         22   -1    0    0    0    0 -0.00000000000E+00 -0.00000000000E+00 -0.34630147760E+03  0.34630147760E+03  0.00000000000E+00 0.  1.
         25    2    1    2    0    0  0.29179467442E+02 -0.38981609702E+02 -0.31479687894E+03  0.34221084812E+03  0.12506071469E+03 0.  0.
         24    2    1    2    0    0 -0.24856987195E+02 -0.24425973480E+02  0.10057668477E+03  0.13350878712E+03  0.80588018500E+02 0.  0.
        -24    2    1    2    0    0 -0.43224802468E+01  0.63407583182E+02  0.19723033902E+04  0.19749665160E+04  0.80454153668E+02 0.  0.
        -13    1    4    4    0    0 -0.52843588971E+02 -0.27480748239E+02  0.65508184995E+02  0.88537894262E+02  0.00000000000E+00 0.  1.
         14    1    4    4    0    0  0.27986601776E+02  0.30547747592E+01  0.35068499779E+02  0.44970892859E+02  0.00000000000E+00 0. -1.
         11    1    5    5    0    0 -0.73945539323E+01 -0.11499213195E+02  0.87421528405E+03  0.87432217986E+03  0.00000000000E+00 0. -1.
        -12    1    5    5    0    0  0.30720736854E+01  0.74906796377E+02  0.10980881062E+04  0.11006443361E+04  0.00000000000E+00 0.  1.
          5    1    3    3  501    0 -0.31281271640E+02 -0.35641872706E+02 -0.24557490478E+03  0.25014669157E+03  0.41800000000E+01 0.  1.
         -5    1    3    3    0  501  0.60460739082E+02 -0.33397369957E+01 -0.69221974167E+02  0.92064156549E+02  0.41800000000E+01 0.  1.
</event>
<event>
11    1  0.2498402E-009  0.5350751E+03  0.7561462E-02  0.9318389E-01
         22   -1    0    0    0    0  0.00000000000E+00  0.00000000000E+00  0.18512969094E+04  0.18512969094E+04  0.00000000000E+00 0. -1.
         22   -1    0    0    0    0 -0.00000000000E+00 -0.00000000000E+00 -0.51018083406E+03  0.51018083406E+03  0.00000000000E+00 0. -1.
         25    2    1    2    0    0  0.51291103359E+03  0.68586817664E+02 -0.28117873167E+03  0.60207116001E+03  0.12508526145E+03 0.  0.
         24    2    1    2    0    0 -0.54864097927E+03  0.14454590716E+02  0.12391202151E+04  0.13576281540E+04  0.80743035277E+02 0.  0.
        -24    2    1    2    0    0  0.35729945679E+02 -0.83041408380E+02  0.38317459193E+03  0.40177842946E+03  0.80191233660E+02 0.  0.
        -13    1    4    4    0    0 -0.34158022924E+02  0.88402386180E+01  0.13463706055E+03  0.13918354222E+03  0.00000000000E+00 0.  1.
         14    1    4    4    0    0 -0.51448295635E+03  0.56143520978E+01  0.11044831546E+04  0.12184446118E+04  0.00000000000E+00 0. -1.
         11    1    5    5    0    0  0.54249563831E+02 -0.38522975914E+02  0.28141118012E+03  0.28916999696E+03  0.00000000000E+00 0. -1.
        -12    1    5    5    0    0 -0.18519618152E+02 -0.44518432466E+02  0.10176341181E+03  0.11260843249E+03  0.00000000000E+00 0.  1.
          5    1    3    3  501    0  0.19163773070E+03 -0.32389660757E+02 -0.83726512733E+02  0.21166414738E+03  0.41800000000E+01 0. -1.
         -5    1    3    3    0  501  0.32127330289E+03  0.10097647842E+03 -0.19745221894E+03  0.39040701263E+03  0.41800000000E+01 0. -1.
</event>
<event>
11    1  0.2498402E-009  0.1418991E+03  0.7561462E-02  0.1105456E+00
         22   -1    0    0    0    0  0.00000000000E+00  0.00000000000E+00  0.75856473734E+03  0.75856473734E+03  0.00000000000E+00 0. -1.
         22   -1    0    0    0    0 -0.00000000000E+00 -0.00000000000E+00 -0.51466736783E+03  0.51466736783E+03  0.00000000000E+00 0. -1.
         25    2    1    2    0    0 -0.34085442883E+01  0.61349620180E+02 -0.28988701592E+03  0.32165470841E+03  0.12510745530E+03 0.  0.
        -24    2    1    2    0    0  0.22860990247E+02 -0.69474219657E+02 -0.19177736080E+03  0.22105911348E+03  0.82093138964E+02 0.  0.
         24    2    1    2    0    0 -0.19452445958E+02  0.81245994774E+01  0.72556174623E+03  0.73051828328E+03  0.82296463146E+02 0.  0.
        -13    1    5    5    0    0 -0.47235681846E+02  0.81841538245E+01  0.27864672800E+03  0.28274049770E+03  0.00000000000E+00 0.  1.
         14    1    5    5    0    0  0.27783235888E+02 -0.59554347127E-01  0.44691501823E+03  0.44777778558E+03  0.00000000000E+00 0. -1.
         11    1    4    4    0    0  0.31938996569E+00 -0.33510517282E+02 -0.17015687539E+03  0.17342554316E+03  0.00000000000E+00 0. -1.
        -12    1    4    4    0    0  0.22541600281E+02 -0.35963702375E+02 -0.21620485407E+02  0.47633570315E+02  0.00000000000E+00 0.  1.
          5    1    3    3  501    0 -0.22639293873E+02  0.89264652860E+02 -0.13788568470E+03  0.16586334834E+03  0.41800000000E+01 0.  1.
         -5    1    3    3    0  501  0.19230749585E+02 -0.27915032680E+02 -0.15200133122E+03  0.15579136007E+03  0.41800000000E+01 0.  1.
</event>
<event>
11    1  0.2498402E-009  0.3589035E+03  0.7561462E-02  0.9779458E-01
         22   -1    0    0    0    0  0.00000000000E+00  0.00000000000E+00  0.36356237206E+03  0.36356237206E+03  0.00000000000E+00 0. -1.
         22   -1    0    0    0    0 -0.00000000000E+00 -0.00000000000E+00 -0.88576102712E+02  0.88576102712E+02  0.00000000000E+00 0. -1.
         25    2    1    2    0    0 -0.41935731453E+02 -0.45915594007E+02  0.12498404933E+02  0.14024997507E+03  0.12508796119E+03 0.  0.
        -24    2    1    2    0    0  0.17130994746E+02  0.22145567854E+02  0.11026246439E+03  0.13845169278E+03  0.78912375618E+02 0.  0.
         24    2    1    2    0    0  0.24804736707E+02  0.23770026153E+02  0.15222540003E+03  0.17343680692E+03  0.75680013699E+02 0.  0.
        -11    1    5    5    0    0 -0.12576637752E+02 -0.18051597052E+02  0.19709865433E+02  0.29538293259E+02  0.00000000000E+00 0.  1.
         12    1    5    5    0    0  0.37381374459E+02  0.41821623205E+02  0.13251553460E+03  0.14389851366E+03  0.00000000000E+00 0. -1.
         11    1    4    4    0    0  0.36107681568E+02  0.42590798683E+02  0.73303173809E+02  0.92147143695E+02  0.00000000000E+00 0. -1.
        -12    1    4    4    0    0 -0.18976686822E+02 -0.20445230828E+02  0.36959290576E+02  0.46304549088E+02  0.00000000000E+00 0.  1.
          5    1    3    3  501    0 -0.79295622837E+02 -0.18172640166E+02 -0.19325564787E+02  0.83719713963E+02  0.41800000000E+01 0.  1.
         -5    1    3    3    0  501  0.37359891384E+02 -0.27742953841E+02  0.31823969720E+02  0.56530261107E+02  0.41800000000E+01 0.  1.
</event>
<event>
11    1  0.2498402E-009  0.6067785E+03  0.7561462E-02  0.9182220E-01
         22   -1    0    0    0    0  0.00000000000E+00  0.00000000000E+00  0.25923122181E+03  0.25923122181E+03  0.00000000000E+00 0.  1.
         22   -1    0    0    0    0 -0.00000000000E+00 -0.00000000000E+00 -0.21739711320E+04  0.21739711320E+04  0.00000000000E+00 0.  1.
         25    2    1    2    0    0 -0.59570909215E+03  0.25811335563E+02 -0.15424156300E+04  0.16583814436E+04  0.12508992418E+03 0.  0.
        -24    2    1    2    0    0  0.58533599086E+03 -0.20631071144E+02 -0.28673618068E+03  0.65713282648E+03  0.81006487635E+02 0.  0.
         24    2    1    2    0    0  0.10373101293E+02 -0.51802644194E+01 -0.85588099484E+02  0.11768808375E+03  0.79942015950E+02 0.  0.
        -11    1    5    5    0    0  0.22193457456E+02 -0.38728091133E+02 -0.40613286278E+02  0.60347772278E+02  0.00000000000E+00 0.  1.
         12    1    5    5    0    0 -0.11820356163E+02  0.33547826714E+02 -0.44974813206E+02  0.57340311474E+02  0.00000000000E+00 0. -1.
         11    1    4    4    0    0  0.13623968937E+03  0.11703038877E+02 -0.34461519469E+02  0.14101705713E+03  0.00000000000E+00 0. -1.
        -12    1    4    4    0    0  0.44909630149E+03 -0.32334110021E+02 -0.25227466121E+03  0.51611576935E+03  0.00000000000E+00 0.  1.
          5    1    3    3  501    0 -0.65601605198E+02  0.37471879899E+02 -0.14127293844E+03  0.16025987621E+03  0.41800000000E+01 0. -1.
         -5    1    3    3    0  501 -0.53010748696E+03 -0.11660544335E+02 -0.14011426916E+04  0.14981215674E+04  0.41800000000E+01 0. -1.
</event>
<event>
11    1  0.2498402E-009  0.3627525E+03  0.7561462E-02  0.9766539E-01
         22   -1    0    0    0    0  0.00000000000E+00  0.00000000000E+00  0.10422119523E+04  0.10422119523E+04  0.00000000000E+00 0. -1.
         22   -1    0    0    0    0 -0.00000000000E+00 -0.00000000000E+00 -0.42186127438E+03  0.42186127438E+03  0.00000000000E+00 0. -1.
         25    2    1    2    0    0 -0.36679300206E+02  0.11192856482E+03 -0.11818233578E+03  0.20853571982E+03  0.12508679893E+03 0.  0.
         24    2    1    2    0    0 -0.32137275599E+03 -0.12287708978E+03 -0.76417910766E+02  0.36164298786E+03  0.81035338569E+02 0.  0.
        -24    2    1    2    0    0  0.35805205619E+03  0.10948524962E+02  0.81495092446E+03  0.89389451899E+03  0.81124944678E+02 0.  0.
        -11    1    4    4    0    0 -0.32313769345E+02 -0.19802956701E+00  0.13480200600E+02  0.35013350500E+02  0.00000000000E+00 0.  1.
         12    1    4    4    0    0 -0.28905898664E+03 -0.12267906021E+03 -0.89898111366E+02  0.32662963736E+03  0.00000000000E+00 0. -1.
         13    1    5    5    0    0  0.21865509836E+03  0.46248951721E+02  0.49506059638E+03  0.54317033393E+03  0.00000000000E+00 0. -1.
        -14    1    5    5    0    0  0.13939695783E+03 -0.35300426759E+02  0.31989032808E+03  0.35072418506E+03  0.00000000000E+00 0.  1.
          5    1    3    3  501    0 -0.43847581546E+02  0.11046938090E+03 -0.33665387770E+02  0.12359985946E+03  0.41800000000E+01 0.  1.
         -5    1    3    3    0  501  0.71682813399E+01  0.14591839137E+01 -0.84516948009E+02  0.84935860364E+02  0.41800000000E+01 0.  1.
</event>
<event>
11    1  0.2498402E-009  0.3497481E+03  0.7561462E-02  0.9810900E-01
         22   -1    0    0    0    0  0.00000000000E+00  0.00000000000E+00  0.39391374005E+03  0.39391374005E+03  0.00000000000E+00 0. -1.
         22   -1    0    0    0    0 -0.00000000000E+00 -0.00000000000E+00 -0.88326549006E+03  0.88326549006E+03  0.00000000000E+00 0. -1.
         25    2    1    2    0    0  0.21476587232E+03  0.11523052001E+03 -0.17969811502E+03  0.32763059722E+03  0.12509173848E+03 0.  0.
         24    2    1    2    0    0 -0.50538817500E+03 -0.58909751848E+02 -0.36985824566E+03  0.63683135483E+03  0.99355353764E+02 0.  0.
        -24    2    1    2    0    0  0.29062230268E+03 -0.56320768160E+02  0.60204610676E+02  0.31271727806E+03  0.80834083827E+02 0.  0.
        -11    1    4    4    0    0 -0.20959799795E+03 -0.28964526776E+02 -0.21484571689E+03  0.30154426976E+03  0.00000000000E+00 0.  1.
         12    1    4    4    0    0 -0.29579017704E+03 -0.29945225072E+02 -0.15501252877E+03  0.33528708507E+03  0.00000000000E+00 0. -1.
         11    1    5    5    0    0  0.29415819863E+03 -0.59057210031E+02  0.64086498585E+02  0.30679615248E+03  0.00000000000E+00 0. -1.
        -12    1    5    5    0    0 -0.35358959525E+01  0.27364418716E+01 -0.38818879086E+01  0.59211255719E+01  0.00000000000E+00 0.  1.
          5    1    3    3  501    0  0.65595772537E+02 -0.23418259535E+02 -0.37549745700E+02  0.79238097254E+02  0.41800000000E+01 0. -1.
         -5    1    3    3    0  501  0.14917009978E+03  0.13864877954E+03 -0.14214836932E+03  0.24839249996E+03  0.41800000000E+01 0. -1.
</event>
<event>
11    1  0.2498402E-009  0.1537696E+03  0.7561462E-02  0.1093088E+00
         22   -1    0    0    0    0  0.00000000000E+00  0.00000000000E+00  0.86031772840E+03  0.86031772840E+03  0.00000000000E+00 0. -1.
         22   -1    0    0    0    0 -0.00000000000E+00 -0.00000000000E+00 -0.78259053439E+03  0.78259053439E+03  0.00000000000E+00 0. -1.
         25    2    1    2    0    0 -0.12930052550E+02 -0.13408368298E+03 -0.69395184158E+03  0.71788704354E+03  0.12508808315E+03 0.  0.
         24    2    1    2    0    0  0.49235065489E+02  0.52543945429E+02 -0.32787532430E+02  0.11171337793E+03  0.78866334075E+02 0.  0.
        -24    2    1    2    0    0 -0.36305012939E+02  0.81539737551E+02  0.80446656802E+03  0.81330784132E+03  0.79601525959E+02 0.  0.
        -13    1    4    4    0    0  0.54766984584E+02  0.87197535466E+00 -0.15076254805E+02  0.56810882763E+02  0.00000000000E+00 0.  1.
         14    1    4    4    0    0 -0.55319190946E+01  0.51671970075E+02 -0.17711277625E+02  0.54902495165E+02  0.00000000000E+00 0. -1.
         13    1    5    5    0    0  0.10220597046E+02  0.36097229163E+02  0.52647879660E+03  0.52781378708E+03  0.00000000000E+00 0. -1.
        -14    1    5    5    0    0 -0.46525609985E+02  0.45442508388E+02  0.27798777142E+03  0.28549405425E+03  0.00000000000E+00 0.  1.
          5    1    3    3  501    0 -0.53875552942E+02 -0.39937478444E+02 -0.41919497123E+03  0.42454619736E+03  0.41800000000E+01 0.  1.
         -5    1    3    3    0  501  0.40945500392E+02 -0.94146204536E+02 -0.27475687034E+03  0.29334084617E+03  0.41800000000E+01 0.  1.
</event>
<event>
11    1  0.2498402E-009  0.2287386E+03  0.7561462E-02  0.1035877E+00
         22   -1    0    0    0    0  0.00000000000E+00  0.00000000000E+00  0.11460894267E+04  0.11460894267E+04  0.00000000000E+00 0. -1.
         22   -1    0    0    0    0 -0.00000000000E+00 -0.00000000000E+00 -0.43370496034E+03  0.43370496034E+03  0.00000000000E+00 0.  1.
         25    2    1    2    0    0 -0.87160747453E+02 -0.15259502136E+03 -0.76383316177E+02  0.22883113055E+03  0.12508812445E+03 0.  0.
         24    2    1    2    0    0  0.19401233238E+03  0.92075932118E+02 -0.22800211917E+03  0.32360652695E+03  0.81347744584E+02 0.  0.
        -24    2    1    2    0    0 -0.10685158492E+03  0.60519089247E+02  0.10167699017E+04  0.10273567296E+04  0.80999971322E+02 0.  0.
        -11    1    4    4    0    0  0.17468628967E+03  0.84390842500E+02 -0.15685146652E+03  0.24947844926E+03  0.00000000000E+00 0.  1.
         12    1    4    4    0    0  0.19326042706E+02  0.76850896185E+01 -0.71150652651E+02  0.74128077688E+02  0.00000000000E+00 0. -1.
         11    1    5    5    0    0 -0.10862643714E+03  0.30148424262E+02  0.68715831981E+03  0.69634415831E+03  0.00000000000E+00 0. -1.
        -12    1    5    5    0    0  0.17748522117E+01  0.30370664985E+02  0.32961158193E+03  0.33101257126E+03  0.00000000000E+00 0.  1.
          5    1    3    3  501    0  0.24664921600E+02 -0.37173472816E+02  0.10601626678E+02  0.46044460329E+02  0.41800000000E+01 0. -1.
         -5    1    3    3    0  501 -0.11182566905E+03 -0.11542154855E+03 -0.86984942855E+02  0.18278667022E+03  0.41800000000E+01 0. -1.
</event>
<event>
11    1  0.2498402E-009  0.1798801E+03  0.7561462E-02  0.1069740E+00
         22   -1    0    0    0    0  0.00000000000E+00  0.00000000000E+00  0.13436554970E+04  0.13436554970E+04  0.00000000000E+00 0.  1.
         22   -1    0    0    0    0 -0.00000000000E+00 -0.00000000000E+00 -0.52027600259E+02  0.52027600259E+02  0.00000000000E+00 0.  1.
         25    2    1    2    0    0  0.54256312595E+02 -0.42341223321E+02  0.21472239000E+03  0.25785641453E+03  0.12509076344E+03 0.  0.
         24    2    1    2    0    0 -0.71246797447E+02 -0.13131139851E+03  0.41186068456E+03  0.44569417136E+03  0.81824699047E+02 0.  0.
        -24    2    1    2    0    0  0.16990484852E+02  0.17365262183E+03  0.66504482216E+03  0.69213251135E+03  0.79491434367E+02 0.  0.
        -13    1    4    4    0    0 -0.50010386012E+02 -0.13805721820E+03  0.33729789283E+03  0.36787321554E+03  0.00000000000E+00 0.  1.
         14    1    4    4    0    0 -0.21236411435E+02  0.67458196901E+01  0.74562791731E+02  0.77820955819E+02  0.00000000000E+00 0. -1.
         11    1    5    5    0    0  0.71545336795E+01 -0.16113938536E+01  0.10420937568E+03  0.10446711407E+03  0.00000000000E+00 0. -1.
        -12    1    5    5    0    0  0.98359511726E+01  0.17526401569E+03  0.56083544648E+03  0.58766539728E+03  0.00000000000E+00 0.  1.
          5    1    3    3  501    0 -0.39240567421E+02 -0.27285743477E+02  0.72906379552E+02  0.87276265434E+02  0.41800000000E+01 0.  1.
         -5    1    3    3    0  501  0.93496880016E+02 -0.15055479844E+02  0.14181601045E+03  0.17058014910E+03  0.41800000000E+01 0.  1.
</event>
<event>
11    1  0.2498402E-009  0.1457545E+03  0.7561462E-02  0.1101297E+00
         22   -1    0    0    0    0  0.00000000000E+00  0.00000000000E+00  0.26507288931E+04  0.26507288931E+04  0.00000000000E+00 0.  1.
         22   -1    0    0    0    0 -0.00000000000E+00 -0.00000000000E+00 -0.68095964230E+02  0.68095964230E+02  0.00000000000E+00 0. -1.
         25    2    1    2    0    0 -0.96279531105E+02  0.16168868679E+02  0.95822968528E+02  0.18536680671E+03  0.12509049247E+03 0.  0.
         24    2    1    2    0    0  0.53848008657E+02 -0.17152344572E+02  0.92339390257E+02  0.13726722872E+03  0.84391457667E+02 0.  0.
        -24    2    1    2    0    0  0.42431522448E+02  0.98347589273E+00  0.23944705701E+04  0.23961908219E+04  0.80248007062E+02 0.  0.
        -11    1    4    4    0    0  0.96925996500E+01 -0.29273678594E+02  0.85600085657E+02  0.90984995526E+02  0.00000000000E+00 0.  1.
         12    1    4    4    0    0  0.44155409007E+02  0.12121334022E+02  0.67393046004E+01  0.46282233195E+02  0.00000000000E+00 0. -1.
         11    1    5    5    0    0  0.17767281992E+01  0.12160154815E+02  0.55673228894E+02  0.57013459321E+02  0.00000000000E+00 0. -1.
        -12    1    5    5    0    0  0.40654794249E+02 -0.11176678922E+02  0.23387973412E+04  0.23391773626E+04  0.00000000000E+00 0.  1.
          5    1    3    3  501    0 -0.38444591654E+02 -0.64256428838E+00  0.11555075507E+03  0.12185174974E+03  0.41800000000E+01 0. -1.
         -5    1    3    3    0  501 -0.57834939450E+02  0.16811432968E+02 -0.19727786546E+02  0.63515056968E+02  0.41800000000E+01 0. -1.
</event>
<event>
11    1  0.2498402E-009  0.1629545E+03  0.7561462E-02  0.1084331E+00
         22   -1    0    0    0    0  0.00000000000E+00  0.00000000000E+00  0.21438129195E+03  0.21438129195E+03  0.00000000000E+00 0. -1.
         22   -1    0    0    0    0 -0.00000000000E+00 -0.00000000000E+00 -0.28601836988E+03  0.28601836988E+03  0.00000000000E+00 0.  1.
         25    2    1    2    0    0  0.76342390500E+01  0.82569610272E+02 -0.10360073621E+03  0.18237011897E+03  0.12509886332E+03 0.  0.
        -24    2    1    2    0    0 -0.91950040989E+02 -0.17037731629E+01 -0.70359253013E+02  0.14283771158E+03  0.83632974852E+02 0.  0.
         24    2    1    2    0    0  0.84315801939E+02 -0.80865837109E+02  0.10232291129E+03  0.17519183128E+03  0.81078736451E+02 0.  0.
        -11    1    5    5    0    0  0.33458900716E+01 -0.40640229620E+02  0.30096722248E+01  0.40888645989E+02  0.00000000000E+00 0.  1.
         12    1    5    5    0    0  0.80969911868E+02 -0.40225607489E+02  0.99313239065E+02  0.13430318529E+03  0.00000000000E+00 0. -1.
         13    1    4    4    0    0  0.10038642994E+02 -0.30378932390E+01 -0.32317868707E+02  0.33977165660E+02  0.00000000000E+00 0. -1.
        -14    1    4    4    0    0 -0.10198868398E+03  0.13341200761E+01 -0.38041384306E+02  0.10886054592E+03  0.00000000000E+00 0.  1.
          5    1    3    3  501    0 -0.48459351986E+02  0.26059173946E+02 -0.83595960467E+02  0.10016559463E+03  0.41800000000E+01 0.  1.
         -5    1    3    3    0  501  0.56093591036E+02  0.56510436326E+02 -0.20004775738E+02  0.82204524337E+02  0.41800000000E+01 0.  1.
</event>
<event>
11    1  0.2498402E-009  0.1335889E+04  0.7561462E-02  0.8412179E-01
         22   -1    0    0    0    0  0.00000000000E+00  0.00000000000E+00  0.17740648776E+04  0.17740648776E+04  0.00000000000E+00 0.  1.
         22   -1    0    0    0    0 -0.00000000000E+00 -0.00000000000E+00 -0.14009378507E+04  0.14009378507E+04  0.00000000000E+00 0.  1.
         25    2    1    2    0    0 -0.11179824451E+04 -0.53373341102E+03 -0.22739465589E+03  0.12657454832E+04  0.12508875719E+03 0.  0.
         24    2    1    2    0    0  0.13900533700E+04  0.57032742902E+03  0.39305722609E+03  0.15551356719E+04  0.80194933501E+02 0.  0.
        -24    2    1    2    0    0 -0.27207092488E+03 -0.36594018008E+02  0.20746445674E+03  0.35412157325E+03  0.83659294234E+02 0.  0.
        -13    1    4    4    0    0  0.12125333385E+03  0.26579008442E+02  0.27341800573E+02  0.12710778386E+03  0.00000000000E+00 0.  1.
         14    1    4    4    0    0  0.12688000361E+04  0.54374842058E+03  0.36571542552E+03  0.14280278880E+04  0.00000000000E+00 0. -1.
         11    1    5    5    0    0 -0.44004594697E+02 -0.20927632772E+02  0.76385745809E+02  0.90604372580E+02  0.00000000000E+00 0. -1.
        -12    1    5    5    0    0 -0.22806633019E+03 -0.15666385236E+02  0.13107871093E+03  0.26351720067E+03  0.00000000000E+00 0.  1.
          5    1    3    3  501    0 -0.53930304751E+02 -0.53828366266E+02 -0.29490887199E+02  0.81811708289E+02  0.41800000000E+01 0. -1.
         -5    1    3    3    0  501 -0.10640521403E+04 -0.47990504475E+03 -0.19790376869E+03  0.11839337749E+04  0.41800000000E+01 0. -1.
</event>
<event>
11    1  0.2498402E-009  0.1508827E+03  0.7561462E-02  0.1095980E+00
         22   -1    0    0    0    0  0.00000000000E+00  0.00000000000E+00  0.21990091811E+03  0.21990091811E+03  0.00000000000E+00 0. -1.
         22   -1    0    0    0    0 -0.00000000000E+00 -0.00000000000E+00 -0.50314808876E+03  0.50314808876E+03  0.00000000000E+00 0.  1.
         25    2    1    2    0    0 -0.40174236119E+02 -0.38314543863E+01 -0.33140745299E+03  0.35652114419E+03  0.12509107508E+03 0.  0.
        -24    2    1    2    0    0 -0.18424531065E+02 -0.60832261626E+02 -0.12223245519E+03  0.15943896274E+03  0.80249500549E+02 0.  0.
         24    2    1    2    0    0  0.58598767185E+02  0.64663716012E+02  0.17039273753E+03  0.20708889995E+03  0.78974146356E+02 0.  0.
        -13    1    5    5    0    0 -0.18184325660E+01  0.38976181428E+02  0.21932162442E+02  0.44760129190E+02  0.00000000000E+00 0.  1.
         14    1    5    5    0    0  0.60417199751E+02  0.25687534584E+02  0.14846057509E+03  0.16232877075E+03  0.00000000000E+00 0. -1.
         13    1    4    4    0    0 -0.39157206312E+02 -0.21335656955E+02 -0.10022620792E+03  0.10969863180E+03  0.00000000000E+00 0. -1.
        -14    1    4    4    0    0  0.20732675247E+02 -0.39496604670E+02 -0.22006247268E+02  0.49740330942E+02  0.00000000000E+00 0.  1.
          5    1    3    3  501    0 -0.29125331955E+02  0.42864643742E+02 -0.28476361210E+03  0.28947098269E+03  0.41800000000E+01 0. -1.
         -5    1    3    3    0  501 -0.11048904164E+02 -0.46696098128E+02 -0.46643840897E+02  0.67050161500E+02  0.41800000000E+01 0. -1.
</event>
<event>
11    1  0.2498402E-009  0.1082999E+04  0.7561462E-02  0.8603845E-01
         22   -1    0    0    0    0  0.00000000000E+00  0.00000000000E+00  0.32532308545E+03  0.32532308545E+03  0.00000000000E+00 0. -1.
         22   -1    0    0    0    0 -0.00000000000E+00 -0.00000000000E+00 -0.90132433978E+03  0.90132433978E+03  0.00000000000E+00 0. -1.
         25    2    1    2    0    0  0.18770873433E+03 -0.22402760687E+03 -0.75933986728E+03  0.82320542786E+03  0.12508878783E+03 0.  0.
        -24    2    1    2    0    0 -0.18018854006E+03  0.15990102567E+03  0.10629753422E+03  0.27455892052E+03  0.77763661668E+02 0.  0.
         24    2    1    2    0    0 -0.75201942689E+01  0.64126581194E+02  0.77041078722E+02  0.12888307685E+03  0.80664415634E+02 0.  0.
        -11    1    5    5    0    0 -0.11003552133E+02 -0.16496488175E+02  0.28470060291E+02  0.34695195844E+02  0.00000000000E+00 0.  1.
         12    1    5    5    0    0  0.34833578645E+01  0.80623069369E+02  0.48571018431E+02  0.94187881004E+02  0.00000000000E+00 0. -1.
         11    1    4    4    0    0 -0.47579541695E+02  0.36011860763E+01  0.26647877374E+02  0.54652453720E+02  0.00000000000E+00 0. -1.
        -12    1    4    4    0    0 -0.13260899837E+03  0.15629983959E+03  0.79649656848E+02  0.21990646680E+03  0.00000000000E+00 0.  1.
          5    1    3    3  501    0  0.17828570169E+03 -0.13654085449E+03 -0.47293670464E+03  0.52356068929E+03  0.41800000000E+01 0. -1.
         -5    1    3    3    0  501  0.94230326396E+01 -0.87486752378E+02 -0.28640316264E+03  0.29964473857E+03  0.41800000000E+01 0. -1.
</event>
<event>
11    1  0.2498402E-009  0.4753627E+03  0.7561462E-02  0.9450324E-01
         22   -1    0    0    0    0  0.00000000000E+00  0.00000000000E+00  0.31558713069E+03  0.31558713069E+03  0.00000000000E+00 0. -1.
         22   -1    0    0    0    0 -0.00000000000E+00 -0.00000000000E+00 -0.17043955111E+04  0.17043955111E+04  0.00000000000E+00 0. -1.
         25    2    1    2    0    0  0.97863621362E+01 -0.48488148814E+03 -0.10618987893E+04  0.11740877737E+04  0.12508889301E+03 0.  0.
         24    2    1    2    0    0  0.23368289374E+03  0.38808467198E+03 -0.34033892526E+03  0.57182224464E+03  0.77023944105E+02 0.  0.
        -24    2    1    2    0    0 -0.24346925588E+03  0.96796816156E+02  0.13429334198E+02  0.27407262343E+03  0.79300401750E+02 0.  0.
        -13    1    4    4    0    0  0.17243453806E+03  0.22608992210E+03 -0.23689464345E+03  0.37009376499E+03  0.00000000000E+00 0.  1.
         14    1    4    4    0    0  0.61248355688E+02  0.16199474988E+03 -0.10344428181E+03  0.20172847965E+03  0.00000000000E+00 0. -1.
         13    1    5    5    0    0 -0.14734443397E+03  0.91128805415E+02 -0.14385177833E+02  0.17384411045E+03  0.00000000000E+00 0. -1.
        -14    1    5    5    0    0 -0.96124821910E+02  0.56680107415E+01  0.27814512031E+02  0.10022851297E+03  0.00000000000E+00 0.  1.
          5    1    3    3  501    0 -0.37695868483E+02 -0.39682629705E+03 -0.88908221276E+03  0.97435965741E+03  0.41800000000E+01 0.  1.
         -5    1    3    3    0  501  0.47482230619E+02 -0.88055191085E+02 -0.17281657655E+03  0.19972811628E+03  0.41800000000E+01 0.  1.
</event>
<event>
11    1  0.2498402E-009  0.3378148E+03  0.7561462E-02  0.9853465E-01
         22   -1    0    0    0    0  0.00000000000E+00  0.00000000000E+00  0.25368697543E+04  0.25368697543E+04  0.00000000000E+00 0.  1.
         22   -1    0    0    0    0 -0.00000000000E+00 -0.00000000000E+00 -0.28409984516E+03  0.28409984516E+03  0.00000000000E+00 0. -1.
         25    2    1    2    0    0 -0.18280765289E+01 -0.36151041944E+03 -0.78083231863E+02  0.39043648512E+03  0.12510208869E+03 0.  0.
        -24    2    1    2    0    0  0.93654136259E+02  0.63099979160E+02  0.89447079530E+02  0.16607517831E+03  0.82628567742E+02 0.  0.
         24    2    1    2    0    0 -0.91826059730E+02  0.29841044028E+03  0.22414060615E+04  0.22644579361E+04  0.79923685264E+02 0.  0.
        -13    1    5    5    0    0 -0.10601979404E+03  0.25368368518E+03  0.18719954798E+04  0.18920789320E+04  0.00000000000E+00 0.  1.
         14    1    5    5    0    0  0.14193734311E+02  0.44726755099E+02  0.36941058176E+03  0.37237900401E+03  0.00000000000E+00 0. -1.
         11    1    4    4    0    0  0.23633165868E+02 -0.81062274821E+01 -0.83060425120E+01  0.26329219418E+02  0.00000000000E+00 0. -1.
        -12    1    4    4    0    0  0.70020970391E+02  0.71206206643E+02  0.97753122042E+02  0.13974595890E+03  0.00000000000E+00 0.  1.
          5    1    3    3  501    0 -0.13592522882E+02 -0.34116231749E+03 -0.37711816383E+02  0.34353476833E+03  0.41800000000E+01 0.  1.
         -5    1    3    3    0  501  0.11764446353E+02 -0.20348101944E+02 -0.40371415480E+02  0.46901716798E+02  0.41800000000E+01 0.  1.
</event>
<event>
11    1  0.2498402E-009  0.7814109E+03  0.7561462E-02  0.8920246E-01
         22   -1    0    0    0    0  0.00000000000E+00  0.00000000000E+00  0.18223585372E+03  0.18223585372E+03  0.00000000000E+00 0. -1.
         22   -1    0    0    0    0 -0.00000000000E+00 -0.00000000000E+00 -0.83765491320E+03  0.83765491320E+03  0.00000000000E+00 0. -1.
         25    2    1    2    0    0 -0.18083483789E+02 -0.18581193902E+03 -0.70149843245E+03  0.73661429923E+03  0.12508991181E+03 0.  0.
         24    2    1    2    0    0  0.15670408272E+02  0.49496071416E+02 -0.23239402101E+02  0.10749071856E+03  0.91207247437E+02 0.  0.
        -24    2    1    2    0    0  0.24130755173E+01  0.13631586760E+03  0.69318775072E+02  0.17578574913E+03  0.86646975289E+02 0.  0.
        -13    1    4    4    0    0 -0.10462826490E+02  0.40369473340E+02  0.27316052685E+02  0.49853102714E+02  0.00000000000E+00 0.  1.
         14    1    4    4    0    0  0.26133234762E+02  0.91265980760E+01 -0.50555454786E+02  0.57637615844E+02  0.00000000000E+00 0. -1.
         13    1    5    5    0    0  0.31078427778E+02  0.12701243411E+03  0.50026621181E+02  0.14000246397E+03  0.00000000000E+00 0. -1.
        -14    1    5    5    0    0 -0.28665352261E+02  0.93034334915E+01  0.19292153891E+02  0.35783285158E+02  0.00000000000E+00 0.  1.
          5    1    3    3  501    0  0.39272119152E+02 -0.12028791577E+02 -0.11309634878E+03  0.12039621123E+03  0.41800000000E+01 0. -1.
         -5    1    3    3    0  501 -0.57355602941E+02 -0.17378314744E+03 -0.58840208366E+03  0.61621808800E+03  0.41800000000E+01 0. -1.
</event>
<event>
11    1  0.2498402E-009  0.1544518E+03  0.7561462E-02  0.1092415E+00
         22   -1    0    0    0    0  0.00000000000E+00  0.00000000000E+00  0.44298045872E+03  0.44298045872E+03  0.00000000000E+00 0.  1.
         22   -1    0    0    0    0 -0.00000000000E+00 -0.00000000000E+00 -0.87588198026E+02  0.87588198026E+02  0.00000000000E+00 0. -1.
         25    2    1    2    0    0  0.43003838635E+02  0.30324088527E+02  0.86235011629E+02  0.16078874015E+03  0.12509061214E+03 0.  0.
         24    2    1    2    0    0  0.20781258412E+02  0.68975271511E+02  0.90756276424E+02  0.14147712771E+03  0.81176518602E+02 0.  0.
        -24    2    1    2    0    0 -0.63785097046E+02 -0.99299360038E+02  0.17840097264E+03  0.22830278889E+03  0.79789440823E+02 0.  0.
        -13    1    4    4    0    0  0.22826979970E+02  0.20699843941E+02  0.87819856765E+02  0.93069231199E+02  0.00000000000E+00 0.  1.
         14    1    4    4    0    0 -0.20457215585E+01  0.48275427570E+02  0.29364196588E+01  0.48407896507E+02  0.00000000000E+00 0. -1.
         13    1    5    5    0    0  0.31887329225E+01  0.22717713703E+01 -0.61300208076E+01  0.72736591831E+01  0.00000000000E+00 0. -1.
        -14    1    5    5    0    0 -0.66973829969E+02 -0.10157113141E+03  0.18453099345E+03  0.22102912971E+03  0.00000000000E+00 0.  1.
          5    1    3    3  501    0  0.51887764762E+02  0.73817088535E+02  0.49387835490E+02  0.10294626456E+03  0.41800000000E+01 0. -1.
         -5    1    3    3    0  501 -0.88839261273E+01 -0.43493000008E+02  0.36847176139E+02  0.57842475592E+02  0.41800000000E+01 0. -1.
</event>
<event>
11    1  0.2498402E-009  0.3959754E+03  0.7561462E-02  0.9661708E-01
         22   -1    0    0    0    0  0.00000000000E+00  0.00000000000E+00  0.24969489954E+04  0.24969489954E+04  0.00000000000E+00 0.  1.
         22   -1    0    0    0    0 -0.00000000000E+00 -0.00000000000E+00 -0.81782552424E+03  0.81782552424E+03  0.00000000000E+00 0. -1.
         25    2    1    2    0    0  0.24137400886E+02  0.38439800695E+03 -0.73233741774E+03  0.83684468143E+03  0.12508591269E+03 0.  0.
        -24    2    1    2    0    0 -0.11348068766E+03 -0.24337013384E+03  0.66132215422E+03  0.71794755088E+03  0.77426130204E+02 0.  0.
         24    2    1    2    0    0  0.89343286779E+02 -0.14102787311E+03  0.17501387347E+04  0.17599822873E+04  0.81737245033E+02 0.  0.
        -13    1    5    5    0    0  0.50976042354E+02 -0.13831783732E+03  0.13818815970E+04  0.13897219611E+04  0.00000000000E+00 0.  1.
         14    1    5    5    0    0  0.38367244425E+02 -0.27100357942E+01  0.36825713765E+03  0.37026032622E+03  0.00000000000E+00 0. -1.
         13    1    4    4    0    0 -0.10127610408E+03 -0.24631884224E+03  0.64001063494E+03  0.69321240189E+03  0.00000000000E+00 0. -1.
        -14    1    4    4    0    0 -0.12204583587E+02  0.29487083932E+01  0.21311519279E+02  0.24735148993E+02  0.00000000000E+00 0.  1.
          5    1    3    3  501    0 -0.22108053349E+02  0.11917329307E+03 -0.13411513364E+03  0.18081864194E+03  0.41800000000E+01 0. -1.
         -5    1    3    3    0  501  0.46245454234E+02  0.26522471388E+03 -0.59822228410E+03  0.65602603949E+03  0.41800000000E+01 0. -1.
</event>
<event>
11    1  0.2801724E-009  0.8394144E+03  0.7561462E-02  0.8848823E-01
         22   -1    0    0    0    0  0.00000000000E+00  0.00000000000E+00  0.12154717217E+04  0.12154717217E+04  0.00000000000E+00 0. -1.
         22   -1    0    0    0    0 -0.00000000000E+00 -0.00000000000E+00 -0.22352978394E+04  0.22352978394E+04  0.00000000000E+00 0. -1.
         25    2    1    2    0    0 -0.55868902475E+03 -0.61556243499E+03 -0.19597872486E+04  0.21324783517E+04  0.12508925973E+03 0.  0.
        -24    2    1    2    0    0  0.59360996589E+03  0.56222415185E+03  0.83807842226E+03  0.11735354693E+04  0.79632074855E+02 0.  0.
         24    2    1    2    0    0 -0.34920941136E+02  0.53338283139E+02  0.10188270861E+03  0.14475574008E+03  0.80682670964E+02 0.  0.
        -13    1    5    5    0    0  0.14879618922E+02 -0.12092718428E+02  0.29640029123E+02  0.35301107981E+02  0.00000000000E+00 0.  1.
         14    1    5    5    0    0 -0.49800560058E+02  0.65431001567E+02  0.72242679491E+02  0.10945463210E+03  0.00000000000E+00 0. -1.
         11    1    4    4    0    0  0.47655745685E+03  0.40578556743E+03  0.62840866356E+03  0.88694215418E+03  0.00000000000E+00 0. -1.
        -12    1    4    4    0    0  0.11705250904E+03  0.15643858442E+03  0.20966975870E+03  0.28659331513E+03  0.00000000000E+00 0.  1.
          5    1    3    3  501    0 -0.47945940218E+03 -0.58286051205E+03 -0.17696241699E+04  0.19238489727E+04  0.41800000000E+01 0.  1.
         -5    1    3    3    0  501 -0.79229622570E+02 -0.32701922935E+02 -0.19016307868E+03  0.20862937892E+03  0.41800000000E+01 0.  1.
</event>
<event>
11    1  0.2498402E-009  0.8826301E+03  0.7561462E-02  0.8799437E-01
         22   -1    0    0    0    0  0.00000000000E+00  0.00000000000E+00  0.15850656325E+04  0.15850656325E+04  0.00000000000E+00 0.  1.
         22   -1    0    0    0    0 -0.00000000000E+00 -0.00000000000E+00 -0.83103367139E+03  0.83103367139E+03  0.00000000000E+00 0.  1.
         25    2    1    2    0    0  0.20054541793E+03  0.83025617208E+03 -0.27013312238E+03  0.90452331127E+03  0.12508693338E+03 0.  0.
         24    2    1    2    0    0 -0.10966689812E+03 -0.93672426039E+03  0.82580328612E+03  0.12560997543E+04  0.79726763554E+02 0.  0.
        -24    2    1    2    0    0 -0.90878519816E+02  0.10646808832E+03  0.19836179741E+03  0.25547623836E+03  0.79538333511E+02 0.  0.
        -13    1    4    4    0    0 -0.75106271543E+02 -0.32364973421E+03  0.30194002881E+03  0.44895198349E+03  0.00000000000E+00 0.  1.
         14    1    4    4    0    0 -0.34560626574E+02 -0.61307452618E+03  0.52386325731E+03  0.80714777081E+03  0.00000000000E+00 0. -1.
         13    1    5    5    0    0 -0.73346869075E+02  0.10577229243E+03  0.20001622031E+03  0.23785295760E+03  0.00000000000E+00 0. -1.
        -14    1    5    5    0    0 -0.17531650741E+02  0.69579588870E+00 -0.16544228998E+01  0.17623280761E+02  0.00000000000E+00 0.  1.
          5    1    3    3  501    0  0.18801600936E+03  0.57157431291E+03 -0.22014476643E+03  0.64072490629E+03  0.41800000000E+01 0.  1.
         -5    1    3    3    0  501  0.12529408577E+02  0.25868185916E+03 -0.49988355953E+02  0.26379840498E+03  0.41800000000E+01 0.  1.
</event>
<event>
11    1  0.2498402E-009  0.2977803E+03  0.7561462E-02  0.1001135E+00
         22   -1    0    0    0    0  0.00000000000E+00  0.00000000000E+00  0.19329432857E+03  0.19329432857E+03  0.00000000000E+00 0. -1.
         22   -1    0    0    0    0 -0.00000000000E+00 -0.00000000000E+00 -0.19814797868E+04  0.19814797868E+04  0.00000000000E+00 0.  1.
         25    2    1    2    0    0  0.24516626503E+03 -0.19917439359E+03 -0.16695283058E+04  0.17037456154E+04  0.12508965476E+03 0.  0.
         24    2    1    2    0    0 -0.10004780558E+03  0.14184344336E+03 -0.20193899965E+03  0.27831349405E+03  0.80931548629E+02 0.  0.
        -24    2    1    2    0    0 -0.14511845945E+03  0.57330950228E+02  0.83281847196E+02  0.19271500590E+03  0.76531054488E+02 0.  0.
        -11    1    4    4    0    0 -0.72142581825E+02  0.13791049719E+03 -0.19461478826E+03  0.24919625430E+03  0.00000000000E+00 0.  1.
         12    1    4    4    0    0 -0.27905223751E+02  0.39329461686E+01 -0.73242113995E+01  0.29117239752E+02  0.00000000000E+00 0. -1.
         13    1    5    5    0    0 -0.13967206169E+03  0.46241390083E+02  0.95447337493E+02  0.17537601092E+03  0.00000000000E+00 0. -1.
        -14    1    5    5    0    0 -0.54463977631E+01  0.11089560145E+02 -0.12165490297E+02  0.17338994981E+02  0.00000000000E+00 0.  1.
          5    1    3    3  501    0  0.25311294504E+03 -0.20312344913E+03 -0.16526896389E+04  0.16842582384E+04  0.41800000000E+01 0. -1.
         -5    1    3    3    0  501 -0.79466800160E+01  0.39490555347E+01 -0.16838666842E+02  0.19487377041E+02  0.41800000000E+01 0. -1.
</event>
<event>
11    1  0.2498402E-009  0.1419974E+03  0.7561462E-02  0.1105348E+00
         22   -1    0    0    0    0  0.00000000000E+00  0.00000000000E+00  0.18460913126E+04  0.18460913126E+04  0.00000000000E+00 0. -1.
         22   -1    0    0    0    0 -0.00000000000E+00 -0.00000000000E+00 -0.35175959051E+03  0.35175959051E+03  0.00000000000E+00 0.  1.
         25    2    1    2    0    0 -0.44777946056E+02 -0.74296156343E+02 -0.30085380881E+03  0.33717318712E+03  0.12509100901E+03 0.  0.
        -24    2    1    2    0    0 -0.17453082436E+01  0.25924012686E+02  0.23514099981E+02  0.85945792724E+02  0.78477167727E+02 0.  0.
         24    2    1    2    0    0  0.46523254299E+02  0.48372143657E+02  0.17716714309E+04  0.17747319233E+04  0.79683516713E+02 0.  0.
        -11    1    5    5    0    0  0.55772597080E+02  0.61959239272E+02  0.12358474887E+04  0.12386559430E+04  0.00000000000E+00 0.  1.
         12    1    5    5    0    0 -0.92493427804E+01 -0.13587095614E+02  0.53582394225E+03  0.53607598025E+03  0.00000000000E+00 0. -1.
         13    1    4    4    0    0 -0.34107831266E+02 -0.11752992786E+01 -0.57151078899E+01  0.34603293778E+02  0.00000000000E+00 0. -1.
        -14    1    4    4    0    0  0.32362523022E+02  0.27099311965E+02  0.29229207871E+02  0.51342498947E+02  0.00000000000E+00 0.  1.
          5    1    3    3  501    0  0.24664287254E+02 -0.51879199732E+02 -0.51277399038E+02  0.77114346802E+02  0.41800000000E+01 0.  1.
         -5    1    3    3    0  501 -0.69442233310E+02 -0.22416956611E+02 -0.24957640977E+03  0.26005884031E+03  0.41800000000E+01 0.  1.
</event>
<event>
11    1  0.2498402E-009  0.1437100E+03  0.7561462E-02  0.1103485E+00
         22   -1    0    0    0    0  0.00000000000E+00  0.00000000000E+00  0.42951917404E+03  0.42951917404E+03  0.00000000000E+00 0. -1.
         22   -1    0    0    0    0 -0.00000000000E+00 -0.00000000000E+00 -0.17856447316E+04  0.17856447316E+04  0.00000000000E+00 0.  1.
         25    2    1    2    0    0  0.12366583327E+03  0.31666634746E+02 -0.14563351575E+04  0.14672614795E+04  0.12509254252E+03 0.  0.
        -24    2    1    2    0    0 -0.53476529210E+02 -0.25159415884E+02 -0.30979484005E+03  0.32460404557E+03  0.76825829597E+02 0.  0.
         24    2    1    2    0    0 -0.70189304057E+02 -0.65072188628E+01  0.41000443993E+03  0.42329838063E+03  0.78160066388E+02 0.  0.
        -13    1    5    5    0    0  0.98994491891E+01 -0.21011016931E+02  0.73066218891E+02  0.76668991579E+02  0.00000000000E+00 0.  1.
         14    1    5    5    0    0 -0.80088753246E+02  0.14503798068E+02  0.33693822104E+03  0.34662938905E+03  0.00000000000E+00 0. -1.
         11    1    4    4    0    0 -0.26246015904E+02  0.10783918678E+02 -0.23892672655E+03  0.24060574996E+03  0.00000000000E+00 0. -1.
        -12    1    4    4    0    0 -0.27230513306E+02 -0.35943334561E+02 -0.70868113500E+02  0.83998295610E+02  0.00000000000E+00 0.  1.
          5    1    3    3  501    0  0.10431446457E+03 -0.73949904552E+01 -0.13182603012E+04  0.13224083664E+04  0.41800000000E+01 0. -1.
         -5    1    3    3    0  501  0.19351368700E+02  0.39061625202E+02 -0.13807485628E+03  0.14485311308E+03  0.41800000000E+01 0. -1.
</event>
<event>
11    1  0.2498402E-009  0.1563592E+04  0.7561462E-02  0.8274036E-01
         22   -1    0    0    0    0  0.00000000000E+00  0.00000000000E+00  0.13738178160E+04  0.13738178160E+04  0.00000000000E+00 0.  1.
         22   -1    0    0    0    0 -0.00000000000E+00 -0.00000000000E+00 -0.44489539413E+03  0.44489539413E+03  0.00000000000E+00 0.  1.
         25    2    1    2    0    0 -0.11086181596E+03 -0.12846199791E+03 -0.40647296376E+03  0.45788683699E+03  0.12508900062E+03 0.  0.
         24    2    1    2    0    0  0.91276348093E+02  0.68290741882E+02  0.62360150142E+03  0.63887203015E+03  0.79269421469E+02 0.  0.
        -24    2    1    2    0    0  0.19585467871E+02  0.60171256024E+02  0.71179388423E+03  0.72195434302E+03  0.10277825247E+03 0.  0.
        -13    1    4    4    0    0  0.28816469500E+02 -0.10770119622E+02  0.74478191332E+02  0.80581544880E+02  0.00000000000E+00 0.  1.
         14    1    4    4    0    0  0.62459878593E+02  0.79060861504E+02  0.54912331009E+03  0.55829048527E+03  0.00000000000E+00 0. -1.
         13    1    5    5    0    0  0.14514620407E+01 -0.46770913338E+00 -0.35250528494E+01  0.38407670432E+01  0.00000000000E+00 0. -1.
        -14    1    5    5    0    0  0.18134005831E+02  0.60638965157E+02  0.71531893708E+03  0.71811357598E+03  0.00000000000E+00 0.  1.
          5    1    3    3  501    0 -0.56463442073E+01 -0.81340519068E+02 -0.25329242652E+03  0.26612532194E+03  0.41800000000E+01 0. -1.
         -5    1    3    3    0  501 -0.10521547176E+03 -0.47121478838E+02 -0.15318053724E+03  0.19176151505E+03  0.41800000000E+01 0. -1.
</event>
<event>
11    1  0.2498402E-009  0.2566025E+03  0.7561462E-02  0.1020440E+00
         22   -1    0    0    0    0  0.00000000000E+00  0.00000000000E+00  0.69990978810E+03  0.69990978810E+03  0.00000000000E+00 0. -1.
         22   -1    0    0    0    0 -0.00000000000E+00 -0.00000000000E+00 -0.26361140080E+03  0.26361140080E+03  0.00000000000E+00 0. -1.
         25    2    1    2    0    0 -0.40572478109E+02  0.20985277177E+03 -0.11243637444E+03  0.27198086403E+03  0.12508932930E+03 0.  0.
        -24    2    1    2    0    0  0.12235203458E+03 -0.25273144004E+03  0.32625642115E+03  0.43708390905E+03  0.75867582364E+02 0.  0.
         24    2    1    2    0    0 -0.81779556471E+02  0.42878668268E+02  0.22247834058E+03  0.25445641582E+03  0.82005972187E+02 0.  0.
        -13    1    5    5    0    0 -0.52444734065E+02 -0.64853407607E+01  0.16481029624E+03  0.17307496504E+03  0.00000000000E+00 0.  1.
         14    1    5    5    0    0 -0.29334822406E+02  0.49364009029E+02  0.57668044338E+02  0.81381450778E+02  0.00000000000E+00 0. -1.
         13    1    4    4    0    0  0.60687583498E+02 -0.19536239934E+03  0.20648775490E+03  0.29066586106E+03  0.00000000000E+00 0. -1.
        -14    1    4    4    0    0  0.61664451082E+02 -0.57369040701E+02  0.11976866626E+03  0.14641804798E+03  0.00000000000E+00 0.  1.
          5    1    3    3  501    0 -0.27318076483E+02  0.20508487479E+03 -0.57021094952E+02  0.21465078812E+03  0.41800000000E+01 0. -1.
         -5    1    3    3    0  501 -0.13254401626E+02  0.47678969797E+01 -0.55415279483E+02  0.57330075914E+02  0.41800000000E+01 0. -1.
</event>
<event>
11    1  0.2498402E-009  0.1968007E+03  0.7561462E-02  0.1056809E+00
         22   -1    0    0    0    0  0.00000000000E+00  0.00000000000E+00  0.88659048342E+03  0.88659048342E+03  0.00000000000E+00 0. -1.
         22   -1    0    0    0    0 -0.00000000000E+00 -0.00000000000E+00 -0.14592005426E+03  0.14592005426E+03  0.00000000000E+00 0.  1.
         25    2    1    2    0    0  0.36406859130E+02 -0.11297498822E+03  0.11220451804E+03  0.20572951563E+03  0.12508386138E+03 0.  0.
        -24    2    1    2    0    0  0.52640681478E+01  0.17569286195E+03  0.56167328410E+01  0.19332152360E+03  0.80286808668E+02 0.  0.
         24    2    1    2    0    0 -0.41670927277E+02 -0.62717873729E+02  0.62284917828E+03  0.63345949845E+03  0.87520508624E+02 0.  0.
        -13    1    5    5    0    0 -0.98438433813E+01 -0.70765896791E+02  0.53363785129E+03  0.53839954469E+03  0.00000000000E+00 0.  1.
         14    1    5    5    0    0 -0.31827083896E+02  0.80480230615E+01  0.89211326994E+02  0.95059953758E+02  0.00000000000E+00 0. -1.
         13    1    4    4    0    0  0.26737851376E+02  0.45247785429E+02  0.27507452419E+02  0.59320609581E+02  0.00000000000E+00 0. -1.
        -14    1    4    4    0    0 -0.21473783228E+02  0.13044507652E+03 -0.21890719578E+02  0.13400091402E+03  0.00000000000E+00 0.  1.
          5    1    3    3  501    0  0.71598926109E+02 -0.10352389517E+03  0.54215303886E+02  0.13711445827E+03  0.41800000000E+01 0.  1.
         -5    1    3    3    0  501 -0.35192066979E+02 -0.94510930447E+01  0.57989214154E+02  0.68615057358E+02  0.41800000000E+01 0.  1.
</event>
<event>
11    1  0.2498402E-009  0.1596878E+03  0.7561462E-02  0.1087371E+00
         22   -1    0    0    0    0  0.00000000000E+00  0.00000000000E+00  0.47115451013E+03  0.47115451013E+03  0.00000000000E+00 0.  1.
         22   -1    0    0    0    0 -0.00000000000E+00 -0.00000000000E+00 -0.42056740778E+03  0.42056740778E+03  0.00000000000E+00 0.  1.
         25    2    1    2    0    0 -0.66940565257E+02  0.12713853805E+03 -0.26176185168E+03  0.32374664701E+03  0.12508947723E+03 0.  0.
        -24    2    1    2    0    0  0.25056418127E+02 -0.62230060176E+02 -0.99081829323E+02  0.14427400137E+03  0.80606290638E+02 0.  0.
         24    2    1    2    0    0  0.41884147130E+02 -0.64908477879E+02  0.41143078336E+03  0.42370126954E+03  0.65422351181E+02 0.  0.
        -11    1    5    5    0    0  0.65899178312E+01 -0.16577617613E+02  0.26378645062E+03  0.26438898607E+03  0.00000000000E+00 0.  1.
         12    1    5    5    0    0  0.35294229298E+02 -0.48330860266E+02  0.14764433274E+03  0.15931228347E+03  0.00000000000E+00 0. -1.
         13    1    4    4    0    0 -0.23126335893E+02 -0.33103261700E+02 -0.70224886092E+02  0.81007332839E+02  0.00000000000E+00 0. -1.
        -14    1    4    4    0    0  0.48182754020E+02 -0.29126798475E+02 -0.28856943231E+02  0.63266668531E+02  0.00000000000E+00 0.  1.
          5    1    3    3  501    0  0.31024091070E+02  0.69269377048E+02 -0.92028731062E+02  0.11936289442E+03  0.41800000000E+01 0. -1.
         -5    1    3    3    0  501 -0.97964656327E+02  0.57869161007E+02 -0.16973312062E+03  0.20438375259E+03  0.41800000000E+01 0. -1.
</event>
<event>
11    1  0.2498402E-009  0.2425669E+03  0.7561462E-02  0.1027935E+00
         22   -1    0    0    0    0  0.00000000000E+00  0.00000000000E+00  0.50541732687E+02  0.50541732687E+02  0.00000000000E+00 0.  1.
         22   -1    0    0    0    0 -0.00000000000E+00 -0.00000000000E+00 -0.16984053761E+04  0.16984053761E+04  0.00000000000E+00 0. -1.
         25    2    1    2    0    0  0.19196290724E+03 -0.61921723863E+02 -0.81567935703E+03  0.84950806558E+03  0.12508829827E+03 0.  0.
         24    2    1    2    0    0 -0.21640453589E+03 -0.76274100358E+01 -0.50281623259E+03  0.55258766806E+03  0.75099045217E+02 0.  0.
        -24    2    1    2    0    0  0.24441628651E+02  0.69549133899E+02 -0.32936805379E+03  0.34685137515E+03  0.79925504969E+02 0.  0.
        -13    1    4    4    0    0 -0.20030796295E+03  0.13489757139E+02 -0.46387345070E+03  0.50545408479E+03  0.00000000000E+00 0.  1.
         14    1    4    4    0    0 -0.16096572948E+02 -0.21117167174E+02 -0.38942781892E+02  0.47133583268E+02  0.00000000000E+00 0. -1.
         11    1    5    5    0    0  0.32010380352E+02  0.68163596802E+02 -0.15511526736E+03  0.17242878689E+03  0.00000000000E+00 0. -1.
        -12    1    5    5    0    0 -0.75687517011E+01  0.13855370971E+01 -0.17425278643E+03  0.17442258826E+03  0.00000000000E+00 0.  1.
          5    1    3    3  501    0  0.89124531226E+02 -0.24937880393E+02 -0.60580281264E+03  0.61284549452E+03  0.41800000000E+01 0.  1.
         -5    1    3    3    0  501  0.10283837602E+03 -0.36983843470E+02 -0.20987654439E+03  0.23666257107E+03  0.41800000000E+01 0.  1.
</event>
<event>
11    1  0.2498402E-009  0.1547406E+03  0.7561462E-02  0.1092131E+00
         22   -1    0    0    0    0  0.00000000000E+00  0.00000000000E+00  0.80042603152E+03  0.80042603152E+03  0.00000000000E+00 0.  1.
         22   -1    0    0    0    0 -0.00000000000E+00 -0.00000000000E+00 -0.15049316988E+03  0.15049316988E+03  0.00000000000E+00 0. -1.
         25    2    1    2    0    0 -0.10091946629E+02  0.31195919903E+02 -0.28163011614E+02  0.13234766181E+03  0.12509082924E+03 0.  0.
        -24    2    1    2    0    0  0.67093306507E+02 -0.14506589128E+03  0.68237500037E+02  0.19026489589E+03  0.77451595257E+02 0.  0.
         24    2    1    2    0    0 -0.57001359878E+02  0.11386997137E+03  0.60985837322E+03  0.62830664370E+03  0.81403179983E+02 0.  0.
        -11    1    5    5    0    0  0.14783271232E+02  0.56224024546E+02  0.20289557897E+03  0.21105994886E+03  0.00000000000E+00 0.  1.
         12    1    5    5    0    0 -0.71784631109E+02  0.57645946828E+02  0.40696279425E+03  0.41724669484E+03  0.00000000000E+00 0. -1.
         13    1    4    4    0    0  0.26856479492E+02 -0.25879318566E+02 -0.14151445199E+02  0.39890763610E+02  0.00000000000E+00 0. -1.
        -14    1    4    4    0    0  0.40236827015E+02 -0.11918657271E+03  0.82388945236E+02  0.15037413228E+03  0.00000000000E+00 0.  1.
          5    1    3    3  501    0 -0.37100453409E+02  0.70736068927E+02 -0.26473841350E+02  0.84251835388E+02  0.41800000000E+01 0.  1.
         -5    1    3    3    0  501  0.27008506779E+02 -0.39540149024E+02 -0.16891702642E+01  0.48095826425E+02  0.41800000000E+01 0.  1.
</event>
<event>
11    1  0.2498402E-009  0.8880787E+03  0.7561462E-02  0.8793422E-01
         22   -1    0    0    0    0  0.00000000000E+00  0.00000000000E+00  0.10571321833E+04  0.10571321833E+04  0.00000000000E+00 0. -1.
         22   -1    0    0    0    0 -0.00000000000E+00 -0.00000000000E+00 -0.12895766199E+04  0.12895766199E+04  0.00000000000E+00 0. -1.
         25    2    1    2    0    0 -0.79067290829E+03 -0.40475479619E+03 -0.77003729287E+03  0.11821991472E+04  0.12508916147E+03 0.  0.
        -24    2    1    2    0    0  0.73180538271E+03  0.44031326940E+03  0.30717879260E+03  0.91108158516E+03  0.79347027704E+02 0.  0.
         24    2    1    2    0    0  0.58867525573E+02 -0.35558473217E+02  0.23041406372E+03  0.25342807083E+03  0.80033466395E+02 0.  0.
        -11    1    5    5    0    0  0.18410310428E+02  0.56355408440E+00  0.17472174055E+03  0.17568990792E+03  0.00000000000E+00 0.  1.
         12    1    5    5    0    0  0.40457215144E+02 -0.36122027301E+02  0.55692323162E+02  0.77738162911E+02  0.00000000000E+00 0. -1.
         11    1    4    4    0    0  0.23378496092E+03  0.13864290584E+03  0.58994854653E+02  0.27813244357E+03  0.00000000000E+00 0. -1.
        -12    1    4    4    0    0  0.49802042180E+03  0.30167036356E+03  0.24818393795E+03  0.63294914159E+03  0.00000000000E+00 0.  1.
          5    1    3    3  501    0 -0.36685431384E+03 -0.25345032126E+03 -0.35440826408E+03  0.56959796609E+03  0.41800000000E+01 0. -1.
         -5    1    3    3    0  501 -0.42381859445E+03 -0.15130447493E+03 -0.41562902879E+03  0.61260118111E+03  0.41800000000E+01 0. -1.
</event>
<event>
11    1  0.2498402E-009  0.4937845E+03  0.7561462E-02  0.9407518E-01
         22   -1    0    0    0    0  0.00000000000E+00  0.00000000000E+00  0.12934984476E+04  0.12934984476E+04  0.00000000000E+00 0. -1.
         22   -1    0    0    0    0 -0.00000000000E+00 -0.00000000000E+00 -0.69912623166E+03  0.69912623166E+03  0.00000000000E+00 0. -1.
         25    2    1    2    0    0  0.41715820418E+03 -0.29897257829E+03 -0.27892341855E+03  0.59736997343E+03  0.12508813635E+03 0.  0.
        -24    2    1    2    0    0  0.64132304441E+02  0.49927374795E+03  0.21940392944E+03  0.55512213493E+03  0.81457182428E+02 0.  0.
         24    2    1    2    0    0 -0.48129050862E+03 -0.20030116967E+03  0.65389170507E+03  0.84013257091E+03  0.80543544039E+02 0.  0.
        -11    1    5    5    0    0 -0.42385416762E+02 -0.89669983639E+01  0.26037823794E+02  0.50546007574E+02  0.00000000000E+00 0.  1.
         12    1    5    5    0    0 -0.43890509186E+03 -0.19133417130E+03  0.62785388127E+03  0.78958656333E+03  0.00000000000E+00 0. -1.
         13    1    4    4    0    0  0.70108270899E+02  0.44891952070E+03  0.17236542187E+03  0.48595652518E+03  0.00000000000E+00 0. -1.
        -14    1    4    4    0    0 -0.59759664578E+01  0.50354227258E+02  0.47038507567E+02  0.69165609749E+02  0.00000000000E+00 0.  1.
          5    1    3    3  501    0  0.11031036729E+03 -0.14978295649E+03 -0.11585575675E+03  0.21918791015E+03  0.41800000000E+01 0.  1.
         -5    1    3    3    0  501  0.30684783689E+03 -0.14918962180E+03 -0.16306766180E+03  0.37818206328E+03  0.41800000000E+01 0.  1.
</event>
<event>
11    1  0.2498402E-009  0.3479779E+03  0.7561462E-02  0.9817098E-01
         22   -1    0    0    0    0  0.00000000000E+00  0.00000000000E+00  0.32990641813E+03  0.32990641813E+03  0.00000000000E+00 0. -1.
         22   -1    0    0    0    0 -0.00000000000E+00 -0.00000000000E+00 -0.53263882436E+03  0.53263882436E+03  0.00000000000E+00 0. -1.
         25    2    1    2    0    0  0.31920257470E+03  0.36619743774E+02 -0.18593560237E+03  0.39172715847E+03  0.12508728601E+03 0.  0.
         24    2    1    2    0    0 -0.31656641367E+03 -0.10396197298E+03 -0.74140550651E+02  0.35109610444E+03  0.82153923923E+02 0.  0.
        -24    2    1    2    0    0 -0.26361610352E+01  0.67342229206E+02  0.57343746799E+02  0.11972197958E+03  0.80641936474E+02 0.  0.
        -13    1    4    4    0    0 -0.51645693598E+02 -0.37180725639E+02 -0.41433889014E+02  0.75937152864E+02  0.00000000000E+00 0.  1.
         14    1    4    4    0    0 -0.26492072007E+03 -0.66781247341E+02 -0.32706661637E+02  0.27515895158E+03  0.00000000000E+00 0. -1.
         13    1    5    5    0    0  0.31599342445E+02  0.74392878399E+01  0.44132968580E+01  0.32761847257E+02  0.00000000000E+00 0. -1.
        -14    1    5    5    0    0 -0.34235503480E+02  0.59902941366E+02  0.52930449941E+02  0.86960132323E+02  0.00000000000E+00 0.  1.
          5    1    3    3  501    0  0.22650827166E+03  0.78661895293E+02 -0.10579845401E+03  0.26211538713E+03  0.41800000000E+01 0. -1.
         -5    1    3    3    0  501  0.92694303044E+02 -0.42042151519E+02 -0.80137148364E+02  0.12961177134E+03  0.41800000000E+01 0. -1.
</event>
<event>
11    1  0.2498402E-009  0.2964561E+03  0.7561462E-02  0.1001702E+00
         22   -1    0    0    0    0  0.00000000000E+00  0.00000000000E+00  0.16442969022E+03  0.16442969022E+03  0.00000000000E+00 0. -1.
         22   -1    0    0    0    0 -0.00000000000E+00 -0.00000000000E+00 -0.12989533196E+04  0.12989533196E+04  0.00000000000E+00 0. -1.
         25    2    1    2    0    0 -0.22230564309E+03 -0.16446387257E+03 -0.10127365416E+04  0.10572373932E+04  0.12508972182E+03 0.  0.
        -24    2    1    2    0    0  0.15540302133E+03  0.19324821453E+03 -0.13940717866E+03  0.29590678177E+03  0.81433964545E+02 0.  0.
         24    2    1    2    0    0  0.66902621756E+02 -0.28784341956E+02  0.17620090938E+02  0.11023883482E+03  0.80855636533E+02 0.  0.
        -13    1    5    5    0    0  0.22970403348E+02  0.28160920193E+02  0.11213691020E+02  0.38031877713E+02  0.00000000000E+00 0.  1.
         14    1    5    5    0    0  0.43932218408E+02 -0.56945262149E+02  0.64063999186E+01  0.72206957112E+02  0.00000000000E+00 0. -1.
         11    1    4    4    0    0  0.13675170748E+03  0.15451889417E+03 -0.77239922421E+02  0.22032504117E+03  0.00000000000E+00 0. -1.
        -12    1    4    4    0    0  0.18651313852E+02  0.38729320357E+02 -0.62167256236E+02  0.75581740597E+02  0.00000000000E+00 0.  1.
          5    1    3    3  501    0  0.66271449521E+01  0.10037380166E+02 -0.82361740557E+02  0.83340246931E+02  0.41800000000E+01 0.  1.
         -5    1    3    3    0  501 -0.22893278804E+03 -0.17450125274E+03 -0.93037480107E+03  0.97389714627E+03  0.41800000000E+01 0.  1.
</event>
<event>
11    1  0.2498402E-009  0.1678573E+03  0.7561462E-02  0.1079912E+00
         22   -1    0    0    0    0  0.00000000000E+00  0.00000000000E+00  0.67232438943E+02  0.67232438943E+02  0.00000000000E+00 0. -1.
         22   -1    0    0    0    0 -0.00000000000E+00 -0.00000000000E+00 -0.72457613301E+03  0.72457613301E+03  0.00000000000E+00 0.  1.
         25    2    1    2    0    0  0.65829480032E+02  0.77254372080E+02 -0.41976576284E+03  0.44961349504E+03  0.12508893166E+03 0.  0.
         24    2    1    2    0    0 -0.70002516646E+02 -0.11748612706E+03 -0.15008886438E+03  0.21763497265E+03  0.78326060278E+02 0.  0.
        -24    2    1    2    0    0  0.41730366144E+01  0.40231754979E+02 -0.87489066844E+02  0.12456010426E+03  0.78897873314E+02 0.  0.
        -11    1    4    4    0    0  0.28266481419E+01 -0.24499803458E+02 -0.71837181729E+02  0.75952689143E+02  0.00000000000E+00 0.  1.
         12    1    4    4    0    0 -0.72829164788E+02 -0.92986323601E+02 -0.78251682654E+02  0.14168228350E+03  0.00000000000E+00 0. -1.
         11    1    5    5    0    0  0.39521622252E+02  0.15829101694E+02 -0.27150574894E+02  0.50494284854E+02  0.00000000000E+00 0. -1.
        -12    1    5    5    0    0 -0.35348585638E+02  0.24402653286E+02 -0.60338491949E+02  0.74065819409E+02  0.00000000000E+00 0.  1.
          5    1    3    3  501    0 -0.30914646043E+02 -0.76685956926E+01 -0.75925364854E+02  0.82441834817E+02  0.41800000000E+01 0. -1.
         -5    1    3    3    0  501  0.96744126075E+02  0.84922967773E+02 -0.34384039799E+03  0.36717166023E+03  0.41800000000E+01 0. -1.
</event>
<event>
11    1  0.2498402E-009  0.1477579E+03  0.7561462E-02  0.1099192E+00
         22   -1    0    0    0    0  0.00000000000E+00  0.00000000000E+00  0.22575624604E+03  0.22575624604E+03  0.00000000000E+00 0. -1.
         22   -1    0    0    0    0 -0.00000000000E+00 -0.00000000000E+00 -0.24379007606E+03  0.24379007606E+03  0.00000000000E+00 0.  1.
         25    2    1    2    0    0  0.12160747588E+02 -0.70503906912E+02 -0.11706582027E+03  0.18566329364E+03  0.12509103748E+03 0.  0.
         24    2    1    2    0    0  0.84924418122E+02 -0.65931550546E+01  0.29513675562E+02  0.12235718139E+03  0.82732075428E+02 0.  0.
        -24    2    1    2    0    0 -0.97085165710E+02  0.77097061967E+02  0.69518314690E+02  0.16152584708E+03  0.76735368851E+02 0.  0.
        -13    1    4    4    0    0  0.26191271505E+01  0.10572338483E+02 -0.21438546238E+02  0.24046734349E+02  0.00000000000E+00 0.  1.
         14    1    4    4    0    0  0.82305290972E+02 -0.17165493537E+02  0.50952221800E+02  0.98310447037E+02  0.00000000000E+00 0. -1.
         11    1    5    5    0    0  0.37482439402E+01  0.30304605096E+02  0.31930715069E+02  0.44181319440E+02  0.00000000000E+00 0. -1.
        -12    1    5    5    0    0 -0.10083340965E+03  0.46792456871E+02  0.37587599621E+02  0.11734452764E+03  0.00000000000E+00 0.  1.
          5    1    3    3  501    0  0.40843848687E+02 -0.18462065948E+02  0.92934999702E+01  0.45966394206E+02  0.41800000000E+01 0.  1.
         -5    1    3    3    0  501 -0.28683101099E+02 -0.52041840965E+02 -0.12635932024E+03  0.13969689943E+03  0.41800000000E+01 0.  1.
</event>
<event>
11    1  0.2498402E-009  0.1348179E+03  0.7561462E-02  0.1113487E+00
         22   -1    0    0    0    0  0.00000000000E+00  0.00000000000E+00  0.11634446468E+04  0.11634446468E+04  0.00000000000E+00 0.  1.
         22   -1    0    0    0    0 -0.00000000000E+00 -0.00000000000E+00 -0.84247673370E+02  0.84247673370E+02  0.00000000000E+00 0. -1.
         25    2    1    2    0    0  0.63797722588E+02  0.25650112513E+02  0.19835275810E+02  0.14411519468E+03  0.12509066109E+03 0.  0.
         24    2    1    2    0    0 -0.17538984168E+02 -0.76077960285E+01  0.74655714600E+02  0.11464352089E+03  0.84877362315E+02 0.  0.
        -24    2    1    2    0    0 -0.46258738421E+02 -0.18042316484E+02  0.98470598297E+03  0.98893360455E+03  0.76670758731E+02 0.  0.
        -11    1    4    4    0    0  0.14740689093E+02  0.30115316638E+02  0.14196493836E+02  0.36410996257E+02  0.00000000000E+00 0.  1.
         12    1    4    4    0    0 -0.32279673261E+02 -0.37723112667E+02  0.60459220765E+02  0.78232524634E+02  0.00000000000E+00 0. -1.
         13    1    5    5    0    0  0.11718827113E+02 -0.28250225888E+02  0.43821429185E+03  0.43928028837E+03  0.00000000000E+00 0. -1.
        -14    1    5    5    0    0 -0.57977565534E+02  0.10207909403E+02  0.54649169112E+03  0.54965331618E+03  0.00000000000E+00 0.  1.
          5    1    3    3  501    0  0.10028203068E+03  0.94540495427E+01  0.24389723440E+02  0.10372172261E+03  0.41800000000E+01 0.  1.
         -5    1    3    3    0  501 -0.36484308096E+02  0.16196062970E+02 -0.45544476306E+01  0.40393472074E+02  0.41800000000E+01 0.  1.
</event>
<event>
11    1  0.2498402E-009  0.1508751E+03  0.7561462E-02  0.1095988E+00
         22   -1    0    0    0    0  0.00000000000E+00  0.00000000000E+00  0.22341775950E+03  0.22341775950E+03  0.00000000000E+00 0. -1.
         22   -1    0    0    0    0 -0.00000000000E+00 -0.00000000000E+00 -0.33564747701E+03  0.33564747701E+03  0.00000000000E+00 0.  1.
         25    2    1    2    0    0 -0.60003009051E+02  0.61573816634E+02 -0.25006059019E+03  0.29252230246E+03  0.12508917891E+03 0.  0.
        -24    2    1    2    0    0  0.31695895691E+02  0.10626385189E+02 -0.36998136295E+01  0.86344799527E+02  0.79524750352E+02 0.  0.
         24    2    1    2    0    0  0.28307113360E+02 -0.72200201823E+02  0.14153068630E+03  0.18019813453E+03  0.80164023809E+02 0.  0.
        -11    1    5    5    0    0  0.13286316887E+02 -0.37089641436E+02  0.65738942457E+01  0.39942255868E+02  0.00000000000E+00 0.  1.
         12    1    5    5    0    0  0.15020796472E+02 -0.35110560387E+02  0.13495679206E+03  0.14025587866E+03  0.00000000000E+00 0. -1.
         11    1    4    4    0    0  0.24412377937E+02  0.44094788353E+02 -0.10350421624E+02  0.51453335987E+02  0.00000000000E+00 0. -1.
        -12    1    4    4    0    0  0.72835177545E+01 -0.33468403164E+02  0.66506079944E+01  0.34891463539E+02  0.00000000000E+00 0.  1.
          5    1    3    3  501    0 -0.90881228573E+02  0.19088220568E+02 -0.11715602746E+03  0.14955522405E+03  0.41800000000E+01 0.  1.
         -5    1    3    3    0  501  0.30878219522E+02  0.42485596066E+02 -0.13290456273E+03  0.14296707841E+03  0.41800000000E+01 0.  1.
</event>
<event>
11    1  0.2498402E-009  0.3992411E+03  0.7561462E-02  0.9652000E-01
         22   -1    0    0    0    0  0.00000000000E+00  0.00000000000E+00  0.51471381332E+03  0.51471381332E+03  0.00000000000E+00 0. -1.
         22   -1    0    0    0    0 -0.00000000000E+00 -0.00000000000E+00 -0.91523332641E+03  0.91523332641E+03  0.00000000000E+00 0. -1.
         25    2    1    2    0    0 -0.29267423106E+03  0.15090840051E+03 -0.25138223728E+03  0.43275004628E+03  0.12509205596E+03 0.  0.
         24    2    1    2    0    0  0.41372424011E+03  0.22625264735E+03 -0.30121291122E+03  0.56533822579E+03  0.80747039341E+02 0.  0.
        -24    2    1    2    0    0 -0.12105000905E+03 -0.37716104786E+03  0.15207563541E+03  0.43185886766E+03  0.80445770415E+02 0.  0.
        -13    1    4    4    0    0  0.30194958410E+03  0.12497075234E+03 -0.22097190359E+03  0.39448678362E+03  0.00000000000E+00 0.  1.
         14    1    4    4    0    0  0.11177465601E+03  0.10128189502E+03 -0.80241007634E+02  0.17085144217E+03  0.00000000000E+00 0. -1.
         11    1    5    5    0    0 -0.43935546070E+02 -0.21537618205E+03  0.49351357647E+02  0.22528379547E+03  0.00000000000E+00 0. -1.
        -12    1    5    5    0    0 -0.77114462979E+02 -0.16178486581E+03  0.10272427776E+03  0.20657507219E+03  0.00000000000E+00 0.  1.
          5    1    3    3  501    0 -0.16182334397E+03  0.81663161616E+02 -0.21307222575E+03  0.27977296582E+03  0.41800000000E+01 0. -1.
         -5    1    3    3    0  501 -0.13085088709E+03  0.69245238892E+02 -0.38310011529E+02  0.15297708046E+03  0.41800000000E+01 0. -1.
</event>
<event>
11    1  0.2498402E-009  0.3513787E+03  0.7561462E-02  0.9805225E-01
         22   -1    0    0    0    0  0.00000000000E+00  0.00000000000E+00  0.15498727173E+03  0.15498727173E+03  0.00000000000E+00 0.  1.
         22   -1    0    0    0    0 -0.00000000000E+00 -0.00000000000E+00 -0.14682770632E+04  0.14682770632E+04  0.00000000000E+00 0.  1.
         25    2    1    2    0    0 -0.32046319155E+03 -0.30858564575E+01 -0.89021381031E+03  0.95437707547E+03  0.12509514169E+03 0.  0.
         24    2    1    2    0    0  0.34870984478E+03  0.10266029524E+03 -0.24233020583E+03  0.44539815267E+03  0.86705788050E+02 0.  0.
        -24    2    1    2    0    0 -0.28246653231E+02 -0.99574438780E+02 -0.18074577536E+03  0.22348910681E+03  0.81027176151E+02 0.  0.
        -13    1    4    4    0    0  0.23480370097E+03  0.10029036976E+03 -0.13474789146E+03  0.28870041654E+03  0.00000000000E+00 0.  1.
         14    1    4    4    0    0  0.11390614381E+03  0.23699254761E+01 -0.10758231437E+03  0.15669773613E+03  0.00000000000E+00 0. -1.
         13    1    5    5    0    0  0.38162447386E+01  0.50911087235E+01 -0.60678758329E+02  0.61011431915E+02  0.00000000000E+00 0. -1.
        -14    1    5    5    0    0 -0.32062897970E+02 -0.10466554750E+03 -0.12006701703E+03  0.16247767489E+03  0.00000000000E+00 0.  1.
          5    1    3    3  501    0 -0.77588865709E+02 -0.50711420575E+02 -0.30944353073E+03  0.32305487362E+03  0.41800000000E+01 0.  1.
         -5    1    3    3    0  501 -0.24287432584E+03  0.47625564117E+02 -0.58077027959E+03  0.63132220186E+03  0.41800000000E+01 0.  1.
</event>
<event>
11    1  0.2498402E-009  0.1355034E+03  0.7561462E-02  0.1112686E+00
         22   -1    0    0    0    0  0.00000000000E+00  0.00000000000E+00  0.51161116013E+02  0.51161116013E+02  0.00000000000E+00 0. -1.
         22   -1    0    0    0    0 -0.00000000000E+00 -0.00000000000E+00 -0.71078318083E+03  0.71078318083E+03  0.00000000000E+00 0. -1.
         25    2    1    2    0    0  0.22964022960E+02 -0.42098247926E+01 -0.27348506936E+03  0.30163813186E+03  0.12508561250E+03 0.  0.
        -24    2    1    2    0    0 -0.43116896602E+02 -0.84330806596E+02 -0.25992499933E+03  0.28783574482E+03  0.79483702777E+02 0.  0.
         24    2    1    2    0    0  0.20152873642E+02  0.88540631389E+02 -0.12621199613E+03  0.17247042016E+03  0.74639105974E+02 0.  0.
        -11    1    5    5    0    0 -0.20283983345E+02  0.24677488825E+01 -0.11436089071E+02  0.23416103393E+02  0.00000000000E+00 0.  1.
         12    1    5    5    0    0  0.40436856987E+02  0.86072882506E+02 -0.11477590706E+03  0.14905431677E+03  0.00000000000E+00 0. -1.
         13    1    4    4    0    0 -0.17727296584E+02 -0.94295887906E+02 -0.19200020346E+03  0.21463934786E+03  0.00000000000E+00 0. -1.
        -14    1    4    4    0    0 -0.25389600018E+02  0.99650813103E+01 -0.67924795871E+02  0.73196396965E+02  0.00000000000E+00 0.  1.
          5    1    3    3  501    0 -0.36870676698E+01 -0.57843669896E+02 -0.19081951174E+03  0.19947191049E+03  0.41800000000E+01 0.  1.
         -5    1    3    3    0  501  0.26651090630E+02  0.53633845103E+02 -0.82665557620E+02  0.10216622137E+03  0.41800000000E+01 0.  1.
</event>
<event>
11    1  0.2498402E-009  0.1668322E+03  0.7561462E-02  0.1080822E+00
         22   -1    0    0    0    0  0.00000000000E+00  0.00000000000E+00  0.41586503050E+03  0.41586503050E+03  0.00000000000E+00 0. -1.
         22   -1    0    0    0    0 -0.00000000000E+00 -0.00000000000E+00 -0.17135033996E+03  0.17135033996E+03  0.00000000000E+00 0. -1.
         25    2    1    2    0    0  0.35656997074E+02 -0.28279726057E+02 -0.36175978577E+02  0.13792529030E+03  0.12507405779E+03 0.  0.
        -24    2    1    2    0    0  0.10410720361E+03 -0.54093386272E+02  0.35469879421E+02  0.14454070586E+03  0.76612655754E+02 0.  0.
         24    2    1    2    0    0 -0.13976420069E+03  0.82373112329E+02  0.24522078970E+03  0.30474937430E+03  0.80122306571E+02 0.  0.
        -11    1    5    5    0    0 -0.68905553538E+02  0.56525467135E+01  0.14186969109E+03  0.15781931391E+03  0.00000000000E+00 0.  1.
         12    1    5    5    0    0 -0.70858647147E+02  0.76720565615E+02  0.10335109861E+03  0.14693006039E+03  0.00000000000E+00 0. -1.
         13    1    4    4    0    0  0.80318924177E+02 -0.12914428045E+02  0.49163331524E+02  0.95052328742E+02  0.00000000000E+00 0. -1.
        -14    1    4    4    0    0  0.23788279435E+02 -0.41178958227E+02 -0.13693452104E+02  0.49488377117E+02  0.00000000000E+00 0.  1.
          5    1    3    3  501    0  0.13677075523E+02  0.48831123264E+02 -0.25540819052E+02  0.56932827367E+02  0.41800000000E+01 0. -1.
         -5    1    3    3    0  501  0.21979921551E+02 -0.77110849321E+02 -0.10635159525E+02  0.80992462937E+02  0.41800000000E+01 0. -1.
</event>
<event>
11    1  0.2498402E-009  0.4979440E+03  0.7561462E-02  0.9398127E-01
         22   -1    0    0    0    0  0.00000000000E+00  0.00000000000E+00  0.22973910895E+03  0.22973910895E+03  0.00000000000E+00 0.  1.
         22   -1    0    0    0    0 -0.00000000000E+00 -0.00000000000E+00 -0.19237169577E+04  0.19237169577E+04  0.00000000000E+00 0.  1.
         25    2    1    2    0    0  0.63156512518E+01 -0.83277961987E+02 -0.79485966562E+03  0.80896404148E+03  0.12508327614E+03 0.  0.
        -24    2    1    2    0    0 -0.44302747802E+03 -0.17727766436E+03 -0.42776824736E+03  0.64643433686E+03  0.84799539272E+02 0.  0.
         24    2    1    2    0    0  0.43671182677E+03  0.26055562635E+03 -0.47134993575E+03  0.69805768829E+03  0.80667962594E+02 0.  0.
        -13    1    5    5    0    0  0.21478684584E+03  0.99402921141E+02 -0.26165926447E+03  0.35281709222E+03  0.00000000000E+00 0.  1.
         14    1    5    5    0    0  0.22192498093E+03  0.16115270521E+03 -0.20969067128E+03  0.34524059607E+03  0.00000000000E+00 0. -1.
         11    1    4    4    0    0 -0.36699456518E+03 -0.17430832663E+03 -0.38183650460E+03  0.55755494783E+03  0.00000000000E+00 0. -1.
        -12    1    4    4    0    0 -0.76032912841E+02 -0.29693377336E+01 -0.45931742756E+02  0.88879389030E+02  0.00000000000E+00 0.  1.
          5    1    3    3  501    0 -0.19442097908E+02 -0.15308544186E+02 -0.60656186028E+03  0.60708080965E+03  0.41800000000E+01 0.  1.
         -5    1    3    3    0  501  0.25757749160E+02 -0.67969417801E+02 -0.18829780535E+03  0.20188323183E+03  0.41800000000E+01 0.  1.
</event>
<event>
11    1  0.2498402E-009  0.3210783E+03  0.7561462E-02  0.9916450E-01
         22   -1    0    0    0    0  0.00000000000E+00  0.00000000000E+00  0.12852854818E+03  0.12852854818E+03  0.00000000000E+00 0. -1.
         22   -1    0    0    0    0 -0.00000000000E+00 -0.00000000000E+00 -0.14390450499E+04  0.14390450499E+04  0.00000000000E+00 0. -1.
         25    2    1    2    0    0  0.26159267404E+03  0.15098999261E+03 -0.99722382956E+03  0.10494433501E+04  0.12508906342E+03 0.  0.
        -24    2    1    2    0    0 -0.27317996277E+03 -0.11051750861E+03 -0.17033328555E+03  0.34973371250E+03  0.80366844692E+02 0.  0.
         24    2    1    2    0    0  0.11587288731E+02 -0.40472483994E+02 -0.14295938666E+03  0.16839653555E+03  0.78407395900E+02 0.  0.
        -13    1    5    5    0    0  0.98460245959E+01  0.23230840490E+02 -0.38412090543E+02  0.45957641912E+02  0.00000000000E+00 0.  1.
         14    1    5    5    0    0  0.17412641351E+01 -0.63703324484E+02 -0.10454729612E+03  0.12243889364E+03  0.00000000000E+00 0. -1.
         13    1    4    4    0    0 -0.23379115736E+03 -0.85331493204E+02 -0.10673308284E+03  0.27079830126E+03  0.00000000000E+00 0. -1.
        -14    1    4    4    0    0 -0.39388805414E+02 -0.25186015407E+02 -0.63600202708E+02  0.78935411245E+02  0.00000000000E+00 0.  1.
          5    1    3    3  501    0  0.26202091540E+03  0.13707587618E+03 -0.98996763453E+03  0.10331980187E+04  0.41800000000E+01 0.  1.
         -5    1    3    3    0  501 -0.42824135477E+00  0.13914116421E+02 -0.72561950271E+01  0.16245331413E+02  0.41800000000E+01 0.  1.
</event>
<event>
11    1  0.2498402E-009  0.1323219E+03  0.7561462E-02  0.1116449E+00
         22   -1    0    0    0    0  0.00000000000E+00  0.00000000000E+00  0.20041115350E+02  0.20041115350E+02  0.00000000000E+00 0.  1.
         22   -1    0    0    0    0 -0.00000000000E+00 -0.00000000000E+00 -0.16602080073E+04  0.16602080073E+04  0.00000000000E+00 0. -1.
         25    2    1    2    0    0  0.45567985586E+02  0.26355746232E+01 -0.95059150196E+03  0.95987228510E+03  0.12508881860E+03 0.  0.
        -24    2    1    2    0    0 -0.28160537215E+02  0.61761654565E+02 -0.38464798932E+03  0.39808754822E+03  0.76890197861E+02 0.  0.
         24    2    1    2    0    0 -0.17407448371E+02 -0.64397229189E+02 -0.30492740072E+03  0.32228928938E+03  0.80247392202E+02 0.  0.
        -13    1    5    5    0    0 -0.19786798454E+02  0.14748828522E+02 -0.86549969496E+02  0.89999680864E+02  0.00000000000E+00 0.  1.
         14    1    5    5    0    0  0.23793500832E+01 -0.79146057711E+02 -0.21837743122E+03  0.23228960851E+03  0.00000000000E+00 0. -1.
         11    1    4    4    0    0 -0.90349346870E+01  0.67768124862E+02 -0.35942018520E+03  0.36586475414E+03  0.00000000000E+00 0. -1.
        -12    1    4    4    0    0 -0.19125602528E+02 -0.60064702962E+01 -0.25227804119E+02  0.32222794077E+02  0.00000000000E+00 0.  1.
          5    1    3    3  501    0  0.48389329491E+02  0.56304386203E+02 -0.67299279032E+03  0.67708823601E+03  0.41800000000E+01 0. -1.
         -5    1    3    3    0  501 -0.28213439049E+01 -0.53668811579E+02 -0.27759871163E+03  0.28278404909E+03  0.41800000000E+01 0. -1.
</event>
<event>
11    1  0.2498402E-009  0.1922747E+03  0.7561462E-02  0.1060125E+00
         22   -1    0    0    0    0  0.00000000000E+00  0.00000000000E+00  0.94255439131E+03  0.94255439131E+03  0.00000000000E+00 0. -1.
         22   -1    0    0    0    0 -0.00000000000E+00 -0.00000000000E+00 -0.10959568959E+03  0.10959568959E+03  0.00000000000E+00 0.  1.
         25    2    1    2    0    0  0.82183902262E+02  0.92809047459E+02  0.52028535000E+02  0.18363309529E+03  0.12508569922E+03 0.  0.
         24    2    1    2    0    0 -0.15943136445E+03 -0.15746344622E+03  0.38160028919E+03  0.44882273937E+03  0.74899758307E+02 0.  0.
        -24    2    1    2    0    0  0.77247462191E+02  0.64654398766E+02  0.39932987752E+03  0.41969424624E+03  0.80817990290E+02 0.  0.
        -13    1    4    4    0    0 -0.11495132115E+03 -0.89736528057E+02  0.18074463325E+03  0.23223925842E+03  0.00000000000E+00 0.  1.
         14    1    4    4    0    0 -0.44480043303E+02 -0.67726918168E+02  0.20085565594E+03  0.21658348095E+03  0.00000000000E+00 0. -1.
         11    1    5    5    0    0  0.67837906017E+02  0.54787207670E+02  0.39623030103E+03  0.40571180790E+03  0.00000000000E+00 0. -1.
        -12    1    5    5    0    0  0.94095561737E+01  0.98671910962E+01  0.30995764892E+01  0.13982438340E+02  0.00000000000E+00 0.  1.
          5    1    3    3  501    0  0.11228947337E+03  0.91694792615E+02  0.48917344478E+02  0.15305959562E+03  0.41800000000E+01 0. -1.
         -5    1    3    3    0  501 -0.30105571105E+02  0.11142548435E+01  0.31111905225E+01  0.30573499667E+02  0.41800000000E+01 0. -1.
</event>
<event>
11    1  0.2498402E-009  0.2423211E+03  0.7561462E-02  0.1028071E+00
         22   -1    0    0    0    0  0.00000000000E+00  0.00000000000E+00  0.30976368846E+03  0.30976368846E+03  0.00000000000E+00 0.  1.
         22   -1    0    0    0    0 -0.00000000000E+00 -0.00000000000E+00 -0.54799263664E+03  0.54799263664E+03  0.00000000000E+00 0. -1.
         25    2    1    2    0    0 -0.95530652476E+02 -0.10709942991E+03 -0.98404408632E+02  0.21430838822E+03  0.12509302208E+03 0.  0.
         24    2    1    2    0    0  0.26206257933E+03  0.12015328498E+03 -0.27929968419E+03  0.40963411774E+03  0.81720189969E+02 0.  0.
        -24    2    1    2    0    0 -0.16653192685E+03 -0.13053855072E+02  0.13947514464E+03  0.23381381914E+03  0.85511988958E+02 0.  0.
        -13    1    4    4    0    0  0.33976597542E+02  0.13957064953E+02 -0.44220435787E+01  0.36996801376E+02  0.00000000000E+00 0.  1.
         14    1    4    4    0    0  0.22808598178E+03  0.10619622003E+03 -0.27487764062E+03  0.37263731636E+03  0.00000000000E+00 0. -1.
         13    1    5    5    0    0  0.83671597640E+01 -0.77410867504E+00  0.19869903032E+02  0.21573633288E+02  0.00000000000E+00 0. -1.
        -14    1    5    5    0    0 -0.17489908661E+03 -0.12279746397E+02  0.11960524161E+03  0.21224018585E+03  0.00000000000E+00 0.  1.
          5    1    3    3  501    0 -0.41695563611E+02 -0.70761088449E+02  0.14960769274E+02  0.83587969712E+02  0.41800000000E+01 0.  1.
         -5    1    3    3    0  501 -0.53835088865E+02 -0.36338341460E+02 -0.11336517791E+03  0.13072041851E+03  0.41800000000E+01 0.  1.
</event>
<event>
11    1  0.2498402E-009  0.1416953E+03  0.7561462E-02  0.1105680E+00
         22   -1    0    0    0    0  0.00000000000E+00  0.00000000000E+00  0.46690951992E+03  0.46690951992E+03  0.00000000000E+00 0.  1.
         22   -1    0    0    0    0 -0.00000000000E+00 -0.00000000000E+00 -0.94185039529E+03  0.94185039529E+03  0.00000000000E+00 0. -1.
         25    2    1    2    0    0 -0.19801610307E+02 -0.21408305687E+02 -0.38110618659E+03  0.40216900968E+03  0.12509023770E+03 0.  0.
        -24    2    1    2    0    0 -0.22706669956E+02 -0.30561573714E+02 -0.54046042104E+03  0.54779022724E+03  0.80790245047E+02 0.  0.
         24    2    1    2    0    0  0.42508280263E+02  0.51969879402E+02  0.44662573226E+03  0.45880067829E+03  0.80719857660E+02 0.  0.
        -11    1    5    5    0    0  0.56330645518E+02  0.33758561196E+02  0.18749707916E+03  0.19866538896E+03  0.00000000000E+00 0.  1.
         12    1    5    5    0    0 -0.13822365255E+02  0.18211318206E+02  0.25912865311E+03  0.26013528933E+03  0.00000000000E+00 0. -1.
         11    1    4    4    0    0  0.22911539259E+02 -0.34019693273E+01 -0.32726668849E+03  0.32808535082E+03  0.00000000000E+00 0. -1.
        -12    1    4    4    0    0 -0.45618209215E+02 -0.27159604387E+02 -0.21319373255E+03  0.21970487642E+03  0.00000000000E+00 0.  1.
          5    1    3    3  501    0  0.22184975896E+02  0.17727260739E+02 -0.16621334204E+02  0.33168811850E+02  0.41800000000E+01 0.  1.
         -5    1    3    3    0  501 -0.41986586203E+02 -0.39135566426E+02 -0.36448485239E+03  0.36900019783E+03  0.41800000000E+01 0.  1.
</event>
<event>
11    1  0.2498402E-009  0.3036273E+03  0.7561462E-02  0.9986677E-01
         22   -1    0    0    0    0  0.00000000000E+00  0.00000000000E+00  0.24438820503E+04  0.24438820503E+04  0.00000000000E+00 0. -1.
         22   -1    0    0    0    0 -0.00000000000E+00 -0.00000000000E+00 -0.21540788818E+03  0.21540788818E+03  0.00000000000E+00 0. -1.
         25    2    1    2    0    0  0.27838141761E+03 -0.30163065287E+02 -0.68612756832E+02  0.31426482844E+03  0.12509455551E+03 0.  0.
         24    2    1    2    0    0 -0.69118904413E+02 -0.12547906450E+03  0.47945670962E+03  0.50705524151E+03  0.81877121169E+02 0.  0.
        -24    2    1    2    0    0 -0.20926251319E+03  0.15564212979E+03  0.18176302094E+04  0.18379698685E+04  0.79613991917E+02 0.  0.
        -13    1    4    4    0    0  0.12371620384E+02 -0.48909954860E+02  0.19471114003E+03  0.20114091758E+03  0.00000000000E+00 0.  1.
         14    1    4    4    0    0 -0.81490524797E+02 -0.76569109644E+02  0.28474556959E+03  0.30591432393E+03  0.00000000000E+00 0. -1.
         11    1    5    5    0    0 -0.15162813415E+03  0.12939020937E+03  0.15593401409E+04  0.15720288141E+04  0.00000000000E+00 0. -1.
        -12    1    5    5    0    0 -0.57634379043E+02  0.26251920424E+02  0.25829006849E+03  0.26594105447E+03  0.00000000000E+00 0.  1.
          5    1    3    3  501    0  0.11885416322E+03 -0.67174868555E+02  0.18234337079E+00  0.13658799629E+03  0.41800000000E+01 0. -1.
         -5    1    3    3    0  501  0.15952725438E+03  0.37011803268E+02 -0.68795100203E+02  0.17767683215E+03  0.41800000000E+01 0. -1.
</event>
<event>
11    1  0.2498402E-009  0.1359730E+04  0.7561462E-02  0.8396420E-01
         22   -1    0    0    0    0  0.00000000000E+00  0.00000000000E+00  0.12799615436E+04  0.12799615436E+04  0.00000000000E+00 0. -1.
         22   -1    0    0    0    0 -0.00000000000E+00 -0.00000000000E+00 -0.17955990546E+04  0.17955990546E+04  0.00000000000E+00 0. -1.
         25    2    1    2    0    0  0.92157776055E+03 -0.10806789761E+04 -0.43650395391E+03  0.14910921567E+04  0.12508996762E+03 0.  0.
        -24    2    1    2    0    0 -0.92979984903E+03  0.89463548804E+03 -0.25258498487E+03  0.13174072434E+04  0.82838726193E+02 0.  0.
         24    2    1    2    0    0  0.82220884794E+01  0.18604348807E+03  0.17345142779E+03  0.26706119805E+03  0.80972239142E+02 0.  0.
        -13    1    5    5    0    0  0.77010012060E+01  0.19383397925E+03  0.17169956804E+03  0.25905917972E+03  0.00000000000E+00 0.  1.
         14    1    5    5    0    0  0.52108727337E+00 -0.77904911815E+01  0.17518597432E+01  0.80020183301E+01  0.00000000000E+00 0. -1.
         11    1    4    4    0    0 -0.53480836415E+03  0.47057309736E+03 -0.11245968602E+03  0.72118389284E+03  0.00000000000E+00 0. -1.
        -12    1    4    4    0    0 -0.39499148488E+03  0.42406239068E+03 -0.14012529885E+03  0.59622335051E+03  0.00000000000E+00 0.  1.
          5    1    3    3  501    0  0.46214280060E+03 -0.47490878112E+03 -0.24993013978E+03  0.70823503564E+03  0.41800000000E+01 0.  1.
         -5    1    3    3    0  501  0.45943495995E+03 -0.60577019499E+03 -0.18657381413E+03  0.78285712111E+03  0.41800000000E+01 0.  1.
</event>
<event>
11    1  0.2498402E-009  0.2488069E+03  0.7561462E-02  0.1024537E+00
         22   -1    0    0    0    0  0.00000000000E+00  0.00000000000E+00  0.13725923690E+03  0.13725923690E+03  0.00000000000E+00 0.  1.
         22   -1    0    0    0    0 -0.00000000000E+00 -0.00000000000E+00 -0.76916316953E+03  0.76916316953E+03  0.00000000000E+00 0.  1.
         25    2    1    2    0    0  0.95354583030E+02 -0.18467959494E+03 -0.41964119656E+03  0.48471285394E+03  0.12509503439E+03 0.  0.
         24    2    1    2    0    0 -0.45366927394E+02  0.23534482827E+03 -0.11698280609E+03  0.27831857892E+03  0.79567004194E+02 0.  0.
        -24    2    1    2    0    0 -0.49987655636E+02 -0.50665233335E+02 -0.95279929973E+02  0.14339097357E+03  0.80106021386E+02 0.  0.
        -13    1    4    4    0    0 -0.94849351536E+01  0.20530183495E+03 -0.99741516396E+02  0.22844513022E+03  0.00000000000E+00 0.  1.
         14    1    4    4    0    0 -0.35881992240E+02  0.30042993320E+02 -0.17241289693E+02  0.49873448698E+02  0.00000000000E+00 0. -1.
         11    1    5    5    0    0 -0.18227846419E+02  0.19526979362E+02 -0.41796214691E+02  0.49603234477E+02  0.00000000000E+00 0. -1.
        -12    1    5    5    0    0 -0.31759809217E+02 -0.70192212697E+02 -0.53483715282E+02  0.93787739098E+02  0.00000000000E+00 0.  1.
          5    1    3    3  501    0  0.91287129381E+02 -0.18411885958E+03 -0.42782851503E+03  0.47464492530E+03  0.41800000000E+01 0. -1.
         -5    1    3    3    0  501  0.40674536484E+01 -0.56073535902E+00  0.81873184667E+01  0.10067928635E+02  0.41800000000E+01 0. -1.
</event>
<event>
11    1  0.2498402E-009  0.2319232E+03  0.7561462E-02  0.1033995E+00
         22   -1    0    0    0    0  0.00000000000E+00  0.00000000000E+00  0.41389644165E+04  0.41389644165E+04  0.00000000000E+00 0.  1.
         22   -1    0    0    0    0 -0.00000000000E+00 -0.00000000000E+00 -0.19305240259E+02  0.19305240259E+02  0.00000000000E+00 0. -1.
         25    2    1    2    0    0 -0.15814945366E+03  0.94070049220E+02  0.11398236779E+04  0.11613381573E+04  0.12509146662E+03 0.  0.
         24    2    1    2    0    0  0.19233872453E+03 -0.98362495473E+02  0.20806108805E+04  0.20933834731E+04  0.81506831650E+02 0.  0.
        -24    2    1    2    0    0 -0.34189270870E+02  0.42924462523E+01  0.89922461785E+03  0.90354802645E+03  0.81282171644E+02 0.  0.
        -11    1    4    4    0    0 -0.50028235122E+01  0.47586227068E+01  0.11377537286E+03  0.11398468407E+03  0.00000000000E+00 0.  1.
         12    1    4    4    0    0  0.19734154804E+03 -0.10312111818E+03  0.19668355077E+04  0.19793987890E+04  0.00000000000E+00 0. -1.
         11    1    5    5    0    0  0.84515811379E+01 -0.52348603857E+01  0.13599320619E+02  0.16845607982E+02  0.00000000000E+00 0. -1.
        -12    1    5    5    0    0 -0.42640852008E+02  0.95273066379E+01  0.88562529723E+03  0.88670241847E+03  0.00000000000E+00 0.  1.
          5    1    3    3  501    0 -0.47858475156E+02 -0.28727688150E+02  0.34926784801E+03  0.35372477403E+03  0.41800000000E+01 0. -1.
         -5    1    3    3    0  501 -0.11029097850E+03  0.12279773737E+03  0.79055582986E+03  0.80761338323E+03  0.41800000000E+01 0. -1.
</event>
<event>
11    1  0.2498402E-009  0.5004001E+03  0.7561462E-02  0.9392628E-01
         22   -1    0    0    0    0  0.00000000000E+00  0.00000000000E+00  0.29170114391E+04  0.29170114391E+04  0.00000000000E+00 0.  1.
         22   -1    0    0    0    0 -0.00000000000E+00 -0.00000000000E+00 -0.97610834326E+03  0.97610834326E+03  0.00000000000E+00 0.  1.
         25    2    1    2    0    0  0.28115102202E+03 -0.40521532881E+03 -0.82870880475E+03  0.97244582049E+03  0.12508889172E+03 0.  0.
         24    2    1    2    0    0  0.13151143466E+03  0.47105517879E+03  0.13215046916E+04  0.14113543894E+04  0.79739097527E+02 0.  0.
        -24    2    1    2    0    0 -0.41266245668E+03 -0.65839849983E+02  0.14481072090E+04  0.15093195725E+04  0.80036829693E+02 0.  0.
        -13    1    4    4    0    0  0.83107531250E+02  0.17832756120E+03  0.46473599324E+03  0.50466535867E+03  0.00000000000E+00 0.  1.
         14    1    4    4    0    0  0.48403903407E+02  0.29272761759E+03  0.85676869832E+03  0.90668903070E+03  0.00000000000E+00 0. -1.
         11    1    5    5    0    0 -0.66133872017E+02  0.70145151907E+01  0.15634237489E+03  0.16989947215E+03  0.00000000000E+00 0. -1.
        -12    1    5    5    0    0 -0.34652858466E+03 -0.72854365173E+02  0.12917648341E+04  0.13394201003E+04  0.00000000000E+00 0.  1.
          5    1    3    3  501    0  0.26916877963E+03 -0.38787020047E+03 -0.71563906996E+03  0.85735166367E+03  0.41800000000E+01 0.  1.
         -5    1    3    3    0  501  0.11982242391E+02 -0.17345128344E+02 -0.11306973478E+03  0.11509415682E+03  0.41800000000E+01 0.  1.
</event>
<event>
11    1  0.2498402E-009  0.1446911E+03  0.7561462E-02  0.1102430E+00
         22   -1    0    0    0    0  0.00000000000E+00  0.00000000000E+00  0.62854268857E+02  0.62854268857E+02  0.00000000000E+00 0.  1.
         22   -1    0    0    0    0 -0.00000000000E+00 -0.00000000000E+00 -0.10063949764E+04  0.10063949764E+04  0.00000000000E+00 0. -1.
         25    2    1    2    0    0  0.95521020450E+02  0.13357118284E+02 -0.58444338109E+03  0.60541243746E+03  0.12508987079E+03 0.  0.
        -24    2    1    2    0    0 -0.27114068147E+02 -0.27432354394E+01 -0.31706209321E+03  0.33065631777E+03  0.89791600361E+02 0.  0.
         24    2    1    2    0    0 -0.68406952303E+02 -0.10613882845E+02 -0.42035233203E+02  0.13318048999E+03  0.10572566600E+03 0.  0.
        -13    1    5    5    0    0  0.14231378266E+02  0.11447679970E+02  0.20327330995E+02  0.27327310322E+02  0.00000000000E+00 0.  1.
         14    1    5    5    0    0 -0.82638330569E+02 -0.22061562814E+02 -0.62362564197E+02  0.10585317967E+03  0.00000000000E+00 0. -1.
         13    1    4    4    0    0 -0.57529314350E+02 -0.10961114093E+02 -0.24680845384E+03  0.25366154797E+03  0.00000000000E+00 0. -1.
        -14    1    4    4    0    0  0.30415246202E+02  0.82178786540E+01 -0.70253639370E+02  0.76994769795E+02  0.00000000000E+00 0.  1.
          5    1    3    3  501    0  0.23502591054E+02 -0.24469950901E+02 -0.31447602708E+02  0.46449697517E+02  0.41800000000E+01 0.  1.
         -5    1    3    3    0  501  0.72018429396E+02  0.37827069185E+02 -0.55299577839E+03  0.55896273995E+03  0.41800000000E+01 0.  1.
</event>
<event>
11    1  0.5982374E-009  0.1259648E+04  0.7561462E-02  0.8464968E-01
         22   -1    0    0    0    0  0.00000000000E+00  0.00000000000E+00  0.14067297650E+04  0.14067297650E+04  0.00000000000E+00 0.  1.
         22   -1    0    0    0    0 -0.00000000000E+00 -0.00000000000E+00 -0.27830671659E+04  0.27830671659E+04  0.00000000000E+00 0.  1.
         25    2    1    2    0    0  0.30039483368E+03  0.12235727133E+04 -0.22426421535E+04  0.25753563236E+04  0.12509645791E+03 0.  0.
        -24    2    1    2    0    0 -0.18801503626E+03 -0.11979246691E+04  0.82365816999E+03  0.14680713742E+04  0.80297023457E+02 0.  0.
         24    2    1    2    0    0 -0.11237979742E+03 -0.25648044197E+02  0.42646582694E+02  0.14636923313E+03  0.79486982282E+02 0.  0.
        -13    1    5    5    0    0  0.11993913923E+02 -0.38454011866E+01  0.96269733559E+01  0.15853065870E+02  0.00000000000E+00 0.  1.
         14    1    5    5    0    0 -0.12437371134E+03 -0.21802643011E+02  0.33019609338E+02  0.13051616726E+03  0.00000000000E+00 0. -1.
         13    1    4    4    0    0 -0.54478840591E+02 -0.52200283132E+03  0.32110737272E+03  0.61527623454E+03  0.00000000000E+00 0. -1.
        -14    1    4    4    0    0 -0.13353619566E+03 -0.67592183783E+03  0.50255079727E+03  0.85279513967E+03  0.00000000000E+00 0.  1.
          5    1    3    3  501    0  0.26182301959E+03  0.97176303029E+03 -0.16933963903E+04  0.19698942834E+04  0.41800000000E+01 0. -1.
         -5    1    3    3    0  501  0.38571814085E+02  0.25180968305E+03 -0.54924576315E+03  0.60546204015E+03  0.41800000000E+01 0. -1.
</event>
<event>
11    1  0.2498402E-009  0.1867568E+03  0.7561462E-02  0.1064305E+00
         22   -1    0    0    0    0  0.00000000000E+00  0.00000000000E+00  0.11043679806E+04  0.11043679806E+04  0.00000000000E+00 0.  1.
         22   -1    0    0    0    0 -0.00000000000E+00 -0.00000000000E+00 -0.57208642259E+03  0.57208642259E+03  0.00000000000E+00 0.  1.
         25    2    1    2    0    0  0.12179179650E+03  0.11823315332E+03 -0.38553642632E+03  0.43942939934E+03  0.12509013047E+03 0.  0.
         24    2    1    2    0    0 -0.66590935507E+02 -0.82382803255E+02 -0.12818860975E+03  0.18583036672E+03  0.82941705798E+02 0.  0.
        -24    2    1    2    0    0 -0.55200860995E+02 -0.35850350064E+02  0.10460065941E+04  0.10511946372E+04  0.80919636947E+02 0.  0.
        -13    1    4    4    0    0 -0.41376854602E+02 -0.51030021818E+02 -0.12989152343E+03  0.14556069209E+03  0.00000000000E+00 0.  1.
         14    1    4    4    0    0 -0.25214080905E+02 -0.31352781437E+02  0.17029136749E+01  0.40269674629E+02  0.00000000000E+00 0. -1.
         13    1    5    5    0    0  0.17143742576E+02 -0.18550657237E+01  0.38282492981E+03  0.38321309484E+03  0.00000000000E+00 0. -1.
        -14    1    5    5    0    0 -0.72344603571E+02 -0.33995284340E+02  0.66318166432E+03  0.66798154234E+03  0.00000000000E+00 0.  1.
          5    1    3    3  501    0  0.59360989986E+02  0.15216094610E+02 -0.39561822326E+02  0.73060706628E+02  0.41800000000E+01 0.  1.
         -5    1    3    3    0  501  0.62430806517E+02  0.10301705871E+03 -0.34597460400E+03  0.36636869271E+03  0.41800000000E+01 0.  1.
</event>
<event>
11    1  0.2498402E-009  0.1575882E+04  0.7561462E-02  0.8267284E-01
         22   -1    0    0    0    0  0.00000000000E+00  0.00000000000E+00  0.71639862668E+03  0.71639862668E+03  0.00000000000E+00 0. -1.
         22   -1    0    0    0    0 -0.00000000000E+00 -0.00000000000E+00 -0.86662780022E+03  0.86662780022E+03  0.00000000000E+00 0. -1.
         25    2    1    2    0    0 -0.40937930990E+03 -0.49354542326E+03 -0.46386642735E+03  0.80124739090E+03  0.12508722879E+03 0.  0.
        -24    2    1    2    0    0  0.24165299585E+03  0.15936864872E+03  0.22766723176E+02  0.30131085637E+03  0.80469695451E+02 0.  0.
         24    2    1    2    0    0  0.16772631405E+03  0.33417677454E+03  0.29087053063E+03  0.48046817962E+03  0.80235733805E+02 0.  0.
        -13    1    5    5    0    0  0.36582751319E+02  0.11911298310E+03  0.58071215760E+02  0.13747169358E+03  0.00000000000E+00 0.  1.
         14    1    5    5    0    0  0.13114356273E+03  0.21506379144E+03  0.23279931487E+03  0.34299648604E+03  0.00000000000E+00 0. -1.
         11    1    4    4    0    0  0.11712033717E+03  0.12251308261E+03  0.17962171431E+00  0.16948941280E+03  0.00000000000E+00 0. -1.
        -12    1    4    4    0    0  0.12453265868E+03  0.36855566110E+02  0.22587101461E+02  0.13182144357E+03  0.00000000000E+00 0.  1.
          5    1    3    3  501    0 -0.15986779321E+03 -0.26403383777E+03 -0.27348029654E+03  0.41240820044E+03  0.41800000000E+01 0.  1.
         -5    1    3    3    0  501 -0.24951151668E+03 -0.22951158549E+03 -0.19038613081E+03  0.38883919046E+03  0.41800000000E+01 0.  1.
</event>
<event>
11    1  0.2498402E-009  0.3768595E+03  0.7561462E-02  0.9720616E-01
         22   -1    0    0    0    0  0.00000000000E+00  0.00000000000E+00  0.14170362815E+04  0.14170362815E+04  0.00000000000E+00 0.  1.
         22   -1    0    0    0    0 -0.00000000000E+00 -0.00000000000E+00 -0.14627433718E+03  0.14627433718E+03  0.00000000000E+00 0. -1.
         25    2    1    2    0    0  0.33689508254E+03  0.27967748854E+02  0.32357251754E+03  0.48438171555E+03  0.12508389436E+03 0.  0.
         24    2    1    2    0    0 -0.38856947445E+03 -0.44997226790E+02  0.77460263272E+03  0.87169209651E+03  0.82624969584E+02 0.  0.
        -24    2    1    2    0    0  0.51674391902E+02  0.17029477936E+02  0.17258679403E+03  0.20723680662E+03  0.10099825070E+03 0.  0.
        -13    1    4    4    0    0 -0.30147345976E+03 -0.13469453433E+02  0.64800080212E+03  0.71482355351E+03  0.00000000000E+00 0.  1.
         14    1    4    4    0    0 -0.87096014690E+02 -0.31527773357E+02  0.12660183061E+03  0.15686854299E+03  0.00000000000E+00 0. -1.
         11    1    5    5    0    0 -0.14409465073E+02  0.23869889118E+02  0.68952127929E+01  0.28721912361E+02  0.00000000000E+00 0. -1.
        -12    1    5    5    0    0  0.66083856975E+02 -0.68404111819E+01  0.16569158124E+03  0.17851489426E+03  0.00000000000E+00 0.  1.
          5    1    3    3  501    0  0.78973027029E+02 -0.37964825428E+02  0.12281409783E+03  0.15092661128E+03  0.41800000000E+01 0. -1.
         -5    1    3    3    0  501  0.25792205551E+03  0.65932574283E+02  0.20075841972E+03  0.33345510426E+03  0.41800000000E+01 0. -1.
</event>
<event>
11    1  0.2498402E-009  0.1571146E+03  0.7561462E-02  0.1089823E+00
         22   -1    0    0    0    0  0.00000000000E+00  0.00000000000E+00  0.16258697746E+03  0.16258697746E+03  0.00000000000E+00 0. -1.
         22   -1    0    0    0    0 -0.00000000000E+00 -0.00000000000E+00 -0.53640594114E+03  0.53640594114E+03  0.00000000000E+00 0. -1.
         25    2    1    2    0    0 -0.69005414025E+01 -0.13390451862E+03 -0.34512792526E+03  0.39081796085E+03  0.12508939262E+03 0.  0.
        -24    2    1    2    0    0  0.16160307683E+02  0.42300335367E+02 -0.12390948772E+03  0.15436485328E+03  0.80152809460E+02 0.  0.
         24    2    1    2    0    0 -0.92597662803E+01  0.91604183256E+02  0.95218449303E+02  0.15381010447E+03  0.78191594739E+02 0.  0.
        -11    1    5    5    0    0 -0.13645004631E+02 -0.73140905208E+01 -0.12991636438E+01  0.15536083731E+02  0.00000000000E+00 0.  1.
         12    1    5    5    0    0  0.43852383506E+01  0.98918273777E+02  0.96517612947E+02  0.13827402074E+03  0.00000000000E+00 0. -1.
         11    1    4    4    0    0  0.86076086209E+01  0.37666040326E+02 -0.13485576371E+03  0.14028149745E+03  0.00000000000E+00 0. -1.
        -12    1    4    4    0    0  0.75526990619E+01  0.46342950408E+01  0.10946275986E+02  0.14083355836E+02  0.00000000000E+00 0.  1.
          5    1    3    3  501    0  0.22927160531E+02 -0.71628194801E+02 -0.29735751340E+03  0.30674943546E+03  0.41800000000E+01 0. -1.
         -5    1    3    3    0  501 -0.29827701933E+02 -0.62276323822E+02 -0.47770411864E+02  0.84068525389E+02  0.41800000000E+01 0. -1.
</event>
<event>
11    1  0.2498402E-009  0.1894808E+03  0.7561462E-02  0.1062222E+00
         22   -1    0    0    0    0  0.00000000000E+00  0.00000000000E+00  0.38484296790E+03  0.38484296790E+03  0.00000000000E+00 0.  1.
         22   -1    0    0    0    0 -0.00000000000E+00 -0.00000000000E+00 -0.42005825701E+04  0.42005825701E+04  0.00000000000E+00 0.  1.
         25    2    1    2    0    0 -0.86997114409E+02  0.11621022062E+03 -0.35407456618E+04  0.35459273212E+04  0.12508961756E+03 0.  0.
         24    2    1    2    0    0  0.19840524630E+03  0.10726718133E+02 -0.61497648616E+03  0.65139762095E+03  0.81505078428E+02 0.  0.
        -24    2    1    2    0    0 -0.11140813189E+03 -0.12693693875E+03  0.33998254573E+03  0.38810059587E+03  0.80679506946E+02 0.  0.
        -11    1    4    4    0    0  0.13553721662E+03 -0.12542034598E+02 -0.30102495301E+03  0.33036897865E+03  0.00000000000E+00 0.  1.
         12    1    4    4    0    0  0.62868029685E+02  0.23268752730E+02 -0.31395153315E+03  0.32102864230E+03  0.00000000000E+00 0. -1.
         11    1    5    5    0    0 -0.12071965268E+02 -0.86465866649E-01  0.22227298205E+00  0.12074320977E+02  0.00000000000E+00 0. -1.
        -12    1    5    5    0    0 -0.99336166624E+02 -0.12685047288E+03  0.33976027275E+03  0.37602627489E+03  0.00000000000E+00 0.  1.
          5    1    3    3  501    0 -0.92269325009E+02  0.63895368723E+02 -0.31004557339E+04  0.31024892387E+04  0.41800000000E+01 0.  1.
         -5    1    3    3    0  501  0.52722105999E+01  0.52314851895E+02 -0.44028992795E+03  0.44343808248E+03  0.41800000000E+01 0.  1.
</event>
<event>
11    1  0.2498402E-009  0.4070901E+03  0.7561462E-02  0.9629067E-01
         22   -1    0    0    0    0  0.00000000000E+00  0.00000000000E+00  0.54212311327E+03  0.54212311327E+03  0.00000000000E+00 0.  1.
         22   -1    0    0    0    0 -0.00000000000E+00 -0.00000000000E+00 -0.53787339429E+03  0.53787339429E+03  0.00000000000E+00 0. -1.
         25    2    1    2    0    0  0.33619502389E+03 -0.23803455874E+03 -0.95407600660E+02  0.44095141103E+03  0.12509193171E+03 0.  0.
        -24    2    1    2    0    0 -0.24286668751E+03  0.28215542623E+03 -0.10674584704E+03  0.39424099042E+03  0.73724963290E+02 0.  0.
         24    2    1    2    0    0 -0.93328336379E+02 -0.44120867484E+02  0.20640316669E+03  0.24480410612E+03  0.81669785310E+02 0.  0.
        -11    1    5    5    0    0 -0.44808152776E+02 -0.29053384035E+02  0.17958003904E+03  0.18735223538E+03  0.00000000000E+00 0.  1.
         12    1    5    5    0    0 -0.48520183603E+02 -0.15067483450E+02  0.26823127648E+02  0.57451870737E+02  0.00000000000E+00 0. -1.
         13    1    4    4    0    0 -0.38622478717E+02  0.11280387773E+02 -0.12870756496E+02  0.42244518974E+02  0.00000000000E+00 0. -1.
        -14    1    4    4    0    0 -0.20424420880E+03  0.27087503845E+03 -0.93875090546E+02  0.35199647144E+03  0.00000000000E+00 0.  1.
          5    1    3    3  501    0  0.22706557975E+02 -0.38828971776E+01  0.22292969449E+02  0.32328216042E+02  0.41800000000E+01 0. -1.
         -5    1    3    3    0  501  0.31348846592E+03 -0.23415166157E+03 -0.11770057011E+03  0.40862319499E+03  0.41800000000E+01 0. -1.
</event>
<event>
11    1  0.2498402E-009  0.1670482E+03  0.7561462E-02  0.1080629E+00
         22   -1    0    0    0    0  0.00000000000E+00  0.00000000000E+00  0.19042065591E+04  0.19042065591E+04  0.00000000000E+00 0. -1.
         22   -1    0    0    0    0 -0.00000000000E+00 -0.00000000000E+00 -0.11920009366E+03  0.11920009366E+03  0.00000000000E+00 0.  1.
         25    2    1    2    0    0  0.75530330395E+02  0.10157139582E+03  0.37656380647E+02  0.18189657832E+03  0.12508710142E+03 0.  0.
         24    2    1    2    0    0 -0.10487638118E+03 -0.27714280916E+02  0.58741448919E+02  0.14911723222E+03  0.83775022687E+02 0.  0.
        -24    2    1    2    0    0  0.29346050790E+02 -0.73857114906E+02  0.16886086359E+04  0.16923928423E+04  0.80488155241E+02 0.  0.
        -13    1    4    4    0    0 -0.39260247185E+02 -0.46166327476E+02  0.23424772146E+01  0.60648033778E+02  0.00000000000E+00 0.  1.
         14    1    4    4    0    0 -0.65616134000E+02  0.18452046560E+02  0.56398971704E+02  0.88469198440E+02  0.00000000000E+00 0. -1.
         11    1    5    5    0    0 -0.80736873339E+01  0.60846597929E+00  0.76225481830E+03  0.76229781757E+03  0.00000000000E+00 0. -1.
        -12    1    5    5    0    0  0.37419738124E+02 -0.74465580885E+02  0.92635381761E+03  0.93009502469E+03  0.00000000000E+00 0.  1.
          5    1    3    3  501    0  0.23375714621E+02 -0.27348621392E+02 -0.45471826550E+01  0.36503703870E+02  0.41800000000E+01 0.  1.
         -5    1    3    3    0  501  0.52154615773E+02  0.12892001721E+03  0.42203563301E+02  0.14539287445E+03  0.41800000000E+01 0.  1.
</event>
<event>
11    1  0.2498402E-009  0.1862482E+03  0.7561462E-02  0.1064698E+00
         22   -1    0    0    0    0  0.00000000000E+00  0.00000000000E+00  0.29907971656E+04  0.29907971656E+04  0.00000000000E+00 0.  1.
         22   -1    0    0    0    0 -0.00000000000E+00 -0.00000000000E+00 -0.83382991349E+02  0.83382991349E+02  0.00000000000E+00 0.  1.
         25    2    1    2    0    0  0.73751996088E+02  0.10581901365E+03  0.16899913403E+03  0.24666321529E+03  0.12508002997E+03 0.  0.
         24    2    1    2    0    0 -0.97850767659E+02 -0.10736221698E+03  0.11225290332E+03  0.20002680306E+03  0.79426628249E+02 0.  0.
        -24    2    1    2    0    0  0.24098771572E+02  0.15432033327E+01  0.26261621369E+04  0.26274901385E+04  0.79960783069E+02 0.  0.
        -13    1    4    4    0    0 -0.18245916826E+02 -0.75203184525E+02  0.36634638476E+02  0.85618509563E+02  0.00000000000E+00 0.  1.
         14    1    4    4    0    0 -0.79604850833E+02 -0.32159032455E+02  0.75618264839E+02  0.11440829350E+03  0.00000000000E+00 0. -1.
         11    1    5    5    0    0  0.27875246683E+02  0.33119606834E+02  0.90551457464E+03  0.90654872049E+03  0.00000000000E+00 0. -1.
        -12    1    5    5    0    0 -0.37764751112E+01 -0.31576403502E+02  0.17206475622E+04  0.17209414181E+04  0.00000000000E+00 0.  1.
          5    1    3    3  501    0  0.10803207840E+03  0.88300635273E+02  0.11905072476E+03  0.18346247469E+03  0.41800000000E+01 0.  1.
         -5    1    3    3    0  501 -0.34280082309E+02  0.17518378374E+02  0.49948409270E+02  0.63200740602E+02  0.41800000000E+01 0.  1.
</event>
<event>
11    1  0.2498402E-009  0.1986090E+03  0.7561462E-02  0.1055512E+00
         22   -1    0    0    0    0  0.00000000000E+00  0.00000000000E+00  0.19026451012E+03  0.19026451012E+03  0.00000000000E+00 0. -1.
         22   -1    0    0    0    0 -0.00000000000E+00 -0.00000000000E+00 -0.56595378867E+03  0.56595378867E+03  0.00000000000E+00 0. -1.
         25    2    1    2    0    0  0.34802991645E+02  0.78773674876E+02 -0.28791848628E+03  0.32551525886E+03  0.12508632590E+03 0.  0.
        -24    2    1    2    0    0 -0.23234517913E+02  0.13092349548E+03 -0.12973845055E+03  0.20168092435E+03  0.78500479019E+02 0.  0.
         24    2    1    2    0    0 -0.11568473733E+02 -0.20969717035E+03  0.41967658283E+02  0.22902211558E+03  0.81136380524E+02 0.  0.
        -11    1    5    5    0    0 -0.31402136819E+01 -0.97832445445E+01  0.26396376031E+02  0.28325632974E+02  0.00000000000E+00 0.  1.
         12    1    5    5    0    0 -0.84282600508E+01 -0.19991392581E+03  0.15571282251E+02  0.20069648260E+03  0.00000000000E+00 0. -1.
         11    1    4    4    0    0  0.21269748210E+02  0.86482130367E+02 -0.93351179652E+02  0.12901939313E+03  0.00000000000E+00 0. -1.
        -12    1    4    4    0    0 -0.44504266122E+02  0.44441365108E+02 -0.36387270897E+02  0.72661531219E+02  0.00000000000E+00 0.  1.
          5    1    3    3  501    0  0.53415749873E+01 -0.33421835393E+02 -0.87489853887E+02  0.93901535864E+02  0.41800000000E+01 0.  1.
         -5    1    3    3    0  501  0.29461416658E+02  0.11219551027E+03 -0.20042863239E+03  0.23161372299E+03  0.41800000000E+01 0.  1.
</event>
<event>
11    1  0.2498402E-009  0.1717519E+03  0.7561462E-02  0.1076517E+00
         22   -1    0    0    0    0  0.00000000000E+00  0.00000000000E+00  0.55603508859E+03  0.55603508859E+03  0.00000000000E+00 0. -1.
         22   -1    0    0    0    0 -0.00000000000E+00 -0.00000000000E+00 -0.15772639788E+04  0.15772639788E+04  0.00000000000E+00 0.  1.
         25    2    1    2    0    0  0.12302250352E+03  0.21374491858E+02 -0.11830988071E+04  0.11962281963E+04  0.12509078649E+03 0.  0.
         24    2    1    2    0    0 -0.11788783235E+02 -0.60025796287E+02 -0.37088226679E+03  0.38518774092E+03  0.84106291690E+02 0.  0.
        -24    2    1    2    0    0 -0.11123372028E+03  0.38651304430E+02  0.53275218365E+03  0.55188313025E+03  0.82965272336E+02 0.  0.
        -11    1    4    4    0    0 -0.11997883399E+02 -0.78017252521E+02 -0.34328512709E+03  0.35224326733E+03  0.00000000000E+00 0.  1.
         12    1    4    4    0    0  0.20910016395E+00  0.17991456234E+02 -0.27597139703E+02  0.32944473589E+02  0.00000000000E+00 0. -1.
         13    1    5    5    0    0 -0.10701933437E+03  0.39809384301E+02  0.53494344245E+03  0.54699397769E+03  0.00000000000E+00 0. -1.
        -14    1    5    5    0    0 -0.42143859101E+01 -0.11580798714E+01 -0.21912588066E+01  0.48891525590E+01  0.00000000000E+00 0.  1.
          5    1    3    3  501    0  0.70864883645E+02  0.73927566810E+02 -0.66707799293E+03  0.67490565113E+03  0.41800000000E+01 0.  1.
         -5    1    3    3    0  501  0.52157619870E+02 -0.52553074953E+02 -0.51602081417E+03  0.52132254512E+03  0.41800000000E+01 0.  1.
</event>
<event>
11    1  0.2498402E-009  0.3076205E+03  0.7561462E-02  0.9970167E-01
         22   -1    0    0    0    0  0.00000000000E+00  0.00000000000E+00  0.18880316034E+04  0.18880316034E+04  0.00000000000E+00 0.  1.
         22   -1    0    0    0    0 -0.00000000000E+00 -0.00000000000E+00 -0.77478293593E+02  0.77478293593E+02  0.00000000000E+00 0.  1.
         25    2    1    2    0    0 -0.19814429205E+03  0.20424506418E+03  0.76329479693E+03  0.82416242591E+03  0.12509016967E+03 0.  0.
        -24    2    1    2    0    0  0.94138414905E+02 -0.27569821390E+03  0.74851777183E+03  0.80707460181E+03  0.78860711620E+02 0.  0.
         24    2    1    2    0    0  0.10400587714E+03  0.71453149719E+02  0.29874074107E+03  0.33427286929E+03  0.81052733981E+02 0.  0.
        -13    1    5    5    0    0  0.10179041810E+03  0.85061348113E+02  0.28696249258E+03  0.31613951715E+03  0.00000000000E+00 0.  1.
         14    1    5    5    0    0  0.22154590451E+01 -0.13608198394E+02  0.11778248492E+02  0.18133352141E+02  0.00000000000E+00 0. -1.
         11    1    4    4    0    0  0.36220965419E+02 -0.67181646161E+02  0.11876661612E+03  0.14117663058E+03  0.00000000000E+00 0. -1.
        -12    1    4    4    0    0  0.57917449486E+02 -0.20851656774E+03  0.62975115570E+03  0.66589797123E+03  0.00000000000E+00 0.  1.
          5    1    3    3  501    0 -0.61965379389E+02 -0.32580097711E+01  0.17070489856E+03  0.18168092268E+03  0.41800000000E+01 0.  1.
         -5    1    3    3    0  501 -0.13617891266E+03  0.20750307395E+03  0.59258989836E+03  0.64248150323E+03  0.41800000000E+01 0.  1.
</event>
<event>
11    1  0.2498402E-009  0.7616674E+03  0.7561462E-02  0.8946058E-01
         22   -1    0    0    0    0  0.00000000000E+00  0.00000000000E+00  0.89524072016E+03  0.89524072016E+03  0.00000000000E+00 0.  1.
         22   -1    0    0    0    0 -0.00000000000E+00 -0.00000000000E+00 -0.16200595038E+03  0.16200595038E+03  0.00000000000E+00 0.  1.
         25    2    1    2    0    0 -0.16494593111E+03  0.21684084568E+03  0.60274358937E+02  0.30579157142E+03  0.12509346211E+03 0.  0.
         24    2    1    2    0    0  0.13496753659E+03 -0.17362848349E+03  0.41244063257E+03  0.47439002534E+03  0.81089669746E+02 0.  0.
        -24    2    1    2    0    0  0.29978394528E+02 -0.43212362189E+02  0.26051977827E+03  0.27706507377E+03  0.78284659079E+02 0.  0.
        -11    1    4    4    0    0  0.98234099976E+02 -0.16388378438E+03  0.37587592775E+03  0.42165216262E+03  0.00000000000E+00 0.  1.
         12    1    4    4    0    0  0.36733436611E+02 -0.97446991099E+01  0.36564704818E+02  0.52737862721E+02  0.00000000000E+00 0. -1.
         11    1    5    5    0    0  0.31074807523E+02 -0.44940665800E+02  0.26582324289E+03  0.27138036694E+03  0.00000000000E+00 0. -1.
        -12    1    5    5    0    0 -0.10964129948E+01  0.17283036116E+01 -0.53034646104E+01  0.56847068264E+01  0.00000000000E+00 0.  1.
          5    1    3    3  501    0 -0.13619959331E+03  0.20272079646E+03  0.80589293412E+01  0.24439408601E+03  0.41800000000E+01 0.  1.
         -5    1    3    3    0  501 -0.28746337803E+02  0.14120049217E+02  0.52215429596E+02  0.61397485411E+02  0.41800000000E+01 0.  1.
</event>
<event>
11    1  0.2498402E-009  0.3356990E+03  0.7561462E-02  0.9861208E-01
         22   -1    0    0    0    0  0.00000000000E+00  0.00000000000E+00  0.27786499599E+03  0.27786499599E+03  0.00000000000E+00 0.  1.
         22   -1    0    0    0    0 -0.00000000000E+00 -0.00000000000E+00 -0.58580630332E+03  0.58580630332E+03  0.00000000000E+00 0.  1.
         25    2    1    2    0    0 -0.13436720950E+03  0.32692617927E+03 -0.19106487109E+03  0.42083012396E+03  0.12512767312E+03 0.  0.
        -24    2    1    2    0    0  0.16272616564E+03 -0.23988354532E+03 -0.47947469882E+02  0.30466482909E+03  0.80608795543E+02 0.  0.
         24    2    1    2    0    0 -0.28358956142E+02 -0.87042633954E+02 -0.68928966361E+02  0.13817634626E+03  0.77206539512E+02 0.  0.
        -13    1    5    5    0    0 -0.13774152464E+02  0.85275554523E+01  0.44561688020E+01  0.16801902228E+02  0.00000000000E+00 0.  1.
         14    1    5    5    0    0 -0.14584803678E+02 -0.95570189407E+02 -0.73385135163E+02  0.12137444403E+03  0.00000000000E+00 0. -1.
         11    1    4    4    0    0  0.65539922184E+02 -0.47398046667E+02 -0.36485943346E+02  0.88731506747E+02  0.00000000000E+00 0. -1.
        -12    1    4    4    0    0  0.97186243456E+02 -0.19248549865E+03 -0.11461526536E+02  0.21593332234E+03  0.00000000000E+00 0.  1.
          5    1    3    3  501    0 -0.45872448757E+02  0.22100226007E+03 -0.16664933917E+03  0.28059892223E+03  0.41800000000E+01 0. -1.
         -5    1    3    3    0  501 -0.88494760741E+02  0.10592391921E+03 -0.24415531923E+02  0.14023120173E+03  0.41800000000E+01 0. -1.
</event>
<event>
11    1  0.2498402E-009  0.5294066E+03  0.7561462E-02  0.9330110E-01
         22   -1    0    0    0    0  0.00000000000E+00  0.00000000000E+00  0.21006546075E+03  0.21006546075E+03  0.00000000000E+00 0.  1.
         22   -1    0    0    0    0 -0.00000000000E+00 -0.00000000000E+00 -0.12419668772E+04  0.12419668772E+04  0.00000000000E+00 0.  1.
         25    2    1    2    0    0  0.24729052853E+03  0.25166327554E+02 -0.29644635337E+03  0.40658804261E+03  0.12508975349E+03 0.  0.
        -24    2    1    2    0    0 -0.45978195999E+03  0.19026017366E+02 -0.64850065886E+03  0.79837528623E+03  0.71334094669E+02 0.  0.
         24    2    1    2    0    0  0.21249143146E+03 -0.44192344921E+02 -0.86954404269E+02  0.24706900914E+03  0.79852708554E+02 0.  0.
        -13    1    5    5    0    0  0.15663095148E+03 -0.49770250012E+02 -0.95810231460E+02  0.19023651910E+03  0.00000000000E+00 0.  1.
         14    1    5    5    0    0  0.55860479985E+02  0.55779050917E+01  0.88558271917E+01  0.56832490044E+02  0.00000000000E+00 0. -1.
         13    1    4    4    0    0 -0.71957781112E+02 -0.66205727058E+01 -0.14785048223E+03  0.16456463575E+03  0.00000000000E+00 0. -1.
        -14    1    4    4    0    0 -0.38782417888E+03  0.25646590072E+02 -0.50065017663E+03  0.63381065048E+03  0.00000000000E+00 0.  1.
          5    1    3    3  501    0  0.46619373595E+02  0.35809678101E+02 -0.15130406828E+02  0.60844890097E+02  0.41800000000E+01 0. -1.
         -5    1    3    3    0  501  0.20067115493E+03 -0.10643350547E+02 -0.28131594654E+03  0.34574315251E+03  0.41800000000E+01 0. -1.
</event>
<event>
11    1  0.2498402E-009  0.1849426E+03  0.7561462E-02  0.1065714E+00
         22   -1    0    0    0    0  0.00000000000E+00  0.00000000000E+00  0.11072878384E+04  0.11072878384E+04  0.00000000000E+00 0.  1.
         22   -1    0    0    0    0 -0.00000000000E+00 -0.00000000000E+00 -0.76343676946E+02  0.76343676946E+02  0.00000000000E+00 0.  1.
         25    2    1    2    0    0  0.26421232395E+02  0.12349678006E+03  0.21693099286E+03  0.28046380427E+03  0.12510537014E+03 0.  0.
        -24    2    1    2    0    0 -0.15912351883E+03  0.11509374898E+02  0.31232395615E+03  0.36066437392E+03  0.84141411183E+02 0.  0.
         24    2    1    2    0    0  0.13270228644E+03 -0.13500615496E+03  0.50168921241E+03  0.54250333712E+03  0.82348322582E+02 0.  0.
        -13    1    5    5    0    0  0.12224654495E+03 -0.91886376261E+02  0.30901383773E+03  0.34478526042E+03  0.00000000000E+00 0.  1.
         14    1    5    5    0    0  0.10455741491E+02 -0.43119778695E+02  0.19267537468E+03  0.19771807669E+03  0.00000000000E+00 0. -1.
         11    1    4    4    0    0 -0.24801598110E+00 -0.15498145560E+02  0.11180466334E+02  0.19111694199E+02  0.00000000000E+00 0. -1.
        -12    1    4    4    0    0 -0.15887550285E+03  0.27007520458E+02  0.30114348982E+03  0.34155267972E+03  0.00000000000E+00 0.  1.
          5    1    3    3  501    0  0.12812853826E+02  0.12425111114E+03  0.93175381066E+02  0.15588980685E+03  0.41800000000E+01 0.  1.
         -5    1    3    3    0  501  0.13608378569E+02 -0.75433108786E+00  0.12375561179E+03  0.12457399742E+03  0.41800000000E+01 0.  1.
</event>
<event>
11    1  0.2498402E-009  0.1583207E+03  0.7561462E-02  0.1088667E+00
         22   -1    0    0    0    0  0.00000000000E+00  0.00000000000E+00  0.39235375410E+03  0.39235375410E+03  0.00000000000E+00 0.  1.
         22   -1    0    0    0    0 -0.00000000000E+00 -0.00000000000E+00 -0.11603202361E+03  0.11603202361E+03  0.00000000000E+00 0. -1.
         25    2    1    2    0    0  0.72943263004E+02  0.43397881009E+02  0.29793356643E+02  0.15407714767E+03  0.12509207664E+03 0.  0.
        -24    2    1    2    0    0 -0.12691261560E+03 -0.95751245458E+01  0.13866568797E+03  0.20509971062E+03  0.81481428988E+02 0.  0.
         24    2    1    2    0    0  0.53969352591E+02 -0.33822756464E+02  0.10786268588E+03  0.14920891942E+03  0.81069555044E+02 0.  0.
        -13    1    5    5    0    0  0.49720068522E+02 -0.33208367479E+02  0.12122813594E+03  0.13517078763E+03  0.00000000000E+00 0.  1.
         14    1    5    5    0    0  0.42492840688E+01 -0.61438898442E+00 -0.13365450059E+02  0.14038131791E+02  0.00000000000E+00 0. -1.
         11    1    4    4    0    0 -0.25445725839E+02  0.14717309378E+02 -0.25683185421E+01  0.29507294334E+02  0.00000000000E+00 0. -1.
        -12    1    4    4    0    0 -0.10146688976E+03 -0.24292433923E+02  0.14123400651E+03  0.17559241629E+03  0.00000000000E+00 0.  1.
          5    1    3    3  501    0 -0.13535559585E+02  0.58337704980E+02  0.27894711053E+02  0.66197330009E+02  0.41800000000E+01 0. -1.
         -5    1    3    3    0  501  0.86478822588E+02 -0.14939823970E+02  0.18986455895E+01  0.87879817658E+02  0.41800000000E+01 0. -1.
</event>
<event>
11    1  0.2498402E-009  0.3277075E+03  0.7561462E-02  0.9891019E-01
         22   -1    0    0    0    0  0.00000000000E+00  0.00000000000E+00  0.85056575971E+03  0.85056575971E+03  0.00000000000E+00 0.  1.
         22   -1    0    0    0    0 -0.00000000000E+00 -0.00000000000E+00 -0.28988664386E+04  0.28988664386E+04  0.00000000000E+00 0. -1.
         25    2    1    2    0    0  0.60540490542E+02  0.19914190008E+03 -0.27526483010E+04  0.27633392696E+04  0.12509437389E+03 0.  0.
         24    2    1    2    0    0  0.70901735829E+02 -0.40961627633E+03  0.49895483916E+03  0.65400843273E+03  0.77191635448E+02 0.  0.
        -24    2    1    2    0    0 -0.13144222637E+03  0.21047437625E+03  0.20539278296E+03  0.33208449600E+03  0.80730386219E+02 0.  0.
        -13    1    4    4    0    0  0.77710499210E+01 -0.25495938779E+03  0.28307154072E+03  0.38104353531E+03  0.00000000000E+00 0.  1.
         14    1    4    4    0    0  0.63130685908E+02 -0.15465688854E+03  0.21588329844E+03  0.27296489742E+03  0.00000000000E+00 0. -1.
         13    1    5    5    0    0 -0.68928009038E+02  0.17202846266E+03  0.12678503320E+03  0.22454243929E+03  0.00000000000E+00 0. -1.
        -14    1    5    5    0    0 -0.62514217333E+02  0.38445913592E+02  0.78607749759E+02  0.10754205672E+03  0.00000000000E+00 0.  1.
          5    1    3    3  501    0  0.10614716904E+00  0.91941659043E+01 -0.13080245465E+02  0.16526015107E+02  0.41800000000E+01 0.  1.
         -5    1    3    3    0  501  0.60434343373E+02  0.18994773417E+03 -0.27395680555E+04  0.27468132545E+04  0.41800000000E+01 0.  1.
</event>
<event>
11    1  0.2498402E-009  0.2327245E+03  0.7561462E-02  0.1033527E+00
         22   -1    0    0    0    0  0.00000000000E+00  0.00000000000E+00  0.35582347007E+02  0.35582347007E+02  0.00000000000E+00 0.  1.
         22   -1    0    0    0    0 -0.00000000000E+00 -0.00000000000E+00 -0.22614371339E+04  0.22614371339E+04  0.00000000000E+00 0.  1.
         25    2    1    2    0    0 -0.16629574280E+03  0.84924357893E+02 -0.11975957885E+04  0.12185035808E+04  0.12509549608E+03 0.  0.
         24    2    1    2    0    0  0.19757142524E+03 -0.71998399846E+02 -0.85971659520E+03  0.88863312735E+03  0.79611389311E+02 0.  0.
        -24    2    1    2    0    0 -0.31275682444E+02 -0.12925958048E+02 -0.16854240326E+03  0.18988277283E+03  0.80645378151E+02 0.  0.
        -13    1    4    4    0    0  0.10287187490E+03 -0.79244316159E+02 -0.50174853461E+03  0.51827972783E+03  0.00000000000E+00 0.  1.
         14    1    4    4    0    0  0.94699550342E+02  0.72459163138E+01 -0.35796806059E+03  0.37035339952E+03  0.00000000000E+00 0. -1.
         11    1    5    5    0    0 -0.39642895866E+02  0.11815669222E+02 -0.15507396400E+03  0.16049642844E+03  0.00000000000E+00 0. -1.
        -12    1    5    5    0    0  0.83672134223E+01 -0.24741627270E+02 -0.13468439260E+02  0.29386344389E+02  0.00000000000E+00 0.  1.
          5    1    3    3  501    0 -0.50253149479E+02  0.93185444441E+02 -0.48271544523E+03  0.49420702095E+03  0.41800000000E+01 0. -1.
         -5    1    3    3    0  501 -0.11604259332E+03 -0.82610865479E+01 -0.71488034324E+03  0.72429655982E+03  0.41800000000E+01 0. -1.
</event>
<event>
11    1  0.2498402E-009  0.2471232E+03  0.7561462E-02  0.1025443E+00
         22   -1    0    0    0    0  0.00000000000E+00  0.00000000000E+00  0.18339513213E+03  0.18339513213E+03  0.00000000000E+00 0.  1.
         22   -1    0    0    0    0 -0.00000000000E+00 -0.00000000000E+00 -0.87318401967E+03  0.87318401967E+03  0.00000000000E+00 0.  1.
         25    2    1    2    0    0 -0.17076686129E+03 -0.62287958039E+01 -0.50572486965E+03  0.54827455082E+03  0.12508885036E+03 0.  0.
        -24    2    1    2    0    0  0.52617790826E+01  0.17299436935E+03 -0.17675161712E+03  0.26002878175E+03  0.80119255107E+02 0.  0.
         24    2    1    2    0    0  0.16550508220E+03 -0.16676557355E+03 -0.73124007721E+01  0.24827581923E+03  0.79904458265E+02 0.  0.
        -11    1    5    5    0    0  0.17240731567E+03 -0.14593217166E+03 -0.10379694744E+02  0.22611549988E+03  0.00000000000E+00 0.  1.
         12    1    5    5    0    0 -0.69022334701E+01 -0.20833401890E+02  0.30672939723E+01  0.22160319345E+02  0.00000000000E+00 0. -1.
         11    1    4    4    0    0  0.93124629040E+01 -0.56464479769E+01 -0.43349811040E+01  0.11721621102E+02  0.00000000000E+00 0. -1.
        -12    1    4    4    0    0 -0.40506838214E+01  0.17864081733E+03 -0.17241663602E+03  0.24830716065E+03  0.00000000000E+00 0.  1.
          5    1    3    3  501    0 -0.10762596644E+03  0.36817848441E+02 -0.17464443280E+03  0.20846355299E+03  0.41800000000E+01 0. -1.
         -5    1    3    3    0  501 -0.63140894843E+02 -0.43046644245E+02 -0.33108043685E+03  0.33981099783E+03  0.41800000000E+01 0. -1.
</event>
<event>
11    1  0.2498402E-009  0.2125936E+03  0.7561462E-02  0.1045959E+00
         22   -1    0    0    0    0  0.00000000000E+00  0.00000000000E+00  0.23389186661E+03  0.23389186661E+03  0.00000000000E+00 0. -1.
         22   -1    0    0    0    0 -0.00000000000E+00 -0.00000000000E+00 -0.48429136856E+03  0.48429136856E+03  0.00000000000E+00 0. -1.
         25    2    1    2    0    0 -0.61705063507E+02 -0.15174132146E+03 -0.31753509669E+03  0.37855212977E+03  0.12506092045E+03 0.  0.
        -24    2    1    2    0    0  0.12027390285E+03  0.16767449128E+03  0.56583428008E+01  0.22115595653E+03  0.79356118447E+02 0.  0.
         24    2    1    2    0    0 -0.58568839338E+02 -0.15933169826E+02  0.61477251947E+02  0.11847514886E+03  0.81072396958E+02 0.  0.
        -11    1    5    5    0    0 -0.56672312122E+02 -0.44591343109E+02  0.48854653471E+02  0.87102904700E+02  0.00000000000E+00 0.  1.
         12    1    5    5    0    0 -0.18965272160E+01  0.28658173283E+02  0.12622598477E+02  0.31372244161E+02  0.00000000000E+00 0. -1.
         11    1    4    4    0    0  0.12562194198E+03  0.12214730080E+03  0.30886664801E+01  0.17524375955E+03  0.00000000000E+00 0. -1.
        -12    1    4    4    0    0 -0.53480391364E+01  0.45527190478E+02  0.25696763206E+01  0.45912196983E+02  0.00000000000E+00 0.  1.
          5    1    3    3  501    0  0.22163341334E+02  0.35471287059E+01 -0.76151398812E+02  0.79500338126E+02  0.41800000000E+01 0. -1.
         -5    1    3    3    0  501 -0.83868404841E+02 -0.15528845016E+03 -0.24138369788E+03  0.29905179165E+03  0.41800000000E+01 0. -1.
</event>
<event>
11    1  0.2498402E-009  0.2923205E+03  0.7561462E-02  0.1003495E+00
         22   -1    0    0    0    0  0.00000000000E+00  0.00000000000E+00  0.98349592047E+03  0.98349592047E+03  0.00000000000E+00 0. -1.
         22   -1    0    0    0    0 -0.00000000000E+00 -0.00000000000E+00 -0.17468317129E+03  0.17468317129E+03  0.00000000000E+00 0.  1.
         25    2    1    2    0    0 -0.10193130120E+02  0.23423667253E+03  0.10326160388E+03  0.28509901835E+03  0.12509105790E+03 0.  0.
         24    2    1    2    0    0 -0.65693943852E+02 -0.33216642829E+03  0.37918323830E+03  0.51484712725E+03  0.81470276095E+02 0.  0.
        -24    2    1    2    0    0  0.75887073972E+02  0.97929755757E+02  0.32636790701E+03  0.35823294616E+03  0.80409874568E+02 0.  0.
        -13    1    4    4    0    0 -0.46417733664E+02 -0.71391157190E+02  0.72642583846E+02  0.11192965787E+03  0.00000000000E+00 0.  1.
         14    1    4    4    0    0 -0.19276210188E+02 -0.26077527110E+03  0.30654065445E+03  0.40291746938E+03  0.00000000000E+00 0. -1.
         11    1    5    5    0    0 -0.92342143550E+01  0.26749275093E+02  0.12653026896E+03  0.12965609664E+03  0.00000000000E+00 0. -1.
        -12    1    5    5    0    0  0.85121288327E+02  0.71180480664E+02  0.19983763805E+03  0.22857684951E+03  0.00000000000E+00 0.  1.
          5    1    3    3  501    0 -0.51183946178E+02  0.13031285519E+03  0.11626643374E+02  0.14054852475E+03  0.41800000000E+01 0. -1.
         -5    1    3    3    0  501  0.40990816058E+02  0.10392381735E+03  0.91634960502E+02  0.14455049360E+03  0.41800000000E+01 0. -1.
</event>
<event>
11    1  0.2498402E-009  0.1434635E+03  0.7561462E-02  0.1103751E+00
         22   -1    0    0    0    0  0.00000000000E+00  0.00000000000E+00  0.98790951752E+03  0.98790951752E+03  0.00000000000E+00 0. -1.
         22   -1    0    0    0    0 -0.00000000000E+00 -0.00000000000E+00 -0.51060980808E+03  0.51060980808E+03  0.00000000000E+00 0.  1.
         25    2    1    2    0    0 -0.12012047622E+02  0.92257946389E+02 -0.31139722197E+03  0.34824121764E+03  0.12509155789E+03 0.  0.
         24    2    1    2    0    0 -0.14046452634E+02 -0.54420684964E+02 -0.16544630442E+03  0.19171306169E+03  0.78882853612E+02 0.  0.
        -24    2    1    2    0    0  0.26058500257E+02 -0.37837261425E+02  0.95414323583E+03  0.95856504627E+03  0.79667619920E+02 0.  0.
        -11    1    4    4    0    0 -0.24929352207E+02 -0.22795047537E+02 -0.15192899441E+03  0.15563902510E+03  0.00000000000E+00 0.  1.
         12    1    4    4    0    0  0.10882899573E+02 -0.31625637427E+02 -0.13517310010E+02  0.36074036587E+02  0.00000000000E+00 0. -1.
         11    1    5    5    0    0 -0.17166304416E+02  0.14742252951E+02  0.17556578571E+03  0.17701796841E+03  0.00000000000E+00 0. -1.
        -12    1    5    5    0    0  0.43224804673E+02 -0.52579514376E+02  0.77857745012E+03  0.78154707786E+03  0.00000000000E+00 0.  1.
          5    1    3    3  501    0 -0.66929283576E+02  0.59160074521E+02 -0.20934206187E+03  0.22764229547E+03  0.41800000000E+01 0. -1.
         -5    1    3    3    0  501  0.54917235954E+02  0.33097871868E+02 -0.10205516010E+03  0.12059892218E+03  0.41800000000E+01 0. -1.
</event>
<event>
11    1  0.2498402E-009  0.1378221E+03  0.7561462E-02  0.1110015E+00
         22   -1    0    0    0    0  0.00000000000E+00  0.00000000000E+00  0.44153699114E+03  0.44153699114E+03  0.00000000000E+00 0. -1.
         22   -1    0    0    0    0 -0.00000000000E+00 -0.00000000000E+00 -0.17453453027E+03  0.17453453027E+03  0.00000000000E+00 0.  1.
         25    2    1    2    0    0  0.23855392045E+02  0.71701532722E+02 -0.83310490924E+02  0.16822157757E+03  0.12509065408E+03 0.  0.
        -24    2    1    2    0    0 -0.17110535900E+02 -0.36323729411E+02 -0.72058245537E+00  0.86492030615E+02  0.76603970939E+02 0.  0.
         24    2    1    2    0    0 -0.67448561456E+01 -0.35377803311E+02  0.35103353425E+03  0.36135791322E+03  0.77832623181E+02 0.  0.
        -13    1    5    5    0    0  0.26633112503E+02 -0.32035675238E+02  0.10362957262E+03  0.11169017634E+03  0.00000000000E+00 0.  1.
         14    1    5    5    0    0 -0.33377968649E+02 -0.33421280735E+01  0.24740396163E+03  0.24966773688E+03  0.00000000000E+00 0. -1.
         11    1    4    4    0    0 -0.26066483047E+02  0.14226507676E+02  0.14359408442E+02  0.32985567600E+02  0.00000000000E+00 0. -1.
        -12    1    4    4    0    0  0.89559471479E+01 -0.50550237087E+02 -0.15079990897E+02  0.53506463014E+02  0.00000000000E+00 0.  1.
          5    1    3    3  501    0 -0.44426268535E+02  0.10272091347E+01 -0.42821686171E+02  0.61854003113E+02  0.41800000000E+01 0. -1.
         -5    1    3    3    0  501  0.68281660581E+02  0.70674323587E+02 -0.40488804752E+02  0.10636757446E+03  0.41800000000E+01 0. -1.
</event>
<event>
11    1  0.2498402E-009  0.1462810E+03  0.7561462E-02  0.1100741E+00
         22   -1    0    0    0    0  0.00000000000E+00  0.00000000000E+00  0.14144951238E+03  0.14144951238E+03  0.00000000000E+00 0. -1.
         22   -1    0    0    0    0 -0.00000000000E+00 -0.00000000000E+00 -0.23131914507E+03  0.23131914507E+03  0.00000000000E+00 0. -1.
         25    2    1    2    0    0  0.49454748837E+02 -0.71897701476E+02 -0.45556468280E+02  0.15918024533E+03  0.12509159460E+03 0.  0.
        -24    2    1    2    0    0 -0.71242891182E+02  0.24533307673E+02 -0.52482939371E+02  0.11674692579E+03  0.72096830904E+02 0.  0.
         24    2    1    2    0    0  0.21788142345E+02  0.47364393803E+02  0.81697749619E+01  0.96841486330E+02  0.81199872565E+02 0.  0.
        -13    1    5    5    0    0  0.32592860507E+01 -0.22230105674E+02  0.10466475572E+02  0.24786037496E+02  0.00000000000E+00 0.  1.
         14    1    5    5    0    0  0.18528856294E+02  0.69594499477E+02 -0.22967006098E+01  0.72055448834E+02  0.00000000000E+00 0. -1.
         11    1    4    4    0    0 -0.69388062203E+02 -0.94498866336E+01 -0.38858490827E+02  0.80087363816E+02  0.00000000000E+00 0. -1.
        -12    1    4    4    0    0 -0.18548289792E+01  0.33983194306E+02 -0.13624448544E+02  0.36659561971E+02  0.00000000000E+00 0.  1.
          5    1    3    3  501    0 -0.19085324110E+02 -0.80903191484E+02 -0.26626287503E+02  0.87384252442E+02  0.41800000000E+01 0.  1.
         -5    1    3    3    0  501  0.68540072947E+02  0.90054900089E+01 -0.18930180777E+02  0.71795992884E+02  0.41800000000E+01 0.  1.
</event>
<event>
11    1  0.2498402E-009  0.1802403E+03  0.7561462E-02  0.1069449E+00
         22   -1    0    0    0    0  0.00000000000E+00  0.00000000000E+00  0.13099277711E+04  0.13099277711E+04  0.00000000000E+00 0.  1.
         22   -1    0    0    0    0 -0.00000000000E+00 -0.00000000000E+00 -0.22837920590E+03  0.22837920590E+03  0.00000000000E+00 0. -1.
         25    2    1    2    0    0  0.10739574030E+03 -0.91461539515E+02 -0.14502588139E+03  0.23787703985E+03  0.12511563279E+03 0.  0.
         24    2    1    2    0    0 -0.10812897368E+03  0.17500761697E+02  0.10051372183E+03  0.16909470831E+03  0.80572082598E+02 0.  0.
        -24    2    1    2    0    0  0.73323337424E+00  0.73960777818E+02  0.11260607248E+04  0.11313352289E+04  0.80224122773E+02 0.  0.
        -11    1    4    4    0    0 -0.39455645976E+02 -0.12008318949E+02 -0.30727060354E+01  0.41356852464E+02  0.00000000000E+00 0.  1.
         12    1    4    4    0    0 -0.68673327700E+02  0.29509080646E+02  0.10358642787E+03  0.12773785585E+03  0.00000000000E+00 0. -1.
         13    1    5    5    0    0  0.14679119702E+02  0.75379619837E+01  0.41608351578E+02  0.44761058378E+02  0.00000000000E+00 0. -1.
        -14    1    5    5    0    0 -0.13945886327E+02  0.66422815834E+02  0.10844523732E+04  0.10865741705E+04  0.00000000000E+00 0.  1.
          5    1    3    3  501    0  0.75639240730E+02 -0.12231486413E+03 -0.10595389752E+03  0.17867826259E+03  0.41800000000E+01 0. -1.
         -5    1    3    3    0  501  0.31756499572E+02  0.30853324613E+02 -0.39071983874E+02  0.59198777256E+02  0.41800000000E+01 0. -1.
</event>
<event>
11    1  0.2498402E-009  0.1389410E+03  0.7561462E-02  0.1108747E+00
         22   -1    0    0    0    0  0.00000000000E+00  0.00000000000E+00  0.10705972591E+03  0.10705972591E+03  0.00000000000E+00 0. -1.
         22   -1    0    0    0    0 -0.00000000000E+00 -0.00000000000E+00 -0.11350798740E+04  0.11350798740E+04  0.00000000000E+00 0.  1.
         25    2    1    2    0    0  0.36542290955E+02 -0.66956077418E+01 -0.67686762324E+03  0.68932727941E+03  0.12506857541E+03 0.  0.
         24    2    1    2    0    0 -0.81444409570E+02  0.67214687435E+02 -0.40874481709E+03  0.43006122872E+03  0.82032486801E+02 0.  0.
        -24    2    1    2    0    0  0.44902118615E+02 -0.60519079694E+02  0.57592292284E+02  0.12275109175E+03  0.77924316694E+02 0.  0.
        -13    1    4    4    0    0 -0.73389260107E+02  0.27756582542E+02 -0.16142231583E+03  0.17948140690E+03  0.00000000000E+00 0.  1.
         14    1    4    4    0    0 -0.80551494630E+01  0.39458104893E+02 -0.24732250126E+03  0.25057982182E+03  0.00000000000E+00 0. -1.
         13    1    5    5    0    0  0.52651790762E+02 -0.65555809903E+02  0.68500876483E+02  0.10845342485E+03  0.00000000000E+00 0. -1.
        -14    1    5    5    0    0 -0.77496721473E+01  0.50367302098E+01 -0.10908584199E+02  0.14297666901E+02  0.00000000000E+00 0.  1.
          5    1    3    3  501    0 -0.97575524190E+01  0.51295018424E+02 -0.36417595654E+03  0.36792388950E+03  0.41800000000E+01 0.  1.
         -5    1    3    3    0  501  0.46299843374E+02 -0.57990626166E+02 -0.31269166670E+03  0.32140338991E+03  0.41800000000E+01 0.  1.
</event>
<event>
11    1  0.2498402E-009  0.1652831E+03  0.7561462E-02  0.1082211E+00
         22   -1    0    0    0    0  0.00000000000E+00  0.00000000000E+00  0.46525990023E+03  0.46525990023E+03  0.00000000000E+00 0. -1.
         22   -1    0    0    0    0 -0.00000000000E+00 -0.00000000000E+00 -0.29515087156E+03  0.29515087156E+03  0.00000000000E+00 0. -1.
         25    2    1    2    0    0 -0.28560019882E+02 -0.10313655718E+03 -0.10883741961E+03  0.19737410579E+03  0.12513244810E+03 0.  0.
         24    2    1    2    0    0  0.10471539011E+02  0.10892783789E+03 -0.10373053358E+03  0.17131060012E+03  0.81316487388E+02 0.  0.
        -24    2    1    2    0    0  0.18088480871E+02 -0.57912807064E+01  0.38267698186E+03  0.39172606588E+03  0.81528560441E+02 0.  0.
        -11    1    4    4    0    0  0.44402593859E+02  0.42543620586E+02 -0.52444174503E+02  0.80820427079E+02  0.00000000000E+00 0.  1.
         12    1    4    4    0    0 -0.33931054848E+02  0.66384217303E+02 -0.51286359076E+02  0.90490173043E+02  0.00000000000E+00 0. -1.
         11    1    5    5    0    0  0.16062365501E+02 -0.42585057316E+02  0.24564932203E+03  0.24983009447E+03  0.00000000000E+00 0. -1.
        -12    1    5    5    0    0  0.20261153708E+01  0.36793776609E+02  0.13702765984E+03  0.14189597140E+03  0.00000000000E+00 0.  1.
          5    1    3    3  501    0 -0.66037215352E+02 -0.36738551434E+02 -0.16335714786E+02  0.77427146083E+02  0.41800000000E+01 0. -1.
         -5    1    3    3    0  501  0.37477195470E+02 -0.66398005748E+02 -0.92501704826E+02  0.11994695971E+03  0.41800000000E+01 0. -1.
</event>
<event>
11    1  0.2498402E-009  0.1404651E+03  0.7561462E-02  0.1107040E+00
         22   -1    0    0    0    0  0.00000000000E+00  0.00000000000E+00  0.35116448004E+03  0.35116448004E+03  0.00000000000E+00 0.  1.
         22   -1    0    0    0    0 -0.00000000000E+00 -0.00000000000E+00 -0.10792806819E+03  0.10792806819E+03  0.00000000000E+00 0.  1.
         25    2    1    2    0    0 -0.94489589971E+01 -0.89860852265E+02  0.51298106013E+02  0.16261657159E+03  0.12509355731E+03 0.  0.
        -24    2    1    2    0    0  0.33259676621E+02  0.41919486326E+02  0.18482421454E+02  0.98438138691E+02  0.80529608364E+02 0.  0.
         24    2    1    2    0    0 -0.23810717624E+02  0.47941365940E+02  0.17345588439E+03  0.19803783795E+03  0.79162595883E+02 0.  0.
        -11    1    5    5    0    0 -0.44485684791E+02  0.35712613346E+02  0.16135212051E+03  0.17113992432E+03  0.00000000000E+00 0.  1.
         12    1    5    5    0    0  0.20674967168E+02  0.12228752594E+02  0.12103763881E+02  0.26897913627E+02  0.00000000000E+00 0. -1.
         13    1    4    4    0    0  0.55550061074E+00  0.41775861386E+01  0.42719817087E+02  0.42927189272E+02  0.00000000000E+00 0. -1.
        -14    1    4    4    0    0  0.32704176010E+02  0.37741900187E+02 -0.24237395633E+02  0.55510949418E+02  0.00000000000E+00 0.  1.
          5    1    3    3  501    0 -0.21205851122E+02 -0.78086031037E+02  0.89507703511E+02  0.12073200799E+03  0.41800000000E+01 0.  1.
         -5    1    3    3    0  501  0.11756892125E+02 -0.11774821228E+02 -0.38209597497E+02  0.41884563604E+02  0.41800000000E+01 0.  1.
</event>
<event>
11    1  0.2498402E-009  0.1527143E+03  0.7561462E-02  0.1094137E+00
         22   -1    0    0    0    0  0.00000000000E+00  0.00000000000E+00  0.34112802588E+03  0.34112802588E+03  0.00000000000E+00 0. -1.
         22   -1    0    0    0    0 -0.00000000000E+00 -0.00000000000E+00 -0.70446367271E+03  0.70446367271E+03  0.00000000000E+00 0.  1.
         25    2    1    2    0    0  0.81466476701E+02  0.32942095760E+02 -0.66435204676E+03  0.68171350725E+03  0.12509074882E+03 0.  0.
        -24    2    1    2    0    0 -0.80808593880E+02 -0.14367945260E+02  0.21512650398E+03  0.24440445621E+03  0.81961325053E+02 0.  0.
         24    2    1    2    0    0 -0.65788282035E+00 -0.18574150500E+02  0.85889895943E+02  0.11947373512E+03  0.80941134677E+02 0.  0.
        -13    1    5    5    0    0 -0.31068635709E+02  0.15491248572E+02  0.22580977852E+02  0.41414242332E+02  0.00000000000E+00 0.  1.
         14    1    5    5    0    0  0.30410752888E+02 -0.34065399072E+02  0.63308918091E+02  0.78059492793E+02  0.00000000000E+00 0. -1.
         11    1    4    4    0    0 -0.53111069253E+02  0.31269961025E+02  0.13091093109E+03  0.14469370414E+03  0.00000000000E+00 0. -1.
        -12    1    4    4    0    0 -0.27697524628E+02 -0.45637906285E+02  0.84215572888E+02  0.99710752065E+02  0.00000000000E+00 0.  1.
          5    1    3    3  501    0  0.29723717896E+02 -0.23377826520E+02 -0.51159348414E+02  0.63755576293E+02  0.41800000000E+01 0. -1.
         -5    1    3    3    0  501  0.51742758805E+02  0.56319922279E+02 -0.61319269834E+03  0.61795793096E+03  0.41800000000E+01 0. -1.
</event>
<event>
11    1  0.2498402E-009  0.1821366E+03  0.7561462E-02  0.1067928E+00
         22   -1    0    0    0    0  0.00000000000E+00  0.00000000000E+00  0.23744063828E+03  0.23744063828E+03  0.00000000000E+00 0.  1.
         22   -1    0    0    0    0 -0.00000000000E+00 -0.00000000000E+00 -0.26498997206E+03  0.26498997206E+03  0.00000000000E+00 0. -1.
         25    2    1    2    0    0 -0.89165126590E+02  0.50173838695E+02 -0.58912279309E+02  0.17200233156E+03  0.12508521703E+03 0.  0.
        -24    2    1    2    0    0  0.12974442347E+03 -0.13214236242E+03 -0.17201882637E+02  0.20257823534E+03  0.80292074948E+02 0.  0.
         24    2    1    2    0    0 -0.40579296883E+02  0.81968523720E+02  0.48564828167E+02  0.12785004344E+03  0.74977148895E+02 0.  0.
        -13    1    5    5    0    0 -0.54653173691E+02  0.29433752479E+02  0.36938004458E+02  0.72233865692E+02  0.00000000000E+00 0.  1.
         14    1    5    5    0    0  0.14073876808E+02  0.52534771241E+02  0.11626823709E+02  0.55616177748E+02  0.00000000000E+00 0. -1.
         13    1    4    4    0    0  0.14785592584E+02 -0.36638580567E+02 -0.34076252006E+02  0.52174613413E+02  0.00000000000E+00 0. -1.
        -14    1    4    4    0    0  0.11495883089E+03 -0.95503781848E+02  0.16874369369E+02  0.15040362193E+03  0.00000000000E+00 0.  1.
          5    1    3    3  501    0 -0.27972236749E+02  0.63969990193E+02 -0.79463236357E+02  0.10586068206E+03  0.41800000000E+01 0. -1.
         -5    1    3    3    0  501 -0.61192889841E+02 -0.13796151498E+02  0.20550957048E+02  0.66141649502E+02  0.41800000000E+01 0. -1.
</event>
<event>
11    1  0.3239046E-009  0.8472011E+03  0.7561462E-02  0.8839697E-01
         22   -1    0    0    0    0  0.00000000000E+00  0.00000000000E+00  0.45718178388E+03  0.45718178388E+03  0.00000000000E+00 0. -1.
         22   -1    0    0    0    0 -0.00000000000E+00 -0.00000000000E+00 -0.25270267250E+04  0.25270267250E+04  0.00000000000E+00 0. -1.
         25    2    1    2    0    0 -0.83095403984E+03 -0.14815961168E+03 -0.18450306250E+04  0.20327861590E+04  0.12508266879E+03 0.  0.
         24    2    1    2    0    0  0.80505188853E+03  0.12991611270E+03 -0.14465925883E+03  0.83350408849E+03  0.93893688805E+02 0.  0.
        -24    2    1    2    0    0  0.25902151308E+02  0.18243498973E+02 -0.80155057316E+02  0.11791826146E+03  0.80474446104E+02 0.  0.
        -11    1    4    4    0    0  0.10863232536E+03  0.30731817773E+02  0.97294278476E+01  0.11331411431E+03  0.00000000000E+00 0.  1.
         12    1    4    4    0    0  0.69641956317E+03  0.99184294929E+02 -0.15438868668E+03  0.72018997418E+03  0.00000000000E+00 0. -1.
         11    1    5    5    0    0  0.53904134808E+02  0.13345103607E+02 -0.65707545215E+02  0.86030396011E+02  0.00000000000E+00 0. -1.
        -12    1    5    5    0    0 -0.28001983500E+02  0.48983953669E+01 -0.14447512101E+02  0.31887865451E+02  0.00000000000E+00 0.  1.
          5    1    3    3  501    0 -0.81519192689E+03 -0.13854000505E+03 -0.18315082527E+04  0.20095201325E+04  0.41800000000E+01 0. -1.
         -5    1    3    3    0  501 -0.15762112947E+02 -0.96196066270E+01 -0.13522372282E+02  0.23266026484E+02  0.41800000000E+01 0. -1.
</event>
<event>
11    1  0.2498402E-009  0.5200810E+03  0.7561462E-02  0.9349736E-01
         22   -1    0    0    0    0  0.00000000000E+00  0.00000000000E+00  0.89013835965E+03  0.89013835965E+03  0.00000000000E+00 0.  1.
         22   -1    0    0    0    0 -0.00000000000E+00 -0.00000000000E+00 -0.60237628129E+03  0.60237628129E+03  0.00000000000E+00 0.  1.
         25    2    1    2    0    0  0.57501195844E+03 -0.21663541006E+03  0.12570230027E+03  0.63953979989E+03  0.12506172121E+03 0.  0.
        -24    2    1    2    0    0 -0.45727378970E+03 -0.10358785040E+03  0.16123349587E+03  0.50225765785E+03  0.80229378530E+02 0.  0.
         24    2    1    2    0    0 -0.11773816874E+03  0.32022326047E+03  0.82628222610E+00  0.35071718320E+03  0.81219744671E+02 0.  0.
        -11    1    5    5    0    0 -0.10119882983E+03  0.15944277026E+03 -0.60247191102E+01  0.18894310622E+03  0.00000000000E+00 0.  1.
         12    1    5    5    0    0 -0.16539338909E+02  0.16078049020E+03  0.68510013363E+01  0.16177407697E+03  0.00000000000E+00 0. -1.
         11    1    4    4    0    0 -0.19030039356E+03 -0.10314081494E+02  0.40881305097E+02  0.19491511274E+03  0.00000000000E+00 0. -1.
        -12    1    4    4    0    0 -0.26697339614E+03 -0.93273768909E+02  0.12035219077E+03  0.30734254511E+03  0.00000000000E+00 0.  1.
          5    1    3    3  501    0  0.41785395727E+03 -0.20062152909E+03  0.56304500318E+02  0.46694603189E+03  0.41800000000E+01 0.  1.
         -5    1    3    3    0  501  0.15715800117E+03 -0.16013880975E+02  0.69397799956E+02  0.17259376800E+03  0.41800000000E+01 0.  1.
</event>
<event>
11    1  0.2498402E-009  0.2195742E+03  0.7561462E-02  0.1041485E+00
         22   -1    0    0    0    0  0.00000000000E+00  0.00000000000E+00  0.10182555166E+03  0.10182555166E+03  0.00000000000E+00 0. -1.
         22   -1    0    0    0    0 -0.00000000000E+00 -0.00000000000E+00 -0.91373145716E+03  0.91373145716E+03  0.00000000000E+00 0.  1.
         25    2    1    2    0    0  0.28690402358E+02  0.17158029297E+03 -0.59098255560E+03  0.62862680822E+03  0.12509335261E+03 0.  0.
         24    2    1    2    0    0 -0.56202127988E+02 -0.18900639962E+03 -0.20998759910E+03  0.30104582383E+03  0.87473984616E+02 0.  0.
        -24    2    1    2    0    0  0.27511725630E+02  0.17426106650E+02 -0.10935750798E+02  0.85884376766E+02  0.78714492228E+02 0.  0.
        -11    1    4    4    0    0 -0.77624217346E+02 -0.17019632981E+03 -0.17835468273E+03  0.25846218805E+03  0.00000000000E+00 0.  1.
         12    1    4    4    0    0  0.21422089358E+02 -0.18810069817E+02 -0.31632916366E+02  0.42583635786E+02  0.00000000000E+00 0. -1.
         11    1    5    5    0    0  0.59578388487E+01 -0.29000576243E+02  0.90140155684E+01  0.30948049096E+02  0.00000000000E+00 0. -1.
        -12    1    5    5    0    0  0.21553886781E+02  0.46426682893E+02 -0.19949766366E+02  0.54936327670E+02  0.00000000000E+00 0.  1.
          5    1    3    3  501    0  0.69100490393E+02  0.11476721825E+03 -0.47198695775E+03  0.49064809472E+03  0.41800000000E+01 0. -1.
         -5    1    3    3    0  501 -0.40410088035E+02  0.56813074718E+02 -0.11899559785E+03  0.13797871351E+03  0.41800000000E+01 0. -1.
</event>
<event>
11    1  0.2498402E-009  0.6970133E+03  0.7561462E-02  0.9036718E-01
         22   -1    0    0    0    0  0.00000000000E+00  0.00000000000E+00  0.83929534265E+03  0.83929534265E+03  0.00000000000E+00 0. -1.
         22   -1    0    0    0    0 -0.00000000000E+00 -0.00000000000E+00 -0.12300398209E+04  0.12300398209E+04  0.00000000000E+00 0.  1.
         25    2    1    2    0    0  0.69657047418E+03 -0.87268187362E+02 -0.88613973400E+03  0.11374146271E+04  0.12506895574E+03 0.  0.
         24    2    1    2    0    0 -0.60428643695E+03  0.14542533803E+02  0.50177316209E+03  0.78971862181E+03  0.80657375814E+02 0.  0.
        -24    2    1    2    0    0 -0.92284037229E+02  0.72725653560E+02 -0.63779063211E+01  0.14220191465E+03  0.79845742704E+02 0.  0.
        -13    1    4    4    0    0 -0.26746524236E+03 -0.20370544919E+02  0.26062362962E+03  0.37400172632E+03  0.00000000000E+00 0.  1.
         14    1    4    4    0    0 -0.33682119459E+03  0.34913078721E+02  0.24114953247E+03  0.41571689549E+03  0.00000000000E+00 0. -1.
         13    1    5    5    0    0 -0.76232030125E+02  0.81646177869E+02  0.16446817852E+02  0.11290668091E+03  0.00000000000E+00 0. -1.
        -14    1    5    5    0    0 -0.16052007104E+02 -0.89205243091E+01 -0.22824724173E+02  0.29295233735E+02  0.00000000000E+00 0.  1.
          5    1    3    3  501    0  0.23931048908E+03 -0.36292037267E+01 -0.38933802239E+03  0.45703856444E+03  0.41800000000E+01 0.  1.
         -5    1    3    3    0  501  0.45725998509E+03 -0.83638983636E+02 -0.49680171161E+03  0.68037606263E+03  0.41800000000E+01 0.  1.
</event>
<event>
11    1  0.2498402E-009  0.1517848E+03  0.7561462E-02  0.1095069E+00
         22   -1    0    0    0    0  0.00000000000E+00  0.00000000000E+00  0.12643167232E+03  0.12643167232E+03  0.00000000000E+00 0. -1.
         22   -1    0    0    0    0 -0.00000000000E+00 -0.00000000000E+00 -0.28792276001E+03  0.28792276001E+03  0.00000000000E+00 0.  1.
         25    2    1    2    0    0  0.39585411968E+02 -0.88925621505E+02 -0.13035954937E+03  0.20521969207E+03  0.12508692538E+03 0.  0.
         24    2    1    2    0    0 -0.59637439095E+02  0.45613127967E+02  0.19568727476E+01  0.11021328250E+03  0.80659510931E+02 0.  0.
        -24    2    1    2    0    0  0.20052027127E+02  0.43312493538E+02 -0.33088411076E+02  0.98921457757E+02  0.80078436354E+02 0.  0.
        -13    1    4    4    0    0 -0.70960780170E+02  0.34315839693E+02 -0.21609686430E+02  0.81731191866E+02  0.00000000000E+00 0.  1.
         14    1    4    4    0    0  0.11323341074E+02  0.11297288273E+02  0.23566559177E+02  0.28482090634E+02  0.00000000000E+00 0. -1.
         11    1    5    5    0    0 -0.16250937790E+02  0.20639970533E+02  0.18320588584E+02  0.32027259150E+02  0.00000000000E+00 0. -1.
        -12    1    5    5    0    0  0.36302964917E+02  0.22672523006E+02 -0.51408999660E+02  0.66894198607E+02  0.00000000000E+00 0.  1.
          5    1    3    3  501    0 -0.18725990930E+02 -0.97331635887E+02 -0.87016763937E+02  0.13196022009E+03  0.41800000000E+01 0. -1.
         -5    1    3    3    0  501  0.58311402898E+02  0.84060143821E+01 -0.43342785429E+02  0.73259471978E+02  0.41800000000E+01 0. -1.
</event>
<event>
11    1  0.2498402E-009  0.1458699E+03  0.7561462E-02  0.1101175E+00
         22   -1    0    0    0    0  0.00000000000E+00  0.00000000000E+00  0.35525701686E+03  0.35525701686E+03  0.00000000000E+00 0. -1.
         22   -1    0    0    0    0 -0.00000000000E+00 -0.00000000000E+00 -0.10153151742E+03  0.10153151742E+03  0.00000000000E+00 0. -1.
         25    2    1    2    0    0 -0.62864145009E+02 -0.22096265237E+02  0.26417371122E+02  0.14416736398E+03  0.12508479394E+03 0.  0.
         24    2    1    2    0    0  0.66672451535E+02  0.68679316437E+02  0.12629026419E+03  0.17854678860E+03  0.82265792356E+02 0.  0.
        -24    2    1    2    0    0 -0.38083065261E+01 -0.46583051200E+02  0.10101786414E+03  0.13407438170E+03  0.74745214532E+02 0.  0.
        -11    1    4    4    0    0 -0.11310825825E+02  0.29541676391E+02  0.10026924343E+02  0.33184102167E+02  0.00000000000E+00 0.  1.
         12    1    4    4    0    0  0.77983277360E+02  0.39137640046E+02  0.11626333984E+03  0.14536268643E+03  0.00000000000E+00 0. -1.
         11    1    5    5    0    0  0.18799159436E+02 -0.55533907600E+02  0.48092373301E+02  0.75830730304E+02  0.00000000000E+00 0. -1.
        -12    1    5    5    0    0 -0.22607465962E+02  0.89508563999E+01  0.52925490835E+02  0.58243651393E+02  0.00000000000E+00 0.  1.
          5    1    3    3  501    0 -0.85341582078E+02 -0.22443621816E+02 -0.21634262010E+02  0.90952820102E+02  0.41800000000E+01 0. -1.
         -5    1    3    3    0  501  0.22477437069E+02  0.34735657842E+00  0.48051633132E+02  0.53214543881E+02  0.41800000000E+01 0. -1.
</event>
<event>
11    1  0.2498402E-009  0.1662738E+04  0.7561462E-02  0.8221317E-01
         22   -1    0    0    0    0  0.00000000000E+00  0.00000000000E+00  0.68705399111E+03  0.68705399111E+03  0.00000000000E+00 0.  1.
         22   -1    0    0    0    0 -0.00000000000E+00 -0.00000000000E+00 -0.10059978128E+04  0.10059978128E+04  0.00000000000E+00 0.  1.
         25    2    1    2    0    0  0.46589187871E+03  0.33365304043E+03 -0.74841581917E+03  0.95087084996E+03  0.12509812496E+03 0.  0.
        -24    2    1    2    0    0 -0.29466445304E+03 -0.24524662154E+03  0.31128646134E+03  0.50038853811E+03  0.80724115345E+02 0.  0.
         24    2    1    2    0    0 -0.17122742567E+03 -0.88406418896E+02  0.11818553611E+03  0.24179241588E+03  0.85797582856E+02 0.  0.
        -13    1    5    5    0    0 -0.16484586683E+03 -0.65600328979E+02  0.75165569613E+02  0.19268478360E+03  0.00000000000E+00 0.  1.
         14    1    5    5    0    0 -0.63815588409E+01 -0.22806089917E+02  0.43019966500E+02  0.49107632280E+02  0.00000000000E+00 0. -1.
         13    1    4    4    0    0 -0.14268009101E+03 -0.80129678301E+02  0.16570577226E+03  0.23288790581E+03  0.00000000000E+00 0. -1.
        -14    1    4    4    0    0 -0.15198436203E+03 -0.16511694324E+03  0.14558068909E+03  0.26750063230E+03  0.00000000000E+00 0.  1.
          5    1    3    3  501    0  0.43456239866E+03  0.30938195756E+03 -0.73625982328E+03  0.90920716769E+03  0.41800000000E+01 0. -1.
         -5    1    3    3    0  501  0.31329480053E+02  0.24271082873E+02 -0.12155995891E+02  0.41663682270E+02  0.41800000000E+01 0. -1.
</event>
<event>
11    1  0.2498402E-009  0.1861752E+03  0.7561462E-02  0.1064754E+00
         22   -1    0    0    0    0  0.00000000000E+00  0.00000000000E+00  0.62552040277E+03  0.62552040277E+03  0.00000000000E+00 0.  1.
         22   -1    0    0    0    0 -0.00000000000E+00 -0.00000000000E+00 -0.12939791933E+03  0.12939791933E+03  0.00000000000E+00 0. -1.
         25    2    1    2    0    0 -0.95052973234E+02  0.12012885151E+03  0.35795925355E+01  0.19780180226E+03  0.12508689304E+03 0.  0.
        -24    2    1    2    0    0 -0.12383345528E+02 -0.93097638201E+02  0.20559951582E+03  0.23980829302E+03  0.80102053727E+02 0.  0.
         24    2    1    2    0    0  0.10743631876E+03 -0.27031213306E+02  0.28694337508E+03  0.31730822682E+03  0.77940754560E+02 0.  0.
        -11    1    5    5    0    0  0.10762190082E+03 -0.43324221915E+02  0.26964761308E+03  0.29354607301E+03  0.00000000000E+00 0.  1.
         12    1    5    5    0    0 -0.18558206153E+00  0.16293008609E+02  0.17295762000E+02  0.23762153804E+02  0.00000000000E+00 0. -1.
         13    1    4    4    0    0  0.14382088718E+02 -0.58782040105E+02  0.17864728303E+03  0.18861872772E+03  0.00000000000E+00 0. -1.
        -14    1    4    4    0    0 -0.26765434247E+02 -0.34315598096E+02  0.26952232798E+02  0.51189565303E+02  0.00000000000E+00 0.  1.
          5    1    3    3  501    0 -0.87126751974E+02  0.13415432375E+03  0.33570642780E+02  0.16350203040E+03  0.41800000000E+01 0. -1.
         -5    1    3    3    0  501 -0.79262212606E+01 -0.14025472238E+02 -0.29991050244E+02  0.34299771861E+02  0.41800000000E+01 0. -1.
</event>
<event>
11    1  0.2498402E-009  0.1911853E+03  0.7561462E-02  0.1060938E+00
         22   -1    0    0    0    0  0.00000000000E+00  0.00000000000E+00  0.16300838800E+03  0.16300838800E+03  0.00000000000E+00 0.  1.
         22   -1    0    0    0    0 -0.00000000000E+00 -0.00000000000E+00 -0.15170144376E+04  0.15170144376E+04  0.00000000000E+00 0.  1.
         25    2    1    2    0    0 -0.20354810238E+02 -0.14452318389E+03 -0.97518100857E+03  0.99394482216E+03  0.12508813310E+03 0.  0.
         24    2    1    2    0    0  0.25239001659E+01  0.14330572789E+03 -0.50716481010E+03  0.53305577729E+03  0.79933818768E+02 0.  0.
        -24    2    1    2    0    0  0.17830910072E+02  0.12174560049E+01  0.12833976905E+03  0.15302222617E+03  0.81395834212E+02 0.  0.
        -11    1    4    4    0    0 -0.92906924455E+01  0.13875159504E+03 -0.49894008606E+03  0.51795707503E+03  0.00000000000E+00 0.  1.
         12    1    4    4    0    0  0.11814592611E+02  0.45541328506E+01 -0.82247240406E+01  0.15098702267E+02  0.00000000000E+00 0. -1.
         13    1    5    5    0    0  0.13397246215E+02  0.32673294211E+02  0.21011527818E+02  0.41091540029E+02  0.00000000000E+00 0. -1.
        -14    1    5    5    0    0  0.44336638569E+01 -0.31455838206E+02  0.10732824124E+03  0.11193068614E+03  0.00000000000E+00 0.  1.
          5    1    3    3  501    0 -0.18503015410E+02 -0.84881646146E+02 -0.85783221950E+03  0.86223015758E+03  0.41800000000E+01 0. -1.
         -5    1    3    3    0  501 -0.18517948275E+01 -0.59641537746E+02 -0.11734878907E+03  0.13171466458E+03  0.41800000000E+01 0. -1.
</event>
<event>
11    1  0.2498402E-009  0.5389481E+03  0.7561462E-02  0.9310468E-01
         22   -1    0    0    0    0  0.00000000000E+00  0.00000000000E+00  0.13516221035E+04  0.13516221035E+04  0.00000000000E+00 0.  1.
         22   -1    0    0    0    0 -0.00000000000E+00 -0.00000000000E+00 -0.71582567343E+03  0.71582567343E+03  0.00000000000E+00 0. -1.
         25    2    1    2    0    0  0.52236729512E+02  0.47435882482E+03 -0.15464715453E+03  0.51701825644E+03  0.12508862653E+03 0.  0.
         24    2    1    2    0    0 -0.13109110694E+03 -0.57234878166E+03 -0.13918502592E+03  0.60891718208E+03  0.81484090474E+02 0.  0.
        -24    2    1    2    0    0  0.78854377425E+02  0.97989956840E+02  0.92962861054E+03  0.94151233842E+03  0.80100470516E+02 0.  0.
        -11    1    4    4    0    0 -0.45691242621E+02 -0.15215710317E+03 -0.25449423890E+01  0.15888974300E+03  0.00000000000E+00 0.  1.
         12    1    4    4    0    0 -0.85399864315E+02 -0.42019167849E+03 -0.13664008353E+03  0.45002743908E+03  0.00000000000E+00 0. -1.
         11    1    5    5    0    0  0.52771153195E+02  0.30020525159E+02  0.64002538856E+03  0.64289853363E+03  0.00000000000E+00 0. -1.
        -12    1    5    5    0    0  0.26083224229E+02  0.67969431681E+02  0.28960322198E+03  0.29861380479E+03  0.00000000000E+00 0.  1.
          5    1    3    3  501    0  0.24268525902E+02  0.90990815540E+01 -0.15880226188E+02  0.30682382866E+02  0.41800000000E+01 0. -1.
         -5    1    3    3    0  501  0.27968203609E+02  0.46525974327E+03 -0.13876692835E+03  0.48633587357E+03  0.41800000000E+01 0. -1.
</event>
<event>
11    1  0.2498402E-009  0.3247117E+03  0.7561462E-02  0.9902431E-01
         22   -1    0    0    0    0  0.00000000000E+00  0.00000000000E+00  0.10461609943E+03  0.10461609943E+03  0.00000000000E+00 0.  1.
         22   -1    0    0    0    0 -0.00000000000E+00 -0.00000000000E+00 -0.13285714439E+04  0.13285714439E+04  0.00000000000E+00 0. -1.
         25    2    1    2    0    0 -0.23674432048E+03 -0.14794952316E+03 -0.49918207802E+03  0.58546262146E+03  0.12508716735E+03 0.  0.
        -24    2    1    2    0    0  0.25215831021E+03  0.19607779354E+03 -0.63410893825E+03  0.71424433180E+03  0.77591915952E+02 0.  0.
         24    2    1    2    0    0 -0.15413989734E+02 -0.48128270381E+02 -0.90664328178E+02  0.13348059003E+03  0.83923334191E+02 0.  0.
        -13    1    5    5    0    0 -0.13476858488E+02  0.16994012395E+02  0.17884351010E+00  0.21689955209E+02  0.00000000000E+00 0.  1.
         14    1    5    5    0    0 -0.19371312462E+01 -0.65122282777E+02 -0.90843171689E+02  0.11179063482E+03  0.00000000000E+00 0. -1.
         11    1    4    4    0    0  0.20891904238E+03  0.18745536205E+03 -0.50431042356E+03  0.57716174712E+03  0.00000000000E+00 0. -1.
        -12    1    4    4    0    0  0.43239267831E+02  0.86224314825E+01 -0.12979851469E+03  0.13708258468E+03  0.00000000000E+00 0.  1.
          5    1    3    3  501    0 -0.53628477382E+02 -0.31116871538E+02 -0.23676621568E+03  0.24478559306E+03  0.41800000000E+01 0.  1.
         -5    1    3    3    0  501 -0.18311584310E+03 -0.11683265162E+03 -0.26241586234E+03  0.34067702841E+03  0.41800000000E+01 0.  1.
</event>
<event>
11    1  0.2498402E-009  0.3563612E+03  0.7561462E-02  0.9788087E-01
         22   -1    0    0    0    0  0.00000000000E+00  0.00000000000E+00  0.36508777316E+03  0.36508777316E+03  0.00000000000E+00 0. -1.
         22   -1    0    0    0    0 -0.00000000000E+00 -0.00000000000E+00 -0.10311668220E+04  0.10311668220E+04  0.00000000000E+00 0.  1.
         25    2    1    2    0    0  0.36373217002E+03 -0.10938931636E+02 -0.60874269677E+03  0.72016409065E+03  0.12509154595E+03 0.  0.
         24    2    1    2    0    0 -0.29632919603E+03 -0.43034983468E+02 -0.28434215963E+03  0.42066458874E+03  0.80282191362E+02 0.  0.
        -24    2    1    2    0    0 -0.67402973995E+02  0.53973915103E+02  0.22700580754E+03  0.25542591579E+03  0.79084874551E+02 0.  0.
        -13    1    4    4    0    0 -0.29185554021E+03 -0.40584260653E+02 -0.25141634426E+03  0.38734599097E+03  0.00000000000E+00 0.  1.
         14    1    4    4    0    0 -0.44736558215E+01 -0.24507228145E+01 -0.32925815377E+02  0.33318597764E+02  0.00000000000E+00 0. -1.
         11    1    5    5    0    0 -0.34279382514E+02  0.33367862390E+02  0.20526693148E+03  0.21076765279E+03  0.00000000000E+00 0. -1.
        -12    1    5    5    0    0 -0.33123591481E+02  0.20606052714E+02  0.21738876065E+02  0.44658262994E+02  0.00000000000E+00 0.  1.
          5    1    3    3  501    0  0.39573596280E+02  0.25407974033E+02 -0.30372990465E+02  0.56139341079E+02  0.41800000000E+01 0. -1.
         -5    1    3    3    0  501  0.32415857374E+03 -0.36346905668E+02 -0.57836970630E+03  0.66402474958E+03  0.41800000000E+01 0. -1.
</event>
<event>
11    1  0.2498402E-009  0.2553121E+03  0.7561462E-02  0.1021107E+00
         22   -1    0    0    0    0  0.00000000000E+00  0.00000000000E+00  0.17955767542E+04  0.17955767542E+04  0.00000000000E+00 0.  1.
         22   -1    0    0    0    0 -0.00000000000E+00 -0.00000000000E+00 -0.18762642393E+03  0.18762642393E+03  0.00000000000E+00 0. -1.
         25    2    1    2    0    0 -0.13769128261E+03  0.45312124693E+02  0.26016044352E+03  0.32302291603E+03  0.12509304520E+03 0.  0.
        -24    2    1    2    0    0  0.34777401507E+03  0.57644892126E+02  0.82590665218E+02  0.37108772200E+03  0.81333758618E+02 0.  0.
         24    2    1    2    0    0 -0.21008273246E+03 -0.10295701682E+03  0.12651992216E+04  0.12890925401E+04  0.79344848328E+02 0.  0.
        -11    1    5    5    0    0 -0.17386095282E+03 -0.77135124718E+02  0.11496239139E+04  0.11652521623E+04  0.00000000000E+00 0.  1.
         12    1    5    5    0    0 -0.36221779642E+02 -0.25821892100E+02  0.11557530767E+03  0.12384037780E+03  0.00000000000E+00 0. -1.
         11    1    4    4    0    0  0.29521711584E+03  0.55954761485E+02  0.39410828360E+02  0.30304668652E+03  0.00000000000E+00 0. -1.
        -12    1    4    4    0    0  0.52556899233E+02  0.16901306405E+01  0.43179836858E+02  0.68041035483E+02  0.00000000000E+00 0.  1.
          5    1    3    3  501    0 -0.31996827561E+02  0.74559361634E+02  0.99459396763E+02  0.12842328210E+03  0.41800000000E+01 0. -1.
         -5    1    3    3    0  501 -0.10569445505E+03 -0.29247236941E+02  0.16070104676E+03  0.19459963393E+03  0.41800000000E+01 0. -1.
</event>
<event>
11    1  0.2498402E-009  0.5742320E+03  0.7561462E-02  0.9241413E-01
         22   -1    0    0    0    0  0.00000000000E+00  0.00000000000E+00  0.10303091964E+04  0.10303091964E+04  0.00000000000E+00 0. -1.
         22   -1    0    0    0    0 -0.00000000000E+00 -0.00000000000E+00 -0.10352771438E+04  0.10352771438E+04  0.00000000000E+00 0. -1.
         25    2    1    2    0    0 -0.23271554009E+03  0.23777707388E+03 -0.61457483024E+03  0.70996141554E+03  0.12509408515E+03 0.  0.
         24    2    1    2    0    0  0.61257017960E+03 -0.44810940324E+03  0.44992527943E+03  0.88645251584E+03  0.85563096958E+02 0.  0.
        -24    2    1    2    0    0 -0.37985463950E+03  0.21033232937E+03  0.15968160339E+03  0.46917240890E+03  0.78072395114E+02 0.  0.
        -11    1    4    4    0    0  0.99224310756E+02 -0.37993194472E+02  0.51941309663E+02  0.11826599816E+03  0.00000000000E+00 0.  1.
         12    1    4    4    0    0  0.51334586884E+03 -0.41011620877E+03  0.39798396976E+03  0.76818651768E+03  0.00000000000E+00 0. -1.
         13    1    5    5    0    0 -0.30190162199E+03  0.18343775603E+03  0.99255986692E+02  0.36694107237E+03  0.00000000000E+00 0. -1.
        -14    1    5    5    0    0 -0.77953017512E+02  0.26894573339E+02  0.60425616703E+02  0.10223133653E+03  0.00000000000E+00 0.  1.
          5    1    3    3  501    0 -0.98989666303E+02  0.13760856678E+03 -0.42303950909E+03  0.45575757848E+03  0.41800000000E+01 0.  1.
         -5    1    3    3    0  501 -0.13372587379E+03  0.10016850709E+03 -0.19153532115E+03  0.25420383707E+03  0.41800000000E+01 0.  1.
</event>
<event>
11    1  0.2498402E-009  0.1403856E+03  0.7561462E-02  0.1107129E+00
         22   -1    0    0    0    0  0.00000000000E+00  0.00000000000E+00  0.43393423761E+03  0.43393423761E+03  0.00000000000E+00 0. -1.
         22   -1    0    0    0    0 -0.00000000000E+00 -0.00000000000E+00 -0.85583198601E+03  0.85583198601E+03  0.00000000000E+00 0. -1.
         25    2    1    2    0    0  0.60439775370E+02 -0.19812293693E+02 -0.81199405900E+03  0.82403091253E+03  0.12508836686E+03 0.  0.
        -24    2    1    2    0    0  0.74966373152E+01 -0.17988682294E+01  0.25405461587E+02  0.84284197153E+02  0.79993455441E+02 0.  0.
         24    2    1    2    0    0 -0.67936412685E+02  0.21611161923E+02  0.36469084901E+03  0.38145111394E+03  0.86157637420E+02 0.  0.
        -11    1    5    5    0    0 -0.27227722193E+02  0.41014800349E+02  0.29040653423E+03  0.29454968652E+03  0.00000000000E+00 0.  1.
         12    1    5    5    0    0 -0.40708690492E+02 -0.19403638426E+02  0.74284314778E+02  0.86901427420E+02  0.00000000000E+00 0. -1.
         13    1    4    4    0    0  0.22342157372E+02 -0.22218639403E+02  0.43147160708E+02  0.53427683930E+02  0.00000000000E+00 0. -1.
        -14    1    4    4    0    0 -0.14845520057E+02  0.20419771173E+02 -0.17741699122E+02  0.30856513223E+02  0.00000000000E+00 0.  1.
          5    1    3    3  501    0  0.21780781100E+02 -0.16174046375E+02 -0.75165359372E+03  0.75215463806E+03  0.41800000000E+01 0. -1.
         -5    1    3    3    0  501  0.38658994270E+02 -0.36382473181E+01 -0.60340465278E+02  0.71876274469E+02  0.41800000000E+01 0. -1.
</event>
<event>
11    1  0.2498402E-009  0.1587242E+03  0.7561462E-02  0.1088283E+00
         22   -1    0    0    0    0  0.00000000000E+00  0.00000000000E+00  0.22962988296E+03  0.22962988296E+03  0.00000000000E+00 0. -1.
         22   -1    0    0    0    0 -0.00000000000E+00 -0.00000000000E+00 -0.16559731392E+03  0.16559731392E+03  0.00000000000E+00 0.  1.
         25    2    1    2    0    0  0.42307367659E+02 -0.99694755922E+02 -0.25240664643E+02  0.16737189410E+03  0.12508917646E+03 0.  0.
        -24    2    1    2    0    0  0.67962575117E+01  0.90722745456E+02  0.46442521781E+02  0.12486875148E+03  0.71822639946E+02 0.  0.
         24    2    1    2    0    0 -0.49103625171E+02  0.89720104661E+01  0.42830711903E+02  0.10298655130E+03  0.79247062337E+02 0.  0.
        -11    1    5    5    0    0  0.40084757340E+01 -0.11319184436E+01  0.48451787194E+02  0.48630492485E+02  0.00000000000E+00 0.  1.
         12    1    5    5    0    0 -0.53112100905E+02  0.10103928910E+02 -0.56210752913E+01  0.54356058810E+02  0.00000000000E+00 0. -1.
         13    1    4    4    0    0  0.35865381810E+02  0.70157540280E+02  0.41079264900E+02  0.88858944824E+02  0.00000000000E+00 0. -1.
        -14    1    4    4    0    0 -0.29069124298E+02  0.20565205176E+02  0.53632568814E+01  0.36009806661E+02  0.00000000000E+00 0.  1.
          5    1    3    3  501    0 -0.28390366697E+01 -0.11364530608E+03 -0.34840037325E+02  0.11897317481E+03  0.41800000000E+01 0. -1.
         -5    1    3    3    0  501  0.45146404329E+02  0.13950550155E+02  0.95993726821E+01  0.48398719295E+02  0.41800000000E+01 0. -1.
</event>
<event>
11    1  0.2498402E-009  0.2080723E+03  0.7561462E-02  0.1048958E+00
         22   -1    0    0    0    0  0.00000000000E+00  0.00000000000E+00  0.26352891922E+03  0.26352891922E+03  0.00000000000E+00 0. -1.
         22   -1    0    0    0    0 -0.00000000000E+00 -0.00000000000E+00 -0.29125307593E+03  0.29125307593E+03  0.00000000000E+00 0. -1.
         25    2    1    2    0    0 -0.43824282998E+02  0.11454494534E+03 -0.19966649281E+02  0.17631833536E+03  0.12509346912E+03 0.  0.
         24    2    1    2    0    0  0.69039238570E+02 -0.19986551926E+03 -0.77027794999E+02  0.23880249535E+03  0.79879336061E+02 0.  0.
        -24    2    1    2    0    0 -0.25214955573E+02  0.85320573917E+02  0.69270287569E+02  0.13966116445E+03  0.82410398604E+02 0.  0.
        -11    1    4    4    0    0 -0.13152135045E+02 -0.30137895464E+02 -0.29847659580E+02  0.44408942586E+02  0.00000000000E+00 0.  1.
         12    1    4    4    0    0  0.82191373615E+02 -0.16972762380E+03 -0.47180135418E+02  0.19439355276E+03  0.00000000000E+00 0. -1.
         13    1    5    5    0    0 -0.47962975567E+02  0.84276513116E+02  0.64307268686E+02  0.11635464105E+03  0.00000000000E+00 0. -1.
        -14    1    5    5    0    0  0.22748019994E+02  0.10440608017E+01  0.49630188828E+01  0.23306523401E+02  0.00000000000E+00 0.  1.
          5    1    3    3  501    0  0.74447918652E+01  0.12032560018E+03  0.57211169259E+00  0.12062949348E+03  0.41800000000E+01 0.  1.
         -5    1    3    3    0  501 -0.51269074863E+02 -0.57806548370E+01 -0.20538760973E+02  0.55688841880E+02  0.41800000000E+01 0.  1.
</event>
<event>
11    1  0.2498402E-009  0.2099189E+03  0.7561462E-02  0.1047723E+00
         22   -1    0    0    0    0  0.00000000000E+00  0.00000000000E+00  0.39348983131E+03  0.39348983131E+03  0.00000000000E+00 0. -1.
         22   -1    0    0    0    0 -0.00000000000E+00 -0.00000000000E+00 -0.74124027679E+03  0.74124027679E+03  0.00000000000E+00 0.  1.
         25    2    1    2    0    0  0.72539023432E+02  0.16819936468E+03 -0.62479608026E+03  0.66300108084E+03  0.12508938839E+03 0.  0.
        -24    2    1    2    0    0 -0.60974064889E+01 -0.13876556530E+02 -0.49561381509E+02  0.95688856883E+02  0.80438110417E+02 0.  0.
         24    2    1    2    0    0 -0.66441616943E+02 -0.15432280815E+03  0.32660701629E+03  0.37604017038E+03  0.80647684852E+02 0.  0.
        -11    1    5    5    0    0 -0.16191813745E+02 -0.45607127712E+02  0.31999432185E+02  0.58018519377E+02  0.00000000000E+00 0.  1.
         12    1    5    5    0    0 -0.50249803198E+02 -0.10871568044E+03  0.29460758410E+03  0.31802165100E+03  0.00000000000E+00 0. -1.
         11    1    4    4    0    0 -0.19422676571E+02 -0.42633357110E+02 -0.42419294054E+02  0.63200000093E+02  0.00000000000E+00 0. -1.
        -12    1    4    4    0    0  0.13325270082E+02  0.28756800580E+02 -0.71420874547E+01  0.32488856791E+02  0.00000000000E+00 0.  1.
          5    1    3    3  501    0  0.75617258873E+02  0.14879886952E+03 -0.62035827027E+03  0.64243359913E+03  0.41800000000E+01 0. -1.
         -5    1    3    3    0  501 -0.30782354415E+01  0.19400495164E+02 -0.44378099901E+01  0.20567481702E+02  0.41800000000E+01 0. -1.
</event>
<event>
11    1  0.2498402E-009  0.1517859E+03  0.7561462E-02  0.1095068E+00
         22   -1    0    0    0    0  0.00000000000E+00  0.00000000000E+00  0.26203908321E+03  0.26203908321E+03  0.00000000000E+00 0.  1.
         22   -1    0    0    0    0 -0.00000000000E+00 -0.00000000000E+00 -0.83380339175E+03  0.83380339175E+03  0.00000000000E+00 0.  1.
         25    2    1    2    0    0  0.49092965476E+02 -0.34023463926E+02 -0.47651808092E+03  0.49627070368E+03  0.12508962601E+03 0.  0.
        -24    2    1    2    0    0  0.28542277344E+02  0.74891059383E+02 -0.32215321952E+03  0.34308243360E+03  0.86599809623E+02 0.  0.
         24    2    1    2    0    0 -0.77635242820E+02 -0.40867595456E+02  0.22690699191E+03  0.25648933768E+03  0.81256421776E+02 0.  0.
        -13    1    5    5    0    0 -0.76904480010E+02 -0.20120136173E+02  0.22106443099E+03  0.23492254378E+03  0.00000000000E+00 0.  1.
         14    1    5    5    0    0 -0.73076280979E+00 -0.20747459284E+02  0.58425609133E+01  0.21566793898E+02  0.00000000000E+00 0. -1.
         13    1    4    4    0    0  0.32135390187E+02 -0.77651477447E+01 -0.12444174192E+03  0.12875840926E+03  0.00000000000E+00 0. -1.
        -14    1    4    4    0    0 -0.35931128430E+01  0.82656207127E+02 -0.19771147760E+03  0.21432402434E+03  0.00000000000E+00 0.  1.
          5    1    3    3  501    0 -0.38787850669E+02  0.93576112244E+01 -0.12167181701E+03  0.12811543897E+03  0.41800000000E+01 0. -1.
         -5    1    3    3    0  501  0.87880816145E+02 -0.43381075151E+02 -0.35484626391E+03  0.36815526471E+03  0.41800000000E+01 0. -1.
</event>
<event>
11    1  0.2498402E-009  0.2622510E+04  0.7561462E-02  0.7850881E-01
         22   -1    0    0    0    0  0.00000000000E+00  0.00000000000E+00  0.15103304636E+04  0.15103304636E+04  0.00000000000E+00 0.  1.
         22   -1    0    0    0    0 -0.00000000000E+00 -0.00000000000E+00 -0.11384195630E+04  0.11384195630E+04  0.00000000000E+00 0.  1.
         25    2    1    2    0    0 -0.90714852119E+03  0.39114506796E+03 -0.65088744168E+03  0.11896288091E+04  0.12509731469E+03 0.  0.
        -24    2    1    2    0    0  0.83397211508E+03 -0.36267914305E+03  0.82596378620E+03  0.12316060636E+04  0.87130191054E+02 0.  0.
         24    2    1    2    0    0  0.73176406109E+02 -0.28465924909E+02  0.19683455615E+03  0.22751515389E+03  0.82790141096E+02 0.  0.
        -13    1    5    5    0    0 -0.12086465386E+02 -0.24109344911E+02  0.65909710166E+02  0.71213994774E+02  0.00000000000E+00 0.  1.
         14    1    5    5    0    0  0.85262871495E+02 -0.43565799986E+01  0.13092484598E+03  0.15630115911E+03  0.00000000000E+00 0. -1.
         11    1    4    4    0    0  0.67646208662E+03 -0.31902516074E+03  0.64355869307E+03  0.98668424496E+03  0.00000000000E+00 0. -1.
        -12    1    4    4    0    0  0.15751002846E+03 -0.43653982312E+02  0.18240509313E+03  0.24492181862E+03  0.00000000000E+00 0.  1.
          5    1    3    3  501    0 -0.84239338535E+03  0.34545399766E+03 -0.63114517023E+03  0.11078478138E+04  0.41800000000E+01 0.  1.
         -5    1    3    3    0  501 -0.64755135836E+02  0.45691070299E+02 -0.19742271447E+02  0.81780995373E+02  0.41800000000E+01 0.  1.
</event>
<event>
11    1  0.2498402E-009  0.1693142E+03  0.7561462E-02  0.1078630E+00
         22   -1    0    0    0    0  0.00000000000E+00  0.00000000000E+00  0.79728419589E+02  0.79728419589E+02  0.00000000000E+00 0. -1.
         22   -1    0    0    0    0 -0.00000000000E+00 -0.00000000000E+00 -0.84527900970E+03  0.84527900970E+03  0.00000000000E+00 0.  1.
         25    2    1    2    0    0  0.47795606514E+02  0.55326741692E+02 -0.36854173028E+03  0.39599509880E+03  0.12507454963E+03 0.  0.
         24    2    1    2    0    0  0.10262944072E+03 -0.10410743190E+03 -0.24146048680E+03  0.29299395521E+03  0.78556550502E+02 0.  0.
        -24    2    1    2    0    0 -0.15042504723E+03  0.48780690205E+02 -0.15554837304E+03  0.23601837528E+03  0.80635764687E+02 0.  0.
        -11    1    4    4    0    0  0.63815634505E+02 -0.29979817785E+02 -0.16586298240E+03  0.18022695029E+03  0.00000000000E+00 0.  1.
         12    1    4    4    0    0  0.38813806211E+02 -0.74127614111E+02 -0.75597504398E+02  0.11276700492E+03  0.00000000000E+00 0. -1.
         11    1    5    5    0    0 -0.11444652810E+03  0.37033824583E+02 -0.62478609472E+02  0.13554736663E+03  0.00000000000E+00 0. -1.
        -12    1    5    5    0    0 -0.35978519126E+02  0.11746865621E+02 -0.93069763565E+02  0.10047100866E+03  0.00000000000E+00 0.  1.
          5    1    3    3  501    0  0.12873062184E+02 -0.35269018621E+02 -0.48221680110E+02  0.61257017860E+02  0.41800000000E+01 0.  1.
         -5    1    3    3    0  501  0.34922544330E+02  0.90595760313E+02 -0.32032005017E+03  0.33473808093E+03  0.41800000000E+01 0.  1.
</event>
<event>
11    1  0.2498402E-009  0.7567741E+03  0.7561462E-02  0.8952583E-01
         22   -1    0    0    0    0  0.00000000000E+00  0.00000000000E+00  0.16626172612E+03  0.16626172612E+03  0.00000000000E+00 0. -1.
         22   -1    0    0    0    0 -0.00000000000E+00 -0.00000000000E+00 -0.86115281499E+03  0.86115281499E+03  0.00000000000E+00 0. -1.
         25    2    1    2    0    0  0.13719731406E+02 -0.14987004330E+03 -0.75572325186E+03  0.78064972344E+03  0.12508835437E+03 0.  0.
        -24    2    1    2    0    0 -0.26577604707E+02  0.12095015963E+03  0.62963809720E+02  0.16070269970E+03  0.80781224123E+02 0.  0.
         24    2    1    2    0    0  0.12857873301E+02  0.28919883672E+02 -0.21316467324E+01  0.86062117968E+02  0.80002872785E+02 0.  0.
        -13    1    5    5    0    0 -0.42818552120E+01 -0.35664939893E+01 -0.35802624479E+02  0.36233714728E+02  0.00000000000E+00 0.  1.
         14    1    5    5    0    0  0.17139728513E+02  0.32486377661E+02  0.33670977746E+02  0.49828403240E+02  0.00000000000E+00 0. -1.
         13    1    4    4    0    0 -0.66025792235E+01  0.12591158847E+03  0.60886916164E+02  0.14001620879E+03  0.00000000000E+00 0. -1.
        -14    1    4    4    0    0 -0.19975025483E+02 -0.49614288468E+01  0.20768935558E+01  0.20686490909E+02  0.00000000000E+00 0.  1.
          5    1    3    3  501    0  0.50917735304E+01 -0.16976561163E+03 -0.70745710406E+03  0.72757083197E+03  0.41800000000E+01 0.  1.
         -5    1    3    3    0  501  0.86279578753E+01  0.19895568330E+02 -0.48266147800E+02  0.53078891471E+02  0.41800000000E+01 0.  1.
</event>
<event>
11    1  0.2498402E-009  0.5590408E+03  0.7561462E-02  0.9270481E-01
         22   -1    0    0    0    0  0.00000000000E+00  0.00000000000E+00  0.95032176741E+03  0.95032176741E+03  0.00000000000E+00 0. -1.
         22   -1    0    0    0    0 -0.00000000000E+00 -0.00000000000E+00 -0.16084237232E+04  0.16084237232E+04  0.00000000000E+00 0.  1.
         25    2    1    2    0    0  0.47071685758E+03 -0.30297942631E+03 -0.12056507947E+04  0.13351450058E+04  0.12508978764E+03 0.  0.
        -24    2    1    2    0    0 -0.35982164017E+03  0.35784930725E+03 -0.13025907660E+03  0.53004400931E+03  0.80321138767E+02 0.  0.
         24    2    1    2    0    0 -0.11089521741E+03 -0.54869880942E+02  0.67780791550E+03  0.69355647552E+03  0.79300449804E+02 0.  0.
        -13    1    5    5    0    0 -0.10643262409E+03 -0.32804107156E+02  0.41171390180E+03  0.42651184022E+03  0.00000000000E+00 0.  1.
         14    1    5    5    0    0 -0.44625933240E+01 -0.22065773786E+02  0.26609401370E+03  0.26704463530E+03  0.00000000000E+00 0. -1.
         13    1    4    4    0    0 -0.61565952592E+02  0.42878480450E+02  0.62700016114E+01  0.75287738208E+02  0.00000000000E+00 0. -1.
        -14    1    4    4    0    0 -0.29825568758E+03  0.31497082680E+03 -0.13652907821E+03  0.45475627111E+03  0.00000000000E+00 0.  1.
          5    1    3    3  501    0  0.17300752647E+03 -0.17020057990E+03 -0.60192280443E+03  0.64902109095E+03  0.41800000000E+01 0. -1.
         -5    1    3    3    0  501  0.29770933111E+03 -0.13277884641E+03 -0.60372799029E+03  0.68612391486E+03  0.41800000000E+01 0. -1.
</event>
<event>
11    1  0.2498402E-009  0.1803401E+03  0.7561462E-02  0.1069368E+00
         22   -1    0    0    0    0  0.00000000000E+00  0.00000000000E+00  0.16375866809E+03  0.16375866809E+03  0.00000000000E+00 0.  1.
         22   -1    0    0    0    0 -0.00000000000E+00 -0.00000000000E+00 -0.36148826796E+03  0.36148826796E+03  0.00000000000E+00 0.  1.
         25    2    1    2    0    0  0.11974945881E+03 -0.47207610635E+02 -0.21465296149E+03  0.27980554359E+03  0.12508699755E+03 0.  0.
        -24    2    1    2    0    0 -0.98122846896E+01 -0.34031851877E+02 -0.86983617966E+01  0.84400722352E+02  0.76114207363E+02 0.  0.
         24    2    1    2    0    0 -0.10993717412E+03  0.81239462512E+02  0.25621723418E+02  0.16104067011E+03  0.81188621098E+02 0.  0.
        -13    1    5    5    0    0 -0.97965038067E+02  0.97862879005E+02  0.21228460068E+02  0.14008904057E+03  0.00000000000E+00 0.  1.
         14    1    5    5    0    0 -0.11972136057E+02 -0.16623416493E+02  0.43932633493E+01  0.20951629544E+02  0.00000000000E+00 0. -1.
         13    1    4    4    0    0  0.31947698690E+02 -0.16458347795E+02  0.66829581756E+01  0.36553995591E+02  0.00000000000E+00 0. -1.
        -14    1    4    4    0    0 -0.41759983380E+02 -0.17573504082E+02 -0.15381319972E+02  0.47846726760E+02  0.00000000000E+00 0.  1.
          5    1    3    3  501    0  0.10726158570E+03 -0.33916888816E+02 -0.22969543320E+03  0.25579849012E+03  0.41800000000E+01 0.  1.
         -5    1    3    3    0  501  0.12487873111E+02 -0.13290721819E+02  0.15042471704E+02  0.24007053469E+02  0.41800000000E+01 0.  1.
</event>
<event>
11    1  0.2498402E-009  0.3171329E+03  0.7561462E-02  0.9931900E-01
         22   -1    0    0    0    0  0.00000000000E+00  0.00000000000E+00  0.11104737686E+04  0.11104737686E+04  0.00000000000E+00 0.  1.
         22   -1    0    0    0    0 -0.00000000000E+00 -0.00000000000E+00 -0.34636861341E+03  0.34636861341E+03  0.00000000000E+00 0.  1.
         25    2    1    2    0    0  0.25946829197E+03 -0.66080063712E+02 -0.11779162522E+03  0.31813973773E+03  0.12509059275E+03 0.  0.
         24    2    1    2    0    0 -0.12059694119E+03  0.34546836621E+03  0.32942712352E+03  0.49881876095E+03  0.80036943293E+02 0.  0.
        -24    2    1    2    0    0 -0.13887135079E+03 -0.27938830250E+03  0.55246965688E+03  0.63988388331E+03  0.82979435478E+02 0.  0.
        -13    1    4    4    0    0 -0.10026161642E+03  0.30210994653E+03  0.31723573687E+03  0.44940107283E+03  0.00000000000E+00 0.  1.
         14    1    4    4    0    0 -0.20335324764E+02  0.43358419683E+02  0.12191386658E+02  0.49417688122E+02  0.00000000000E+00 0. -1.
         11    1    5    5    0    0 -0.92670526689E+02 -0.20619935894E+03  0.46387192075E+03  0.51602631813E+03  0.00000000000E+00 0. -1.
        -12    1    5    5    0    0 -0.46200824097E+02 -0.73188943553E+02  0.88597736133E+02  0.12385756518E+03  0.00000000000E+00 0.  1.
          5    1    3    3  501    0  0.23857212481E+03 -0.25636006441E+02 -0.12698771753E+03  0.27150914601E+03  0.41800000000E+01 0. -1.
         -5    1    3    3    0  501  0.20896167163E+02 -0.40444057272E+02  0.91960923138E+01  0.46630591724E+02  0.41800000000E+01 0. -1.
</event>
<event>
11    1  0.2498402E-009  0.5503785E+03  0.7561462E-02  0.9287498E-01
         22   -1    0    0    0    0  0.00000000000E+00  0.00000000000E+00  0.42546328219E+03  0.42546328219E+03  0.00000000000E+00 0. -1.
         22   -1    0    0    0    0 -0.00000000000E+00 -0.00000000000E+00 -0.12969742104E+04  0.12969742104E+04  0.00000000000E+00 0.  1.
         25    2    1    2    0    0  0.10448619604E+03  0.78237741863E+02 -0.36290253425E+03  0.40545022430E+03  0.12511245184E+03 0.  0.
        -24    2    1    2    0    0 -0.39850216819E+03 -0.49200515712E+03 -0.48667496427E+03  0.80236243142E+03  0.77845345609E+02 0.  0.
         24    2    1    2    0    0  0.29401597215E+03  0.41376741525E+03 -0.21933429732E+02  0.51462483691E+03  0.81907152429E+02 0.  0.
        -11    1    5    5    0    0  0.13824416624E+03  0.25955628463E+03 -0.27508172679E+02  0.29536014280E+03  0.00000000000E+00 0.  1.
         12    1    5    5    0    0  0.15577180591E+03  0.15421113062E+03  0.55747429463E+01  0.21926469411E+03  0.00000000000E+00 0. -1.
         13    1    4    4    0    0 -0.10190495077E+03 -0.15748868667E+03 -0.10785227270E+03  0.21637795208E+03  0.00000000000E+00 0. -1.
        -14    1    4    4    0    0 -0.29659721742E+03 -0.33451647044E+03 -0.37882269157E+03  0.58598447934E+03  0.00000000000E+00 0.  1.
          5    1    3    3  501    0  0.17333564646E+02  0.90860246971E+02 -0.18094845291E+03  0.20326301177E+03  0.41800000000E+01 0.  1.
         -5    1    3    3    0  501  0.87152631398E+02 -0.12622505109E+02 -0.18195408134E+03  0.20218721253E+03  0.41800000000E+01 0.  1.
</event>
<event>
11    1  0.2498402E-009  0.1392301E+03  0.7561462E-02  0.1108421E+00
         22   -1    0    0    0    0  0.00000000000E+00  0.00000000000E+00  0.89402291738E+02  0.89402291738E+02  0.00000000000E+00 0. -1.
         22   -1    0    0    0    0 -0.00000000000E+00 -0.00000000000E+00 -0.38445011466E+03  0.38445011466E+03  0.00000000000E+00 0. -1.
         25    2    1    2    0    0  0.47292533375E+01 -0.51680513434E+02 -0.10330227227E+03  0.17032743624E+03  0.12508730860E+03 0.  0.
        -24    2    1    2    0    0 -0.84663244102E+02  0.13244221837E+02 -0.90974121607E+02  0.14854497234E+03  0.80287257333E+02 0.  0.
         24    2    1    2    0    0  0.79933990764E+02  0.38436291597E+02 -0.10077142904E+03  0.15497999782E+03  0.77441122300E+02 0.  0.
        -11    1    5    5    0    0  0.70423737012E+01  0.21576110123E+02  0.70301647301E+01  0.23760193003E+02  0.00000000000E+00 0.  1.
         12    1    5    5    0    0  0.72891617063E+02  0.16860181474E+02 -0.10780159377E+03  0.13121980482E+03  0.00000000000E+00 0. -1.
         11    1    4    4    0    0 -0.94968947192E+02 -0.57223706924E+01 -0.80126723949E+02  0.12438705056E+03  0.00000000000E+00 0. -1.
        -12    1    4    4    0    0  0.10305703091E+02  0.18966592530E+02 -0.10847397658E+02  0.24157921772E+02  0.00000000000E+00 0.  1.
          5    1    3    3  501    0 -0.40734652201E+02 -0.66354158228E+02 -0.31744679844E+02  0.84186598117E+02  0.41800000000E+01 0.  1.
         -5    1    3    3    0  501  0.45463905538E+02  0.14673644794E+02 -0.71557592431E+02  0.86140838125E+02  0.41800000000E+01 0.  1.
</event>
<event>
11    1  0.2498402E-009  0.1473925E+03  0.7561462E-02  0.1099573E+00
         22   -1    0    0    0    0  0.00000000000E+00  0.00000000000E+00  0.24377033922E+02  0.24377033922E+02  0.00000000000E+00 0. -1.
         22   -1    0    0    0    0 -0.00000000000E+00 -0.00000000000E+00 -0.19243620230E+04  0.19243620230E+04  0.00000000000E+00 0.  1.
         25    2    1    2    0    0 -0.68350413988E+02  0.53711169967E+02 -0.12698071947E+04  0.12789116755E+04  0.12509233799E+03 0.  0.
         24    2    1    2    0    0 -0.15541343674E+01 -0.67607448470E+02 -0.43132843564E+03  0.44377208414E+03  0.79474907015E+02 0.  0.
        -24    2    1    2    0    0  0.69904548356E+02  0.13896278502E+02 -0.19884935874E+03  0.22605529733E+03  0.80499549967E+02 0.  0.
        -11    1    4    4    0    0  0.45383834248E+01 -0.75847980925E+02 -0.23088116014E+03  0.24306300262E+03  0.00000000000E+00 0.  1.
         12    1    4    4    0    0 -0.60925177922E+01  0.82405324553E+01 -0.20044727550E+03  0.20070908152E+03  0.00000000000E+00 0. -1.
         11    1    5    5    0    0  0.29357486400E+01 -0.28159836886E+02 -0.47723807726E+02  0.55490150995E+02  0.00000000000E+00 0. -1.
        -12    1    5    5    0    0  0.66968799716E+02  0.42056115388E+02 -0.15112555101E+03  0.17056514634E+03  0.00000000000E+00 0.  1.
          5    1    3    3  501    0  0.35476547675E+02  0.11777065457E+01 -0.27453291728E+03  0.27684972006E+03  0.41800000000E+01 0. -1.
         -5    1    3    3    0  501 -0.10382696166E+03  0.52533463422E+02 -0.99527427745E+03  0.10020619554E+04  0.41800000000E+01 0. -1.
</event>
<event>
11    1  0.2498402E-009  0.4610494E+03  0.7561462E-02  0.9485034E-01
         22   -1    0    0    0    0  0.00000000000E+00  0.00000000000E+00  0.52023722056E+03  0.52023722056E+03  0.00000000000E+00 0.  1.
         22   -1    0    0    0    0 -0.00000000000E+00 -0.00000000000E+00 -0.35787621291E+03  0.35787621291E+03  0.00000000000E+00 0.  1.
         25    2    1    2    0    0  0.17643630295E+03 -0.40339774445E+02 -0.20463913694E+02  0.22096051194E+03  0.12509080571E+03 0.  0.
         24    2    1    2    0    0 -0.39069687620E+03  0.25026286441E+01  0.11187040781E+03  0.41430759809E+03  0.80532511870E+02 0.  0.
        -24    2    1    2    0    0  0.21426057324E+03  0.37837145801E+02  0.70954513525E+02  0.24284532344E+03  0.81240785799E+02 0.  0.
        -11    1    4    4    0    0 -0.25012329165E+02 -0.18949517355E+02  0.17928123043E+02  0.36140260293E+02  0.00000000000E+00 0.  1.
         12    1    4    4    0    0 -0.36568454703E+03  0.21452145999E+02  0.93942284769E+02  0.37816733779E+03  0.00000000000E+00 0. -1.
         13    1    5    5    0    0  0.17293075845E+03  0.41298348523E+02  0.87541491101E+02  0.19817697513E+03  0.00000000000E+00 0. -1.
        -14    1    5    5    0    0  0.41329814793E+02 -0.34612027216E+01 -0.16586977576E+02  0.44668348304E+02  0.00000000000E+00 0.  1.
          5    1    3    3  501    0  0.11433407493E+03 -0.78243543160E+02 -0.42241616036E+02  0.14490051505E+03  0.41800000000E+01 0.  1.
         -5    1    3    3    0  501  0.62102228020E+02  0.37903768715E+02  0.21777702342E+02  0.76059996892E+02  0.41800000000E+01 0.  1.
</event>
<event>
11    1  0.2498402E-009  0.1652956E+03  0.7561462E-02  0.1082200E+00
         22   -1    0    0    0    0  0.00000000000E+00  0.00000000000E+00  0.62827297103E+02  0.62827297103E+02  0.00000000000E+00 0. -1.
         22   -1    0    0    0    0 -0.00000000000E+00 -0.00000000000E+00 -0.73652358953E+03  0.73652358953E+03  0.00000000000E+00 0.  1.
         25    2    1    2    0    0 -0.11476049027E+03 -0.61397757310E+02 -0.45082532706E+03  0.48562438339E+03  0.12509161241E+03 0.  0.
        -24    2    1    2    0    0  0.83865089516E+02  0.16887512229E+02 -0.15778089181E+03  0.19683438238E+03  0.80811032396E+02 0.  0.
         24    2    1    2    0    0  0.30895400751E+02  0.44510245081E+02 -0.65090073551E+02  0.11689212086E+03  0.80568992419E+02 0.  0.
        -13    1    5    5    0    0  0.56233314588E+02  0.43793729861E+02 -0.42802613315E+02  0.83139281638E+02  0.00000000000E+00 0.  1.
         14    1    5    5    0    0 -0.25337913838E+02  0.71651522023E+00 -0.22287460236E+02  0.33752839221E+02  0.00000000000E+00 0. -1.
         13    1    4    4    0    0  0.90791614122E+02  0.12377382771E+02 -0.89612612430E+02  0.12816683310E+03  0.00000000000E+00 0. -1.
        -14    1    4    4    0    0 -0.69265246058E+01  0.45101294577E+01 -0.68168279382E+02  0.68667549284E+02  0.00000000000E+00 0.  1.
          5    1    3    3  501    0 -0.64959334320E+02 -0.97841735526E+02 -0.26843983164E+03  0.29303606594E+03  0.41800000000E+01 0. -1.
         -5    1    3    3    0  501 -0.49801155946E+02  0.36443978216E+02 -0.18238549542E+03  0.19258831746E+03  0.41800000000E+01 0. -1.
</event>
<event>
11    1  0.2498402E-009  0.7174099E+03  0.7561462E-02  0.9007035E-01
         22   -1    0    0    0    0  0.00000000000E+00  0.00000000000E+00  0.15708990151E+03  0.15708990151E+03  0.00000000000E+00 0. -1.
         22   -1    0    0    0    0 -0.00000000000E+00 -0.00000000000E+00 -0.39964920791E+04  0.39964920791E+04  0.00000000000E+00 0. -1.
         25    2    1    2    0    0 -0.63065274939E+03  0.31465412839E+03 -0.24103442484E+04  0.25143859339E+04  0.12508843924E+03 0.  0.
         24    2    1    2    0    0  0.65007153266E+03 -0.28512436325E+03 -0.12959928423E+04  0.14797468155E+04  0.78512996577E+02 0.  0.
        -24    2    1    2    0    0 -0.19418783274E+02 -0.29529765139E+02 -0.13306508691E+03  0.15944923129E+03  0.80427879675E+02 0.  0.
        -13    1    4    4    0    0  0.24327811362E+03 -0.13889376582E+03 -0.56111264149E+03  0.62715477770E+03  0.00000000000E+00 0.  1.
         14    1    4    4    0    0  0.40679341904E+03 -0.14623059742E+03 -0.73488020076E+03  0.85259203777E+03  0.00000000000E+00 0. -1.
         13    1    5    5    0    0 -0.24227646406E+02 -0.36996164476E+02 -0.24568134375E+02  0.50589408605E+02  0.00000000000E+00 0. -1.
        -14    1    5    5    0    0  0.48088631319E+01  0.74663993376E+01 -0.10849695254E+03  0.10885982268E+03  0.00000000000E+00 0.  1.
          5    1    3    3  501    0 -0.39967771366E+03  0.19304475369E+03 -0.17192429775E+04  0.17756188892E+04  0.41800000000E+01 0.  1.
         -5    1    3    3    0  501 -0.23097503573E+03  0.12160937469E+03 -0.69110127093E+03  0.73876704463E+03  0.41800000000E+01 0.  1.
</event>
<event>
11    1  0.2498402E-009  0.5415250E+03  0.7561462E-02  0.9305238E-01
         22   -1    0    0    0    0  0.00000000000E+00  0.00000000000E+00  0.10151319707E+04  0.10151319707E+04  0.00000000000E+00 0. -1.
         22   -1    0    0    0    0 -0.00000000000E+00 -0.00000000000E+00 -0.24321472489E+04  0.24321472489E+04  0.00000000000E+00 0. -1.
         25    2    1    2    0    0  0.19577997821E+03  0.39812931140E+02 -0.11212744785E+04  0.11457830377E+04  0.12508974377E+03 0.  0.
        -24    2    1    2    0    0  0.36567146378E+02  0.45020499234E+03 -0.11771135370E+04  0.12633396106E+04  0.80056239303E+02 0.  0.
         24    2    1    2    0    0 -0.23234712459E+03 -0.49001792348E+03  0.88137273727E+03  0.10381565712E+04  0.82755137461E+02 0.  0.
        -13    1    5    5    0    0 -0.17636359486E+02 -0.40478176907E+02  0.36253826938E+02  0.57130236733E+02  0.00000000000E+00 0.  1.
         14    1    5    5    0    0 -0.21471076511E+03 -0.44953974657E+03  0.84511891033E+03  0.98102633451E+03  0.00000000000E+00 0. -1.
         13    1    4    4    0    0  0.55272884584E+02  0.21648841711E+03 -0.53645321013E+03  0.58112337174E+03  0.00000000000E+00 0. -1.
        -14    1    4    4    0    0 -0.18705738206E+02  0.23371657523E+03 -0.64066032688E+03  0.68221623890E+03  0.00000000000E+00 0.  1.
          5    1    3    3  501    0  0.36411197668E+02  0.64190013374E+02 -0.38877222029E+03  0.39573658512E+03  0.41800000000E+01 0.  1.
         -5    1    3    3    0  501  0.15936878055E+03 -0.24377082234E+02 -0.73250225821E+03  0.75004645259E+03  0.41800000000E+01 0.  1.
</event>
<event>
11    1  0.2498402E-009  0.1816734E+03  0.7561462E-02  0.1068297E+00
         22   -1    0    0    0    0  0.00000000000E+00  0.00000000000E+00  0.88496859556E+03  0.88496859556E+03  0.00000000000E+00 0.  1.
         22   -1    0    0    0    0 -0.00000000000E+00 -0.00000000000E+00 -0.17245560025E+04  0.17245560025E+04  0.00000000000E+00 0.  1.
         25    2    1    2    0    0  0.11274400407E+03 -0.71537559695E+02 -0.16934889623E+04  0.17033432396E+04  0.12507795069E+03 0.  0.
        -24    2    1    2    0    0 -0.44023062847E+02  0.74254617511E+02  0.13029516434E+03  0.17475212472E+03  0.78164550521E+02 0.  0.
         24    2    1    2    0    0 -0.68720941222E+02 -0.27170578160E+01  0.72360639101E+03  0.73142923369E+03  0.81563255356E+02 0.  0.
        -11    1    5    5    0    0 -0.84615014744E+02  0.22353115110E+01  0.49223569777E+03  0.49946038832E+03  0.00000000000E+00 0.  1.
         12    1    5    5    0    0  0.15894073522E+02 -0.49523693270E+01  0.23137069323E+03  0.23196884537E+03  0.00000000000E+00 0. -1.
         13    1    4    4    0    0 -0.38122621759E+02  0.90866039184E+02  0.11470427200E+03  0.15121852195E+03  0.00000000000E+00 0. -1.
        -14    1    4    4    0    0 -0.59004410879E+01 -0.16611421673E+02  0.15590892344E+02  0.23533602765E+02  0.00000000000E+00 0.  1.
          5    1    3    3  501    0 -0.11383473693E+02 -0.54458786221E-01 -0.17801079603E+02  0.21539203191E+02  0.41800000000E+01 0. -1.
         -5    1    3    3    0  501  0.12412747776E+03 -0.71483100909E+02 -0.16756878827E+04  0.16818040364E+04  0.41800000000E+01 0.  1.
</event>
<event>
11    1  0.2498402E-009  0.2316707E+03  0.7561462E-02  0.1034143E+00
         22   -1    0    0    0    0  0.00000000000E+00  0.00000000000E+00  0.95436826191E+03  0.95436826191E+03  0.00000000000E+00 0. -1.
         22   -1    0    0    0    0 -0.00000000000E+00 -0.00000000000E+00 -0.36569244285E+03  0.36569244285E+03  0.00000000000E+00 0. -1.
         25    2    1    2    0    0  0.15098253441E+03 -0.17605431127E+03 -0.14294255861E+03  0.29978438380E+03  0.12508899030E+03 0.  0.
        -24    2    1    2    0    0 -0.11254248252E+03  0.12161776122E+03 -0.78801904023E+02  0.20348731807E+03  0.87981011146E+02 0.  0.
         24    2    1    2    0    0 -0.38440051882E+02  0.54436550054E+02  0.81042028170E+03  0.81678900288E+03  0.76956264666E+02 0.  0.
        -13    1    5    5    0    0 -0.15823156778E+02  0.16165953195E+02  0.47887414386E+02  0.52961446258E+02  0.00000000000E+00 0.  1.
         14    1    5    5    0    0 -0.22616895104E+02  0.38270596859E+02  0.76253286731E+03  0.76382755662E+03  0.00000000000E+00 0. -1.
         13    1    4    4    0    0 -0.11273953702E+03  0.79528053218E+02 -0.83289685337E+02  0.16115857452E+03  0.00000000000E+00 0. -1.
        -14    1    4    4    0    0  0.19705449679E+00  0.42089708000E+02  0.44877813134E+01  0.42328743557E+02  0.00000000000E+00 0.  1.
          5    1    3    3  501    0  0.97637474945E+02 -0.29980338095E+02 -0.87743459373E+02  0.13471556795E+03  0.41800000000E+01 0.  1.
         -5    1    3    3    0  501  0.53345059462E+02 -0.14607397318E+03 -0.55199099237E+02  0.16506881585E+03  0.41800000000E+01 0.  1.
</event>
<event>
11    1  0.2498402E-009  0.6857498E+03  0.7561462E-02  0.9053572E-01
         22   -1    0    0    0    0  0.00000000000E+00  0.00000000000E+00  0.78183803471E+03  0.78183803471E+03  0.00000000000E+00 0. -1.
         22   -1    0    0    0    0 -0.00000000000E+00 -0.00000000000E+00 -0.15947202197E+04  0.15947202197E+04  0.00000000000E+00 0. -1.
         25    2    1    2    0    0 -0.71609824792E+02  0.64798344111E+03 -0.94336463494E+03  0.11535141881E+04  0.12509053032E+03 0.  0.
         24    2    1    2    0    0 -0.23538527785E+03 -0.80429540984E+03  0.19246196346E+03  0.86352540447E+03  0.79606416049E+02 0.  0.
        -24    2    1    2    0    0  0.30699510264E+03  0.15631196872E+03 -0.61979513542E+02  0.35951866185E+03  0.82053540489E+02 0.  0.
        -13    1    4    4    0    0 -0.37971929039E+02 -0.22839576120E+03  0.76039120173E+02  0.24369743315E+03  0.00000000000E+00 0.  1.
         14    1    4    4    0    0 -0.19741334881E+03 -0.57589964864E+03  0.11642284328E+03  0.61982797132E+03  0.00000000000E+00 0. -1.
         13    1    5    5    0    0  0.76338050735E+02  0.79377469444E+02 -0.77873282855E+01  0.11040345614E+03  0.00000000000E+00 0. -1.
        -14    1    5    5    0    0  0.23065705191E+03  0.76934499280E+02 -0.54192185256E+02  0.24911520571E+03  0.00000000000E+00 0.  1.
          5    1    3    3  501    0 -0.33444658631E+02  0.18653710055E+03 -0.18441640657E+03  0.26446458833E+03  0.41800000000E+01 0.  1.
         -5    1    3    3    0  501 -0.38165166161E+02  0.46144634057E+03 -0.75894822837E+03  0.88904959978E+03  0.41800000000E+01 0.  1.
</event>
<event>
11    1  0.2498402E-009  0.2139804E+03  0.7561462E-02  0.1045055E+00
         22   -1    0    0    0    0  0.00000000000E+00  0.00000000000E+00  0.24152978338E+04  0.24152978338E+04  0.00000000000E+00 0. -1.
         22   -1    0    0    0    0 -0.00000000000E+00 -0.00000000000E+00 -0.28501181056E+03  0.28501181056E+03  0.00000000000E+00 0. -1.
         25    2    1    2    0    0  0.36423066482E+02  0.16760124633E+03 -0.22087481952E+03  0.30634967701E+03  0.12509045193E+03 0.  0.
         24    2    1    2    0    0  0.37935300663E+02 -0.22264938325E+03  0.73564379627E+03  0.77382653295E+03  0.81387180803E+02 0.  0.
        -24    2    1    2    0    0 -0.74358367145E+02  0.55048136914E+02  0.16155170465E+04  0.16201334344E+04  0.79859586819E+02 0.  0.
        -13    1    4    4    0    0 -0.14897967982E+01 -0.50022005788E+02  0.29010962896E+03  0.29439432293E+03  0.00000000000E+00 0.  1.
         14    1    4    4    0    0  0.39425097461E+02 -0.17262737746E+03  0.44553416732E+03  0.47943221002E+03  0.00000000000E+00 0. -1.
         13    1    5    5    0    0 -0.37948579135E+02  0.54646205389E+02  0.13986017126E+04  0.14001832212E+04  0.00000000000E+00 0. -1.
        -14    1    5    5    0    0 -0.36409788010E+02  0.40193152542E+00  0.21691533392E+03  0.21995021323E+03  0.00000000000E+00 0.  1.
          5    1    3    3  501    0  0.63100480550E+02  0.13905334086E+03 -0.10868316816E+03  0.18747534689E+03  0.41800000000E+01 0.  1.
         -5    1    3    3    0  501 -0.26677414067E+02  0.28547905478E+02 -0.11219165136E+03  0.11887433013E+03  0.41800000000E+01 0.  1.
</event>
<event>
11    1  0.2498402E-009  0.3609702E+03  0.7561462E-02  0.9772500E-01
         22   -1    0    0    0    0  0.00000000000E+00  0.00000000000E+00  0.70754193006E+03  0.70754193006E+03  0.00000000000E+00 0.  1.
         22   -1    0    0    0    0 -0.00000000000E+00 -0.00000000000E+00 -0.14037636832E+03  0.14037636832E+03  0.00000000000E+00 0. -1.
         25    2    1    2    0    0 -0.49486753376E+02 -0.91711822539E+02  0.12643836592E+03  0.20614111626E+03  0.12508997675E+03 0.  0.
         24    2    1    2    0    0  0.21688117455E+03  0.12677271944E+03  0.17930457650E+03  0.31807340962E+03  0.76888207733E+02 0.  0.
        -24    2    1    2    0    0 -0.16739442117E+03 -0.35060896902E+02  0.26142261932E+03  0.32370377250E+03  0.84806766857E+02 0.  0.
        -13    1    4    4    0    0  0.14095404912E+03  0.40046882004E+02  0.11347976139E+03  0.18533605415E+03  0.00000000000E+00 0.  1.
         14    1    4    4    0    0  0.75927125426E+02  0.86725837436E+02  0.65824815112E+02  0.13273735548E+03  0.00000000000E+00 0. -1.
         13    1    5    5    0    0 -0.84484952784E+02 -0.36390352161E+02  0.71631194032E+02  0.11658899149E+03  0.00000000000E+00 0. -1.
        -14    1    5    5    0    0 -0.82909468387E+02  0.13294552589E+01  0.18979142529E+03  0.20711478101E+03  0.00000000000E+00 0.  1.
          5    1    3    3  501    0 -0.53286433715E+02 -0.34243704853E+02  0.13363874495E+03  0.14794884891E+03  0.41800000000E+01 0.  1.
         -5    1    3    3    0  501  0.37996803387E+01 -0.57468117686E+02 -0.72003790365E+01  0.58192267350E+02  0.41800000000E+01 0.  1.
</event>
<event>
11    1  0.2498402E-009  0.1293214E+03  0.7561462E-02  0.1120106E+00
         22   -1    0    0    0    0  0.00000000000E+00  0.00000000000E+00  0.24855422527E+04  0.24855422527E+04  0.00000000000E+00 0.  1.
         22   -1    0    0    0    0 -0.00000000000E+00 -0.00000000000E+00 -0.25573502382E+02  0.25573502382E+02  0.00000000000E+00 0. -1.
         25    2    1    2    0    0 -0.20666114050E+02 -0.14449531174E+02  0.26485877457E+03  0.29399708202E+03  0.12509291165E+03 0.  0.
         24    2    1    2    0    0  0.40214108760E+02  0.21278928922E+01  0.19360498526E+03  0.21387012225E+03  0.81460643277E+02 0.  0.
        -24    2    1    2    0    0 -0.19547994710E+02  0.12321638281E+02  0.20015049905E+04  0.20032485508E+04  0.80303066772E+02 0.  0.
        -11    1    4    4    0    0  0.44548254656E+02  0.25406266382E+02  0.17864834135E+03  0.18586353928E+03  0.00000000000E+00 0.  1.
         12    1    4    4    0    0 -0.43341458962E+01 -0.23278373490E+02  0.14956643906E+02  0.28006582975E+02  0.00000000000E+00 0. -1.
         11    1    5    5    0    0 -0.24473963691E+02  0.43784169445E+02  0.14037012955E+04  0.14045972217E+04  0.00000000000E+00 0. -1.
        -12    1    5    5    0    0  0.49259689807E+01 -0.31462531163E+02  0.59780369498E+03  0.59865132904E+03  0.00000000000E+00 0.  1.
          5    1    3    3  501    0  0.41019422621E+02  0.25276974088E+02  0.15032663490E+03  0.15791481252E+03  0.41800000000E+01 0. -1.
         -5    1    3    3    0  501 -0.61685536670E+02 -0.39726505262E+02  0.11453213967E+03  0.13608226950E+03  0.41800000000E+01 0. -1.
</event>
<event>
11    1  0.2498402E-009  0.7293653E+03  0.7561462E-02  0.8990116E-01
         22   -1    0    0    0    0  0.00000000000E+00  0.00000000000E+00  0.13555583189E+04  0.13555583189E+04  0.00000000000E+00 0. -1.
         22   -1    0    0    0    0 -0.00000000000E+00 -0.00000000000E+00 -0.70445492464E+03  0.70445492464E+03  0.00000000000E+00 0. -1.
         25    2    1    2    0    0  0.35642014706E+03 -0.63371518317E+03  0.12133721746E+02  0.73785167726E+03  0.12509043056E+03 0.  0.
        -24    2    1    2    0    0 -0.57484361904E+03  0.46185871261E+03  0.15549857649E+03  0.75825379595E+03  0.83727862883E+02 0.  0.
         24    2    1    2    0    0  0.21842347197E+03  0.17185647056E+03  0.48347109606E+03  0.56390777036E+03  0.83691177334E+02 0.  0.
        -13    1    5    5    0    0  0.88478830007E+02  0.10361611924E+03  0.29568405591E+03  0.32556698918E+03  0.00000000000E+00 0.  1.
         14    1    5    5    0    0  0.12994464196E+03  0.68240351323E+02  0.18778704015E+03  0.23834078118E+03  0.00000000000E+00 0. -1.
         13    1    4    4    0    0 -0.44401662448E+03  0.39553744409E+03  0.13881294100E+03  0.61063054713E+03  0.00000000000E+00 0. -1.
        -14    1    4    4    0    0 -0.13082699455E+03  0.66321268524E+02  0.16685635485E+02  0.14762324882E+03  0.00000000000E+00 0.  1.
          5    1    3    3  501    0  0.90991427089E+02 -0.20545554193E+03  0.57414835742E+02  0.23195981392E+03  0.41800000000E+01 0.  1.
         -5    1    3    3    0  501  0.26542871998E+03 -0.42825964124E+03 -0.45281113996E+02  0.50589186334E+03  0.41800000000E+01 0.  1.
</event>
<event>
11    1  0.2498402E-009  0.2344394E+03  0.7561462E-02  0.1032531E+00
         22   -1    0    0    0    0  0.00000000000E+00  0.00000000000E+00  0.38252490774E+03  0.38252490774E+03  0.00000000000E+00 0. -1.
         22   -1    0    0    0    0 -0.00000000000E+00 -0.00000000000E+00 -0.26243295349E+03  0.26243295349E+03  0.00000000000E+00 0.  1.
         25    2    1    2    0    0  0.43267343501E+02  0.15050353166E+03  0.30086052654E+02  0.20267281782E+03  0.12509086483E+03 0.  0.
        -24    2    1    2    0    0 -0.15676704070E+03 -0.19642229624E+03 -0.11878880295E+02  0.26435361337E+03  0.81142477135E+02 0.  0.
         24    2    1    2    0    0  0.11349969720E+03  0.45918764582E+02  0.10188478189E+03  0.17793143004E+03  0.79299248497E+02 0.  0.
        -13    1    5    5    0    0  0.15777051532E+02 -0.21850543673E+02  0.19026696612E+02  0.32990556191E+02  0.00000000000E+00 0.  1.
         14    1    5    5    0    0  0.97722645665E+02  0.67769308255E+02  0.82858085278E+02  0.14494087385E+03  0.00000000000E+00 0. -1.
         11    1    4    4    0    0 -0.75980389582E+02 -0.67215910303E+02  0.30958522713E+02  0.10606332225E+03  0.00000000000E+00 0. -1.
        -12    1    4    4    0    0 -0.80786651115E+02 -0.12920638594E+03 -0.42837403008E+02  0.15829029112E+03  0.00000000000E+00 0.  1.
          5    1    3    3  501    0 -0.29122811039E+02  0.11637877985E+03  0.13096527131E+02  0.12075243246E+03  0.41800000000E+01 0.  1.
         -5    1    3    3    0  501  0.72390154540E+02  0.34124751811E+02  0.16989525524E+02  0.81920385362E+02  0.41800000000E+01 0.  1.
</event>
<event>
11    1  0.2498402E-009  0.2306024E+03  0.7561462E-02  0.1034772E+00
         22   -1    0    0    0    0  0.00000000000E+00  0.00000000000E+00  0.30102442212E+03  0.30102442212E+03  0.00000000000E+00 0. -1.
         22   -1    0    0    0    0 -0.00000000000E+00 -0.00000000000E+00 -0.42869051205E+03  0.42869051205E+03  0.00000000000E+00 0.  1.
         25    2    1    2    0    0  0.44311680972E+02  0.12790489187E+03 -0.15690123831E+03  0.24205046895E+03  0.12508894636E+03 0.  0.
         24    2    1    2    0    0  0.18499412082E+03 -0.27983073792E+02 -0.56571104614E+02  0.21145686745E+03  0.80671182943E+02 0.  0.
        -24    2    1    2    0    0 -0.22930580179E+03 -0.99921818075E+02  0.85806252995E+02  0.27620759777E+03  0.79764676065E+02 0.  0.
        -13    1    4    4    0    0  0.16748924944E+03 -0.20709117958E+02 -0.75306833111E+02  0.18480431639E+03  0.00000000000E+00 0.  1.
         14    1    4    4    0    0  0.17504871384E+02 -0.72739558340E+01  0.18735728497E+02  0.26652551059E+02  0.00000000000E+00 0. -1.
         11    1    5    5    0    0 -0.22040701211E+03 -0.11196688309E+03  0.84125941515E+02  0.26113790979E+03  0.00000000000E+00 0. -1.
        -12    1    5    5    0    0 -0.88987896836E+01  0.12045065012E+02  0.16803114802E+01  0.15069687974E+02  0.00000000000E+00 0.  1.
          5    1    3    3  501    0  0.49797034245E+02  0.10578985825E+03 -0.41181445181E+02  0.12403476349E+03  0.41800000000E+01 0. -1.
         -5    1    3    3    0  501 -0.54853532722E+01  0.22115033618E+02 -0.11571979313E+03  0.11801570546E+03  0.41800000000E+01 0. -1.
</event>
<event>
11    1  0.2498402E-009  0.2036322E+03  0.7561462E-02  0.1051984E+00
         22   -1    0    0    0    0  0.00000000000E+00  0.00000000000E+00  0.27121099746E+03  0.27121099746E+03  0.00000000000E+00 0.  1.
         22   -1    0    0    0    0 -0.00000000000E+00 -0.00000000000E+00 -0.24525231141E+03  0.24525231141E+03  0.00000000000E+00 0. -1.
         25    2    1    2    0    0 -0.13125565399E+03  0.69833589202E+01 -0.20616718246E+02  0.18261776488E+03  0.12508950784E+03 0.  0.
         24    2    1    2    0    0  0.20470859670E+03 -0.19617458154E+02  0.26558760780E+02  0.22204958715E+03  0.79436749381E+02 0.  0.
        -24    2    1    2    0    0 -0.73452942714E+02  0.12634099234E+02  0.20016643512E+02  0.11179595685E+03  0.80887048981E+02 0.  0.
        -13    1    4    4    0    0  0.18154692299E+03 -0.24291103873E+02  0.48848531468E+02  0.18956666902E+03  0.00000000000E+00 0.  1.
         14    1    4    4    0    0  0.23161673710E+02  0.46736457191E+01 -0.22289770687E+02  0.32482918136E+02  0.00000000000E+00 0. -1.
         13    1    5    5    0    0 -0.58183151920E+02  0.40522142753E+00 -0.24529194996E+02  0.63143683602E+02  0.00000000000E+00 0. -1.
        -14    1    5    5    0    0 -0.15269790794E+02  0.12228877807E+02  0.44545838509E+02  0.48652273243E+02  0.00000000000E+00 0.  1.
          5    1    3    3  501    0 -0.62660605311E+02 -0.46170031142E+02  0.28287763073E+02  0.82919799646E+02  0.41800000000E+01 0. -1.
         -5    1    3    3    0  501 -0.68595048677E+02  0.53153390062E+02 -0.48904481319E+02  0.99697965231E+02  0.41800000000E+01 0. -1.
</event>
<event>
11    1  0.2498402E-009  0.2337334E+03  0.7561462E-02  0.1032940E+00
         22   -1    0    0    0    0  0.00000000000E+00  0.00000000000E+00  0.66532369764E+03  0.66532369764E+03  0.00000000000E+00 0.  1.
         22   -1    0    0    0    0 -0.00000000000E+00 -0.00000000000E+00 -0.27680246620E+03  0.27680246620E+03  0.00000000000E+00 0.  1.
         25    2    1    2    0    0 -0.69332306678E+02 -0.89146533131E+02 -0.11415645002E+03  0.20355221923E+03  0.12509091794E+03 0.  0.
         24    2    1    2    0    0  0.88289540964E+02  0.27844545035E+03  0.17882273408E+03  0.35441292274E+03  0.91126492949E+02 0.  0.
        -24    2    1    2    0    0 -0.18957234285E+02 -0.18929891722E+03  0.32385494738E+03  0.38416102187E+03  0.80648663925E+02 0.  0.
        -11    1    4    4    0    0  0.75121629891E+02  0.10008101501E+03  0.53885521205E+02  0.13624653477E+03  0.00000000000E+00 0.  1.
         12    1    4    4    0    0  0.13167911072E+02  0.17836443535E+03  0.12493721287E+03  0.21816638797E+03  0.00000000000E+00 0. -1.
         13    1    5    5    0    0 -0.19012743345E+02 -0.18260700444E+03  0.25089094914E+03  0.31089076996E+03  0.00000000000E+00 0. -1.
        -14    1    5    5    0    0  0.55509059569E-01 -0.66919127785E+01  0.72963998233E+02  0.73270251918E+02  0.00000000000E+00 0.  1.
          5    1    3    3  501    0 -0.56707128841E+02 -0.38777122603E+01  0.41163578713E+01  0.57141507819E+02  0.41800000000E+01 0.  1.
         -5    1    3    3    0  501 -0.12625177838E+02 -0.85268820871E+02 -0.11827280789E+03  0.14641071141E+03  0.41800000000E+01 0.  1.
</event>
<event>
11    1  0.2498402E-009  0.4138224E+03  0.7561462E-02  0.9609832E-01
         22   -1    0    0    0    0  0.00000000000E+00  0.00000000000E+00  0.20879943758E+04  0.20879943758E+04  0.00000000000E+00 0. -1.
         22   -1    0    0    0    0 -0.00000000000E+00 -0.00000000000E+00 -0.22720890620E+03  0.22720890620E+03  0.00000000000E+00 0.  1.
         25    2    1    2    0    0  0.21566741604E+03  0.32954323651E+02  0.55358145549E+01  0.25155101491E+03  0.12509534792E+03 0.  0.
         24    2    1    2    0    0  0.22483800854E+03 -0.19243151581E+03  0.26989064049E+03  0.40856247813E+03  0.80624576587E+02 0.  0.
        -24    2    1    2    0    0 -0.44050542458E+03  0.15947719216E+03  0.15853590145E+04  0.16550897889E+04  0.80504661711E+02 0.  0.
        -11    1    4    4    0    0  0.13302070329E+03 -0.60940993865E+02  0.12556788433E+03  0.19280976586E+03  0.00000000000E+00 0.  1.
         12    1    4    4    0    0  0.91817305250E+02 -0.13149052195E+03  0.14432275616E+03  0.21575271227E+03  0.00000000000E+00 0. -1.
         11    1    5    5    0    0 -0.33882625539E+02  0.34528597509E+01  0.20011254375E+03  0.20299010991E+03  0.00000000000E+00 0. -1.
        -12    1    5    5    0    0 -0.40662279904E+03  0.15602433241E+03  0.13852464708E+04  0.14520996790E+04  0.00000000000E+00 0.  1.
          5    1    3    3  501    0  0.16660294095E+03  0.27237281369E+02  0.58777826506E+02  0.17880356462E+03  0.41800000000E+01 0. -1.
         -5    1    3    3    0  501  0.49064475085E+02  0.57170422819E+01 -0.53242011951E+02  0.72747450295E+02  0.41800000000E+01 0. -1.
</event>
<event>
11    1  0.2498402E-009  0.2055360E+03  0.7561462E-02  0.1050676E+00
         22   -1    0    0    0    0  0.00000000000E+00  0.00000000000E+00  0.40321357768E+03  0.40321357768E+03  0.00000000000E+00 0.  1.
         22   -1    0    0    0    0 -0.00000000000E+00 -0.00000000000E+00 -0.15335653941E+03  0.15335653941E+03  0.00000000000E+00 0.  1.
         25    2    1    2    0    0 -0.81063531534E+02 -0.13161950764E+03  0.43490351264E+02  0.20355031487E+03  0.12508528728E+03 0.  0.
        -24    2    1    2    0    0  0.99982684690E+02  0.14526167741E+03  0.14147014917E+03  0.23943366831E+03  0.78849136032E+02 0.  0.
         24    2    1    2    0    0 -0.18919153157E+02 -0.13642169771E+02  0.64896537842E+02  0.11358613391E+03  0.90256335182E+02 0.  0.
        -11    1    5    5    0    0  0.77233875249E+00 -0.14544572409E+02 -0.20944402509E+02  0.25510960197E+02  0.00000000000E+00 0.  1.
         12    1    5    5    0    0 -0.19691491909E+02  0.90240263813E+00  0.85840940351E+02  0.88075173712E+02  0.00000000000E+00 0. -1.
         13    1    4    4    0    0  0.50278658945E+01 -0.42463496682E+01  0.28749594809E+02  0.29493221639E+02  0.00000000000E+00 0. -1.
        -14    1    4    4    0    0  0.94954818796E+02  0.14950802708E+03  0.11272055436E+03  0.20994044667E+03  0.00000000000E+00 0.  1.
          5    1    3    3  501    0 -0.87356849983E+02 -0.39519929168E+02 -0.10469188999E+02  0.96540770448E+02  0.41800000000E+01 0.  1.
         -5    1    3    3    0  501  0.62933184494E+01 -0.92099578474E+02  0.53959540263E+02  0.10700954442E+03  0.41800000000E+01 0.  1.
</event>
<event>
11    1  0.2498402E-009  0.8802421E+03  0.7561462E-02  0.8802088E-01
         22   -1    0    0    0    0  0.00000000000E+00  0.00000000000E+00  0.12095887856E+04  0.12095887856E+04  0.00000000000E+00 0. -1.
         22   -1    0    0    0    0 -0.00000000000E+00 -0.00000000000E+00 -0.16715019101E+04  0.16715019101E+04  0.00000000000E+00 0. -1.
         25    2    1    2    0    0 -0.44383636835E+03  0.73782089932E+03 -0.12711209385E+04  0.15403789509E+04  0.12509384752E+03 0.  0.
        -24    2    1    2    0    0  0.52100946814E+03 -0.78707225445E+03  0.70217222023E+03  0.11792098140E+04  0.80971347026E+02 0.  0.
         24    2    1    2    0    0 -0.77173099783E+02  0.49251355128E+02  0.10703559372E+03  0.16150193075E+03  0.79024502521E+02 0.  0.
        -11    1    5    5    0    0  0.14744425986E+02 -0.21692622665E+01  0.79266722978E+01  0.16880045324E+02  0.00000000000E+00 0.  1.
         12    1    5    5    0    0 -0.91917525769E+02  0.51420617395E+02  0.99108921427E+02  0.14462188542E+03  0.00000000000E+00 0. -1.
         13    1    4    4    0    0  0.34256384449E+03 -0.45108463495E+03  0.40103138359E+03  0.69401261233E+03  0.00000000000E+00 0. -1.
        -14    1    4    4    0    0  0.17844562365E+03 -0.33598761950E+03  0.30114083664E+03  0.48519720171E+03  0.00000000000E+00 0.  1.
          5    1    3    3  501    0 -0.15183483538E+03  0.22551224757E+03 -0.50551049496E+03  0.57399296508E+03  0.41800000000E+01 0. -1.
         -5    1    3    3    0  501 -0.29200153297E+03  0.51230865175E+03 -0.76561044357E+03  0.96638598584E+03  0.41800000000E+01 0. -1.
</event>
<event>
11    1  0.2498402E-009  0.1428099E+03  0.7561462E-02  0.1104461E+00
         22   -1    0    0    0    0  0.00000000000E+00  0.00000000000E+00  0.41547752624E+02  0.41547752624E+02  0.00000000000E+00 0. -1.
         22   -1    0    0    0    0 -0.00000000000E+00 -0.00000000000E+00 -0.14086410091E+04  0.14086410091E+04  0.00000000000E+00 0.  1.
         25    2    1    2    0    0 -0.33573124162E+02  0.84503925013E+02 -0.92752531918E+03  0.94032921162E+03  0.12509092892E+03 0.  0.
         24    2    1    2    0    0  0.11988111383E+02 -0.21259730560E+02 -0.38186327681E+03  0.39113843136E+03  0.81080326525E+02 0.  0.
        -24    2    1    2    0    0  0.21585012779E+02 -0.63244194452E+02 -0.57704660502E+02  0.11872111876E+03  0.79367091972E+02 0.  0.
        -13    1    4    4    0    0  0.42482974621E+02 -0.22126982873E+02 -0.15498416461E+03  0.16221743982E+03  0.00000000000E+00 0.  1.
         14    1    4    4    0    0 -0.30494863238E+02  0.86725231263E+00 -0.22687911220E+03  0.22892099153E+03  0.00000000000E+00 0. -1.
         13    1    5    5    0    0  0.26672468951E+01 -0.36283048687E+02  0.14652303736E+02  0.39220706684E+02  0.00000000000E+00 0. -1.
        -14    1    5    5    0    0  0.18917765884E+02 -0.26961145765E+02 -0.72356964238E+02  0.79500412079E+02  0.00000000000E+00 0.  1.
          5    1    3    3  501    0 -0.58211478620E+02 -0.71170814810E+01 -0.30705209781E+03  0.31263028046E+03  0.41800000000E+01 0.  1.
         -5    1    3    3    0  501  0.24638354458E+02  0.91621006494E+02 -0.62047322137E+03  0.62769893116E+03  0.41800000000E+01 0.  1.
</event>
<event>
11    1  0.2498402E-009  0.5869400E+03  0.7561462E-02  0.9217818E-01
         22   -1    0    0    0    0  0.00000000000E+00  0.00000000000E+00  0.99473373433E+03  0.99473373433E+03  0.00000000000E+00 0.  1.
         22   -1    0    0    0    0 -0.00000000000E+00 -0.00000000000E+00 -0.99038706236E+03  0.99038706236E+03  0.00000000000E+00 0.  1.
         25    2    1    2    0    0  0.60548256241E+03 -0.98144522359E+02 -0.64836594745E+03  0.90125860782E+03  0.12508875127E+03 0.  0.
         24    2    1    2    0    0 -0.28498578306E+03 -0.19888813794E+03  0.94060828426E+02  0.36887546391E+03  0.80301185978E+02 0.  0.
        -24    2    1    2    0    0 -0.32049677935E+03  0.29703266030E+03  0.55865179100E+03  0.71498672496E+03  0.90374810788E+02 0.  0.
        -13    1    4    4    0    0 -0.25366743001E+03 -0.19398319661E+03  0.65032494446E+02  0.32589242236E+03  0.00000000000E+00 0.  1.
         14    1    4    4    0    0 -0.31318353053E+02 -0.49049413240E+01  0.29028333980E+02  0.42983041551E+02  0.00000000000E+00 0. -1.
         13    1    5    5    0    0  0.24790819625E+01 -0.30323246677E+00  0.19744149605E+02  0.19901488410E+02  0.00000000000E+00 0. -1.
        -14    1    5    5    0    0 -0.32297586131E+03  0.29733589277E+03  0.53890764140E+03  0.69508523655E+03  0.00000000000E+00 0.  1.
          5    1    3    3  501    0  0.36437790921E+02 -0.46755231334E+01 -0.50746550080E+01  0.37320204277E+02  0.41800000000E+01 0. -1.
         -5    1    3    3    0  501  0.56904477149E+03 -0.93468999226E+02 -0.64329129244E+03  0.86393840354E+03  0.41800000000E+01 0. -1.
</event>
<event>
11    1  0.2498402E-009  0.3734613E+03  0.7561462E-02  0.9731479E-01
         22   -1    0    0    0    0  0.00000000000E+00  0.00000000000E+00  0.12233103711E+03  0.12233103711E+03  0.00000000000E+00 0. -1.
         22   -1    0    0    0    0 -0.00000000000E+00 -0.00000000000E+00 -0.24748806698E+04  0.24748806698E+04  0.00000000000E+00 0. -1.
         25    2    1    2    0    0 -0.32700594722E+03  0.14814172915E+03 -0.18593032735E+04  0.18977710518E+04  0.12508973084E+03 0.  0.
         24    2    1    2    0    0  0.24645365230E+03 -0.23620058965E+03 -0.36702960240E+03  0.50772127808E+03  0.80870550235E+02 0.  0.
        -24    2    1    2    0    0  0.80552294912E+02  0.88058860505E+02 -0.12621675680E+03  0.19171937705E+03  0.81133314412E+02 0.  0.
        -13    1    4    4    0    0  0.18469449780E+02 -0.59004666502E+02 -0.57757769591E+02  0.84608694544E+02  0.00000000000E+00 0.  1.
         14    1    4    4    0    0  0.22798420252E+03 -0.17719592315E+03 -0.30927183280E+03  0.42311258354E+03  0.00000000000E+00 0. -1.
         11    1    5    5    0    0  0.50884301674E+02  0.99752797124E+02 -0.91803616587E+02  0.14480240574E+03  0.00000000000E+00 0. -1.
        -12    1    5    5    0    0  0.29667993238E+02 -0.11693936619E+02 -0.34413140217E+02  0.46916971301E+02  0.00000000000E+00 0.  1.
          5    1    3    3  501    0 -0.10952870607E+03  0.11326117343E+03 -0.87908708598E+03  0.89310481355E+03  0.41800000000E+01 0.  1.
         -5    1    3    3    0  501 -0.21747724115E+03  0.34880555711E+02 -0.98021618753E+03  0.10046662382E+04  0.41800000000E+01 0.  1.
</event>
<event>
11    1  0.2498402E-009  0.3135797E+03  0.7561462E-02  0.9946023E-01
         22   -1    0    0    0    0  0.00000000000E+00  0.00000000000E+00  0.89093759200E+03  0.89093759200E+03  0.00000000000E+00 0.  1.
         22   -1    0    0    0    0 -0.00000000000E+00 -0.00000000000E+00 -0.50414330462E+03  0.50414330462E+03  0.00000000000E+00 0.  1.
         25    2    1    2    0    0 -0.20125122135E+03 -0.47201918828E+02 -0.35280847605E+02  0.24417588091E+03  0.12508815841E+03 0.  0.
         24    2    1    2    0    0  0.42833290109E+03  0.21717362481E+03 -0.14798227127E+03  0.50882791665E+03  0.79835071808E+02 0.  0.
        -24    2    1    2    0    0 -0.22708167974E+03 -0.16997170598E+03  0.57005740625E+03  0.64207709905E+03  0.82710849331E+02 0.  0.
        -13    1    4    4    0    0  0.16853231529E+03  0.12773299108E+03 -0.76903961298E+02  0.22501794944E+03  0.00000000000E+00 0.  1.
         14    1    4    4    0    0  0.25980058579E+03  0.89440633734E+02 -0.71078309969E+02  0.28380996721E+03  0.00000000000E+00 0. -1.
         11    1    5    5    0    0 -0.29093040325E+02  0.64329780855E+01  0.69510148473E+02  0.75627038440E+02  0.00000000000E+00 0. -1.
        -12    1    5    5    0    0 -0.19798863941E+03 -0.17640468407E+03  0.50054725778E+03  0.56645006061E+03  0.00000000000E+00 0.  1.
          5    1    3    3  501    0 -0.14885097859E+03 -0.50970609867E+01  0.28179039018E+02  0.15163813669E+03  0.41800000000E+01 0. -1.
         -5    1    3    3    0  501 -0.52400242752E+02 -0.42104857842E+02 -0.63459886624E+02  0.92537744216E+02  0.41800000000E+01 0. -1.
</event>
<event>
11    1  0.2498402E-009  0.1935561E+03  0.7561462E-02  0.1059176E+00
         22   -1    0    0    0    0  0.00000000000E+00  0.00000000000E+00  0.28386565569E+03  0.28386565569E+03  0.00000000000E+00 0.  1.
         22   -1    0    0    0    0 -0.00000000000E+00 -0.00000000000E+00 -0.66877325353E+03  0.66877325353E+03  0.00000000000E+00 0.  1.
         25    2    1    2    0    0 -0.78605375561E+02 -0.14464336603E+03 -0.55116084641E+03  0.58866593541E+03  0.12509514977E+03 0.  0.
        -24    2    1    2    0    0 -0.40525003180E+01  0.23241808982E+02 -0.44813480166E+02  0.94311340823E+02  0.79559892909E+02 0.  0.
         24    2    1    2    0    0  0.82657875879E+02  0.12140155705E+03  0.21106672873E+03  0.26966163298E+03  0.81225426001E+02 0.  0.
        -11    1    5    5    0    0  0.57987285946E+02  0.95485744488E+02  0.90118780822E+02  0.14353204307E+03  0.00000000000E+00 0.  1.
         12    1    5    5    0    0  0.24670589933E+02  0.25915812558E+02  0.12094794791E+03  0.12612958991E+03  0.00000000000E+00 0. -1.
         11    1    4    4    0    0  0.24991535631E+02 -0.99848858087E+01 -0.42265771695E+02  0.50106588936E+02  0.00000000000E+00 0. -1.
        -12    1    4    4    0    0 -0.29044035949E+02  0.33226694791E+02 -0.25477084704E+01  0.44204751887E+02  0.00000000000E+00 0.  1.
          5    1    3    3  501    0 -0.79814552660E+02 -0.10242078410E+03 -0.52007028761E+03  0.53605126274E+03  0.41800000000E+01 0. -1.
         -5    1    3    3    0  501  0.12091770986E+01 -0.42222581922E+02 -0.31090558798E+02  0.52614672667E+02  0.41800000000E+01 0. -1.
</event>
<event>
11    1  0.2498402E-009  0.5466802E+03  0.7561462E-02  0.9294865E-01
         22   -1    0    0    0    0  0.00000000000E+00  0.00000000000E+00  0.26334852953E+04  0.26334852953E+04  0.00000000000E+00 0. -1.
         22   -1    0    0    0    0 -0.00000000000E+00 -0.00000000000E+00 -0.37763422926E+03  0.37763422926E+03  0.00000000000E+00 0. -1.
         25    2    1    2    0    0  0.58600015498E+03 -0.97466266988E+02 -0.11646278366E+02  0.60718931334E+03  0.12508945434E+03 0.  0.
         24    2    1    2    0    0 -0.37548806439E+03 -0.14439807819E+03  0.79341288829E+03  0.89324419502E+03  0.80864634698E+02 0.  0.
        -24    2    1    2    0    0 -0.21051209060E+03  0.24186434518E+03  0.14740844561E+04  0.15106860162E+04  0.80209438664E+02 0.  0.
        -11    1    4    4    0    0 -0.23029917663E+03 -0.12993568446E+03  0.51420303852E+03  0.57820909512E+03  0.00000000000E+00 0.  1.
         12    1    4    4    0    0 -0.14518888776E+03 -0.14462393729E+02  0.27920984977E+03  0.31503509990E+03  0.00000000000E+00 0. -1.
         13    1    5    5    0    0 -0.88702606371E+02  0.12140531193E+03  0.86489405935E+03  0.87786624041E+03  0.00000000000E+00 0. -1.
        -14    1    5    5    0    0 -0.12180948423E+03  0.12045903325E+03  0.60919039680E+03  0.63281977583E+03  0.00000000000E+00 0.  1.
          5    1    3    3  501    0  0.47716482971E+03 -0.75314253457E+02 -0.58406771157E+02  0.48660798884E+03  0.41800000000E+01 0. -1.
         -5    1    3    3    0  501  0.10883532527E+03 -0.22152013531E+02  0.46760492791E+02  0.12058132450E+03  0.41800000000E+01 0. -1.
</event>
<event>
11    1  0.2498402E-009  0.1604240E+04  0.7561462E-02  0.8251946E-01
         22   -1    0    0    0    0  0.00000000000E+00  0.00000000000E+00  0.12520714433E+04  0.12520714433E+04  0.00000000000E+00 0.  1.
         22   -1    0    0    0    0 -0.00000000000E+00 -0.00000000000E+00 -0.25974067649E+04  0.25974067649E+04  0.00000000000E+00 0.  1.
         25    2    1    2    0    0 -0.13065268352E+04  0.96356164428E+03 -0.14059994866E+04  0.21512660945E+04  0.12509132413E+03 0.  0.
        -24    2    1    2    0    0  0.12852018405E+04 -0.86736021579E+03 -0.10419742517E+02  0.15526216484E+04  0.80423239345E+02 0.  0.
         24    2    1    2    0    0  0.21324994744E+02 -0.96201428489E+02  0.71083907603E+02  0.14559046531E+03  0.80213411757E+02 0.  0.
        -11    1    5    5    0    0 -0.28893059563E+02 -0.18083425289E+02  0.21739039678E+02  0.40427775195E+02  0.00000000000E+00 0.  1.
         12    1    5    5    0    0  0.50218054307E+02 -0.78118003199E+02  0.49344867924E+02  0.10516269012E+03  0.00000000000E+00 0. -1.
         13    1    4    4    0    0  0.47747098989E+03 -0.32619326813E+03 -0.42647101805E+02  0.57982701701E+03  0.00000000000E+00 0. -1.
        -14    1    4    4    0    0  0.80773085060E+03 -0.54116694766E+03  0.32227359287E+02  0.97279463143E+03  0.00000000000E+00 0.  1.
          5    1    3    3  501    0 -0.98302045203E+03  0.66043735471E+03 -0.99695357910E+03  0.15480441272E+04  0.41800000000E+01 0. -1.
         -5    1    3    3    0  501 -0.32350638321E+03  0.30312428957E+03 -0.40904590754E+03  0.60322196726E+03  0.41800000000E+01 0. -1.
</event>
<event>
11    1  0.2498402E-009  0.3340268E+03  0.7561462E-02  0.9867372E-01
         22   -1    0    0    0    0  0.00000000000E+00  0.00000000000E+00  0.37208312154E+03  0.37208312154E+03  0.00000000000E+00 0. -1.
         22   -1    0    0    0    0 -0.00000000000E+00 -0.00000000000E+00 -0.82900586327E+03  0.82900586327E+03  0.00000000000E+00 0. -1.
         25    2    1    2    0    0 -0.10592197887E+03  0.22419412711E+03 -0.38557849604E+03  0.47518643157E+03  0.12509554706E+03 0.  0.
        -24    2    1    2    0    0  0.38647629809E+03 -0.14172142157E+03 -0.48598660291E+02  0.42235484629E+03  0.81073399368E+02 0.  0.
         24    2    1    2    0    0 -0.28055431922E+03 -0.82472705539E+02 -0.22745585393E+02  0.30354770696E+03  0.78175287347E+02 0.  0.
        -13    1    5    5    0    0 -0.70276652998E+02 -0.20541361507E+02 -0.40410984937E+02  0.83628961447E+02  0.00000000000E+00 0.  1.
         14    1    5    5    0    0 -0.21027766622E+03 -0.61931344032E+02  0.17665399544E+02  0.21991874551E+03  0.00000000000E+00 0. -1.
         11    1    4    4    0    0  0.57596925596E+01 -0.17943478591E+02 -0.59232381289E+01  0.19754169997E+02  0.00000000000E+00 0. -1.
        -12    1    4    4    0    0  0.38071660553E+03 -0.12377794298E+03 -0.42675422162E+02  0.40260067629E+03  0.00000000000E+00 0.  1.
          5    1    3    3  501    0 -0.76144433181E+02  0.33494294888E+02 -0.13869234765E+03  0.16178035169E+03  0.41800000000E+01 0. -1.
         -5    1    3    3    0  501 -0.29777545685E+02  0.19069983223E+03 -0.24688614839E+03  0.31340607988E+03  0.41800000000E+01 0. -1.
</event>
<event>
11    1  0.2498402E-009  0.1736481E+04  0.7561462E-02  0.8184516E-01
         22   -1    0    0    0    0  0.00000000000E+00  0.00000000000E+00  0.61620746522E+03  0.61620746522E+03  0.00000000000E+00 0. -1.
         22   -1    0    0    0    0 -0.00000000000E+00 -0.00000000000E+00 -0.12233574489E+04  0.12233574489E+04  0.00000000000E+00 0. -1.
         25    2    1    2    0    0  0.50037867620E+03  0.30373086536E+03 -0.93748887342E+03  0.11122788045E+04  0.12508993956E+03 0.  0.
         24    2    1    2    0    0 -0.45414462743E+03 -0.30895359482E+03  0.27454135687E+03  0.61918672980E+03  0.79495807104E+02 0.  0.
        -24    2    1    2    0    0 -0.46234048770E+02  0.52227294590E+01  0.55797532909E+02  0.10809937978E+03  0.80045281320E+02 0.  0.
        -11    1    4    4    0    0 -0.26994141635E+03 -0.19612007629E+03  0.20786989659E+03  0.39311747162E+03  0.00000000000E+00 0.  1.
         12    1    4    4    0    0 -0.18420321108E+03 -0.11283351854E+03  0.66671460284E+02  0.22606925818E+03  0.00000000000E+00 0. -1.
         11    1    5    5    0    0 -0.22689190896E+02 -0.25015431271E+02 -0.70390786209E+01  0.34498113181E+02  0.00000000000E+00 0. -1.
        -12    1    5    5    0    0 -0.23544857874E+02  0.30238160730E+02  0.62836611529E+02  0.73601266600E+02  0.00000000000E+00 0.  1.
          5    1    3    3  501    0  0.41810919471E+03  0.27015734638E+03 -0.86285951725E+03  0.99616480033E+03  0.41800000000E+01 0.  1.
         -5    1    3    3    0  501  0.82269481493E+02  0.33573518988E+02 -0.74629356168E+02  0.11611400417E+03  0.41800000000E+01 0.  1.
</event>
<event>
11    1  0.2498402E-009  0.3190154E+03  0.7561462E-02  0.9924499E-01
         22   -1    0    0    0    0  0.00000000000E+00  0.00000000000E+00  0.74868729599E+03  0.74868729599E+03  0.00000000000E+00 0. -1.
         22   -1    0    0    0    0 -0.00000000000E+00 -0.00000000000E+00 -0.17652108843E+03  0.17652108843E+03  0.00000000000E+00 0. -1.
         25    2    1    2    0    0  0.23892674178E+03 -0.16910914590E+03  0.19361178602E+03  0.37258165788E+03  0.12509067488E+03 0.  0.
        -24    2    1    2    0    0 -0.21230479376E+03  0.20675402567E+03  0.27328778492E+03  0.41305336641E+03  0.90035090576E+02 0.  0.
         24    2    1    2    0    0 -0.26621948020E+02 -0.37644879771E+02  0.10526663662E+03  0.13957336012E+03  0.79207278589E+02 0.  0.
        -11    1    5    5    0    0 -0.35358112278E+02 -0.42249841693E+02  0.11385609738E+03  0.12648500361E+03  0.00000000000E+00 0.  1.
         12    1    5    5    0    0  0.87361642580E+01  0.46049619223E+01 -0.85894607571E+01  0.13088356518E+02  0.00000000000E+00 0. -1.
         11    1    4    4    0    0 -0.19620896689E+03  0.15378931241E+03  0.24981530965E+03  0.35292605491E+03  0.00000000000E+00 0. -1.
        -12    1    4    4    0    0 -0.16095826865E+02  0.52964713257E+02  0.23472475274E+02  0.60127311501E+02  0.00000000000E+00 0.  1.
          5    1    3    3  501    0  0.15152385419E+03 -0.15998279492E+03  0.93769049126E+02  0.23950799576E+03  0.41800000000E+01 0. -1.
         -5    1    3    3    0  501  0.87402887584E+02 -0.91263509788E+01  0.99842736892E+02  0.13307366212E+03  0.41800000000E+01 0. -1.
</event>
<event>
11    1  0.2498402E-009  0.1886487E+03  0.7561462E-02  0.1062854E+00
         22   -1    0    0    0    0  0.00000000000E+00  0.00000000000E+00  0.51994161677E+03  0.51994161677E+03  0.00000000000E+00 0.  1.
         22   -1    0    0    0    0 -0.00000000000E+00 -0.00000000000E+00 -0.24437759131E+03  0.24437759131E+03  0.00000000000E+00 0. -1.
         25    2    1    2    0    0 -0.77648016572E+02  0.11893630357E+03 -0.16109801561E+03  0.24854614055E+03  0.12509018573E+03 0.  0.
        -24    2    1    2    0    0  0.51881950888E+02  0.23358054585E+02  0.98847607896E+02  0.13946482651E+03  0.80263644973E+02 0.  0.
         24    2    1    2    0    0  0.25766065684E+02 -0.14229435815E+03  0.33781443317E+03  0.37630824103E+03  0.81103184304E+02 0.  0.
        -13    1    5    5    0    0  0.28244338332E+02 -0.12341518939E+03  0.33358578823E+03  0.35680320869E+03  0.00000000000E+00 0.  1.
         14    1    5    5    0    0 -0.24782726484E+01 -0.18879168765E+02  0.42286449391E+01  0.19505032341E+02  0.00000000000E+00 0. -1.
         11    1    4    4    0    0  0.18526103012E+02  0.22740701977E+02 -0.55622451327E+01  0.29854557276E+02  0.00000000000E+00 0. -1.
        -12    1    4    4    0    0  0.33355847876E+02  0.61735260825E+00  0.10440985303E+03  0.10961026923E+03  0.00000000000E+00 0.  1.
          5    1    3    3  501    0 -0.61899200262E+02  0.27289326163E+02 -0.13629049202E+03  0.15221297228E+03  0.41800000000E+01 0.  1.
         -5    1    3    3    0  501 -0.15748816310E+02  0.91646977404E+02 -0.24807523590E+02  0.96333168270E+02  0.41800000000E+01 0.  1.
</event>
<event>
11    1  0.2498402E-009  0.3027874E+03  0.7561462E-02  0.9990184E-01
         22   -1    0    0    0    0  0.00000000000E+00  0.00000000000E+00  0.42015883931E+03  0.42015883931E+03  0.00000000000E+00 0.  1.
         22   -1    0    0    0    0 -0.00000000000E+00 -0.00000000000E+00 -0.60182380271E+03  0.60182380271E+03  0.00000000000E+00 0.  1.
         25    2    1    2    0    0 -0.81518234446E+02  0.16497478162E+03 -0.29435151417E+03  0.36898824143E+03  0.12509039651E+03 0.  0.
         24    2    1    2    0    0  0.16769961978E+03 -0.36460416887E+03  0.10006218879E+03  0.42131450517E+03  0.80212893048E+02 0.  0.
        -24    2    1    2    0    0 -0.86181385329E+02  0.19962938725E+03  0.12624361979E+02  0.23167989542E+03  0.78975160600E+02 0.  0.
        -13    1    4    4    0    0  0.11833122138E+03 -0.31924441754E+03  0.68844310865E+02  0.34735977778E+03  0.00000000000E+00 0.  1.
         14    1    4    4    0    0  0.49368398394E+02 -0.45359751335E+02  0.31217877927E+02  0.73954727391E+02  0.00000000000E+00 0. -1.
         11    1    5    5    0    0 -0.16920216318E+02  0.95446361491E+02  0.37841290771E+02  0.10405894930E+03  0.00000000000E+00 0. -1.
        -12    1    5    5    0    0 -0.69261169011E+02  0.10418302576E+03 -0.25216928791E+02  0.12762094612E+03  0.00000000000E+00 0.  1.
          5    1    3    3  501    0 -0.14452791271E+02  0.43465102401E+02 -0.28233810692E+01  0.46081907328E+02  0.41800000000E+01 0.  1.
         -5    1    3    3    0  501 -0.67065443175E+02  0.12150967922E+03 -0.29152813311E+03  0.32290633410E+03  0.41800000000E+01 0.  1.
</event>
<event>
11    1  0.2498402E-009  0.2566426E+03  0.7561462E-02  0.1020419E+00
         22   -1    0    0    0    0  0.00000000000E+00  0.00000000000E+00  0.49496898249E+03  0.49496898249E+03  0.00000000000E+00 0.  1.
         22   -1    0    0    0    0 -0.00000000000E+00 -0.00000000000E+00 -0.15087039781E+04  0.15087039781E+04  0.00000000000E+00 0. -1.
         25    2    1    2    0    0  0.97597514218E+02  0.16070762742E+03 -0.11486000007E+04  0.11705913154E+04  0.12509935910E+03 0.  0.
        -24    2    1    2    0    0 -0.49862572658E+02  0.59474265082E+02 -0.30927407633E+03  0.32819084479E+03  0.77687270241E+02 0.  0.
         24    2    1    2    0    0 -0.47734941560E+02 -0.22018189251E+03  0.44413908142E+03  0.50489080046E+03  0.83045206437E+02 0.  0.
        -11    1    5    5    0    0 -0.62608575863E+02 -0.14477511891E+03  0.24445970289E+03  0.29092991452E+03  0.00000000000E+00 0.  1.
         12    1    5    5    0    0  0.14873634303E+02 -0.75406773597E+02  0.19967937853E+03  0.21396088594E+03  0.00000000000E+00 0. -1.
         11    1    4    4    0    0 -0.11344524520E+02  0.64596087000E+02 -0.23959971322E+03  0.24841371795E+03  0.00000000000E+00 0. -1.
        -12    1    4    4    0    0 -0.38518048138E+02 -0.51218219177E+01 -0.69674363111E+02  0.79777126841E+02  0.00000000000E+00 0.  1.
          5    1    3    3  501    0  0.59951297222E+01  0.48434360945E+02 -0.63613889032E+03  0.63802193464E+03  0.41800000000E+01 0. -1.
         -5    1    3    3    0  501  0.91602384495E+02  0.11227326648E+03 -0.51246111042E+03  0.53256938074E+03  0.41800000000E+01 0. -1.
</event>
<event>
11    1  0.2498402E-009  0.3968133E+03  0.7561462E-02  0.9659208E-01
         22   -1    0    0    0    0  0.00000000000E+00  0.00000000000E+00  0.18186509287E+03  0.18186509287E+03  0.00000000000E+00 0.  1.
         22   -1    0    0    0    0 -0.00000000000E+00 -0.00000000000E+00 -0.18268569631E+04  0.18268569631E+04  0.00000000000E+00 0.  1.
         25    2    1    2    0    0  0.75270217492E+02  0.13470682583E+03 -0.71013389784E+03  0.73739456504E+03  0.12509619145E+03 0.  0.
         24    2    1    2    0    0 -0.40860060741E+03  0.58088896556E+02 -0.68838311020E+03  0.80714210556E+03  0.85312929114E+02 0.  0.
        -24    2    1    2    0    0  0.33333038992E+03 -0.19279572239E+03 -0.24647486220E+03  0.46418538539E+03  0.80242600268E+02 0.  0.
        -11    1    4    4    0    0 -0.40499993227E+03  0.67608832455E+02 -0.66372197979E+03  0.78046317390E+03  0.00000000000E+00 0.  1.
         12    1    4    4    0    0 -0.36006751425E+01 -0.95199358996E+01 -0.24661130417E+02  0.26678931659E+02  0.00000000000E+00 0. -1.
         13    1    5    5    0    0  0.16548188515E+02 -0.36164682775E+02 -0.20765182863E+02  0.44865573023E+02  0.00000000000E+00 0. -1.
        -14    1    5    5    0    0  0.31678220140E+03 -0.15663103961E+03 -0.22570967934E+03  0.41931981237E+03  0.00000000000E+00 0.  1.
          5    1    3    3  501    0  0.14853446982E+02  0.69765185163E+02 -0.11300267713E+03  0.13369698346E+03  0.41800000000E+01 0.  1.
         -5    1    3    3    0  501  0.60416770511E+02  0.64941640671E+02 -0.59713122071E+03  0.60369758158E+03  0.41800000000E+01 0.  1.
</event>
<event>
11    1  0.2498402E-009  0.1086380E+04  0.7561462E-02  0.8600934E-01
         22   -1    0    0    0    0  0.00000000000E+00  0.00000000000E+00  0.37641112909E+03  0.37641112909E+03  0.00000000000E+00 0. -1.
         22   -1    0    0    0    0 -0.00000000000E+00 -0.00000000000E+00 -0.78386435874E+03  0.78386435874E+03  0.00000000000E+00 0. -1.
         25    2    1    2    0    0  0.27159048620E+02  0.12240433454E+03 -0.74002217465E+03  0.76092098158E+03  0.12508991251E+03 0.  0.
         24    2    1    2    0    0  0.92216601196E+01 -0.56217747486E+02  0.92822043471E+02  0.13542758688E+03  0.80493635693E+02 0.  0.
        -24    2    1    2    0    0 -0.36380708739E+02 -0.66186587049E+02  0.23974690153E+03  0.26392691936E+03  0.80465034006E+02 0.  0.
        -13    1    4    4    0    0  0.36540023686E+02 -0.59666482302E+02  0.56999360087E+02  0.90245163259E+02  0.00000000000E+00 0.  1.
         14    1    4    4    0    0 -0.27318363566E+02  0.34487348156E+01  0.35822683383E+02  0.45182423624E+02  0.00000000000E+00 0. -1.
         13    1    5    5    0    0 -0.16189062821E+02 -0.81975117576E+02  0.16583220681E+03  0.18569417457E+03  0.00000000000E+00 0. -1.
        -14    1    5    5    0    0 -0.20191645918E+02  0.15788530527E+02  0.73914694721E+02  0.78232744786E+02  0.00000000000E+00 0.  1.
          5    1    3    3  501    0  0.67521500357E+02  0.47395729127E+02 -0.48589208982E+03  0.49286316914E+03  0.41800000000E+01 0.  1.
         -5    1    3    3    0  501 -0.40362451737E+02  0.75008605408E+02 -0.25413008483E+03  0.26805781244E+03  0.41800000000E+01 0.  1.
</event>
<event>
11    1  0.2498402E-009  0.1672359E+03  0.7561462E-02  0.1080462E+00
         22   -1    0    0    0    0  0.00000000000E+00  0.00000000000E+00  0.83564147143E+03  0.83564147143E+03  0.00000000000E+00 0.  1.
         22   -1    0    0    0    0 -0.00000000000E+00 -0.00000000000E+00 -0.73689434963E+03  0.73689434963E+03  0.00000000000E+00 0. -1.
         25    2    1    2    0    0 -0.23629933401E+02 -0.14780935869E+03 -0.36730770906E+03  0.41589800336E+03  0.12510082250E+03 0.  0.
        -24    2    1    2    0    0  0.17667625776E+02  0.91600592637E+02 -0.33118060125E+03  0.35342352442E+03  0.80776131362E+02 0.  0.
         24    2    1    2    0    0  0.59623076250E+01  0.56208766054E+02  0.79723543211E+03  0.80321429329E+03  0.79836659717E+02 0.  0.
        -13    1    5    5    0    0 -0.33545363610E+02  0.16158150069E+02  0.44042281082E+03  0.44199392476E+03  0.00000000000E+00 0.  1.
         14    1    5    5    0    0  0.39507671235E+02  0.40050615985E+02  0.35681262129E+03  0.36122036853E+03  0.00000000000E+00 0. -1.
         13    1    4    4    0    0  0.41067516203E+02  0.86959490867E+02 -0.29323460096E+03  0.30860172575E+03  0.00000000000E+00 0. -1.
        -14    1    4    4    0    0 -0.23399890427E+02  0.46411017703E+01 -0.37946000293E+02  0.44821798668E+02  0.00000000000E+00 0.  1.
          5    1    3    3  501    0 -0.26273475938E+02 -0.14858651130E+03 -0.37638808113E+03  0.40552892239E+03  0.41800000000E+01 0. -1.
         -5    1    3    3    0  501  0.26435425370E+01  0.77715261087E+00  0.90803720648E+01  0.10369080970E+02  0.41800000000E+01 0. -1.
</event>
<event>
11    1  0.2498402E-009  0.2781903E+03  0.7561462E-02  0.1009869E+00
         22   -1    0    0    0    0  0.00000000000E+00  0.00000000000E+00  0.11910878830E+03  0.11910878830E+03  0.00000000000E+00 0.  1.
         22   -1    0    0    0    0 -0.00000000000E+00 -0.00000000000E+00 -0.13617271288E+04  0.13617271288E+04  0.00000000000E+00 0.  1.
         25    2    1    2    0    0 -0.39833611001E+02  0.91664762105E+02 -0.59062462324E+03  0.61194417612E+03  0.12509629863E+03 0.  0.
         24    2    1    2    0    0 -0.11476548911E+03 -0.28176536367E+03 -0.39410051147E+03  0.50419988352E+03  0.79620799664E+02 0.  0.
        -24    2    1    2    0    0  0.15459910012E+03  0.19010060157E+03 -0.25789320575E+03  0.36469185742E+03  0.80325119504E+02 0.  0.
        -11    1    4    4    0    0 -0.84659292179E+02 -0.23696620901E+03 -0.36366238370E+03  0.44223354608E+03  0.00000000000E+00 0.  1.
         12    1    4    4    0    0 -0.30106196936E+02 -0.44799154667E+02 -0.30438127773E+02  0.61966337435E+02  0.00000000000E+00 0. -1.
         11    1    5    5    0    0  0.66093565410E+02  0.34029304530E+02 -0.47659664957E+02  0.88305133595E+02  0.00000000000E+00 0. -1.
        -12    1    5    5    0    0  0.88505534706E+02  0.15607129704E+03 -0.21023354079E+03  0.27638672382E+03  0.00000000000E+00 0.  1.
          5    1    3    3  501    0 -0.38986239993E+02  0.12200885391E+03 -0.44254197052E+03  0.46072438118E+03  0.41800000000E+01 0. -1.
         -5    1    3    3    0  501 -0.84737100800E+00 -0.30344091803E+02 -0.14808265272E+03  0.15121979493E+03  0.41800000000E+01 0. -1.
</event>
<event>
11    1  0.2498402E-009  0.2280689E+03  0.7561462E-02  0.1036277E+00
         22   -1    0    0    0    0  0.00000000000E+00  0.00000000000E+00  0.20004961774E+04  0.20004961774E+04  0.00000000000E+00 0.  1.
         22   -1    0    0    0    0 -0.00000000000E+00 -0.00000000000E+00 -0.18870077227E+03  0.18870077227E+03  0.00000000000E+00 0.  1.
         25    2    1    2    0    0 -0.90081670794E+02 -0.91975705295E+02  0.14384752949E+03  0.23001369967E+03  0.12505979576E+03 0.  0.
        -24    2    1    2    0    0  0.20375009922E+03  0.10146578447E+03 -0.40509505214E+02  0.24504507935E+03  0.81219840880E+02 0.  0.
         24    2    1    2    0    0 -0.11366842842E+03 -0.94900791755E+01  0.17084573808E+04  0.17141381706E+04  0.80202697495E+02 0.  0.
        -11    1    5    5    0    0 -0.16677513076E+02 -0.13142163222E+02  0.84094580682E+03  0.84121382888E+03  0.00000000000E+00 0.  1.
         12    1    5    5    0    0 -0.96990915346E+02  0.36520840463E+01  0.86751157402E+03  0.87292434176E+03  0.00000000000E+00 0. -1.
         13    1    4    4    0    0  0.76677496254E+02  0.90169840924E+00  0.46363052643E+01  0.76822827456E+02  0.00000000000E+00 0. -1.
        -14    1    4    4    0    0  0.12707260296E+03  0.10056408606E+03 -0.45145810478E+02  0.16822225189E+03  0.00000000000E+00 0.  1.
          5    1    3    3  501    0 -0.45278236013E+02 -0.11861712631E+03  0.10620615745E+03  0.16558188787E+03  0.41800000000E+01 0. -1.
         -5    1    3    3    0  501 -0.44803434782E+02  0.26641421017E+02  0.37641372041E+02  0.64431811795E+02  0.41800000000E+01 0. -1.
</event>
<event>
11    1  0.2498402E-009  0.2082155E+03  0.7561462E-02  0.1048861E+00
         22   -1    0    0    0    0  0.00000000000E+00  0.00000000000E+00  0.42393564916E+03  0.42393564916E+03  0.00000000000E+00 0.  1.
         22   -1    0    0    0    0 -0.00000000000E+00 -0.00000000000E+00 -0.65150105265E+03  0.65150105265E+03  0.00000000000E+00 0. -1.
         25    2    1    2    0    0 -0.15483555725E+03  0.63571288584E+02 -0.56747249109E+03  0.60472080908E+03  0.12508745047E+03 0.  0.
        -24    2    1    2    0    0  0.35931439141E+02  0.38139885454E+02  0.10044263838E+02  0.96573822801E+02  0.80497806387E+02 0.  0.
         24    2    1    2    0    0  0.11890411811E+03 -0.10171117404E+03  0.32986282376E+03  0.37414206993E+03  0.81789080960E+02 0.  0.
        -11    1    5    5    0    0  0.90814963096E+02 -0.67236489713E+02  0.30000434878E+03  0.32057871476E+03  0.00000000000E+00 0.  1.
         12    1    5    5    0    0  0.28089155010E+02 -0.34474684325E+02  0.29858474977E+02  0.53563355164E+02  0.00000000000E+00 0. -1.
         13    1    4    4    0    0 -0.13004321478E+02  0.43391575463E+02 -0.37704025429E+01  0.45455001194E+02  0.00000000000E+00 0. -1.
        -14    1    4    4    0    0  0.48935760618E+02 -0.52516900084E+01  0.13814666381E+02  0.51118821607E+02  0.00000000000E+00 0.  1.
          5    1    3    3  501    0 -0.16190583991E+03  0.64929650943E+02 -0.39235715614E+03  0.42940769781E+03  0.41800000000E+01 0. -1.
         -5    1    3    3    0  501  0.70702826638E+01 -0.13583623591E+01 -0.17511533496E+03  0.17531311127E+03  0.41800000000E+01 0. -1.
</event>
<event>
11    1  0.2498402E-009  0.1581116E+03  0.7561462E-02  0.1088867E+00
         22   -1    0    0    0    0  0.00000000000E+00  0.00000000000E+00  0.94575946964E+03  0.94575946964E+03  0.00000000000E+00 0. -1.
         22   -1    0    0    0    0 -0.00000000000E+00 -0.00000000000E+00 -0.13069181116E+03  0.13069181116E+03  0.00000000000E+00 0.  1.
         25    2    1    2    0    0  0.80939722685E+01  0.54352783610E+02 -0.43529087511E+02  0.14339239943E+03  0.12508741456E+03 0.  0.
        -24    2    1    2    0    0 -0.13846278717E+03 -0.10291381123E+02  0.20618515094E+03  0.26139601008E+03  0.80856055194E+02 0.  0.
         24    2    1    2    0    0  0.13036881490E+03 -0.44061402487E+02  0.65241159505E+03  0.67166287129E+03  0.80948676537E+02 0.  0.
        -13    1    5    5    0    0  0.62793094587E+02 -0.33973648501E+02  0.16921690358E+03  0.18366148747E+03  0.00000000000E+00 0.  1.
         14    1    5    5    0    0  0.67575720311E+02 -0.10087753987E+02  0.48319469147E+03  0.48800138383E+03  0.00000000000E+00 0. -1.
         13    1    4    4    0    0 -0.55862395248E+02  0.44771336898E+01  0.15074458138E+03  0.16082468948E+03  0.00000000000E+00 0. -1.
        -14    1    4    4    0    0 -0.82600391919E+02 -0.14768514813E+02  0.55440569559E+02  0.10057132060E+03  0.00000000000E+00 0.  1.
          5    1    3    3  501    0 -0.18791251873E+02 -0.11212753677E+02 -0.65418100631E+02  0.69107432901E+02  0.41800000000E+01 0. -1.
         -5    1    3    3    0  501  0.26885224141E+02  0.65565537287E+02  0.21889013120E+02  0.74284966529E+02  0.41800000000E+01 0. -1.
</event>
<event>
11    1  0.2498402E-009  0.1899038E+03  0.7561462E-02  0.1061902E+00
         22   -1    0    0    0    0  0.00000000000E+00  0.00000000000E+00  0.75492465078E+03  0.75492465078E+03  0.00000000000E+00 0. -1.
         22   -1    0    0    0    0 -0.00000000000E+00 -0.00000000000E+00 -0.10889768003E+03  0.10889768003E+03  0.00000000000E+00 0. -1.
         25    2    1    2    0    0  0.14228260002E+03 -0.26626729655E+02  0.20439135620E+02  0.19240316562E+03  0.12509156197E+03 0.  0.
        -24    2    1    2    0    0 -0.12840048672E+03  0.45813888269E+02  0.43811296589E+03  0.46582681633E+03  0.80411781378E+02 0.  0.
         24    2    1    2    0    0 -0.13882113303E+02 -0.19187158614E+02  0.18747486924E+03  0.20559234886E+03  0.80997081350E+02 0.  0.
        -11    1    5    5    0    0 -0.29667910749E+02 -0.44279835636E+02  0.10139259665E+03  0.11454845013E+03  0.00000000000E+00 0.  1.
         12    1    5    5    0    0  0.15785797446E+02  0.25092677022E+02  0.86082272592E+02  0.91043898729E+02  0.00000000000E+00 0. -1.
         11    1    4    4    0    0 -0.75741107112E+02 -0.11555042962E+02  0.16671931000E+03  0.18348177744E+03  0.00000000000E+00 0. -1.
        -12    1    4    4    0    0 -0.52659379606E+02  0.57368931231E+02  0.27139365588E+03  0.28234503889E+03  0.00000000000E+00 0.  1.
          5    1    3    3  501    0  0.10796502976E+03 -0.68643899768E+02 -0.12794306916E+02  0.12864524599E+03  0.41800000000E+01 0.  1.
         -5    1    3    3    0  501  0.34317570263E+02  0.42017170113E+02  0.33233442536E+02  0.63757919632E+02  0.41800000000E+01 0.  1.
</event>
<event>
11    1  0.2498402E-009  0.1452090E+03  0.7561462E-02  0.1101877E+00
         22   -1    0    0    0    0  0.00000000000E+00  0.00000000000E+00  0.50611034300E+03  0.50611034300E+03  0.00000000000E+00 0. -1.
         22   -1    0    0    0    0 -0.00000000000E+00 -0.00000000000E+00 -0.25381460007E+03  0.25381460007E+03  0.00000000000E+00 0.  1.
         25    2    1    2    0    0  0.25354029981E+02 -0.10365517950E+03 -0.11721552100E+03  0.20192591208E+03  0.12508945813E+03 0.  0.
         24    2    1    2    0    0  0.24204566250E+02  0.53229990028E+02 -0.59688228933E+02  0.11723047931E+03  0.82225347304E+02 0.  0.
        -24    2    1    2    0    0 -0.49558596231E+02  0.50425189470E+02  0.42919949287E+03  0.44076855167E+03  0.71175538461E+02 0.  0.
        -11    1    4    4    0    0  0.24754838880E+02  0.72773181023E+02 -0.60257263712E+02  0.97671263708E+02  0.00000000000E+00 0.  1.
         12    1    4    4    0    0 -0.55027262990E+00 -0.19543190995E+02  0.56903477931E+00  0.19559215598E+02  0.00000000000E+00 0. -1.
         11    1    5    5    0    0 -0.13660385428E+02  0.35256889537E+02  0.35453338655E+03  0.35654393358E+03  0.00000000000E+00 0. -1.
        -12    1    5    5    0    0 -0.35898210803E+02  0.15168299933E+02  0.74666106313E+02  0.84224618098E+02  0.00000000000E+00 0.  1.
          5    1    3    3  501    0 -0.12625157265E+02 -0.14440720886E+02 -0.10177757157E+03  0.10365363231E+03  0.41800000000E+01 0.  1.
         -5    1    3    3    0  501  0.37979187246E+02 -0.89214458612E+02 -0.15437949426E+02  0.98272279774E+02  0.41800000000E+01 0.  1.
</event>
<event>
11    1  0.2498402E-009  0.1603528E+03  0.7561462E-02  0.1086746E+00
         22   -1    0    0    0    0  0.00000000000E+00  0.00000000000E+00  0.22030315214E+03  0.22030315214E+03  0.00000000000E+00 0. -1.
         22   -1    0    0    0    0 -0.00000000000E+00 -0.00000000000E+00 -0.20847831286E+03  0.20847831286E+03  0.00000000000E+00 0.  1.
         25    2    1    2    0    0 -0.49826165618E+02 -0.89796450306E+02 -0.97931778416E+02  0.18916642993E+03  0.12508899120E+03 0.  0.
        -24    2    1    2    0    0  0.13304602200E+02  0.98300554848E+02  0.86993441293E+02  0.14838004410E+03  0.67887901240E+02 0.  0.
         24    2    1    2    0    0  0.36521563417E+02 -0.85041045421E+01  0.22763176403E+02  0.91234990985E+02  0.79996981141E+02 0.  0.
        -11    1    5    5    0    0 -0.13309937876E+02 -0.30754682940E+02  0.52483644004E+01  0.33919762645E+02  0.00000000000E+00 0.  1.
         12    1    5    5    0    0  0.49831501293E+02  0.22250578398E+02  0.17514812003E+02  0.57315228340E+02  0.00000000000E+00 0. -1.
         11    1    4    4    0    0  0.13508154420E+02  0.98412776722E+02  0.96723645297E+02  0.13864706422E+03  0.00000000000E+00 0. -1.
        -12    1    4    4    0    0 -0.20355221957E+00 -0.11222187370E+00 -0.97302040041E+01  0.97329798735E+01  0.00000000000E+00 0.  1.
          5    1    3    3  501    0 -0.50193182883E+02 -0.10628231166E+03 -0.11540785782E+03  0.16477782444E+03  0.41800000000E+01 0.  1.
         -5    1    3    3    0  501  0.36701726551E+00  0.16485861351E+02  0.17476079408E+02  0.24388605488E+02  0.41800000000E+01 0.  1.
</event>
<event>
11    1  0.2498402E-009  0.1768864E+04  0.7561462E-02  0.8168948E-01
         22   -1    0    0    0    0  0.00000000000E+00  0.00000000000E+00  0.10615555418E+04  0.10615555418E+04  0.00000000000E+00 0. -1.
         22   -1    0    0    0    0 -0.00000000000E+00 -0.00000000000E+00 -0.73686233413E+03  0.73686233413E+03  0.00000000000E+00 0. -1.
         25    2    1    2    0    0  0.61468678847E+03 -0.14934840794E+03 -0.44462534799E+03  0.78325267163E+03  0.12509297607E+03 0.  0.
         24    2    1    2    0    0 -0.40547495355E+03  0.13792465061E+03  0.44566952766E+03  0.62294372727E+03  0.77488142710E+02 0.  0.
        -24    2    1    2    0    0 -0.20921183493E+03  0.11423757333E+02  0.32364902802E+03  0.39222147705E+03  0.72034017085E+02 0.  0.
        -13    1    4    4    0    0 -0.22707620727E+03  0.43979813729E+02  0.20586568076E+03  0.30964254623E+03  0.00000000000E+00 0.  1.
         14    1    4    4    0    0 -0.17839874627E+03  0.93944836879E+02  0.23980384690E+03  0.31330118103E+03  0.00000000000E+00 0. -1.
         11    1    5    5    0    0 -0.33802859553E+02 -0.22515164327E+02  0.40070586751E+02  0.57054516572E+02  0.00000000000E+00 0. -1.
        -12    1    5    5    0    0 -0.17540897538E+03  0.33938921660E+02  0.28357844127E+03  0.33516696048E+03  0.00000000000E+00 0.  1.
          5    1    3    3  501    0  0.24781867615E+03 -0.67663388139E+02 -0.25604225559E+03  0.36272239990E+03  0.41800000000E+01 0.  1.
         -5    1    3    3    0  501  0.36686811232E+03 -0.81685019801E+02 -0.18858309240E+03  0.42053027173E+03  0.41800000000E+01 0.  1.
</event>
<event>
11    1  0.2498402E-009  0.8704937E+03  0.7561462E-02  0.8813002E-01
         22   -1    0    0    0    0  0.00000000000E+00  0.00000000000E+00  0.21387668027E+04  0.21387668027E+04  0.00000000000E+00 0. -1.
         22   -1    0    0    0    0 -0.00000000000E+00 -0.00000000000E+00 -0.59586376264E+03  0.59586376264E+03  0.00000000000E+00 0. -1.
         25    2    1    2    0    0 -0.36093246976E+03  0.80589769092E+03  0.72217900007E+02  0.89476513480E+03  0.12508351378E+03 0.  0.
        -24    2    1    2    0    0  0.10557305593E+03 -0.82592480968E+03  0.10908460884E+04  0.13745933412E+04  0.79146721773E+02 0.  0.
         24    2    1    2    0    0  0.25535941384E+03  0.20027118764E+02  0.37983905164E+03  0.46527208938E+03  0.81184335202E+02 0.  0.
        -13    1    5    5    0    0  0.25339983620E+03  0.52841979710E+01  0.35267301043E+03  0.43430133780E+03  0.00000000000E+00 0.  1.
         14    1    5    5    0    0  0.19595776410E+01  0.14742920793E+02  0.27166041212E+02  0.30970751576E+02  0.00000000000E+00 0. -1.
         11    1    4    4    0    0  0.20494431485E+02 -0.56024734991E+02  0.10600550851E+03  0.12163864718E+03  0.00000000000E+00 0. -1.
        -12    1    4    4    0    0  0.85078624441E+02 -0.76990007469E+03  0.98484057989E+03  0.12529546940E+04  0.00000000000E+00 0.  1.
          5    1    3    3  501    0 -0.30517180316E+03  0.56652279625E+03  0.82272453182E+02  0.64874042349E+03  0.41800000000E+01 0.  1.
         -5    1    3    3    0  501 -0.55760666603E+02  0.23937489467E+03 -0.10054553175E+02  0.24602471131E+03  0.41800000000E+01 0.  1.
</event>
<event>
11    1  0.2498402E-009  0.2672124E+03  0.7561462E-02  0.1015109E+00
         22   -1    0    0    0    0  0.00000000000E+00  0.00000000000E+00  0.22489572717E+04  0.22489572717E+04  0.00000000000E+00 0. -1.
         22   -1    0    0    0    0 -0.00000000000E+00 -0.00000000000E+00 -0.20972306414E+03  0.20972306414E+03  0.00000000000E+00 0. -1.
         25    2    1    2    0    0 -0.60546310818E+02  0.85301720156E+02 -0.13543222325E+03  0.21196435723E+03  0.12507902472E+03 0.  0.
         24    2    1    2    0    0 -0.17169227737E+03  0.79717335618E+02  0.43242620032E+03  0.47882048022E+03  0.80271675264E+02 0.  0.
        -24    2    1    2    0    0  0.23223858819E+03 -0.16501905577E+03  0.17422402305E+04  0.17678954984E+04  0.94273123935E+02 0.  0.
        -13    1    4    4    0    0 -0.13272600315E+03  0.81911548480E+02  0.39529304025E+03  0.42494973980E+03  0.00000000000E+00 0.  1.
         14    1    4    4    0    0 -0.38966274220E+02 -0.21942128628E+01  0.37133160069E+02  0.53870740420E+02  0.00000000000E+00 0. -1.
         11    1    5    5    0    0  0.19452866776E+03 -0.12267300807E+03  0.15649567636E+04  0.15817647554E+04  0.00000000000E+00 0. -1.
        -12    1    5    5    0    0  0.37709920432E+02 -0.42346047708E+02  0.17728346688E+03  0.18613074299E+03  0.00000000000E+00 0.  1.
          5    1    3    3  501    0 -0.78198675063E+02  0.78634625838E+02 -0.45438964152E+02  0.11991917705E+03  0.41800000000E+01 0. -1.
         -5    1    3    3    0  501  0.17652364245E+02  0.66670943182E+01 -0.89993259097E+02  0.92045180172E+02  0.41800000000E+01 0. -1.
</event>
<event>
11    1  0.2498402E-009  0.2078263E+03  0.7561462E-02  0.1049123E+00
         22   -1    0    0    0    0  0.00000000000E+00  0.00000000000E+00  0.38388629462E+03  0.38388629462E+03  0.00000000000E+00 0.  1.
         22   -1    0    0    0    0 -0.00000000000E+00 -0.00000000000E+00 -0.20232545339E+04  0.20232545339E+04  0.00000000000E+00 0. -1.
         25    2    1    2    0    0  0.23259292655E+03 -0.31042707099E+02 -0.12970944110E+04  0.13240713061E+04  0.12509114124E+03 0.  0.
         24    2    1    2    0    0 -0.12627875259E+03 -0.37207735700E+01 -0.69173492385E+03  0.70763939721E+03  0.79348245632E+02 0.  0.
        -24    2    1    2    0    0 -0.10631417396E+03  0.34763480669E+02  0.34946109557E+03  0.37543012515E+03  0.79457651495E+02 0.  0.
        -13    1    4    4    0    0 -0.80571798170E+02  0.86301550375E+01 -0.23749363826E+03  0.25093728788E+03  0.00000000000E+00 0.  1.
         14    1    4    4    0    0 -0.45706954419E+02 -0.12350928608E+02 -0.45424128560E+03  0.45670210933E+03  0.00000000000E+00 0. -1.
         13    1    5    5    0    0 -0.60820169417E+02  0.43747832926E+02  0.29269161439E+03  0.30212803085E+03  0.00000000000E+00 0. -1.
        -14    1    5    5    0    0 -0.45494004546E+02 -0.89843522566E+01  0.56769481182E+02  0.73302094300E+02  0.00000000000E+00 0.  1.
          5    1    3    3  501    0  0.75235167002E+02  0.39868206472E+02 -0.28942239002E+03  0.30171608590E+03  0.41800000000E+01 0.  1.
         -5    1    3    3    0  501  0.15735775955E+03 -0.70910913571E+02 -0.10076720209E+04  0.10223552202E+04  0.41800000000E+01 0.  1.
</event>
<event>
11    1  0.2498402E-009  0.2947309E+03  0.7561462E-02  0.1002446E+00
         22   -1    0    0    0    0  0.00000000000E+00  0.00000000000E+00  0.82460106338E+03  0.82460106338E+03  0.00000000000E+00 0. -1.
         22   -1    0    0    0    0 -0.00000000000E+00 -0.00000000000E+00 -0.32904357636E+04  0.32904357636E+04  0.00000000000E+00 0. -1.
         25    2    1    2    0    0 -0.58131457856E+02 -0.71052365055E+02 -0.21275527688E+04  0.21332033251E+04  0.12509171575E+03 0.  0.
         24    2    1    2    0    0 -0.20070926581E+03  0.18583140086E+03 -0.11149781520E+04  0.11510881135E+04  0.83726020947E+02 0.  0.
        -24    2    1    2    0    0  0.25884072367E+03 -0.11477903581E+03  0.77669622062E+03  0.83074538835E+03  0.81903198105E+02 0.  0.
        -13    1    4    4    0    0 -0.83705555119E+02  0.11279111670E+03 -0.42993083028E+03  0.45229301873E+03  0.00000000000E+00 0.  1.
         14    1    4    4    0    0 -0.11700371070E+03  0.73040284160E+02 -0.68504732176E+03  0.69879509477E+03  0.00000000000E+00 0. -1.
         11    1    5    5    0    0  0.22059529753E+03 -0.63320108168E+02  0.63558633315E+03  0.67575269757E+03  0.00000000000E+00 0. -1.
        -12    1    5    5    0    0  0.38245426144E+02 -0.51458927641E+02  0.14110988746E+03  0.15499269078E+03  0.00000000000E+00 0.  1.
          5    1    3    3  501    0 -0.63024090372E+02 -0.10392542863E+03 -0.16904460899E+04  0.16948150300E+04  0.41800000000E+01 0. -1.
         -5    1    3    3    0  501  0.48926325164E+01  0.32873063574E+02 -0.43710667887E+03  0.43838829509E+03  0.41800000000E+01 0. -1.
</event>
<event>
11    1  0.2498402E-009  0.1598998E+03  0.7561462E-02  0.1087172E+00
         22   -1    0    0    0    0  0.00000000000E+00  0.00000000000E+00  0.14455199086E+04  0.14455199086E+04  0.00000000000E+00 0. -1.
         22   -1    0    0    0    0 -0.00000000000E+00 -0.00000000000E+00 -0.13186538817E+04  0.13186538817E+04  0.00000000000E+00 0.  1.
         25    2    1    2    0    0  0.75564955640E+02  0.77313744362E+02 -0.77017390684E+03  0.78772198135E+03  0.12510234021E+03 0.  0.
         24    2    1    2    0    0 -0.94795297302E+02 -0.27098950792E+02 -0.53042353106E+03  0.54572768992E+03  0.82152831469E+02 0.  0.
        -24    2    1    2    0    0  0.19230341662E+02 -0.50214793570E+02  0.14274634649E+04  0.14307241190E+04  0.80176241758E+02 0.  0.
        -11    1    4    4    0    0 -0.81995504810E+02 -0.31584215024E+02 -0.52287307256E+03  0.53020474862E+03  0.00000000000E+00 0.  1.
         12    1    4    4    0    0 -0.12799792491E+02  0.44852642321E+01 -0.75504584954E+01  0.15522941298E+02  0.00000000000E+00 0. -1.
         11    1    5    5    0    0  0.10393401361E+02  0.14120182529E+02  0.73822674889E+03  0.73843492274E+03  0.00000000000E+00 0. -1.
        -12    1    5    5    0    0  0.88369403012E+01 -0.64334976099E+02  0.68923671598E+03  0.69228919631E+03  0.00000000000E+00 0.  1.
          5    1    3    3  501    0  0.93893394781E+01  0.71747112438E+02 -0.60979225730E+03  0.61408458481E+03  0.41800000000E+01 0.  1.
         -5    1    3    3    0  501  0.66175616162E+02  0.55666319240E+01 -0.16038164954E+03  0.17363739654E+03  0.41800000000E+01 0.  1.
</event>
<event>
11    1  0.2498402E-009  0.1321990E+03  0.7561462E-02  0.1116596E+00
         22   -1    0    0    0    0  0.00000000000E+00  0.00000000000E+00  0.80512474352E+03  0.80512474352E+03  0.00000000000E+00 0.  1.
         22   -1    0    0    0    0 -0.00000000000E+00 -0.00000000000E+00 -0.14216817816E+03  0.14216817816E+03  0.00000000000E+00 0.  1.
         25    2    1    2    0    0  0.35748060379E+02  0.22664473900E+02 -0.83063226397E+02  0.15600874612E+03  0.12509047562E+03 0.  0.
         24    2    1    2    0    0  0.22941495492E+02 -0.10365967501E+03  0.34453248917E+03  0.36942564772E+03  0.80628981536E+02 0.  0.
        -24    2    1    2    0    0 -0.58689555872E+02  0.80995201108E+02  0.40148730259E+03  0.42185852784E+03  0.82267106422E+02 0.  0.
        -11    1    4    4    0    0  0.16215257211E+02 -0.91008444764E+02  0.16347322161E+03  0.18780033485E+03  0.00000000000E+00 0.  1.
         12    1    4    4    0    0  0.67262382814E+01 -0.12651230244E+02  0.18105926756E+03  0.18162531288E+03  0.00000000000E+00 0. -1.
         11    1    5    5    0    0 -0.13068469579E+02  0.27223294110E+02  0.27815736391E+03  0.27979172921E+03  0.00000000000E+00 0. -1.
        -12    1    5    5    0    0 -0.45621086292E+02  0.53771906999E+02  0.12332993868E+03  0.14206679862E+03  0.00000000000E+00 0.  1.
          5    1    3    3  501    0  0.28769549458E+02 -0.47624044734E+02 -0.14880838909E+02  0.57746414430E+02  0.41800000000E+01 0. -1.
         -5    1    3    3    0  501  0.69785109209E+01  0.70288518634E+02 -0.68182387488E+02  0.98262331694E+02  0.41800000000E+01 0. -1.
</event>
<event>
11    1  0.2498402E-009  0.1535388E+03  0.7561462E-02  0.1093317E+00
         22   -1    0    0    0    0  0.00000000000E+00  0.00000000000E+00  0.33778328130E+03  0.33778328130E+03  0.00000000000E+00 0. -1.
         22   -1    0    0    0    0 -0.00000000000E+00 -0.00000000000E+00 -0.85231271353E+03  0.85231271353E+03  0.00000000000E+00 0.  1.
         25    2    1    2    0    0  0.87590369118E+02  0.28988117727E+02 -0.59109442804E+03  0.61118897575E+03  0.12508779914E+03 0.  0.
         24    2    1    2    0    0 -0.35615122228E+02  0.43629808439E+02 -0.23038253063E+03  0.24932925453E+03  0.76921841047E+02 0.  0.
        -24    2    1    2    0    0 -0.51975246891E+02 -0.72617926165E+02  0.30694752643E+03  0.32957776454E+03  0.80186840643E+02 0.  0.
        -11    1    4    4    0    0 -0.34637759825E+02  0.63016353376E+02 -0.20583601212E+03  0.21803508682E+03  0.00000000000E+00 0.  1.
         12    1    4    4    0    0 -0.97736240225E+00 -0.19386544937E+02 -0.24546518511E+02  0.31294167713E+02  0.00000000000E+00 0. -1.
         11    1    5    5    0    0 -0.53322154088E+02 -0.72348159553E+02  0.16720866859E+03  0.18983215523E+03  0.00000000000E+00 0. -1.
        -12    1    5    5    0    0  0.13469071971E+01 -0.26976661197E+00  0.13973885784E+03  0.13974560932E+03  0.00000000000E+00 0.  1.
          5    1    3    3  501    0  0.36461297226E+02  0.59544723207E+00 -0.31029553482E+02  0.48063357582E+02  0.41800000000E+01 0.  1.
         -5    1    3    3    0  501  0.51129071893E+02  0.28392670495E+02 -0.56006487455E+03  0.56312561817E+03  0.41800000000E+01 0.  1.
</event>
<event>
11    1  0.2498402E-009  0.1346131E+03  0.7561462E-02  0.1113727E+00
         22   -1    0    0    0    0  0.00000000000E+00  0.00000000000E+00  0.30107137272E+03  0.30107137272E+03  0.00000000000E+00 0. -1.
         22   -1    0    0    0    0 -0.00000000000E+00 -0.00000000000E+00 -0.69344261332E+03  0.69344261332E+03  0.00000000000E+00 0. -1.
         25    2    1    2    0    0  0.30856491041E+02 -0.25640275910E+02 -0.29725217526E+03  0.32498617477E+03  0.12509041252E+03 0.  0.
        -24    2    1    2    0    0 -0.41602537490E+02  0.34576282095E+02 -0.36993306574E+03  0.38252912275E+03  0.80942981261E+02 0.  0.
         24    2    1    2    0    0  0.10746046449E+02 -0.89360061851E+01  0.27481400041E+03  0.28699868852E+03  0.81548652158E+02 0.  0.
        -11    1    5    5    0    0 -0.73469405822E+01  0.20964192864E+02  0.20287808497E+02  0.30084382858E+02  0.00000000000E+00 0.  1.
         12    1    5    5    0    0  0.18092987031E+02 -0.29900199049E+02  0.25452619191E+03  0.25691430566E+03  0.00000000000E+00 0. -1.
         11    1    4    4    0    0  0.19752026091E+02  0.10197964134E+02 -0.18168284245E+03  0.18303769079E+03  0.00000000000E+00 0. -1.
        -12    1    4    4    0    0 -0.61354563581E+02  0.24378317961E+02 -0.18825022329E+03  0.19949143196E+03  0.00000000000E+00 0.  1.
          5    1    3    3  501    0 -0.24011069124E+01 -0.41423764010E+02 -0.21807490353E+02  0.47060945323E+02  0.41800000000E+01 0.  1.
         -5    1    3    3    0  501  0.33257597953E+02  0.15783488101E+02 -0.27544468491E+03  0.27792522945E+03  0.41800000000E+01 0.  1.
</event>
<event>
11    1  0.2498402E-009  0.1315388E+03  0.7561462E-02  0.1117393E+00
         22   -1    0    0    0    0  0.00000000000E+00  0.00000000000E+00  0.13742616951E+03  0.13742616951E+03  0.00000000000E+00 0.  1.
         22   -1    0    0    0    0 -0.00000000000E+00 -0.00000000000E+00 -0.19532571805E+04  0.19532571805E+04  0.00000000000E+00 0.  1.
         25    2    1    2    0    0 -0.22264599825E+02  0.82661677668E+01 -0.10121500710E+04  0.10201267980E+04  0.12508747242E+03 0.  0.
        -24    2    1    2    0    0 -0.17999512652E+02 -0.16011848315E+02 -0.91955745650E+03  0.92338342980E+03  0.80440542461E+02 0.  0.
         24    2    1    2    0    0  0.40264112477E+02  0.77456805485E+01  0.11587651656E+03  0.14717312222E+03  0.80940512062E+02 0.  0.
        -13    1    5    5    0    0  0.25094138797E+02  0.39187789069E+02  0.96768026607E+02  0.10737527456E+03  0.00000000000E+00 0.  1.
         14    1    5    5    0    0  0.15169973679E+02 -0.31442108520E+02  0.19108489949E+02  0.39797847652E+02  0.00000000000E+00 0. -1.
         11    1    4    4    0    0  0.14455548613E+02 -0.74632547331E+01 -0.39943402953E+02  0.43129322930E+02  0.00000000000E+00 0. -1.
        -12    1    4    4    0    0 -0.32455061265E+02 -0.85485935821E+01 -0.87961405355E+03  0.88025410687E+03  0.00000000000E+00 0.  1.
          5    1    3    3  501    0 -0.37145765567E+02 -0.39958432020E+02 -0.80572163449E+03  0.80757743212E+03  0.41800000000E+01 0. -1.
         -5    1    3    3    0  501  0.14881165743E+02  0.48224599786E+02 -0.20642843656E+03  0.21254936589E+03  0.41800000000E+01 0. -1.
</event>
<event>
11    1  0.2498402E-009  0.2175123E+03  0.7561462E-02  0.1042787E+00
         22   -1    0    0    0    0  0.00000000000E+00  0.00000000000E+00  0.94966306981E+02  0.94966306981E+02  0.00000000000E+00 0. -1.
         22   -1    0    0    0    0 -0.00000000000E+00 -0.00000000000E+00 -0.13128189396E+04  0.13128189396E+04  0.00000000000E+00 0. -1.
         25    2    1    2    0    0 -0.10802627441E+03 -0.12644377820E+03 -0.89982126550E+03  0.92357126990E+03  0.12509146939E+03 0.  0.
        -24    2    1    2    0    0  0.10662815966E+03  0.20736180846E+03 -0.24622887359E+03  0.34927910064E+03  0.83658519680E+02 0.  0.
         24    2    1    2    0    0  0.13981147546E+01 -0.80918030264E+02 -0.71802493493E+02  0.13493487601E+03  0.80635850251E+02 0.  0.
        -13    1    5    5    0    0  0.53211249317E+01 -0.11970603151E+02  0.17616291482E+02  0.21953210150E+02  0.00000000000E+00 0.  1.
         14    1    5    5    0    0 -0.39230101771E+01 -0.68947427113E+02 -0.89418784975E+02  0.11298166586E+03  0.00000000000E+00 0. -1.
         11    1    4    4    0    0  0.10499644991E+03  0.14862232888E+03 -0.21836144602E+03  0.28424386052E+03  0.00000000000E+00 0. -1.
        -12    1    4    4    0    0  0.16317097500E+01  0.58739479582E+02 -0.27867427567E+02  0.65035240120E+02  0.00000000000E+00 0.  1.
          5    1    3    3  501    0 -0.13353979084E+03 -0.11780410375E+03 -0.72059195940E+03  0.74228089491E+03  0.41800000000E+01 0.  1.
         -5    1    3    3    0  501  0.25513516430E+02 -0.86396744458E+01 -0.17922930611E+03  0.18129037499E+03  0.41800000000E+01 0.  1.
</event>
<event>
11    1  0.2498402E-009  0.1319621E+04  0.7561462E-02  0.8423131E-01
         22   -1    0    0    0    0  0.00000000000E+00  0.00000000000E+00  0.25519790543E+04  0.25519790543E+04  0.00000000000E+00 0.  1.
         22   -1    0    0    0    0 -0.00000000000E+00 -0.00000000000E+00 -0.17059303977E+03  0.17059303977E+03  0.00000000000E+00 0.  1.
         25    2    1    2    0    0  0.48953748659E+03  0.37277231304E+03  0.93890647499E+03  0.11295126833E+04  0.12508950678E+03 0.  0.
        -24    2    1    2    0    0 -0.41593680344E+03 -0.19507530066E+03  0.97197767240E+03  0.10781678227E+04  0.81531961677E+02 0.  0.
         24    2    1    2    0    0 -0.73600683152E+02 -0.17769701239E+03  0.47050186716E+03  0.51489158818E+03  0.82146526468E+02 0.  0.
        -11    1    5    5    0    0 -0.57625651286E+02 -0.45522673700E+02  0.20749272798E+03  0.22010511505E+03  0.00000000000E+00 0.  1.
         12    1    5    5    0    0 -0.15975031866E+02 -0.13217433869E+03  0.26300913918E+03  0.29478647313E+03  0.00000000000E+00 0. -1.
         13    1    4    4    0    0 -0.45953960302E+02  0.44044730633E+01  0.10272940352E+03  0.11262546869E+03  0.00000000000E+00 0. -1.
        -14    1    4    4    0    0 -0.36998284314E+03 -0.19947977372E+03  0.86924826888E+03  0.96554235396E+03  0.00000000000E+00 0.  1.
          5    1    3    3  501    0  0.11426005685E+03  0.79817461066E+02  0.12859920606E+03  0.18968767984E+03  0.41800000000E+01 0. -1.
         -5    1    3    3    0  501  0.37527742974E+03  0.29295485198E+03  0.81030726892E+03  0.93982500341E+03  0.41800000000E+01 0. -1.
</event>
<event>
11    1  0.2498402E-009  0.2029049E+03  0.7561462E-02  0.1052488E+00
         22   -1    0    0    0    0  0.00000000000E+00  0.00000000000E+00  0.34424575571E+04  0.34424575571E+04  0.00000000000E+00 0.  1.
         22   -1    0    0    0    0 -0.00000000000E+00 -0.00000000000E+00 -0.22033810843E+03  0.22033810843E+03  0.00000000000E+00 0. -1.
         25    2    1    2    0    0 -0.44520013413E+02  0.43729770236E+02 -0.50977111970E+02  0.14879839999E+03  0.12509186023E+03 0.  0.
        -24    2    1    2    0    0  0.21865494649E+03  0.20307963610E+02 -0.94001837030E+00  0.23371881798E+03  0.80007519868E+02 0.  0.
         24    2    1    2    0    0 -0.17413493307E+03 -0.64037733846E+02  0.32740365790E+04  0.32802784476E+04  0.80544189576E+02 0.  0.
        -13    1    5    5    0    0 -0.11034719458E+03 -0.21906343681E-01  0.15959841970E+04  0.15997943809E+04  0.00000000000E+00 0.  1.
         14    1    5    5    0    0 -0.63787738498E+02 -0.64015827502E+02  0.16780523820E+04  0.16804840667E+04  0.00000000000E+00 0. -1.
         11    1    4    4    0    0  0.37715870949E+02 -0.22473940591E+02 -0.17040294000E+02  0.47094973689E+02  0.00000000000E+00 0. -1.
        -12    1    4    4    0    0  0.18093907554E+03  0.42781904201E+02  0.16100275630E+02  0.18662384429E+03  0.00000000000E+00 0.  1.
          5    1    3    3  501    0 -0.75924808872E+02  0.52657148803E+02 -0.64971449756E+02  0.11303147175E+03  0.41800000000E+01 0. -1.
         -5    1    3    3    0  501  0.31404795459E+02 -0.89273785677E+01  0.13994337786E+02  0.35766928244E+02  0.41800000000E+01 0. -1.
</event>
<event>
11    1  0.2498402E-009  0.3679717E+03  0.7561462E-02  0.9749292E-01
         22   -1    0    0    0    0  0.00000000000E+00  0.00000000000E+00  0.10394705241E+04  0.10394705241E+04  0.00000000000E+00 0.  1.
         22   -1    0    0    0    0 -0.00000000000E+00 -0.00000000000E+00 -0.19414682534E+03  0.19414682534E+03  0.00000000000E+00 0.  1.
         25    2    1    2    0    0  0.26756986440E+02 -0.32292400444E+02  0.57598426262E+02  0.14396084348E+03  0.12509360614E+03 0.  0.
         24    2    1    2    0    0 -0.25349478068E+03  0.28855586795E+03  0.33301423121E+03  0.51483555502E+03  0.81443709196E+02 0.  0.
        -24    2    1    2    0    0  0.22673779424E+03 -0.25626346751E+03  0.45471104133E+03  0.57482095097E+03  0.81092554816E+02 0.  0.
        -13    1    4    4    0    0 -0.33353478202E+02  0.87485532773E+02  0.65478001299E+02  0.11425209673E+03  0.00000000000E+00 0.  1.
         14    1    4    4    0    0 -0.22014130248E+03  0.20107033518E+03  0.26753622991E+03  0.40058345829E+03  0.00000000000E+00 0. -1.
         11    1    5    5    0    0  0.92255260426E+02 -0.10894656337E+03  0.12645867633E+03  0.19071492749E+03  0.00000000000E+00 0. -1.
        -12    1    5    5    0    0  0.13448253381E+03 -0.14731690414E+03  0.32825236500E+03  0.38410602348E+03  0.00000000000E+00 0.  1.
          5    1    3    3  501    0 -0.32130749270E+02 -0.22374139348E+02  0.72292544494E+02  0.82320541480E+02  0.41800000000E+01 0. -1.
         -5    1    3    3    0  501  0.58887735710E+02 -0.99182610961E+01 -0.14694118231E+02  0.61640302001E+02  0.41800000000E+01 0. -1.
</event>
<event>
11    1  0.2498402E-009  0.1481237E+03  0.7561462E-02  0.1098812E+00
         22   -1    0    0    0    0  0.00000000000E+00  0.00000000000E+00  0.34172961110E+03  0.34172961110E+03  0.00000000000E+00 0. -1.
         22   -1    0    0    0    0 -0.00000000000E+00 -0.00000000000E+00 -0.42685283066E+03  0.42685283066E+03  0.00000000000E+00 0. -1.
         25    2    1    2    0    0  0.41157178807E+02  0.64692690619E+02 -0.16934668490E+03  0.22406978689E+03  0.12509960879E+03 0.  0.
         24    2    1    2    0    0 -0.20329611226E+02 -0.79538809261E+02 -0.21009329781E+03  0.23943133236E+03  0.80302265596E+02 0.  0.
        -24    2    1    2    0    0 -0.20827567581E+02  0.14846118642E+02  0.29431676316E+03  0.30508132252E+03  0.76145002890E+02 0.  0.
        -13    1    4    4    0    0  0.13914988929E+02 -0.25628049530E+02 -0.14623917930E+03  0.14911848108E+03  0.00000000000E+00 0.  1.
         14    1    4    4    0    0 -0.34244600155E+02 -0.53910759731E+02 -0.63854118517E+02  0.90312851279E+02  0.00000000000E+00 0. -1.
         11    1    5    5    0    0 -0.52212561688E+01  0.44909593579E+02  0.14116849244E+03  0.14823183319E+03  0.00000000000E+00 0. -1.
        -12    1    5    5    0    0 -0.15606311412E+02 -0.30063474937E+02  0.15314827071E+03  0.15684948933E+03  0.00000000000E+00 0.  1.
          5    1    3    3  501    0  0.30080806375E+02  0.25427756816E+01  0.11424412825E+02  0.32547046390E+02  0.41800000000E+01 0.  1.
         -5    1    3    3    0  501  0.11076372433E+02  0.62149914937E+02 -0.18077109773E+03  0.19152274050E+03  0.41800000000E+01 0.  1.
</event>
<event>
11    1  0.2498402E-009  0.1916295E+03  0.7561462E-02  0.1060606E+00
         22   -1    0    0    0    0  0.00000000000E+00  0.00000000000E+00  0.23906500766E+03  0.23906500766E+03  0.00000000000E+00 0. -1.
         22   -1    0    0    0    0 -0.00000000000E+00 -0.00000000000E+00 -0.10692172405E+04  0.10692172405E+04  0.00000000000E+00 0. -1.
         25    2    1    2    0    0 -0.74704241352E+02  0.11705298452E+03 -0.88278644196E+03  0.90235372360E+03  0.12509282763E+03 0.  0.
         24    2    1    2    0    0  0.14219517669E+03 -0.20538909414E+03  0.55100624081E+02  0.26901925802E+03  0.83253433249E+02 0.  0.
        -24    2    1    2    0    0 -0.67490935334E+02  0.88336109614E+02 -0.24664149061E+01  0.13690926649E+03  0.79873458889E+02 0.  0.
        -13    1    4    4    0    0  0.23560357158E+02 -0.81187026354E+02 -0.10447887964E+02  0.85179704393E+02  0.00000000000E+00 0.  1.
         14    1    4    4    0    0  0.11863481953E+03 -0.12420206778E+03  0.65548512045E+02  0.18383955363E+03  0.00000000000E+00 0. -1.
         11    1    5    5    0    0 -0.72709385603E+02  0.78563717235E+02  0.22687219799E+02  0.10942404838E+03  0.00000000000E+00 0. -1.
        -12    1    5    5    0    0  0.52184502691E+01  0.97723923785E+01 -0.25153634705E+02  0.27485218116E+02  0.00000000000E+00 0.  1.
          5    1    3    3  501    0 -0.65005173603E+02  0.75620039514E+02 -0.82198949502E+03  0.82802672982E+03  0.41800000000E+01 0. -1.
         -5    1    3    3    0  501 -0.96990677488E+01  0.41432945010E+02 -0.60796946945E+02  0.74326993785E+02  0.41800000000E+01 0. -1.
</event>
<event>
11    1  0.2498402E-009  0.3075170E+04  0.7561462E-02  0.7729297E-01
         22   -1    0    0    0    0  0.00000000000E+00  0.00000000000E+00  0.11618026269E+04  0.11618026269E+04  0.00000000000E+00 0.  1.
         22   -1    0    0    0    0 -0.00000000000E+00 -0.00000000000E+00 -0.20349127188E+04  0.20349127188E+04  0.00000000000E+00 0.  1.
         25    2    1    2    0    0  0.43784368123E+02  0.48111492496E+03 -0.19396434729E+04  0.20028111984E+04  0.12508897816E+03 0.  0.
        -24    2    1    2    0    0 -0.22128562464E+02 -0.21922301432E+03  0.30827241662E+03  0.38741097129E+03  0.80665820168E+02 0.  0.
         24    2    1    2    0    0 -0.21655805659E+02 -0.26189191064E+03  0.75826096435E+03  0.80649317598E+03  0.80094981537E+02 0.  0.
        -11    1    5    5    0    0 -0.12073837954E+02 -0.26441709787E+03  0.72615278161E+03  0.77289070473E+03  0.00000000000E+00 0.  1.
         12    1    5    5    0    0 -0.95819677048E+01  0.25251872293E+01  0.32108182739E+02  0.33602471255E+02  0.00000000000E+00 0. -1.
         11    1    4    4    0    0 -0.43457700194E+02 -0.12841912691E+03  0.22330367707E+03  0.26123662847E+03  0.00000000000E+00 0. -1.
        -12    1    4    4    0    0  0.21329137729E+02 -0.90803887410E+02  0.84968739548E+02  0.12617434282E+03  0.00000000000E+00 0.  1.
          5    1    3    3  501    0 -0.30803076258E+02  0.30735190952E+03 -0.11414373210E+04  0.11825018630E+04  0.41800000000E+01 0.  1.
         -5    1    3    3    0  501  0.74587444381E+02  0.17376301544E+03 -0.79820615193E+03  0.82030933542E+03  0.41800000000E+01 0.  1.
</event>
<event>
11    1  0.2498402E-009  0.2337617E+03  0.7561462E-02  0.1032924E+00
         22   -1    0    0    0    0  0.00000000000E+00  0.00000000000E+00  0.52982993656E+03  0.52982993656E+03  0.00000000000E+00 0.  1.
         22   -1    0    0    0    0 -0.00000000000E+00 -0.00000000000E+00 -0.16825181399E+04  0.16825181399E+04  0.00000000000E+00 0.  1.
         25    2    1    2    0    0 -0.84916960064E+02 -0.14475850493E+03 -0.10151626942E+04  0.10365175277E+04  0.12508946737E+03 0.  0.
         24    2    1    2    0    0  0.20512376276E+03  0.23992665969E+03 -0.59957918265E+03  0.68230676972E+03  0.80042311726E+02 0.  0.
        -24    2    1    2    0    0 -0.12020680269E+03 -0.95168154761E+02  0.46205367346E+03  0.49352377902E+03  0.81027589164E+02 0.  0.
        -11    1    4    4    0    0  0.15899428056E+03  0.13268616435E+03 -0.41711540971E+03  0.46569310117E+03  0.00000000000E+00 0.  1.
         12    1    4    4    0    0  0.46129482199E+02  0.10724049534E+03 -0.18246377294E+03  0.21661366855E+03  0.00000000000E+00 0. -1.
         13    1    5    5    0    0 -0.70187899548E+02 -0.83836398538E+02  0.21502445678E+03  0.24122686412E+03  0.00000000000E+00 0. -1.
        -14    1    5    5    0    0 -0.50018903145E+02 -0.11331756223E+02  0.24702921668E+03  0.25229691489E+03  0.00000000000E+00 0.  1.
          5    1    3    3  501    0 -0.34819610352E+02 -0.95684888565E+02 -0.27934086388E+03  0.29734961543E+03  0.41800000000E+01 0.  1.
         -5    1    3    3    0  501 -0.50097349712E+02 -0.49073616360E+02 -0.73582183028E+03  0.73916791231E+03  0.41800000000E+01 0.  1.
</event>
<event>
11    1  0.2498402E-009  0.8104257E+03  0.7561462E-02  0.8883733E-01
         22   -1    0    0    0    0  0.00000000000E+00  0.00000000000E+00  0.98387990618E+03  0.98387990618E+03  0.00000000000E+00 0. -1.
         22   -1    0    0    0    0 -0.00000000000E+00 -0.00000000000E+00 -0.14731631523E+04  0.14731631523E+04  0.00000000000E+00 0.  1.
         25    2    1    2    0    0  0.11711435435E+03 -0.79104388244E+03 -0.10707927246E+04  0.13422777281E+04  0.12508494805E+03 0.  0.
        -24    2    1    2    0    0 -0.22380571511E+03  0.78080410411E+03  0.49159290886E+03  0.95360588500E+03  0.89199488474E+02 0.  0.
         24    2    1    2    0    0  0.10669136076E+03  0.10239778322E+02  0.89916569643E+02  0.16115944541E+03  0.79996736356E+02 0.  0.
        -13    1    5    5    0    0  0.27372012640E+02  0.40131050737E+02  0.26820136767E+02  0.55489170524E+02  0.00000000000E+00 0.  1.
         14    1    5    5    0    0  0.79319348125E+02 -0.29891272415E+02  0.63096432875E+02  0.10567027489E+03  0.00000000000E+00 0. -1.
         11    1    4    4    0    0 -0.19445026279E+03  0.67800583368E+03  0.46017251159E+03  0.84217667720E+03  0.00000000000E+00 0. -1.
        -12    1    4    4    0    0 -0.29355452327E+02  0.10279827044E+03  0.31420397274E+02  0.11142920780E+03  0.00000000000E+00 0.  1.
          5    1    3    3  501    0  0.71477397697E+01 -0.11467014598E+03 -0.90998314616E+02  0.14662366189E+03  0.41800000000E+01 0.  1.
         -5    1    3    3    0  501  0.10996661458E+03 -0.67637373646E+03 -0.97979441001E+03  0.11956540662E+04  0.41800000000E+01 0.  1.
</event>
<event>
11    1  0.2498402E-009  0.3983286E+03  0.7561462E-02  0.9654702E-01
         22   -1    0    0    0    0  0.00000000000E+00  0.00000000000E+00  0.12137202704E+03  0.12137202704E+03  0.00000000000E+00 0. -1.
         22   -1    0    0    0    0 -0.00000000000E+00 -0.00000000000E+00 -0.34553879326E+04  0.34553879326E+04  0.00000000000E+00 0. -1.
         25    2    1    2    0    0 -0.18232878465E+03 -0.29160889725E+03 -0.13575994132E+04  0.14060594150E+04  0.12508947630E+03 0.  0.
        -24    2    1    2    0    0  0.45246201692E+03 -0.12686821646E+02 -0.12849511669E+04  0.13646139858E+04  0.78670178279E+02 0.  0.
         24    2    1    2    0    0 -0.27013323228E+03  0.30429571889E+03 -0.69146532550E+03  0.80608655881E+03  0.77996129526E+02 0.  0.
        -11    1    5    5    0    0 -0.99336671202E+02  0.14342498407E+03 -0.35921674476E+03  0.39934342366E+03  0.00000000000E+00 0.  1.
         12    1    5    5    0    0 -0.17079656107E+03  0.16087073483E+03 -0.33224858073E+03  0.40674313516E+03  0.00000000000E+00 0. -1.
         11    1    4    4    0    0  0.32061639653E+03  0.26249265921E+02 -0.92103605697E+03  0.97559792739E+03  0.00000000000E+00 0. -1.
        -12    1    4    4    0    0  0.13184562040E+03 -0.38936087567E+02 -0.36391510988E+03  0.38901605845E+03  0.00000000000E+00 0.  1.
          5    1    3    3  501    0 -0.33932123737E+00  0.95511969741E+01 -0.16190845140E+02  0.19260227644E+02  0.41800000000E+01 0. -1.
         -5    1    3    3    0  501 -0.18198946341E+03 -0.30116009422E+03 -0.13414085681E+04  0.13867991874E+04  0.41800000000E+01 0. -1.
</event>
<event>
11    1  0.2498402E-009  0.1501700E+03  0.7561462E-02  0.1096705E+00
         22   -1    0    0    0    0  0.00000000000E+00  0.00000000000E+00  0.63268823453E+02  0.63268823453E+02  0.00000000000E+00 0.  1.
         22   -1    0    0    0    0 -0.00000000000E+00 -0.00000000000E+00 -0.76193350769E+03  0.76193350769E+03  0.00000000000E+00 0. -1.
         25    2    1    2    0    0  0.60093660068E+02  0.47725280520E+02 -0.45722616887E+03  0.48019899617E+03  0.12508539500E+03 0.  0.
        -24    2    1    2    0    0 -0.31077676320E+02 -0.11042125039E+03 -0.12558614879E+03  0.18809774671E+03  0.80313181038E+02 0.  0.
         24    2    1    2    0    0 -0.29015983747E+02  0.62695969870E+02 -0.11585236657E+03  0.15690558825E+03  0.80155354367E+02 0.  0.
        -13    1    5    5    0    0 -0.48302883839E+02  0.33081803645E+02 -0.33886024948E+02  0.67644933339E+02  0.00000000000E+00 0.  1.
         14    1    5    5    0    0  0.19286900092E+02  0.29614166225E+02 -0.81966341626E+02  0.89260654915E+02  0.00000000000E+00 0. -1.
         13    1    4    4    0    0 -0.61416194558E+01 -0.69544076822E+01 -0.64945647098E+02  0.65605032983E+02  0.00000000000E+00 0. -1.
        -14    1    4    4    0    0 -0.24936056864E+02 -0.10346684271E+03 -0.60640501687E+02  0.12249271373E+03  0.00000000000E+00 0.  1.
          5    1    3    3  501    0  0.10937556867E+02 -0.31734780142E+02 -0.25686865849E+03  0.25908629168E+03  0.41800000000E+01 0.  1.
         -5    1    3    3    0  501  0.49156103200E+02  0.79460060662E+02 -0.20035751038E+03  0.22111270450E+03  0.41800000000E+01 0.  1.
</event>
<event>
11    1  0.2498402E-009  0.2774456E+03  0.7561462E-02  0.1010216E+00
         22   -1    0    0    0    0  0.00000000000E+00  0.00000000000E+00  0.10340178376E+04  0.10340178376E+04  0.00000000000E+00 0.  1.
         22   -1    0    0    0    0 -0.00000000000E+00 -0.00000000000E+00 -0.20278019944E+03  0.20278019944E+03  0.00000000000E+00 0.  1.
         25    2    1    2    0    0  0.19974274964E+03 -0.16960207014E+03 -0.41280591177E+02  0.29327923498E+03  0.12508634710E+03 0.  0.
        -24    2    1    2    0    0 -0.10704939671E+03  0.17525048766E+03  0.41720971772E+03  0.47210199866E+03  0.81510992009E+02 0.  0.
         24    2    1    2    0    0 -0.92693352930E+02 -0.56484175193E+01  0.45530851162E+03  0.47141680340E+03  0.79397729683E+02 0.  0.
        -13    1    5    5    0    0 -0.98737980757E+02 -0.16119579049E+02  0.44302644831E+03  0.45418219205E+03  0.00000000000E+00 0.  1.
         14    1    5    5    0    0  0.60446278263E+01  0.10471161530E+02  0.12282063310E+02  0.17234611353E+02  0.00000000000E+00 0. -1.
         13    1    4    4    0    0 -0.89530842520E+02  0.68555338301E+02  0.20762721958E+03  0.23627244546E+03  0.00000000000E+00 0. -1.
        -14    1    4    4    0    0 -0.17518554194E+02  0.10669514936E+03  0.20958249814E+03  0.23582955320E+03  0.00000000000E+00 0.  1.
          5    1    3    3  501    0 -0.91061588674E+00 -0.50773867793E+02 -0.31361417264E+02  0.59831645179E+02  0.41800000000E+01 0.  1.
         -5    1    3    3    0  501  0.20065336553E+03 -0.11882820235E+03 -0.99191739131E+01  0.23344758980E+03  0.41800000000E+01 0.  1.
</event>
<event>
11    1  0.2498402E-009  0.3433433E+03  0.7561462E-02  0.9833514E-01
         22   -1    0    0    0    0  0.00000000000E+00  0.00000000000E+00  0.27580952398E+03  0.27580952398E+03  0.00000000000E+00 0.  1.
         22   -1    0    0    0    0 -0.00000000000E+00 -0.00000000000E+00 -0.66819943568E+03  0.66819943568E+03  0.00000000000E+00 0. -1.
         25    2    1    2    0    0  0.22420630370E+03  0.20959752269E+03 -0.19967631640E+03  0.38693350206E+03  0.12508923034E+03 0.  0.
        -24    2    1    2    0    0 -0.14560127508E+03 -0.31582874314E+03 -0.18431909533E+03  0.40166144755E+03  0.80067866502E+02 0.  0.
         24    2    1    2    0    0 -0.78605028623E+02  0.10623122045E+03 -0.83944999659E+01  0.15541401006E+03  0.81358614600E+02 0.  0.
        -13    1    5    5    0    0  0.14960119915E+02  0.79546818694E+01 -0.10070251154E+02  0.19710203191E+02  0.00000000000E+00 0.  1.
         14    1    5    5    0    0 -0.93565148538E+02  0.98276538576E+02  0.16757511881E+01  0.13570380686E+03  0.00000000000E+00 0. -1.
         11    1    4    4    0    0 -0.52983887978E+02 -0.20050346064E+03 -0.12603609227E+03  0.24268091533E+03  0.00000000000E+00 0. -1.
        -12    1    4    4    0    0 -0.92617387103E+02 -0.11532528250E+03 -0.58283003067E+02  0.15898053222E+03  0.00000000000E+00 0.  1.
          5    1    3    3  501    0  0.12679324831E+03  0.60001578699E+02 -0.36416076069E+02  0.14498386206E+03  0.41800000000E+01 0. -1.
         -5    1    3    3    0  501  0.97413055396E+02  0.14959594399E+03 -0.16326024033E+03  0.24194964000E+03  0.41800000000E+01 0. -1.
</event>
<event>
11    1  0.2498402E-009  0.1356988E+03  0.7561462E-02  0.1112459E+00
         22   -1    0    0    0    0  0.00000000000E+00  0.00000000000E+00  0.16127441504E+03  0.16127441504E+03  0.00000000000E+00 0. -1.
         22   -1    0    0    0    0 -0.00000000000E+00 -0.00000000000E+00 -0.71766735163E+03  0.71766735163E+03  0.00000000000E+00 0. -1.
         25    2    1    2    0    0  0.48169194863E+02 -0.20951946183E+02 -0.60926434226E+03  0.62418706294E+03  0.12508875012E+03 0.  0.
         24    2    1    2    0    0  0.13956809511E+02  0.30113759061E+02 -0.56391677061E+02  0.10370770093E+03  0.80458902390E+02 0.  0.
        -24    2    1    2    0    0 -0.62126004374E+02 -0.91618128775E+01  0.10926308273E+03  0.15104700280E+03  0.83265818753E+02 0.  0.
        -13    1    4    4    0    0 -0.29359370073E+02  0.14040017623E+00 -0.43859865179E+01  0.29685504897E+02  0.00000000000E+00 0.  1.
         14    1    4    4    0    0  0.43316179584E+02  0.29973358885E+02 -0.52005690543E+02  0.74022196032E+02  0.00000000000E+00 0. -1.
         11    1    5    5    0    0 -0.37291060651E+02  0.34086024508E+02  0.34504260119E+02  0.61180260196E+02  0.00000000000E+00 0. -1.
        -12    1    5    5    0    0 -0.24834943723E+02 -0.43247837385E+02  0.74758822613E+02  0.89866742606E+02  0.00000000000E+00 0.  1.
          5    1    3    3  501    0 -0.38880392126E+02  0.58494363781E+00 -0.28701136307E+03  0.28966363593E+03  0.41800000000E+01 0. -1.
         -5    1    3    3    0  501  0.87049586989E+02 -0.21536889821E+02 -0.32225297919E+03  0.33452342701E+03  0.41800000000E+01 0. -1.
</event>
<event>
11    1  0.2498402E-009  0.4280136E+03  0.7561462E-02  0.9570537E-01
         22   -1    0    0    0    0  0.00000000000E+00  0.00000000000E+00  0.12538849791E+04  0.12538849791E+04  0.00000000000E+00 0.  1.
         22   -1    0    0    0    0 -0.00000000000E+00 -0.00000000000E+00 -0.32174945522E+03  0.32174945522E+03  0.00000000000E+00 0.  1.
         25    2    1    2    0    0  0.69535716211E+02 -0.42479894026E+03  0.15528636656E+02  0.44852870209E+03  0.12508997785E+03 0.  0.
        -24    2    1    2    0    0 -0.19902697848E+03  0.33388077949E+03  0.33552383358E+03  0.51946652554E+03  0.78620068582E+02 0.  0.
         24    2    1    2    0    0  0.12949126226E+03  0.90918160777E+02  0.58108305365E+03  0.60763920670E+03  0.80831870674E+02 0.  0.
        -13    1    5    5    0    0  0.93786571984E+02  0.92732099302E+02  0.35423931548E+03  0.37799557663E+03  0.00000000000E+00 0.  1.
         14    1    5    5    0    0  0.35704690281E+02 -0.18139385255E+01  0.22684373817E+03  0.22964363007E+03  0.00000000000E+00 0. -1.
         11    1    4    4    0    0 -0.12718072895E+02  0.54171850410E+00  0.29288896304E+01  0.13062206229E+02  0.00000000000E+00 0. -1.
        -12    1    4    4    0    0 -0.18630890558E+03  0.33333906098E+03  0.33259494395E+03  0.50640431931E+03  0.00000000000E+00 0.  1.
          5    1    3    3  501    0 -0.12057688252E+02 -0.73050643216E+01 -0.16268520310E+02  0.21929180646E+02  0.41800000000E+01 0.  1.
         -5    1    3    3    0  501  0.81593404463E+02 -0.41749387594E+03  0.31797156966E+02  0.42659952144E+03  0.41800000000E+01 0.  1.
</event>
<event>
11    1  0.2498402E-009  0.2406359E+03  0.7561462E-02  0.1029009E+00
         22   -1    0    0    0    0  0.00000000000E+00  0.00000000000E+00  0.16510299422E+03  0.16510299422E+03  0.00000000000E+00 0. -1.
         22   -1    0    0    0    0 -0.00000000000E+00 -0.00000000000E+00 -0.74727264769E+03  0.74727264769E+03  0.00000000000E+00 0. -1.
         25    2    1    2    0    0  0.16699576400E+03 -0.47569790378E+02 -0.39079688023E+03  0.44555432104E+03  0.12508389686E+03 0.  0.
         24    2    1    2    0    0 -0.32214096039E+02 -0.13332715936E+03 -0.15871307225E+03  0.22473400940E+03  0.80632848591E+02 0.  0.
        -24    2    1    2    0    0 -0.13478166796E+03  0.18089694973E+03 -0.32659700988E+02  0.24208731146E+03  0.81546341795E+02 0.  0.
        -11    1    4    4    0    0  0.14767735960E+02 -0.59121217307E+02 -0.10609477372E+03  0.12234993000E+03  0.00000000000E+00 0.  1.
         12    1    4    4    0    0 -0.46981831999E+02 -0.74205942049E+02 -0.52618298531E+02  0.10238407939E+03  0.00000000000E+00 0. -1.
         11    1    5    5    0    0 -0.82091949494E+02  0.16339264559E+03 -0.13501248958E+02  0.18335356154E+03  0.00000000000E+00 0. -1.
        -12    1    5    5    0    0 -0.52689718469E+02  0.17504304141E+02 -0.19158452030E+02  0.58733749923E+02  0.00000000000E+00 0.  1.
          5    1    3    3  501    0  0.57943320391E+01  0.28413989092E+02 -0.10242765663E+03  0.10653556356E+03  0.41800000000E+01 0.  1.
         -5    1    3    3    0  501  0.16120143196E+03 -0.75983779469E+02 -0.28836922360E+03  0.33901875749E+03  0.41800000000E+01 0.  1.
</event>
<event>
11    1  0.2498402E-009  0.2091693E+03  0.7561462E-02  0.1048222E+00
         22   -1    0    0    0    0  0.00000000000E+00  0.00000000000E+00  0.38742576920E+03  0.38742576920E+03  0.00000000000E+00 0. -1.
         22   -1    0    0    0    0 -0.00000000000E+00 -0.00000000000E+00 -0.29068116074E+03  0.29068116074E+03  0.00000000000E+00 0. -1.
         25    2    1    2    0    0  0.32067743104E+02 -0.19011211628E+03 -0.15616329527E+03  0.27785916066E+03  0.12509109268E+03 0.  0.
        -24    2    1    2    0    0  0.72216069351E+02  0.11434357753E+03  0.10225797436E+03  0.18633971797E+03  0.77305774564E+02 0.  0.
         24    2    1    2    0    0 -0.10428381245E+03  0.75768538756E+02  0.15064992937E+03  0.21390805130E+03  0.80282427636E+02 0.  0.
        -11    1    5    5    0    0 -0.43399976362E+02 -0.97022987442E+01  0.63366194635E+02  0.77414256901E+02  0.00000000000E+00 0.  1.
         12    1    5    5    0    0 -0.60883836093E+02  0.85470837500E+02  0.87283734735E+02  0.13649379440E+03  0.00000000000E+00 0. -1.
         11    1    4    4    0    0  0.82632889147E+02  0.76038432127E+02  0.56319433523E+02  0.12562609650E+03  0.00000000000E+00 0. -1.
        -12    1    4    4    0    0 -0.10416819796E+02  0.38305145400E+02  0.45938540834E+02  0.60713621476E+02  0.00000000000E+00 0.  1.
          5    1    3    3  501    0 -0.31518259949E+02 -0.24834141206E+02  0.19912016358E+01  0.40392729093E+02  0.41800000000E+01 0.  1.
         -5    1    3    3    0  501  0.63586003053E+02 -0.16527797508E+03 -0.15815449691E+03  0.23746643157E+03  0.41800000000E+01 0.  1.
</event>
<event>
11    1  0.2498402E-009  0.1907945E+03  0.7561462E-02  0.1061231E+00
         22   -1    0    0    0    0  0.00000000000E+00  0.00000000000E+00  0.10639115355E+03  0.10639115355E+03  0.00000000000E+00 0.  1.
         22   -1    0    0    0    0 -0.00000000000E+00 -0.00000000000E+00 -0.10348028856E+04  0.10348028856E+04  0.00000000000E+00 0. -1.
         25    2    1    2    0    0 -0.17651677731E+03  0.84272108111E+01 -0.78621126145E+03  0.81547784673E+03  0.12508709094E+03 0.  0.
         24    2    1    2    0    0  0.98357526787E+02  0.24076544943E+02 -0.16200792554E+03  0.20304105979E+03  0.68740242445E+02 0.  0.
        -24    2    1    2    0    0  0.78159250524E+02 -0.32503755755E+02  0.19807454946E+02  0.12267513263E+03  0.86553395738E+02 0.  0.
        -13    1    4    4    0    0 -0.73043814126E+01  0.14518423407E+02 -0.23400582227E+02  0.28490802983E+02  0.00000000000E+00 0.  1.
         14    1    4    4    0    0  0.10566190820E+03  0.95581215368E+01 -0.13860734331E+03  0.17455025681E+03  0.00000000000E+00 0. -1.
         13    1    5    5    0    0  0.94546337787E+02 -0.21110275177E+02  0.35606905806E+01  0.96939838170E+02  0.00000000000E+00 0. -1.
        -14    1    5    5    0    0 -0.16387087263E+02 -0.11393480578E+02  0.16246764365E+02  0.25735294460E+02  0.00000000000E+00 0.  1.
          5    1    3    3  501    0 -0.12559626405E+03 -0.23902697145E+02 -0.69064592136E+03  0.70239235586E+03  0.41800000000E+01 0.  1.
         -5    1    3    3    0  501 -0.50920513260E+02  0.32329907956E+02 -0.95565340084E+02  0.11308549087E+03  0.41800000000E+01 0.  1.
</event>
<event>
11    1  0.2498402E-009  0.1565353E+03  0.7561462E-02  0.1090382E+00
         22   -1    0    0    0    0  0.00000000000E+00  0.00000000000E+00  0.21666779669E+04  0.21666779669E+04  0.00000000000E+00 0. -1.
         22   -1    0    0    0    0 -0.00000000000E+00 -0.00000000000E+00 -0.58059196484E+02  0.58059196484E+02  0.00000000000E+00 0.  1.
         25    2    1    2    0    0 -0.76790525853E+02  0.59047382197E+01  0.93192753095E+02  0.17396437316E+03  0.12508822129E+03 0.  0.
        -24    2    1    2    0    0  0.17915830503E+03 -0.40094797195E+02  0.67495312224E+03  0.70365507778E+03  0.76573234479E+02 0.  0.
         24    2    1    2    0    0 -0.10236777918E+03  0.34190058975E+02  0.13404728951E+04  0.13471177124E+04  0.78806258507E+02 0.  0.
        -11    1    5    5    0    0 -0.38360807685E+02 -0.25483947789E+02  0.44135467012E+03  0.44375097521E+03  0.00000000000E+00 0.  1.
         12    1    5    5    0    0 -0.64006971495E+02  0.59674006764E+02  0.89911822494E+03  0.90336673721E+03  0.00000000000E+00 0. -1.
         11    1    4    4    0    0 -0.55977043157E+01 -0.10152200620E+02  0.46459872946E+02  0.47884457449E+02  0.00000000000E+00 0. -1.
        -12    1    4    4    0    0  0.18475600935E+03 -0.29942596575E+02  0.62849324929E+03  0.65577062033E+03  0.00000000000E+00 0.  1.
          5    1    3    3  501    0 -0.10631476908E+03  0.15379921814E+02  0.45077968182E+02  0.11657129893E+03  0.41800000000E+01 0. -1.
         -5    1    3    3    0  501  0.29524243227E+02 -0.94751835941E+01  0.48114784913E+02  0.57393074229E+02  0.41800000000E+01 0. -1.
</event>
<event>
11    1  0.2498402E-009  0.4122010E+03  0.7561462E-02  0.9614429E-01
         22   -1    0    0    0    0  0.00000000000E+00  0.00000000000E+00  0.64345905470E+03  0.64345905470E+03  0.00000000000E+00 0.  1.
         22   -1    0    0    0    0 -0.00000000000E+00 -0.00000000000E+00 -0.91530907472E+03  0.91530907472E+03  0.00000000000E+00 0.  1.
         25    2    1    2    0    0  0.21482306921E+03 -0.32399161303E+03 -0.61108926467E+03  0.73498072887E+03  0.12508823305E+03 0.  0.
        -24    2    1    2    0    0 -0.11378455617E+03  0.40560380186E+03 -0.24445223567E+02  0.42964242590E+03  0.80831156517E+02 0.  0.
         24    2    1    2    0    0 -0.10103851303E+03 -0.81612188835E+02  0.36368446821E+03  0.39414497465E+03  0.78832341959E+02 0.  0.
        -13    1    5    5    0    0 -0.10541786692E+03 -0.51375042816E+02  0.24543478821E+03  0.27201205296E+03  0.00000000000E+00 0.  1.
         14    1    5    5    0    0  0.43793538884E+01 -0.30237146020E+02  0.11824968001E+03  0.12213292169E+03  0.00000000000E+00 0. -1.
         11    1    4    4    0    0  0.10788558800E+02  0.17975329079E+02 -0.70465882878E+01  0.22116958718E+02  0.00000000000E+00 0. -1.
        -12    1    4    4    0    0 -0.12457311497E+03  0.38762847279E+03 -0.17398635280E+02  0.40752546718E+03  0.00000000000E+00 0.  1.
          5    1    3    3  501    0  0.18211326077E+03 -0.17620361463E+03 -0.33465435106E+03  0.41979037702E+03  0.41800000000E+01 0. -1.
         -5    1    3    3    0  501  0.32709808434E+02 -0.14778799840E+03 -0.27643491361E+03  0.31519035185E+03  0.41800000000E+01 0. -1.
</event>
<event>
11    1  0.2498402E-009  0.1355200E+03  0.7561462E-02  0.1112667E+00
         22   -1    0    0    0    0  0.00000000000E+00  0.00000000000E+00  0.62119728442E+03  0.62119728442E+03  0.00000000000E+00 0. -1.
         22   -1    0    0    0    0 -0.00000000000E+00 -0.00000000000E+00 -0.87561958778E+03  0.87561958778E+03  0.00000000000E+00 0. -1.
         25    2    1    2    0    0 -0.87404124632E+01  0.51114858215E+02 -0.85481110017E+03  0.86547076363E+03  0.12509397342E+03 0.  0.
        -24    2    1    2    0    0 -0.25266077255E+02  0.14417612808E+02  0.24755620750E+03  0.26199248083E+03  0.80682971682E+02 0.  0.
         24    2    1    2    0    0  0.34006489719E+02 -0.65532471023E+02  0.35283258931E+03  0.36935362775E+03  0.80500435701E+02 0.  0.
        -13    1    5    5    0    0  0.55358521541E+02 -0.28363895103E+02  0.15675310533E+03  0.16864344779E+03  0.00000000000E+00 0.  1.
         14    1    5    5    0    0 -0.21352031822E+02 -0.37168575921E+02  0.19607948398E+03  0.20071017996E+03  0.00000000000E+00 0. -1.
         13    1    4    4    0    0  0.14063613250E+02 -0.23796415904E+02  0.12010429571E+03  0.12324405250E+03  0.00000000000E+00 0. -1.
        -14    1    4    4    0    0 -0.39329690505E+02  0.38214028713E+02  0.12745191179E+03  0.13874842833E+03  0.00000000000E+00 0.  1.
          5    1    3    3  501    0 -0.62404472547E+00 -0.34578851184E+02 -0.46228876094E+03  0.46359945780E+03  0.41800000000E+01 0.  1.
         -5    1    3    3    0  501 -0.81163677378E+01  0.85693709398E+02 -0.39252233923E+03  0.40187130583E+03  0.41800000000E+01 0.  1.
</event>
<event>
11    1  0.2498402E-009  0.2032783E+03  0.7561462E-02  0.1052229E+00
         22   -1    0    0    0    0  0.00000000000E+00  0.00000000000E+00  0.14083476867E+04  0.14083476867E+04  0.00000000000E+00 0. -1.
         22   -1    0    0    0    0 -0.00000000000E+00 -0.00000000000E+00 -0.13479328092E+03  0.13479328092E+03  0.00000000000E+00 0. -1.
         25    2    1    2    0    0 -0.13718893949E+03  0.91721911639E+02  0.12582300950E+01  0.20708123811E+03  0.12508933545E+03 0.  0.
        -24    2    1    2    0    0 -0.40656516511E+02 -0.15711891820E+03  0.39177789899E+03  0.43184580599E+03  0.81618449063E+02 0.  0.
         24    2    1    2    0    0  0.17784545600E+03  0.65397006560E+02  0.88051827673E+03  0.90421392356E+03  0.79903749692E+02 0.  0.
        -11    1    5    5    0    0  0.66917461971E+02  0.36005385726E+01  0.46266082815E+03  0.46748898650E+03  0.00000000000E+00 0.  1.
         12    1    5    5    0    0  0.11092799403E+03  0.61796467987E+02  0.41785744858E+03  0.43672493706E+03  0.00000000000E+00 0. -1.
         11    1    4    4    0    0 -0.41493361860E+02 -0.13636804719E+03  0.24375294652E+03  0.28237110743E+03  0.00000000000E+00 0. -1.
        -12    1    4    4    0    0  0.83684534951E+00 -0.20750871008E+02  0.14802495247E+03  0.14947469857E+03  0.00000000000E+00 0.  1.
          5    1    3    3  501    0 -0.78834201292E+02 -0.17843089519E+02  0.14307714183E+02  0.82191180926E+02  0.41800000000E+01 0.  1.
         -5    1    3    3    0  501 -0.58354738194E+02  0.10956500116E+03 -0.13049484088E+02  0.12489005718E+03  0.41800000000E+01 0.  1.
</event>
<event>
11    1  0.2498402E-009  0.7388390E+03  0.7561462E-02  0.8976949E-01
         22   -1    0    0    0    0  0.00000000000E+00  0.00000000000E+00  0.54081937132E+03  0.54081937132E+03  0.00000000000E+00 0.  1.
         22   -1    0    0    0    0 -0.00000000000E+00 -0.00000000000E+00 -0.13291350739E+04  0.13291350739E+04  0.00000000000E+00 0.  1.
         25    2    1    2    0    0  0.54666579457E+03 -0.45886000414E+03 -0.53159068350E+03  0.89868393611E+03  0.12509263721E+03 0.  0.
         24    2    1    2    0    0 -0.65668912513E+03  0.37458649073E+03 -0.28289340440E+03  0.81116116378E+03  0.79988182133E+02 0.  0.
        -24    2    1    2    0    0  0.11002333055E+03  0.84273513411E+02  0.26168385305E+02  0.16010934533E+03  0.75782977938E+02 0.  0.
        -13    1    4    4    0    0 -0.21776692575E+03  0.83288487015E+02 -0.76464314259E+02  0.24536951191E+03  0.00000000000E+00 0.  1.
         14    1    4    4    0    0 -0.43892219938E+03  0.29129800372E+03 -0.20642909014E+03  0.56579165188E+03  0.00000000000E+00 0. -1.
         11    1    5    5    0    0  0.36373681597E+01 -0.97714419422E+01  0.14192503363E+02  0.17610754569E+02  0.00000000000E+00 0. -1.
        -12    1    5    5    0    0  0.10638596239E+03  0.94044955353E+02  0.11975881941E+02  0.14249859077E+03  0.00000000000E+00 0.  1.
          5    1    3    3  501    0  0.46928139935E+03 -0.34716198188E+03 -0.38793213355E+03  0.70089605940E+03  0.41800000000E+01 0. -1.
         -5    1    3    3    0  501  0.77384395222E+02 -0.11169802227E+03 -0.14365854995E+03  0.19778787671E+03  0.41800000000E+01 0. -1.
</event>
<event>
11    1  0.2498402E-009  0.2664704E+03  0.7561462E-02  0.1015473E+00
         22   -1    0    0    0    0  0.00000000000E+00  0.00000000000E+00  0.17976478631E+04  0.17976478631E+04  0.00000000000E+00 0.  1.
         22   -1    0    0    0    0 -0.00000000000E+00 -0.00000000000E+00 -0.97251457969E+02  0.97251457969E+02  0.00000000000E+00 0.  1.
         25    2    1    2    0    0 -0.32689977373E+01 -0.17271876481E+03  0.20102362009E+03  0.29308691550E+03  0.12508791363E+03 0.  0.
        -24    2    1    2    0    0 -0.20651865471E+03 -0.47775224721E+02  0.40794336288E+03  0.46591664599E+03  0.75684257618E+02 0.  0.
         24    2    1    2    0    0  0.20978765245E+03  0.22049398954E+03  0.10914294221E+04  0.11358957595E+04  0.80078302503E+02 0.  0.
        -13    1    5    5    0    0  0.21448944079E+03  0.21722307620E+03  0.10856723863E+04  0.11277748514E+04  0.00000000000E+00 0.  1.
         14    1    5    5    0    0 -0.47017883381E+01  0.32709133361E+01  0.57570357699E+01  0.81209081072E+01  0.00000000000E+00 0. -1.
         11    1    4    4    0    0 -0.91353008285E+02  0.16696348402E+02  0.15821362462E+03  0.18345487508E+03  0.00000000000E+00 0. -1.
        -12    1    4    4    0    0 -0.11516564643E+03 -0.64471573123E+02  0.24972973826E+03  0.28246177092E+03  0.00000000000E+00 0.  1.
          5    1    3    3  501    0  0.37322128009E+02 -0.55727304377E+01  0.18435761694E+02  0.42205998067E+02  0.41800000000E+01 0. -1.
         -5    1    3    3    0  501 -0.40591125746E+02 -0.16714603438E+03  0.18258785840E+03  0.25088091743E+03  0.41800000000E+01 0. -1.
</event>
<event>
11    1  0.2498402E-009  0.1928832E+03  0.7561462E-02  0.1059674E+00
         22   -1    0    0    0    0  0.00000000000E+00  0.00000000000E+00  0.28611036037E+03  0.28611036037E+03  0.00000000000E+00 0. -1.
         22   -1    0    0    0    0 -0.00000000000E+00 -0.00000000000E+00 -0.49814044764E+03  0.49814044764E+03  0.00000000000E+00 0. -1.
         25    2    1    2    0    0  0.35628868794E+02  0.72598423281E+02 -0.33885726636E+03  0.37015075634E+03  0.12508952034E+03 0.  0.
         24    2    1    2    0    0 -0.16982103240E+03 -0.13144947323E+03  0.71031325600E+02  0.23667808958E+03  0.69662915624E+02 0.  0.
        -24    2    1    2    0    0  0.13419216360E+03  0.58851049951E+02  0.55795853495E+02  0.17742196209E+03  0.83032478648E+02 0.  0.
        -11    1    4    4    0    0 -0.63528300791E+02 -0.98974763410E+01  0.20630665244E+02  0.67523546913E+02  0.00000000000E+00 0.  1.
         12    1    4    4    0    0 -0.10629273161E+03 -0.12155199689E+03  0.50400660356E+02  0.16915454267E+03  0.00000000000E+00 0. -1.
         11    1    5    5    0    0  0.13453484805E+03  0.52490609278E+02  0.71011341273E+02  0.16092700205E+03  0.00000000000E+00 0. -1.
        -12    1    5    5    0    0 -0.34268444011E+00  0.63604406734E+01 -0.15215487778E+02  0.16494960033E+02  0.00000000000E+00 0.  1.
          5    1    3    3  501    0  0.19551038017E+02 -0.33408092599E+02 -0.12436645919E+03  0.13031819639E+03  0.41800000000E+01 0. -1.
         -5    1    3    3    0  501  0.16077830777E+02  0.10600651588E+03 -0.21449080717E+03  0.23983255995E+03  0.41800000000E+01 0. -1.
</event>
<event>
11    1  0.2498402E-009  0.1868257E+03  0.7561462E-02  0.1064252E+00
         22   -1    0    0    0    0  0.00000000000E+00  0.00000000000E+00  0.64822280327E+03  0.64822280327E+03  0.00000000000E+00 0.  1.
         22   -1    0    0    0    0 -0.00000000000E+00 -0.00000000000E+00 -0.98896759030E+02  0.98896759030E+02  0.00000000000E+00 0.  1.
         25    2    1    2    0    0 -0.81047403943E+02 -0.47440131098E+02  0.19120543610E+03  0.24703487813E+03  0.12508982571E+03 0.  0.
        -24    2    1    2    0    0  0.10733753472E+03  0.13950200919E+03  0.10800452467E+03  0.21967676411E+03  0.74904915817E+02 0.  0.
         24    2    1    2    0    0 -0.26290130776E+02 -0.92061878093E+02  0.25011608347E+03  0.28040792005E+03  0.83090228331E+02 0.  0.
        -13    1    5    5    0    0 -0.46936659429E+02 -0.61000704047E+02  0.21800104823E+03  0.23118951733E+03  0.00000000000E+00 0.  1.
         14    1    5    5    0    0  0.20646528653E+02 -0.31061174046E+02  0.32115035243E+02  0.49218402729E+02  0.00000000000E+00 0. -1.
         13    1    4    4    0    0 -0.86472517276E+01  0.10109745480E+01  0.12800625419E+02  0.15480731349E+02  0.00000000000E+00 0. -1.
        -14    1    4    4    0    0  0.11598478645E+03  0.13849103464E+03  0.95203899255E+02  0.20419603277E+03  0.00000000000E+00 0.  1.
          5    1    3    3  501    0  0.28936214094E+02 -0.28322168401E+02  0.78050687199E+02  0.88027449589E+02  0.41800000000E+01 0. -1.
         -5    1    3    3    0  501 -0.10998361804E+03 -0.19117962697E+02  0.11315474890E+03  0.15900742854E+03  0.41800000000E+01 0. -1.
</event>
<event>
11    1  0.2498402E-009  0.2271501E+03  0.7561462E-02  0.1036829E+00
         22   -1    0    0    0    0  0.00000000000E+00  0.00000000000E+00  0.89200353520E+03  0.89200353520E+03  0.00000000000E+00 0. -1.
         22   -1    0    0    0    0 -0.00000000000E+00 -0.00000000000E+00 -0.33710008840E+03  0.33710008840E+03  0.00000000000E+00 0.  1.
         25    2    1    2    0    0  0.18150429623E+03 -0.95778244625E+02 -0.24738562279E+03  0.34491316806E+03  0.12509262743E+03 0.  0.
         24    2    1    2    0    0 -0.12633576690E+03  0.50371246415E+02  0.13258864304E+03  0.20600312480E+03  0.79746791170E+02 0.  0.
        -24    2    1    2    0    0 -0.55168529339E+02  0.45406998210E+02  0.66970042655E+03  0.67818733075E+03  0.79586632964E+02 0.  0.
        -11    1    4    4    0    0 -0.91932847916E+02  0.66354925944E+02  0.12214864531E+03  0.16665808193E+03  0.00000000000E+00 0.  1.
         12    1    4    4    0    0 -0.34402918980E+02 -0.15983679529E+02  0.10439997732E+02  0.39345042868E+02  0.00000000000E+00 0. -1.
         13    1    5    5    0    0 -0.67822065366E+02  0.49166250776E+02  0.64266563958E+03  0.64810205760E+03  0.00000000000E+00 0. -1.
        -14    1    5    5    0    0  0.12653536027E+02 -0.37592525657E+01  0.27034786969E+02  0.30085273147E+02  0.00000000000E+00 0.  1.
          5    1    3    3  501    0  0.13820505842E+02 -0.43376309710E+02 -0.11841806935E+03  0.12693629179E+03  0.41800000000E+01 0.  1.
         -5    1    3    3    0  501  0.16768379039E+03 -0.52401934915E+02 -0.12896755344E+03  0.21797687626E+03  0.41800000000E+01 0.  1.
</event>
<event>
11    1  0.2498402E-009  0.2214577E+03  0.7561462E-02  0.1040308E+00
         22   -1    0    0    0    0  0.00000000000E+00  0.00000000000E+00  0.43714794430E+03  0.43714794430E+03  0.00000000000E+00 0.  1.
         22   -1    0    0    0    0 -0.00000000000E+00 -0.00000000000E+00 -0.43207926232E+03  0.43207926232E+03  0.00000000000E+00 0.  1.
         25    2    1    2    0    0  0.23551758628E+02 -0.16002524790E+03 -0.29442166094E+03  0.35846067752E+03  0.12508867895E+03 0.  0.
         24    2    1    2    0    0 -0.60085172605E+02 -0.21595828660E+02 -0.44556647608E+02  0.11181402141E+03  0.80252556061E+02 0.  0.
        -24    2    1    2    0    0  0.36533413977E+02  0.18162107656E+03  0.34404699052E+03  0.39895250769E+03  0.80460337542E+02 0.  0.
        -11    1    4    4    0    0  0.31450798094E+01 -0.34731843814E+02 -0.29074138071E+02  0.45403722384E+02  0.00000000000E+00 0.  1.
         12    1    4    4    0    0 -0.63230252415E+02  0.13136015155E+02 -0.15482509537E+02  0.66410299021E+02  0.00000000000E+00 0. -1.
         11    1    5    5    0    0  0.17203504342E+02  0.76131502013E+02  0.70667708581E+02  0.10528955882E+03  0.00000000000E+00 0. -1.
        -12    1    5    5    0    0  0.19329909636E+02  0.10548957455E+03  0.27337928194E+03  0.29366294887E+03  0.00000000000E+00 0.  1.
          5    1    3    3  501    0  0.26900693890E+01  0.13859119656E+02 -0.81106251157E+02  0.82431838799E+02  0.41800000000E+01 0. -1.
         -5    1    3    3    0  501  0.20861689239E+02 -0.17388436756E+03 -0.21331540978E+03  0.27602883872E+03  0.41800000000E+01 0. -1.
</event>
<event>
11    1  0.2498402E-009  0.1541386E+03  0.7561462E-02  0.1092723E+00
         22   -1    0    0    0    0  0.00000000000E+00  0.00000000000E+00  0.64997560073E+03  0.64997560073E+03  0.00000000000E+00 0.  1.
         22   -1    0    0    0    0 -0.00000000000E+00 -0.00000000000E+00 -0.10481231444E+03  0.10481231444E+03  0.00000000000E+00 0.  1.
         25    2    1    2    0    0 -0.67304714560E+02 -0.14233355664E+02  0.28856739366E+02  0.14563996688E+03  0.12508307451E+03 0.  0.
         24    2    1    2    0    0  0.14208997452E+03 -0.46948243698E+02  0.16518571699E+03  0.23610960947E+03  0.77895623388E+02 0.  0.
        -24    2    1    2    0    0 -0.74785259958E+02  0.61181599363E+02  0.35112082993E+03  0.37303833882E+03  0.80843934878E+02 0.  0.
        -13    1    4    4    0    0  0.11593319695E+03 -0.43663585290E+02  0.16892670887E+03  0.20948328765E+03  0.00000000000E+00 0.  1.
         14    1    4    4    0    0  0.26156777569E+02 -0.32846584080E+01 -0.37409918777E+01  0.26626321824E+02  0.00000000000E+00 0. -1.
         13    1    5    5    0    0 -0.18923395672E+02  0.49801291556E+02  0.26113187480E+03  0.26651101212E+03  0.00000000000E+00 0. -1.
        -14    1    5    5    0    0 -0.55861864286E+02  0.11380307807E+02  0.89988955133E+02  0.10652732670E+03  0.00000000000E+00 0.  1.
          5    1    3    3  501    0 -0.37161651576E+02 -0.60147849979E+02  0.49937545368E+02  0.86660158333E+02  0.41800000000E+01 0. -1.
         -5    1    3    3    0  501 -0.30143062984E+02  0.45914494314E+02 -0.21080806002E+02  0.58979808544E+02  0.41800000000E+01 0. -1.
</event>
<event>
11    1  0.2498402E-009  0.2527312E+03  0.7561462E-02  0.1022454E+00
         22   -1    0    0    0    0  0.00000000000E+00  0.00000000000E+00  0.33341506344E+03  0.33341506344E+03  0.00000000000E+00 0.  1.
         22   -1    0    0    0    0 -0.00000000000E+00 -0.00000000000E+00 -0.36477125929E+03  0.36477125929E+03  0.00000000000E+00 0.  1.
         25    2    1    2    0    0  0.54911612953E+02  0.55709159771E+02 -0.10315966665E+03  0.18002224339E+03  0.12508915051E+03 0.  0.
        -24    2    1    2    0    0 -0.20089419921E+03 -0.19845696968E+03  0.52474438260E+02  0.29852671516E+03  0.81369434688E+02 0.  0.
         24    2    1    2    0    0  0.14598258626E+03  0.14274780991E+03  0.19329032534E+02  0.21963736418E+03  0.78607299413E+02 0.  0.
        -11    1    5    5    0    0  0.15471419673E+03  0.12523157670E+03  0.20039834070E+02  0.20005255665E+03  0.00000000000E+00 0.  1.
         12    1    5    5    0    0 -0.87316104699E+01  0.17516233209E+02 -0.71080153697E+00  0.19584807532E+02  0.00000000000E+00 0. -1.
         11    1    4    4    0    0 -0.39506203565E+02 -0.35392769066E+02  0.44048251138E+02  0.68946621749E+02  0.00000000000E+00 0. -1.
        -12    1    4    4    0    0 -0.16138799565E+03 -0.16306420061E+03  0.84261871224E+01  0.22958009341E+03  0.00000000000E+00 0.  1.
          5    1    3    3  501    0  0.52027657459E+02 -0.25821771013E+02 -0.15627872858E+02  0.60293812361E+02  0.41800000000E+01 0.  1.
         -5    1    3    3    0  501  0.28839554934E+01  0.81530930784E+02 -0.87531793787E+02  0.11972843103E+03  0.41800000000E+01 0.  1.
</event>
<event>
11    1  0.5696444E-009  0.3385751E+04  0.7561462E-02  0.7657664E-01
         22   -1    0    0    0    0  0.00000000000E+00  0.00000000000E+00  0.16172887343E+04  0.16172887343E+04  0.00000000000E+00 0.  1.
         22   -1    0    0    0    0 -0.00000000000E+00 -0.00000000000E+00 -0.17719945642E+04  0.17719945642E+04  0.00000000000E+00 0.  1.
         25    2    1    2    0    0 -0.36215744244E+03  0.92684431791E+03 -0.14283208328E+04  0.17452657190E+04  0.12511445038E+03 0.  0.
         24    2    1    2    0    0  0.30568327183E+03 -0.48282594153E+03  0.60954424209E+03  0.83936517457E+03  0.80165832664E+02 0.  0.
        -24    2    1    2    0    0  0.56474170606E+02 -0.44401837639E+03  0.66407076081E+03  0.80465240489E+03  0.78319006664E+02 0.  0.
        -11    1    4    4    0    0  0.15388323501E+03 -0.24808270611E+03  0.25309097000E+03  0.38636785346E+03  0.00000000000E+00 0.  1.
         12    1    4    4    0    0  0.15180003682E+03 -0.23474323541E+03  0.35645327209E+03  0.45299732112E+03  0.00000000000E+00 0. -1.
         11    1    5    5    0    0  0.65022016182E+01 -0.13626220791E+03  0.14457354850E+03  0.19877419062E+03  0.00000000000E+00 0. -1.
        -12    1    5    5    0    0  0.49971968988E+02 -0.30775616848E+03  0.51949721232E+03  0.60587821427E+03  0.00000000000E+00 0.  1.
          5    1    3    3  501    0 -0.86000439028E+02  0.37731104508E+03 -0.51640046939E+03  0.64532675246E+03  0.41800000000E+01 0.  1.
         -5    1    3    3    0  501 -0.27615700341E+03  0.54953327284E+03 -0.91192036340E+03  0.10999389665E+04  0.41800000000E+01 0.  1.
</event>
<event>
11    1  0.2498402E-009  0.1385858E+03  0.7561462E-02  0.1109148E+00
         22   -1    0    0    0    0  0.00000000000E+00  0.00000000000E+00  0.37414835114E+02  0.37414835114E+02  0.00000000000E+00 0. -1.
         22   -1    0    0    0    0 -0.00000000000E+00 -0.00000000000E+00 -0.23594919096E+04  0.23594919096E+04  0.00000000000E+00 0.  1.
         25    2    1    2    0    0  0.87514432048E+00  0.33128386393E+02 -0.12160510208E+04  0.12229167437E+04  0.12508805290E+03 0.  0.
        -24    2    1    2    0    0 -0.68086708326E+01 -0.84468230037E+02 -0.10616163545E+04  0.10681024734E+04  0.81439361431E+02 0.  0.
         24    2    1    2    0    0  0.59335265121E+01  0.51339843644E+02 -0.44409699148E+02  0.10588752761E+03  0.81049126100E+02 0.  0.
        -13    1    5    5    0    0  0.46749706279E+01 -0.11415901766E+02 -0.41233029670E+02  0.43038830134E+02  0.00000000000E+00 0.  1.
         14    1    5    5    0    0  0.12585558842E+01  0.62755745410E+02 -0.31766694780E+01  0.62848697471E+02  0.00000000000E+00 0. -1.
         11    1    4    4    0    0 -0.43780242558E+01 -0.81099384739E+02 -0.50647801529E+03  0.51294859126E+03  0.00000000000E+00 0. -1.
        -12    1    4    4    0    0 -0.24306465768E+01 -0.33688452975E+01 -0.55513833924E+03  0.55515388215E+03  0.00000000000E+00 0.  1.
          5    1    3    3  501    0 -0.60630020944E+02  0.26729400256E+02 -0.70566215122E+03  0.70877852982E+03  0.41800000000E+01 0.  1.
         -5    1    3    3    0  501  0.61505165265E+02  0.63989861372E+01 -0.51038886959E+03  0.51413821389E+03  0.41800000000E+01 0.  1.
</event>
<event>
11    1  0.2498402E-009  0.1320945E+03  0.7561462E-02  0.1116722E+00
         22   -1    0    0    0    0  0.00000000000E+00  0.00000000000E+00  0.32897116696E+02  0.32897116696E+02  0.00000000000E+00 0. -1.
         22   -1    0    0    0    0 -0.00000000000E+00 -0.00000000000E+00 -0.16295485391E+04  0.16295485391E+04  0.00000000000E+00 0. -1.
         25    2    1    2    0    0 -0.20551232005E+02 -0.19422572799E+01 -0.92550756130E+03  0.93415052556E+03  0.12508730102E+03 0.  0.
         24    2    1    2    0    0  0.48273498217E+02  0.52064467606E+02 -0.59244464452E+03  0.60197982520E+03  0.79674423173E+02 0.  0.
        -24    2    1    2    0    0 -0.27722266212E+02 -0.50122210326E+02 -0.78699216554E+02  0.12631530501E+03  0.80506084130E+02 0.  0.
        -11    1    4    4    0    0 -0.19981095752E+02  0.12662762537E+02 -0.77211401879E+02  0.80753887354E+02  0.00000000000E+00 0.  1.
         12    1    4    4    0    0  0.68254593969E+02  0.39401705068E+02 -0.51523324264E+03  0.52122593784E+03  0.00000000000E+00 0. -1.
         13    1    5    5    0    0 -0.43584831061E+02 -0.64197403544E+02 -0.62057062202E+02  0.99358054980E+02  0.00000000000E+00 0. -1.
        -14    1    5    5    0    0  0.15862564849E+02  0.14075193218E+02 -0.16642154352E+02  0.26957250030E+02  0.00000000000E+00 0.  1.
          5    1    3    3  501    0 -0.36331647554E+02 -0.39429571267E+02 -0.18882015804E+03  0.19632932585E+03  0.41800000000E+01 0. -1.
         -5    1    3    3    0  501  0.15780415548E+02  0.37487313987E+02 -0.73668740326E+03  0.73782119971E+03  0.41800000000E+01 0. -1.
</event>
<event>
11    1  0.2498402E-009  0.3196445E+03  0.7561462E-02  0.9922037E-01
         22   -1    0    0    0    0  0.00000000000E+00  0.00000000000E+00  0.25848311580E+03  0.25848311580E+03  0.00000000000E+00 0. -1.
         22   -1    0    0    0    0 -0.00000000000E+00 -0.00000000000E+00 -0.71259130580E+03  0.71259130580E+03  0.00000000000E+00 0. -1.
         25    2    1    2    0    0 -0.22853419028E+03 -0.18999968143E+03 -0.49023006263E+03  0.58676812503E+03  0.12507423064E+03 0.  0.
        -24    2    1    2    0    0  0.19951234055E+03  0.20367180744E+03  0.26725044824E+02  0.29715116723E+03  0.79354955675E+02 0.  0.
         24    2    1    2    0    0  0.29021849733E+02 -0.13672126005E+02  0.93968278082E+01  0.87155129348E+02  0.80489262684E+02 0.  0.
        -11    1    5    5    0    0  0.38183584502E+02 -0.38014084933E+02  0.22067444466E+02  0.58223954555E+02  0.00000000000E+00 0.  1.
         12    1    5    5    0    0 -0.91617347691E+01  0.24341958928E+02 -0.12670616658E+02  0.28931174793E+02  0.00000000000E+00 0. -1.
         13    1    4    4    0    0  0.89542269584E+02  0.11938051997E+03  0.48454514584E+02  0.15689922426E+03  0.00000000000E+00 0. -1.
        -14    1    4    4    0    0  0.10997007096E+03  0.84291287471E+02 -0.21729469760E+02  0.14025194297E+03  0.00000000000E+00 0.  1.
          5    1    3    3  501    0 -0.22904603814E+03 -0.20250432774E+03 -0.44699518980E+03  0.54156464291E+03  0.41800000000E+01 0.  1.
         -5    1    3    3    0  501  0.51184786189E+00  0.12504646304E+02 -0.43234872827E+02  0.45203482120E+02  0.41800000000E+01 0. -1.
</event>
<event>
11    1  0.2498402E-009  0.1263817E+03  0.7561462E-02  0.1123796E+00
         22   -1    0    0    0    0  0.00000000000E+00  0.00000000000E+00  0.57800253882E+02  0.57800253882E+02  0.00000000000E+00 0.  1.
         22   -1    0    0    0    0 -0.00000000000E+00 -0.00000000000E+00 -0.15110185653E+04  0.15110185653E+04  0.00000000000E+00 0. -1.
         25    2    1    2    0    0  0.33522344533E+01 -0.17317115373E+02 -0.92141621222E+03  0.93003383964E+03  0.12507592402E+03 0.  0.
         24    2    1    2    0    0  0.48847775035E+01  0.34975319031E+02 -0.54264903726E+03  0.54966247379E+03  0.80085725653E+02 0.  0.
        -24    2    1    2    0    0 -0.82370119568E+01 -0.17658203658E+02  0.10846938106E+02  0.89122505716E+02  0.86287336477E+02 0.  0.
        -11    1    4    4    0    0  0.19302758822E+02 -0.20883130897E+02 -0.13596230076E+03  0.13890445955E+03  0.00000000000E+00 0.  1.
         12    1    4    4    0    0 -0.14417981319E+02  0.55858449928E+02 -0.40668673650E+03  0.41075801424E+03  0.00000000000E+00 0. -1.
         11    1    5    5    0    0 -0.44578015480E+01  0.27458241759E+02 -0.20067199113E+02  0.34300430250E+02  0.00000000000E+00 0. -1.
        -12    1    5    5    0    0 -0.37792104088E+01 -0.45116445417E+02  0.30914137219E+02  0.54822075466E+02  0.00000000000E+00 0.  1.
          5    1    3    3  501    0  0.63101483378E+02 -0.15596262992E+02 -0.41410324170E+03  0.41919447493E+03  0.41800000000E+01 0. -1.
         -5    1    3    3    0  501 -0.59749248925E+02 -0.17208523811E+01 -0.50731297053E+03  0.51083936472E+03  0.41800000000E+01 0. -1.
</event>
<event>
11    1  0.2498402E-009  0.1492519E+03  0.7561462E-02  0.1097646E+00
         22   -1    0    0    0    0  0.00000000000E+00  0.00000000000E+00  0.17330826083E+04  0.17330826083E+04  0.00000000000E+00 0. -1.
         22   -1    0    0    0    0 -0.00000000000E+00 -0.00000000000E+00 -0.26582571154E+02  0.26582571154E+02  0.00000000000E+00 0. -1.
         25    2    1    2    0    0 -0.82804910280E+02 -0.33561876934E+02  0.39207104739E+03  0.42112988363E+03  0.12509044702E+03 0.  0.
        -24    2    1    2    0    0  0.69389417175E+02 -0.66047822876E+02  0.62149227244E+03  0.63381172665E+03  0.79293467682E+02 0.  0.
         24    2    1    2    0    0  0.13415493105E+02  0.99609699810E+02  0.69293671730E+03  0.70472356916E+03  0.79824476112E+02 0.  0.
        -11    1    5    5    0    0  0.18143804929E+02 -0.76591541289E+01  0.14846507777E+03  0.14976561561E+03  0.00000000000E+00 0.  1.
         12    1    5    5    0    0 -0.47283118240E+01  0.10726885394E+03  0.54447163953E+03  0.55495795355E+03  0.00000000000E+00 0. -1.
         11    1    4    4    0    0  0.71506370911E+02 -0.67310221353E+02  0.62315053592E+03  0.63084103972E+03  0.00000000000E+00 0. -1.
        -12    1    4    4    0    0 -0.21169537361E+01  0.12623984762E+01 -0.16582634844E+01  0.29706869268E+01  0.00000000000E+00 0.  1.
          5    1    3    3  501    0 -0.93544249676E+02 -0.51920465763E+02  0.19156734406E+03  0.21945792563E+03  0.41800000000E+01 0. -1.
         -5    1    3    3    0  501  0.10739339396E+02  0.18358588829E+02  0.20050370333E+03  0.20167195800E+03  0.41800000000E+01 0. -1.
</event>
<event>
11    1  0.2498402E-009  0.1633476E+03  0.7561462E-02  0.1083970E+00
         22   -1    0    0    0    0  0.00000000000E+00  0.00000000000E+00  0.76927475626E+03  0.76927475626E+03  0.00000000000E+00 0. -1.
         22   -1    0    0    0    0 -0.00000000000E+00 -0.00000000000E+00 -0.29020005555E+03  0.29020005555E+03  0.00000000000E+00 0. -1.
         25    2    1    2    0    0  0.33982321889E+01  0.11465956803E+03 -0.17695695751E+03  0.24519409633E+03  0.12509202830E+03 0.  0.
         24    2    1    2    0    0 -0.33471988459E+02 -0.88060700613E+02 -0.26202171082E+02  0.12638274375E+03  0.80068615231E+02 0.  0.
        -24    2    1    2    0    0  0.30073756270E+02 -0.26598867413E+02  0.68223382930E+03  0.68789797172E+03  0.78413589944E+02 0.  0.
        -13    1    4    4    0    0  0.19718061708E+02 -0.63012208111E+01  0.91535191050E+01  0.22633918203E+02  0.00000000000E+00 0.  1.
         14    1    4    4    0    0 -0.53190050167E+02 -0.81759479802E+02 -0.35355690187E+02  0.10374882555E+03  0.00000000000E+00 0. -1.
         13    1    5    5    0    0  0.23562381154E+01  0.69332718203E+01  0.51642017119E+03  0.51647208572E+03  0.00000000000E+00 0. -1.
        -14    1    5    5    0    0  0.27717518155E+02 -0.33532139233E+02  0.16581365811E+03  0.17142588600E+03  0.00000000000E+00 0.  1.
          5    1    3    3  501    0  0.21561665990E+02  0.66195216881E+02 -0.10132947036E+02  0.70475961816E+02  0.41800000000E+01 0.  1.
         -5    1    3    3    0  501 -0.18163433801E+02  0.48464351144E+02 -0.16682401047E+03  0.17471813452E+03  0.41800000000E+01 0.  1.
</event>
<event>
11    1  0.2498402E-009  0.1559338E+03  0.7561462E-02  0.1090965E+00
         22   -1    0    0    0    0  0.00000000000E+00  0.00000000000E+00  0.13643218185E+04  0.13643218185E+04  0.00000000000E+00 0.  1.
         22   -1    0    0    0    0 -0.00000000000E+00 -0.00000000000E+00 -0.84323247506E+02  0.84323247506E+02  0.00000000000E+00 0. -1.
         25    2    1    2    0    0  0.27496185588E+02  0.34484094684E+01  0.71477640167E+02  0.14671414895E+03  0.12509219284E+03 0.  0.
        -24    2    1    2    0    0  0.44037569105E+02 -0.73288021211E+02  0.34730997787E+02  0.12130120690E+03  0.78722925776E+02 0.  0.
         24    2    1    2    0    0 -0.71533754693E+02  0.69839611743E+02  0.11737899331E+04  0.11806297102E+04  0.78160451398E+02 0.  0.
        -13    1    5    5    0    0 -0.65582408484E+02  0.51012314591E+02  0.11240103073E+04  0.11270769625E+04  0.00000000000E+00 0.  1.
         14    1    5    5    0    0 -0.59513462090E+01  0.18827297152E+02  0.49779625766E+02  0.53552747652E+02  0.00000000000E+00 0. -1.
         13    1    4    4    0    0  0.41330827331E+02 -0.60874340608E+02 -0.10495331896E+02  0.74324118723E+02  0.00000000000E+00 0. -1.
        -14    1    4    4    0    0  0.27067417745E+01 -0.12413680603E+02  0.45226329683E+02  0.46977088179E+02  0.00000000000E+00 0.  1.
          5    1    3    3  501    0 -0.10425098170E+01 -0.54505362817E+02  0.59634166105E+02  0.80905052806E+02  0.41800000000E+01 0. -1.
         -5    1    3    3    0  501  0.28538695405E+02  0.57953772285E+02  0.11843474062E+02  0.65809096144E+02  0.41800000000E+01 0. -1.
</event>
<event>
11    1  0.2498402E-009  0.1412330E+03  0.7561462E-02  0.1106189E+00
         22   -1    0    0    0    0  0.00000000000E+00  0.00000000000E+00  0.11259258191E+03  0.11259258191E+03  0.00000000000E+00 0. -1.
         22   -1    0    0    0    0 -0.00000000000E+00 -0.00000000000E+00 -0.32773655103E+03  0.32773655103E+03  0.00000000000E+00 0.  1.
         25    2    1    2    0    0 -0.59487335312E+02 -0.19184015094E+02 -0.19103339610E+03  0.23674782169E+03  0.12509597576E+03 0.  0.
        -24    2    1    2    0    0 -0.95088567232E+01 -0.32941818090E+01 -0.20632762493E+02  0.95172433429E+02  0.92362390650E+02 0.  0.
         24    2    1    2    0    0  0.68996192035E+02  0.22478196903E+02 -0.34778105347E+01  0.10840887782E+03  0.80465183606E+02 0.  0.
        -13    1    5    5    0    0 -0.14271924374E+02  0.20601039781E+02 -0.10869405284E+01  0.25085296592E+02  0.00000000000E+00 0.  1.
         14    1    5    5    0    0  0.83268116409E+02  0.18771571218E+01 -0.23908700063E+01  0.83323581228E+02  0.00000000000E+00 0. -1.
         11    1    4    4    0    0 -0.32677262237E+02  0.31876649346E+02  0.49143131458E+01  0.45913774780E+02  0.00000000000E+00 0. -1.
        -12    1    4    4    0    0  0.23168405514E+02 -0.35170831155E+02 -0.25547075639E+02  0.49258658649E+02  0.00000000000E+00 0.  1.
          5    1    3    3  501    0 -0.71957356937E+02 -0.54500279874E+02 -0.84390788374E+02  0.12364230379E+03  0.41800000000E+01 0. -1.
         -5    1    3    3    0  501  0.12470021625E+02  0.35316264781E+02 -0.10664260772E+03  0.11310551790E+03  0.41800000000E+01 0. -1.
</event>
<event>
11    1  0.2498402E-009  0.4463176E+03  0.7561462E-02  0.9522187E-01
         22   -1    0    0    0    0  0.00000000000E+00  0.00000000000E+00  0.44796520481E+03  0.44796520481E+03  0.00000000000E+00 0.  1.
         22   -1    0    0    0    0 -0.00000000000E+00 -0.00000000000E+00 -0.25117676198E+04  0.25117676198E+04  0.00000000000E+00 0.  1.
         25    2    1    2    0    0 -0.10962250413E+03 -0.45664227068E+03 -0.22212250896E+04  0.22737695534E+04  0.12509127380E+03 0.  0.
        -24    2    1    2    0    0  0.97766944719E+01  0.28383122145E+03 -0.13325425550E+03  0.32378123902E+03  0.80136434339E+02 0.  0.
         24    2    1    2    0    0  0.99845809658E+02  0.17281104923E+03  0.29067693010E+03  0.36218203213E+03  0.82764136326E+02 0.  0.
        -11    1    5    5    0    0  0.42117243390E+02  0.14428530721E+03  0.18412953143E+03  0.23768844401E+03  0.00000000000E+00 0.  1.
         12    1    5    5    0    0  0.57728566267E+02  0.28525742019E+02  0.10654739867E+03  0.12449358812E+03  0.00000000000E+00 0. -1.
         11    1    4    4    0    0  0.25537889976E+02  0.79735362854E+02 -0.71123512924E+02  0.10985657015E+03  0.00000000000E+00 0. -1.
        -12    1    4    4    0    0 -0.15761195504E+02  0.20409585860E+03 -0.62130742579E+02  0.21392466887E+03  0.00000000000E+00 0.  1.
          5    1    3    3  501    0 -0.53750384678E+02 -0.36016202037E+03 -0.18741046600E+04  0.19091599026E+04  0.41800000000E+01 0.  1.
         -5    1    3    3    0  501 -0.55872119452E+02 -0.96480250308E+02 -0.34712042957E+03  0.36460965080E+03  0.41800000000E+01 0.  1.
</event>
<event>
11    1  0.2498402E-009  0.7439125E+03  0.7561462E-02  0.8969983E-01
         22   -1    0    0    0    0  0.00000000000E+00  0.00000000000E+00  0.28672404927E+04  0.28672404927E+04  0.00000000000E+00 0. -1.
         22   -1    0    0    0    0 -0.00000000000E+00 -0.00000000000E+00 -0.29294947799E+03  0.29294947799E+03  0.00000000000E+00 0. -1.
         25    2    1    2    0    0  0.66861989791E+03 -0.33099671177E+03  0.51689856704E+03  0.91620970725E+03  0.12507880702E+03 0.  0.
         24    2    1    2    0    0 -0.61965657472E+03  0.34406824404E+03  0.13203741954E+04  0.15007103135E+04  0.79913716419E+02 0.  0.
        -24    2    1    2    0    0 -0.48963323188E+02 -0.13071532274E+02  0.73701825229E+03  0.74326994994E+03  0.81768223070E+02 0.  0.
        -11    1    4    4    0    0 -0.10205810181E+03  0.24972079106E+02  0.18421876902E+03  0.21207549538E+03  0.00000000000E+00 0.  1.
         12    1    4    4    0    0 -0.51759847291E+03  0.31909616493E+03  0.11361554264E+04  0.12886348181E+04  0.00000000000E+00 0. -1.
         13    1    5    5    0    0  0.96110748416E+01 -0.42697425206E+01  0.12504913319E+02  0.16339409962E+02  0.00000000000E+00 0. -1.
        -14    1    5    5    0    0 -0.58574398029E+02 -0.88017897538E+01  0.72451333897E+03  0.72693053998E+03  0.00000000000E+00 0.  1.
          5    1    3    3  501    0  0.47114446610E+03 -0.29271199225E+03  0.39519507766E+03  0.68106830799E+03  0.41800000000E+01 0.  1.
         -5    1    3    3    0  501  0.19747543181E+03 -0.38284719518E+02  0.12170348938E+03  0.23514139925E+03  0.41800000000E+01 0.  1.
</event>
<event>
11    1  0.2498402E-009  0.1504037E+03  0.7561462E-02  0.1096467E+00
         22   -1    0    0    0    0  0.00000000000E+00  0.00000000000E+00  0.17543609500E+03  0.17543609500E+03  0.00000000000E+00 0. -1.
         22   -1    0    0    0    0 -0.00000000000E+00 -0.00000000000E+00 -0.30575060368E+03  0.30575060368E+03  0.00000000000E+00 0. -1.
         25    2    1    2    0    0  0.64344122995E+00  0.87769455674E+02 -0.21759350565E+03  0.26589136748E+03  0.12508954486E+03 0.  0.
        -24    2    1    2    0    0 -0.50967795800E+01 -0.71864937024E+02  0.20977950640E+02  0.11019962381E+03  0.80705243562E+02 0.  0.
         24    2    1    2    0    0  0.44533383500E+01 -0.15904518650E+02  0.66301046338E+02  0.10509570739E+03  0.79852946290E+02 0.  0.
        -11    1    5    5    0    0  0.16826572546E+02 -0.31964455855E+02  0.37710822067E+00  0.36124814081E+02  0.00000000000E+00 0.  1.
         12    1    5    5    0    0 -0.12373234196E+02  0.16059937205E+02  0.65923938117E+02  0.68970893313E+02  0.00000000000E+00 0. -1.
         11    1    4    4    0    0  0.17042239722E+02  0.87015624551E+01 -0.93696729555E+01  0.21306006083E+02  0.00000000000E+00 0. -1.
        -12    1    4    4    0    0 -0.22139019302E+02 -0.80566499479E+02  0.30347623596E+02  0.88893617723E+02  0.00000000000E+00 0.  1.
          5    1    3    3  501    0  0.57535257707E+02  0.29981809956E+02 -0.59344238821E+02  0.88025143504E+02  0.41800000000E+01 0.  1.
         -5    1    3    3    0  501 -0.56891816477E+02  0.57787645717E+02 -0.15824926683E+03  0.17786622398E+03  0.41800000000E+01 0.  1.
</event>
<event>
11    1  0.2498402E-009  0.1591739E+03  0.7561462E-02  0.1087857E+00
         22   -1    0    0    0    0  0.00000000000E+00  0.00000000000E+00  0.38047199513E+03  0.38047199513E+03  0.00000000000E+00 0.  1.
         22   -1    0    0    0    0 -0.00000000000E+00 -0.00000000000E+00 -0.85514226854E+03  0.85514226854E+03  0.00000000000E+00 0.  1.
         25    2    1    2    0    0  0.66320722054E+01 -0.10098438510E+03 -0.52973479743E+03  0.55363229901E+03  0.12509171230E+03 0.  0.
         24    2    1    2    0    0 -0.67316736597E+02  0.81864879115E+02 -0.29256285567E+03  0.32132488861E+03  0.80145231077E+02 0.  0.
        -24    2    1    2    0    0  0.60684664392E+02  0.19119505987E+02  0.34762737968E+03  0.36065707605E+03  0.71976019594E+02 0.  0.
        -11    1    4    4    0    0 -0.34726452751E+02  0.87371247981E+02 -0.25220431335E+03  0.26915920413E+03  0.00000000000E+00 0.  1.
         12    1    4    4    0    0 -0.32590283847E+02 -0.55063688660E+01 -0.40358542315E+02  0.52165684478E+02  0.00000000000E+00 0. -1.
         13    1    5    5    0    0  0.17453067127E+02  0.21187550803E+01  0.10783028183E+02  0.20624557499E+02  0.00000000000E+00 0. -1.
        -14    1    5    5    0    0  0.43231597266E+02  0.17000750906E+02  0.33684435150E+03  0.34003251855E+03  0.00000000000E+00 0.  1.
          5    1    3    3  501    0  0.25493657640E+01 -0.79825731978E+02 -0.52515393869E+03  0.53120878990E+03  0.41800000000E+01 0.  1.
         -5    1    3    3    0  501  0.40827064413E+01 -0.21158653124E+02 -0.45808587411E+01  0.22423509108E+02  0.41800000000E+01 0.  1.
</event>
<event>
11    1  0.2498402E-009  0.2005774E+03  0.7561462E-02  0.1054116E+00
         22   -1    0    0    0    0  0.00000000000E+00  0.00000000000E+00  0.19998345837E+04  0.19998345837E+04  0.00000000000E+00 0. -1.
         22   -1    0    0    0    0 -0.00000000000E+00 -0.00000000000E+00 -0.16531983977E+03  0.16531983977E+03  0.00000000000E+00 0. -1.
         25    2    1    2    0    0 -0.30486520777E+02  0.12937970314E+03 -0.86906922886E+02  0.20216113505E+03  0.12509106981E+03 0.  0.
        -24    2    1    2    0    0  0.68956565470E+02  0.23827201048E+02  0.15530050047E+03  0.18804733708E+03  0.76946813492E+02 0.  0.
         24    2    1    2    0    0 -0.38470044694E+02 -0.15320690419E+03  0.17661211663E+04  0.17749459513E+04  0.79352732486E+02 0.  0.
        -13    1    5    5    0    0  0.21128954972E+02 -0.14196731401E+02  0.23724010177E+03  0.23860185626E+03  0.00000000000E+00 0.  1.
         14    1    5    5    0    0 -0.59598999665E+02 -0.13901017279E+03  0.15288810646E+04  0.15363440951E+04  0.00000000000E+00 0. -1.
         13    1    4    4    0    0  0.86097418423E+02  0.21238383153E+02  0.12846327255E+03  0.15609819593E+03  0.00000000000E+00 0. -1.
        -14    1    4    4    0    0 -0.17140852953E+02  0.25888178948E+01  0.26837227922E+02  0.31949141156E+02  0.00000000000E+00 0.  1.
          5    1    3    3  501    0 -0.68170361204E+02  0.29564266106E+02 -0.23815631725E+02  0.78140262935E+02  0.41800000000E+01 0.  1.
         -5    1    3    3    0  501  0.37683840428E+02  0.99815437035E+02 -0.63091291161E+02  0.12402087212E+03  0.41800000000E+01 0.  1.
</event>
<event>
11    1  0.2498402E-009  0.1837123E+03  0.7561462E-02  0.1066679E+00
         22   -1    0    0    0    0  0.00000000000E+00  0.00000000000E+00  0.92223903041E+03  0.92223903041E+03  0.00000000000E+00 0.  1.
         22   -1    0    0    0    0 -0.00000000000E+00 -0.00000000000E+00 -0.63539983436E+03  0.63539983436E+03  0.00000000000E+00 0.  1.
         25    2    1    2    0    0  0.88458315056E+02  0.10170630006E+03 -0.58229771581E+03  0.61064577340E+03  0.12509430745E+03 0.  0.
         24    2    1    2    0    0  0.19129624462E+02 -0.36812405371E+02  0.33349789759E+02  0.97848749421E+02  0.82104041101E+02 0.  0.
        -24    2    1    2    0    0 -0.10758793952E+03 -0.64893894684E+02  0.83578712210E+03  0.84914434195E+03  0.81973274353E+02 0.  0.
        -11    1    4    4    0    0  0.44893722109E+02 -0.17554006423E+02  0.42651880591E+02  0.64364371699E+02  0.00000000000E+00 0.  1.
         12    1    4    4    0    0 -0.25764097647E+02 -0.19258398948E+02 -0.93020908317E+01  0.33484377722E+02  0.00000000000E+00 0. -1.
         11    1    5    5    0    0  0.16933940229E+01 -0.15093663404E+02  0.28556621953E+03  0.28596984455E+03  0.00000000000E+00 0. -1.
        -12    1    5    5    0    0 -0.10928133354E+03 -0.49800231280E+02  0.55022090257E+03  0.56317449740E+03  0.00000000000E+00 0.  1.
          5    1    3    3  501    0  0.11714124869E+03  0.68027244223E+02 -0.48685543704E+03  0.50536666597E+03  0.41800000000E+01 0.  1.
         -5    1    3    3    0  501 -0.28682933629E+02  0.33679055832E+02 -0.95442278775E+02  0.10527910743E+03  0.41800000000E+01 0.  1.
</event>
<event>
11    1  0.2498402E-009  0.6474370E+03  0.7561462E-02  0.9113563E-01
         22   -1    0    0    0    0  0.00000000000E+00  0.00000000000E+00  0.11083007468E+04  0.11083007468E+04  0.00000000000E+00 0.  1.
         22   -1    0    0    0    0 -0.00000000000E+00 -0.00000000000E+00 -0.62776125724E+03  0.62776125724E+03  0.00000000000E+00 0. -1.
         25    2    1    2    0    0  0.32140689493E+02  0.29283454393E+01 -0.22581850516E+03  0.26016059477E+03  0.12509172103E+03 0.  0.
        -24    2    1    2    0    0 -0.57203971313E+03  0.32100563085E+03  0.34983357184E+03  0.74788184526E+03  0.81668096911E+02 0.  0.
         24    2    1    2    0    0  0.53989902363E+03 -0.32393397629E+03  0.35652442290E+03  0.72801956401E+03  0.80490028822E+02 0.  0.
        -11    1    5    5    0    0  0.43661711198E+03 -0.28081577469E+03  0.32205683795E+03  0.61091129361E+03  0.00000000000E+00 0.  1.
         12    1    5    5    0    0  0.10328191165E+03 -0.43118201599E+02  0.34467584955E+02  0.11710827040E+03  0.00000000000E+00 0. -1.
         11    1    4    4    0    0 -0.24215364108E+03  0.14948961185E+03  0.10821112055E+03  0.30445882571E+03  0.00000000000E+00 0. -1.
        -12    1    4    4    0    0 -0.32988607204E+03  0.17151601900E+03  0.24162245129E+03  0.44342301955E+03  0.00000000000E+00 0.  1.
          5    1    3    3  501    0  0.45048240846E+02  0.53783573360E+02 -0.16724948368E+03  0.18141631393E+03  0.41800000000E+01 0.  1.
         -5    1    3    3    0  501 -0.12907551353E+02 -0.50855227921E+02 -0.58569021480E+02  0.78744280846E+02  0.41800000000E+01 0.  1.
</event>
<event>
11    1  0.2498402E-009  0.4444698E+03  0.7561462E-02  0.9526955E-01
         22   -1    0    0    0    0  0.00000000000E+00  0.00000000000E+00  0.75949587507E+03  0.75949587507E+03  0.00000000000E+00 0. -1.
         22   -1    0    0    0    0 -0.00000000000E+00 -0.00000000000E+00 -0.88962868590E+03  0.88962868590E+03  0.00000000000E+00 0. -1.
         25    2    1    2    0    0  0.18843069061E+03  0.19572125018E+03 -0.47398349399E+03  0.56046498010E+03  0.12509080064E+03 0.  0.
         24    2    1    2    0    0  0.27118692541E+03 -0.29929708984E+03 -0.11389541456E+03  0.42693279114E+03  0.78602456647E+02 0.  0.
        -24    2    1    2    0    0 -0.45961761602E+03  0.10357583966E+03  0.45774609772E+03  0.66172678973E+03  0.79840758724E+02 0.  0.
        -13    1    4    4    0    0  0.25957669763E+03 -0.30126864255E+03 -0.10278002218E+03  0.41073907763E+03  0.00000000000E+00 0.  1.
         14    1    4    4    0    0  0.11610227785E+02  0.19715527129E+01 -0.11115392380E+02  0.16193713505E+02  0.00000000000E+00 0. -1.
         13    1    5    5    0    0 -0.26786706305E+03  0.39053708555E+02  0.30781324364E+03  0.40991090321E+03  0.00000000000E+00 0. -1.
        -14    1    5    5    0    0 -0.19175055298E+03  0.64522131105E+02  0.14993285408E+03  0.25181588652E+03  0.00000000000E+00 0.  1.
          5    1    3    3  501    0  0.12807862420E+03  0.43912496727E+02 -0.20418254889E+03  0.24503148168E+03  0.41800000000E+01 0.  1.
         -5    1    3    3    0  501  0.60352066415E+02  0.15180875345E+03 -0.26980094510E+03  0.31543349841E+03  0.41800000000E+01 0.  1.
</event>
<event>
11    1  0.2498402E-009  0.3089345E+03  0.7561462E-02  0.9964793E-01
         22   -1    0    0    0    0  0.00000000000E+00  0.00000000000E+00  0.43483020608E+03  0.43483020608E+03  0.00000000000E+00 0.  1.
         22   -1    0    0    0    0 -0.00000000000E+00 -0.00000000000E+00 -0.37795598196E+03  0.37795598196E+03  0.00000000000E+00 0.  1.
         25    2    1    2    0    0 -0.21693628684E+03 -0.16966524405E+03 -0.23911857386E+02  0.30342597319E+03  0.12509155327E+03 0.  0.
        -24    2    1    2    0    0  0.11725058471E+03  0.29327136934E+03  0.52336490179E+02  0.33001344616E+03  0.80087269618E+02 0.  0.
         24    2    1    2    0    0  0.99685702126E+02 -0.12360612529E+03  0.28449591324E+02  0.17934676869E+03  0.78359241787E+02 0.  0.
        -13    1    5    5    0    0  0.38090346561E+02 -0.81228863708E+02 -0.17755486953E+02  0.91456329018E+02  0.00000000000E+00 0.  1.
         14    1    5    5    0    0  0.61595355565E+02 -0.42377261586E+02  0.46205078277E+02  0.87890439669E+02  0.00000000000E+00 0. -1.
         13    1    4    4    0    0  0.37571238489E+02  0.88928520475E+02  0.54127226752E+02  0.11067807548E+03  0.00000000000E+00 0. -1.
        -14    1    4    4    0    0  0.79679346220E+02  0.20434284887E+03 -0.17907365734E+01  0.21933537069E+03  0.00000000000E+00 0.  1.
          5    1    3    3  501    0 -0.22883466121E+03 -0.14479730053E+03 -0.72155715352E+01  0.27092636875E+03  0.41800000000E+01 0. -1.
         -5    1    3    3    0  501  0.11898374374E+02 -0.24867943521E+02 -0.16696285851E+02  0.32499604442E+02  0.41800000000E+01 0. -1.
</event>
<event>
11    1  0.2498402E-009  0.5393650E+03  0.7561462E-02  0.9309620E-01
         22   -1    0    0    0    0  0.00000000000E+00  0.00000000000E+00  0.39817923023E+03  0.39817923023E+03  0.00000000000E+00 0.  1.
         22   -1    0    0    0    0 -0.00000000000E+00 -0.00000000000E+00 -0.17162490276E+04  0.17162490276E+04  0.00000000000E+00 0.  1.
         25    2    1    2    0    0 -0.49978554377E+03 -0.25102478472E+03 -0.13151422985E+04  0.14345902780E+04  0.12510382855E+03 0.  0.
         24    2    1    2    0    0  0.40822719701E+03  0.33254438422E+02  0.62707037543E+02  0.42188850403E+03  0.79387878262E+02 0.  0.
        -24    2    1    2    0    0  0.91558346752E+02  0.21777034629E+03 -0.65634536341E+02  0.25794947581E+03  0.80144776023E+02 0.  0.
        -11    1    4    4    0    0  0.38304752695E+03  0.37671638548E+02  0.77113670132E+02  0.39254436485E+03  0.00000000000E+00 0.  1.
         12    1    4    4    0    0  0.25179670066E+02 -0.44172001261E+01 -0.14406632589E+02  0.29344139179E+02  0.00000000000E+00 0. -1.
         11    1    5    5    0    0  0.24713227819E+02  0.51378013642E+01  0.11480988851E+01  0.25267741552E+02  0.00000000000E+00 0. -1.
        -12    1    5    5    0    0  0.66845118933E+02  0.21263254493E+03 -0.66782635226E+02  0.23268173426E+03  0.00000000000E+00 0.  1.
          5    1    3    3  501    0 -0.22328620716E+03 -0.16974083862E+03 -0.56042672446E+03  0.62670907804E+03  0.41800000000E+01 0.  1.
         -5    1    3    3    0  501 -0.27649933660E+03 -0.81283946094E+02 -0.75471557408E+03  0.80788119992E+03  0.41800000000E+01 0.  1.
</event>
<event>
11    1  0.2498402E-009  0.5804704E+03  0.7561462E-02  0.9229750E-01
         22   -1    0    0    0    0  0.00000000000E+00  0.00000000000E+00  0.43269424236E+03  0.43269424236E+03  0.00000000000E+00 0. -1.
         22   -1    0    0    0    0 -0.00000000000E+00 -0.00000000000E+00 -0.14674128668E+04  0.14674128668E+04  0.00000000000E+00 0. -1.
         25    2    1    2    0    0  0.35114661289E+03  0.44203988994E+03 -0.10678425500E+04  0.12143467904E+04  0.12508880011E+03 0.  0.
        -24    2    1    2    0    0 -0.33110177955E+03 -0.47399645850E+03  0.78993336224E+02  0.58905711775E+03  0.80295141279E+02 0.  0.
         24    2    1    2    0    0 -0.20044833340E+02  0.31956568559E+02 -0.45869410733E+02  0.96703200993E+02  0.76318337401E+02 0.  0.
        -13    1    5    5    0    0 -0.21294679318E+01 -0.15746897358E+02 -0.42799563037E+02  0.45654156506E+02  0.00000000000E+00 0.  1.
         14    1    5    5    0    0 -0.17915365408E+02  0.47703465917E+02 -0.30698476959E+01  0.51049044488E+02  0.00000000000E+00 0. -1.
         11    1    4    4    0    0 -0.25243626290E+03 -0.40832428640E+03  0.79426747916E+02  0.48658133747E+03  0.00000000000E+00 0. -1.
        -12    1    4    4    0    0 -0.78665516647E+02 -0.65672172098E+02 -0.43341169248E+00  0.10247578028E+03  0.00000000000E+00 0.  1.
          5    1    3    3  501    0  0.27812300763E+03  0.39147730957E+03 -0.96847688732E+03  0.10810050162E+04  0.41800000000E+01 0.  1.
         -5    1    3    3    0  501  0.73023605254E+02  0.50562580373E+02 -0.99365662644E+02  0.13334177429E+03  0.41800000000E+01 0.  1.
</event>
<event>
11    1  0.2498402E-009  0.1361626E+03  0.7561462E-02  0.1111921E+00
         22   -1    0    0    0    0  0.00000000000E+00  0.00000000000E+00  0.64941418212E+02  0.64941418212E+02  0.00000000000E+00 0. -1.
         22   -1    0    0    0    0 -0.00000000000E+00 -0.00000000000E+00 -0.52604440019E+03  0.52604440019E+03  0.00000000000E+00 0.  1.
         25    2    1    2    0    0 -0.25351045207E+02 -0.28402281387E+02 -0.30368530889E+03  0.33063798045E+03  0.12508933686E+03 0.  0.
        -24    2    1    2    0    0  0.68073902771E+02  0.50052466972E+02 -0.10045751021E+03  0.15167837008E+03  0.75995466338E+02 0.  0.
         24    2    1    2    0    0 -0.42722857564E+02 -0.21650185586E+02 -0.56960162871E+02  0.10866946787E+03  0.79187246439E+02 0.  0.
        -13    1    5    5    0    0 -0.50875165029E+02  0.15072748788E+02 -0.43844043686E+02  0.68831463296E+02  0.00000000000E+00 0.  1.
         14    1    5    5    0    0  0.81523074645E+01 -0.36722934373E+02 -0.13116119185E+02  0.39838004574E+02  0.00000000000E+00 0. -1.
         13    1    4    4    0    0 -0.59406243245E+01  0.17693606928E+02  0.45346589757E+01  0.19207234979E+02  0.00000000000E+00 0. -1.
        -14    1    4    4    0    0  0.74014527095E+02  0.32358860044E+02 -0.10499216919E+03  0.13247113510E+03  0.00000000000E+00 0.  1.
          5    1    3    3  501    0 -0.45761519071E+02  0.38769907496E+02 -0.12880201196E+03  0.14214307243E+03  0.41800000000E+01 0. -1.
         -5    1    3    3    0  501  0.20410473865E+02 -0.67172188883E+02 -0.17488329693E+03  0.18849490802E+03  0.41800000000E+01 0. -1.
</event>
<event>
11    1  0.2498402E-009  0.1141082E+04  0.7561462E-02  0.8555307E-01
         22   -1    0    0    0    0  0.00000000000E+00  0.00000000000E+00  0.22760992196E+03  0.22760992196E+03  0.00000000000E+00 0.  1.
         22   -1    0    0    0    0 -0.00000000000E+00 -0.00000000000E+00 -0.14301533157E+04  0.14301533157E+04  0.00000000000E+00 0. -1.
         25    2    1    2    0    0  0.29124456698E+03 -0.15354043446E+03 -0.12061561859E+04  0.12565263213E+04  0.12509032159E+03 0.  0.
        -24    2    1    2    0    0 -0.18442424131E+03  0.10979808283E+03  0.69029560012E+02  0.24477466687E+03  0.95297626456E+02 0.  0.
         24    2    1    2    0    0 -0.10682032567E+03  0.43742351625E+02 -0.65416767873E+02  0.15646224951E+03  0.82928322674E+02 0.  0.
        -13    1    5    5    0    0 -0.40372401194E+01 -0.20478056500E+02 -0.11262762790E+02  0.23717081007E+02  0.00000000000E+00 0.  1.
         14    1    5    5    0    0 -0.10278308555E+03  0.64220408126E+02 -0.54154005082E+02  0.13274516850E+03  0.00000000000E+00 0. -1.
         13    1    4    4    0    0 -0.90227159104E+02  0.96542874713E+01 -0.42422046788E+00  0.90743184150E+02  0.00000000000E+00 0. -1.
        -14    1    4    4    0    0 -0.94197082205E+02  0.10014379536E+03  0.69453780480E+02  0.15403148272E+03  0.00000000000E+00 0.  1.
          5    1    3    3  501    0  0.27412877642E+03 -0.15806815283E+03 -0.98423485749E+03  0.10338606551E+04  0.41800000000E+01 0.  1.
         -5    1    3    3    0  501  0.17115790557E+02  0.45277183720E+01 -0.22192132841E+03  0.22266566624E+03  0.41800000000E+01 0.  1.
</event>
<event>
11    1  0.2498402E-009  0.1490989E+04  0.7561462E-02  0.8315280E-01
         22   -1    0    0    0    0  0.00000000000E+00  0.00000000000E+00  0.20280031592E+04  0.20280031592E+04  0.00000000000E+00 0.  1.
         22   -1    0    0    0    0 -0.00000000000E+00 -0.00000000000E+00 -0.12102094691E+04  0.12102094691E+04  0.00000000000E+00 0.  1.
         25    2    1    2    0    0 -0.12543302482E+04 -0.69112586320E+03  0.51448174004E+03  0.15268715878E+04  0.12508419011E+03 0.  0.
         24    2    1    2    0    0  0.13401420315E+04  0.74149986044E+03  0.20011336618E+03  0.15467161204E+04  0.80515155640E+02 0.  0.
        -24    2    1    2    0    0 -0.85811783324E+02 -0.50373997245E+02  0.10319858389E+03  0.16462492006E+03  0.80933397520E+02 0.  0.
        -13    1    4    4    0    0  0.43816448727E+03  0.22422537728E+03  0.98723241989E+02  0.50200738663E+03  0.00000000000E+00 0.  1.
         14    1    4    4    0    0  0.90197754422E+03  0.51727448316E+03  0.10139012419E+03  0.10447087338E+04  0.00000000000E+00 0. -1.
         13    1    5    5    0    0 -0.54941176106E+02 -0.59787510895E+02  0.10448408219E+03  0.13232536689E+03  0.00000000000E+00 0. -1.
        -14    1    5    5    0    0 -0.30870607218E+02  0.94135136505E+01 -0.12854983074E+01  0.32299553173E+02  0.00000000000E+00 0.  1.
          5    1    3    3  501    0 -0.85393185971E+02 -0.60991749016E+02  0.71161069614E+02  0.12685960699E+03  0.41800000000E+01 0. -1.
         -5    1    3    3    0  501 -0.11689370622E+04 -0.63013411418E+03  0.44332067043E+03  0.14000119808E+04  0.41800000000E+01 0. -1.
</event>
<event>
11    1  0.2498402E-009  0.1897335E+03  0.7561462E-02  0.1062031E+00
         22   -1    0    0    0    0  0.00000000000E+00  0.00000000000E+00  0.24183957884E+03  0.24183957884E+03  0.00000000000E+00 0.  1.
         22   -1    0    0    0    0 -0.00000000000E+00 -0.00000000000E+00 -0.29604542668E+03  0.29604542668E+03  0.00000000000E+00 0. -1.
         25    2    1    2    0    0 -0.71867133978E+02 -0.11521566053E+03 -0.16400470857E+03  0.24695073325E+03  0.12509031474E+03 0.  0.
         24    2    1    2    0    0  0.91428904627E+02  0.13500634856E+03  0.55700107710E+02  0.18971013945E+03  0.79381838357E+02 0.  0.
        -24    2    1    2    0    0 -0.19561770649E+02 -0.19790688027E+02  0.54098753016E+02  0.10122413281E+03  0.80903125912E+02 0.  0.
        -11    1    4    4    0    0  0.41149930539E+01  0.10252205333E+02  0.34182764877E+02  0.35923561859E+02  0.00000000000E+00 0.  1.
         12    1    4    4    0    0  0.87313911573E+02  0.12475414322E+03  0.21517342833E+02  0.15378657759E+03  0.00000000000E+00 0. -1.
         13    1    5    5    0    0  0.55140873540E+01 -0.21690715074E+02 -0.15498366887E+02  0.27222998658E+02  0.00000000000E+00 0. -1.
        -14    1    5    5    0    0 -0.25075858003E+02  0.19000270472E+01  0.69597119903E+02  0.74001134154E+02  0.00000000000E+00 0.  1.
          5    1    3    3  501    0 -0.95379237796E+02 -0.12058605114E+03 -0.11456389645E+03  0.19178256830E+03  0.41800000000E+01 0. -1.
         -5    1    3    3    0  501  0.23512103818E+02  0.53703906127E+01 -0.49440812121E+02  0.55168164954E+02  0.41800000000E+01 0. -1.
</event>
<event>
11    1  0.2498402E-009  0.6995955E+03  0.7561462E-02  0.9032901E-01
         22   -1    0    0    0    0  0.00000000000E+00  0.00000000000E+00  0.18438093515E+03  0.18438093515E+03  0.00000000000E+00 0. -1.
         22   -1    0    0    0    0 -0.00000000000E+00 -0.00000000000E+00 -0.30593976111E+04  0.30593976111E+04  0.00000000000E+00 0. -1.
         25    2    1    2    0    0 -0.19454525849E+03  0.63889928675E+03 -0.11349448512E+04  0.13227948639E+04  0.12508509229E+03 0.  0.
        -24    2    1    2    0    0  0.24174755799E+03 -0.66244240314E+03 -0.15964434542E+04  0.17470494858E+04  0.79236254736E+02 0.  0.
         24    2    1    2    0    0 -0.47202299504E+02  0.23543116387E+02 -0.14362837052E+03  0.17393419660E+03  0.82714330811E+02 0.  0.
        -11    1    5    5    0    0  0.14152331024E+02 -0.12360530440E+02 -0.72498466029E+01  0.20140294484E+02  0.00000000000E+00 0.  1.
         12    1    5    5    0    0 -0.61354630528E+02  0.35903646827E+02 -0.13637852391E+03  0.15379390211E+03  0.00000000000E+00 0. -1.
         13    1    4    4    0    0  0.20858314079E+03 -0.49008159288E+03 -0.12476054428E+04  0.13565420138E+04  0.00000000000E+00 0. -1.
        -14    1    4    4    0    0  0.33164417204E+02 -0.17236081026E+03 -0.34883801142E+03  0.39050747200E+03  0.00000000000E+00 0.  1.
          5    1    3    3  501    0 -0.68705321248E+02  0.75559888026E+02 -0.17481759747E+03  0.20250526569E+03  0.41800000000E+01 0.  1.
         -5    1    3    3    0  501 -0.12583993724E+03  0.56333939873E+03 -0.96012725376E+03  0.11202895982E+04  0.41800000000E+01 0.  1.
</event>
<event>
11    1  0.2498402E-009  0.1572698E+03  0.7561462E-02  0.1089674E+00
         22   -1    0    0    0    0  0.00000000000E+00  0.00000000000E+00  0.40545800730E+03  0.40545800730E+03  0.00000000000E+00 0.  1.
         22   -1    0    0    0    0 -0.00000000000E+00 -0.00000000000E+00 -0.22409903809E+03  0.22409903809E+03  0.00000000000E+00 0.  1.
         25    2    1    2    0    0 -0.11641878916E+02 -0.84640772541E+02 -0.12503642090E+03  0.19642231960E+03  0.12509207555E+03 0.  0.
        -24    2    1    2    0    0  0.80872957226E+02  0.14514577986E+03  0.18640345665E+03  0.26235080958E+03  0.80460959590E+02 0.  0.
         24    2    1    2    0    0 -0.69231078310E+02 -0.60505007314E+02  0.11999193346E+03  0.17078391620E+03  0.79468760048E+02 0.  0.
        -13    1    5    5    0    0 -0.81673150220E+02 -0.62955226016E+02  0.11984314814E+03  0.15810200538E+03  0.00000000000E+00 0.  1.
         14    1    5    5    0    0  0.12442071910E+02  0.24502187023E+01  0.14878532729E+00  0.12681910825E+02  0.00000000000E+00 0. -1.
         13    1    4    4    0    0  0.56173347135E+01  0.42999257878E+02  0.99578577884E+02  0.10861115873E+03  0.00000000000E+00 0. -1.
        -14    1    4    4    0    0  0.75255622513E+02  0.10214652198E+03  0.86824878764E+02  0.15373965085E+03  0.00000000000E+00 0.  1.
          5    1    3    3  501    0  0.51041680073E+02 -0.63851288725E+02 -0.89598536025E+02  0.12135736580E+03  0.41800000000E+01 0.  1.
         -5    1    3    3    0  501 -0.62683558989E+02 -0.20789483816E+02 -0.35437884874E+02  0.75064953802E+02  0.41800000000E+01 0.  1.
</event>
<event>
11    1  0.2498402E-009  0.1604349E+03  0.7561462E-02  0.1086669E+00
         22   -1    0    0    0    0  0.00000000000E+00  0.00000000000E+00  0.38437569997E+03  0.38437569997E+03  0.00000000000E+00 0.  1.
         22   -1    0    0    0    0 -0.00000000000E+00 -0.00000000000E+00 -0.33126976040E+03  0.33126976040E+03  0.00000000000E+00 0.  1.
         25    2    1    2    0    0  0.59629217664E+02  0.81133138393E+02 -0.23056399373E+03  0.28097241325E+03  0.12509001584E+03 0.  0.
         24    2    1    2    0    0 -0.22237500606E+02  0.12259761362E+02 -0.34095316142E+02  0.91205269918E+02  0.80691402864E+02 0.  0.
        -24    2    1    2    0    0 -0.37391717059E+02 -0.93392899755E+02  0.31776524944E+03  0.34346777720E+03  0.82915535293E+02 0.  0.
        -13    1    4    4    0    0  0.28961861071E+02 -0.63494587121E+01 -0.16644086163E+02  0.34001920929E+02  0.00000000000E+00 0.  1.
         14    1    4    4    0    0 -0.51199361677E+02  0.18609220074E+02 -0.17451229980E+02  0.57203348990E+02  0.00000000000E+00 0. -1.
         11    1    5    5    0    0  0.20445171494E+02  0.81383806344E-01  0.49577065221E+02  0.53627390918E+02  0.00000000000E+00 0. -1.
        -12    1    5    5    0    0 -0.57836888553E+02 -0.93474283561E+02  0.26818818422E+03  0.28984038628E+03  0.00000000000E+00 0.  1.
          5    1    3    3  501    0  0.90697589140E+01  0.78904818052E+01  0.15042642304E+02  0.19704662325E+02  0.41800000000E+01 0. -1.
         -5    1    3    3    0  501  0.50559458750E+02  0.73242656588E+02 -0.24560663603E+03  0.26126775093E+03  0.41800000000E+01 0. -1.
</event>
<event>
11    1  0.2498402E-009  0.1990374E+03  0.7561462E-02  0.1055206E+00
         22   -1    0    0    0    0  0.00000000000E+00  0.00000000000E+00  0.26649300247E+03  0.26649300247E+03  0.00000000000E+00 0.  1.
         22   -1    0    0    0    0 -0.00000000000E+00 -0.00000000000E+00 -0.30124784385E+03  0.30124784385E+03  0.00000000000E+00 0.  1.
         25    2    1    2    0    0  0.72208216623E+02  0.12593804525E+03 -0.10644220435E+03  0.21922726457E+03  0.12512486913E+03 0.  0.
         24    2    1    2    0    0 -0.16686732649E+03 -0.91839176904E+02  0.12755890363E+02  0.20722341757E+03  0.80620673431E+02 0.  0.
        -24    2    1    2    0    0  0.94659109869E+02 -0.34098868348E+02  0.58931472609E+02  0.14129016418E+03  0.79792932814E+02 0.  0.
        -13    1    4    4    0    0 -0.17380255627E+03 -0.92805227940E+02  0.54497596822E+01  0.19710362447E+03  0.00000000000E+00 0.  1.
         14    1    4    4    0    0  0.69352297818E+01  0.96605103637E+00  0.73061306803E+01  0.10119793093E+02  0.00000000000E+00 0. -1.
         11    1    5    5    0    0  0.18625438230E+02 -0.46106447042E+02  0.12064203072E+02  0.51168900749E+02  0.00000000000E+00 0. -1.
        -12    1    5    5    0    0  0.76033671640E+02  0.12007578694E+02  0.46867269536E+02  0.90121263434E+02  0.00000000000E+00 0.  1.
          5    1    3    3  501    0  0.20618979263E+02 -0.22873470619E+02 -0.40912457417E+01  0.31345632164E+02  0.41800000000E+01 0.  1.
         -5    1    3    3    0  501  0.51589237360E+02  0.14881151587E+03 -0.10235095861E+03  0.18788163240E+03  0.41800000000E+01 0.  1.
</event>
<event>
11    1  0.2498402E-009  0.1563786E+03  0.7561462E-02  0.1090534E+00
         22   -1    0    0    0    0  0.00000000000E+00  0.00000000000E+00  0.20108314366E+03  0.20108314366E+03  0.00000000000E+00 0.  1.
         22   -1    0    0    0    0 -0.00000000000E+00 -0.00000000000E+00 -0.24936261203E+03  0.24936261203E+03  0.00000000000E+00 0. -1.
         25    2    1    2    0    0 -0.83604969188E+02  0.37455301929E+02 -0.12718179867E+03  0.20053925867E+03  0.12509234125E+03 0.  0.
        -24    2    1    2    0    0  0.92345517852E+02 -0.31783359030E+02 -0.11462240465E+02  0.12939764135E+03  0.84109987829E+02 0.  0.
         24    2    1    2    0    0 -0.87405486642E+01 -0.56719428994E+01  0.90364570764E+02  0.12050885567E+03  0.79044674189E+02 0.  0.
        -11    1    5    5    0    0 -0.15226408469E+02 -0.33866973715E+02  0.82586354509E+02  0.90550104222E+02  0.00000000000E+00 0.  1.
         12    1    5    5    0    0  0.64858598043E+01  0.28195030815E+02  0.77782162549E+01  0.29958751446E+02  0.00000000000E+00 0. -1.
         13    1    4    4    0    0  0.65666799612E+02 -0.59105538559E+02  0.34140599760E+01  0.88415208336E+02  0.00000000000E+00 0. -1.
        -14    1    4    4    0    0  0.26678718240E+02  0.27322179529E+02 -0.14876300441E+02  0.40982433016E+02  0.00000000000E+00 0.  1.
          5    1    3    3  501    0 -0.37871368026E+02  0.41220679560E+02  0.89309642406E+01  0.56838538526E+02  0.41800000000E+01 0. -1.
         -5    1    3    3    0  501 -0.45733601162E+02 -0.37653776301E+01 -0.13611276291E+03  0.14370072014E+03  0.41800000000E+01 0. -1.
</event>
<event>
11    1  0.2498402E-009  0.2233186E+03  0.7561462E-02  0.1039158E+00
         22   -1    0    0    0    0  0.00000000000E+00  0.00000000000E+00  0.37151765796E+03  0.37151765796E+03  0.00000000000E+00 0. -1.
         22   -1    0    0    0    0 -0.00000000000E+00 -0.00000000000E+00 -0.60611431958E+03  0.60611431958E+03  0.00000000000E+00 0. -1.
         25    2    1    2    0    0 -0.43963351725E+02 -0.33210776640E+02 -0.45671415347E+03  0.47672950875E+03  0.12508986589E+03 0.  0.
        -24    2    1    2    0    0 -0.13569962305E+03 -0.11805219141E+03  0.65405271201E+02  0.20693260921E+03  0.78692742103E+02 0.  0.
         24    2    1    2    0    0  0.17966297478E+03  0.15126296805E+03  0.15671222065E+03  0.29396985958E+03  0.81855288361E+02 0.  0.
        -13    1    5    5    0    0  0.86466821836E+02  0.11927623900E+03  0.71744743620E+02  0.16386165111E+03  0.00000000000E+00 0.  1.
         14    1    5    5    0    0  0.93196152942E+02  0.31986729050E+02  0.84967477026E+02  0.13010820847E+03  0.00000000000E+00 0. -1.
         13    1    4    4    0    0 -0.88639329874E+02 -0.26563594907E+02  0.21062912229E+02  0.94901009723E+02  0.00000000000E+00 0. -1.
        -14    1    4    4    0    0 -0.47060293180E+02 -0.91488596503E+02  0.44342358972E+02  0.11203159949E+03  0.00000000000E+00 0.  1.
          5    1    3    3  501    0  0.36827587185E+02 -0.41036852404E+02 -0.17548493112E+03  0.18399110816E+03  0.41800000000E+01 0. -1.
         -5    1    3    3    0  501 -0.80790938910E+02  0.78260757645E+01 -0.28122922236E+03  0.29273840059E+03  0.41800000000E+01 0. -1.
</event>
<event>
11    1  0.2498402E-009  0.1679698E+03  0.7561462E-02  0.1079812E+00
         22   -1    0    0    0    0  0.00000000000E+00  0.00000000000E+00  0.93087302120E+03  0.93087302120E+03  0.00000000000E+00 0. -1.
         22   -1    0    0    0    0 -0.00000000000E+00 -0.00000000000E+00 -0.57429057537E+03  0.57429057537E+03  0.00000000000E+00 0.  1.
         25    2    1    2    0    0 -0.17894279591E+02  0.10839960003E+03 -0.50716233984E+03  0.53379099693E+03  0.12509400832E+03 0.  0.
         24    2    1    2    0    0 -0.75551803124E+02  0.11088568288E+03  0.17207212018E+03  0.23226493320E+03  0.79589415310E+02 0.  0.
        -24    2    1    2    0    0  0.93446082716E+02 -0.21928528291E+03  0.69167266550E+03  0.73910766644E+03  0.10512307416E+03 0.  0.
        -11    1    4    4    0    0  0.16885299587E+02  0.21895125405E+02  0.32677461322E+02  0.42805681131E+02  0.00000000000E+00 0.  1.
         12    1    4    4    0    0 -0.92437102712E+02  0.88990557474E+02  0.13939465886E+03  0.18945925207E+03  0.00000000000E+00 0. -1.
         13    1    5    5    0    0  0.11660490311E+03 -0.18740792845E+03  0.60074046198E+03  0.64000588883E+03  0.00000000000E+00 0. -1.
        -14    1    5    5    0    0 -0.23158820395E+02 -0.31877354453E+02  0.90932203515E+02  0.99101777609E+02  0.00000000000E+00 0.  1.
          5    1    3    3  501    0 -0.57562458744E+02  0.15135738687E+02 -0.25722498652E+03  0.26405433784E+03  0.41800000000E+01 0. -1.
         -5    1    3    3    0  501  0.39668179153E+02  0.93263861339E+02 -0.24993735333E+03  0.26973665909E+03  0.41800000000E+01 0. -1.
</event>
<event>
11    1  0.2498402E-009  0.2242433E+03  0.7561462E-02  0.1038591E+00
         22   -1    0    0    0    0  0.00000000000E+00  0.00000000000E+00  0.10553058475E+03  0.10553058475E+03  0.00000000000E+00 0.  1.
         22   -1    0    0    0    0 -0.00000000000E+00 -0.00000000000E+00 -0.10223026942E+04  0.10223026942E+04  0.00000000000E+00 0.  1.
         25    2    1    2    0    0 -0.11702712423E+03  0.19198100396E+03 -0.48554417157E+03  0.54950334027E+03  0.12509486296E+03 0.  0.
         24    2    1    2    0    0 -0.53788005437E+02 -0.16936178754E+03 -0.20412251445E+03  0.28188355556E+03  0.78840176173E+02 0.  0.
        -24    2    1    2    0    0  0.17081512967E+03 -0.22619216415E+02 -0.22710542340E+03  0.29644638308E+03  0.81327407609E+02 0.  0.
        -11    1    4    4    0    0 -0.10205861337E+02 -0.98552695180E+02 -0.15883388546E+03  0.18720308893E+03  0.00000000000E+00 0.  1.
         12    1    4    4    0    0 -0.43582144100E+02 -0.70809092364E+02 -0.45288628990E+02  0.94680466631E+02  0.00000000000E+00 0. -1.
         11    1    5    5    0    0  0.63374525789E+02 -0.30050825766E+02 -0.14482441567E+03  0.16091455504E+03  0.00000000000E+00 0. -1.
        -12    1    5    5    0    0  0.10744060388E+03  0.74316093510E+01 -0.82281007730E+02  0.13553182804E+03  0.00000000000E+00 0.  1.
          5    1    3    3  501    0 -0.45456915664E+01  0.73590167708E+02 -0.65127479558E+02  0.98464395030E+02  0.41800000000E+01 0. -1.
         -5    1    3    3    0  501 -0.11248143267E+03  0.11839083625E+03 -0.42041669201E+03  0.45103894524E+03  0.41800000000E+01 0. -1.
</event>
<event>
11    1  0.2498402E-009  0.1516943E+03  0.7561462E-02  0.1095160E+00
         22   -1    0    0    0    0  0.00000000000E+00  0.00000000000E+00  0.22893403609E+03  0.22893403609E+03  0.00000000000E+00 0.  1.
         22   -1    0    0    0    0 -0.00000000000E+00 -0.00000000000E+00 -0.39685855258E+03  0.39685855258E+03  0.00000000000E+00 0.  1.
         25    2    1    2    0    0  0.27277596424E+02  0.88471978085E+02 -0.20490999336E+03  0.25729921964E+03  0.12507367780E+03 0.  0.
         24    2    1    2    0    0 -0.38701769652E+02 -0.70360229276E+02 -0.13122147399E+03  0.18095782337E+03  0.95279954692E+02 0.  0.
        -24    2    1    2    0    0  0.11424173228E+02 -0.18111748809E+02  0.16820695085E+03  0.18753554565E+03  0.80109021909E+02 0.  0.
        -13    1    4    4    0    0  0.28491815835E+02 -0.24293163141E+02 -0.68784652017E+02  0.78315194554E+02  0.00000000000E+00 0.  1.
         14    1    4    4    0    0 -0.67193585487E+02 -0.46067066135E+02 -0.62436821973E+02  0.10264262882E+03  0.00000000000E+00 0. -1.
         11    1    5    5    0    0  0.29666931601E+02  0.14722130892E+02  0.31299370637E+02  0.45568833328E+02  0.00000000000E+00 0. -1.
        -12    1    5    5    0    0 -0.18242758373E+02 -0.32833879701E+02  0.13690758021E+03  0.14196671233E+03  0.00000000000E+00 0.  1.
          5    1    3    3  501    0 -0.35833893231E+02  0.67012613917E+02 -0.57248496588E+02  0.95234558274E+02  0.41800000000E+01 0.  1.
         -5    1    3    3    0  501  0.63111489654E+02  0.21459364168E+02 -0.14766149677E+03  0.16206466137E+03  0.41800000000E+01 0.  1.
</event>
<event>
11    1  0.2498402E-009  0.1448640E+03  0.7561462E-02  0.1102245E+00
         22   -1    0    0    0    0  0.00000000000E+00  0.00000000000E+00  0.10268189460E+03  0.10268189460E+03  0.00000000000E+00 0.  1.
         22   -1    0    0    0    0 -0.00000000000E+00 -0.00000000000E+00 -0.30162901396E+03  0.30162901396E+03  0.00000000000E+00 0. -1.
         25    2    1    2    0    0 -0.47308127898E+01 -0.59531233197E+02 -0.11309629697E+03  0.17890176403E+03  0.12509484590E+03 0.  0.
        -24    2    1    2    0    0  0.18655164745E+02  0.85203828407E+02 -0.70553270240E+02  0.13881432064E+03  0.81755392026E+02 0.  0.
         24    2    1    2    0    0 -0.13924351955E+02 -0.25672595209E+02 -0.15297552144E+02  0.86594823894E+02  0.80072958616E+02 0.  0.
        -11    1    5    5    0    0  0.21122821832E+02 -0.29803924217E+02 -0.31055350754E+02  0.47946661107E+02  0.00000000000E+00 0.  1.
         12    1    5    5    0    0 -0.35047173786E+02  0.41313290077E+01  0.15757798610E+02  0.38648162787E+02  0.00000000000E+00 0. -1.
         13    1    4    4    0    0  0.10980416171E+02 -0.15157460039E+02 -0.13879982186E+02  0.23301760440E+02  0.00000000000E+00 0. -1.
        -14    1    4    4    0    0  0.76747485734E+01  0.10036128845E+03 -0.56673288054E+02  0.11551256020E+03  0.00000000000E+00 0.  1.
          5    1    3    3  501    0  0.24205245376E+02 -0.15901082354E+02 -0.12215103011E+03  0.12560686637E+03  0.41800000000E+01 0. -1.
         -5    1    3    3    0  501 -0.28936058166E+02 -0.43630150843E+02  0.90547331326E+01  0.53294897663E+02  0.41800000000E+01 0. -1.
</event>
<event>
11    1  0.2498402E-009  0.3132949E+03  0.7561462E-02  0.9947164E-01
         22   -1    0    0    0    0  0.00000000000E+00  0.00000000000E+00  0.98961407056E+03  0.98961407056E+03  0.00000000000E+00 0.  1.
         22   -1    0    0    0    0 -0.00000000000E+00 -0.00000000000E+00 -0.66811921260E+03  0.66811921260E+03  0.00000000000E+00 0.  1.
         25    2    1    2    0    0 -0.26138750710E+03  0.12891416881E+03 -0.54403230695E+03  0.62973001251E+03  0.12508575402E+03 0.  0.
         24    2    1    2    0    0  0.41430666361E+01 -0.17962498853E+03  0.10894315930E+03  0.22327137128E+03  0.75492991502E+02 0.  0.
        -24    2    1    2    0    0  0.25724444047E+03  0.50710819721E+02  0.75658400560E+03  0.80473189937E+03  0.80173455374E+02 0.  0.
        -13    1    4    4    0    0 -0.73529213688E+01 -0.29772940900E+02 -0.92933256653E+01  0.32044646424E+02  0.00000000000E+00 0.  1.
         14    1    4    4    0    0  0.11495988005E+02 -0.14985204763E+03  0.11823648497E+03  0.19122672485E+03  0.00000000000E+00 0. -1.
         11    1    5    5    0    0  0.10065305914E+03  0.60133523603E+02  0.31555817247E+03  0.33663636047E+03  0.00000000000E+00 0. -1.
        -12    1    5    5    0    0  0.15659138132E+03 -0.94227038815E+01  0.44102583313E+03  0.46809553890E+03  0.00000000000E+00 0.  1.
          5    1    3    3  501    0 -0.96158623353E+02 -0.13380209307E+02 -0.13722161145E+03  0.16814503827E+03  0.41800000000E+01 0. -1.
         -5    1    3    3    0  501 -0.16522888375E+03  0.14229437812E+03 -0.40681069549E+03  0.46158497423E+03  0.41800000000E+01 0. -1.
</event>
<event>
11    1  0.2498402E-009  0.1983439E+03  0.7561462E-02  0.1055701E+00
         22   -1    0    0    0    0  0.00000000000E+00  0.00000000000E+00  0.19551605016E+04  0.19551605016E+04  0.00000000000E+00 0. -1.
         22   -1    0    0    0    0 -0.00000000000E+00 -0.00000000000E+00 -0.14142046093E+03  0.14142046093E+03  0.00000000000E+00 0. -1.
         25    2    1    2    0    0 -0.16866848172E+03 -0.59235548037E+01 -0.12223277722E+02  0.21043140751E+03  0.12509126077E+03 0.  0.
         24    2    1    2    0    0  0.12504803093E+03  0.10062604401E+02  0.16175477406E+03  0.21952701671E+03  0.79304716658E+02 0.  0.
        -24    2    1    2    0    0  0.43620450786E+02 -0.41390495973E+01  0.16642085443E+04  0.16666225383E+04  0.78235099249E+02 0.  0.
        -11    1    4    4    0    0  0.45476902158E+02  0.33336448493E+02  0.10459896810E+03  0.11882933794E+03  0.00000000000E+00 0.  1.
         12    1    4    4    0    0  0.79571128776E+02 -0.23273844092E+02  0.57155805963E+02  0.10069767877E+03  0.00000000000E+00 0. -1.
         11    1    5    5    0    0  0.32196017808E+02 -0.19649044627E+02  0.15705818737E+04  0.15710347197E+04  0.00000000000E+00 0. -1.
        -12    1    5    5    0    0  0.11424432978E+02  0.15509995030E+02  0.93626670664E+02  0.95587818650E+02  0.00000000000E+00 0.  1.
          5    1    3    3  501    0 -0.98716869683E+02 -0.34092116716E+02  0.46855648369E+02  0.11454351560E+03  0.41800000000E+01 0.  1.
         -5    1    3    3    0  501 -0.69951612036E+02  0.28168561912E+02 -0.59078926091E+02  0.95887891909E+02  0.41800000000E+01 0.  1.
</event>
<event>
11    1  0.2498402E-009  0.1896132E+03  0.7561462E-02  0.1062122E+00
         22   -1    0    0    0    0  0.00000000000E+00  0.00000000000E+00  0.84646094707E+03  0.84646094707E+03  0.00000000000E+00 0.  1.
         22   -1    0    0    0    0 -0.00000000000E+00 -0.00000000000E+00 -0.42023014786E+03  0.42023014786E+03  0.00000000000E+00 0.  1.
         25    2    1    2    0    0  0.23778267975E+02 -0.15650591343E+03 -0.33987027538E+03  0.39524492946E+03  0.12508894119E+03 0.  0.
        -24    2    1    2    0    0  0.61180385923E+02  0.92089495867E+02  0.52294621913E+02  0.14529038754E+03  0.78428657777E+02 0.  0.
         24    2    1    2    0    0 -0.84958653899E+02  0.64416417559E+02  0.71380645267E+03  0.72615577793E+03  0.80094408186E+02 0.  0.
        -11    1    5    5    0    0 -0.26460308897E+02  0.67323287412E+02  0.46189876362E+03  0.46752865240E+03  0.00000000000E+00 0.  1.
         12    1    5    5    0    0 -0.58498345002E+02 -0.29068698531E+01  0.25190768905E+03  0.25862712553E+03  0.00000000000E+00 0. -1.
         13    1    4    4    0    0  0.42606168239E+02  0.95399872202E+02  0.64530505682E+02  0.12280312436E+03  0.00000000000E+00 0. -1.
        -14    1    4    4    0    0  0.18574217685E+02 -0.33103763344E+01 -0.12235883769E+02  0.22487263188E+02  0.00000000000E+00 0.  1.
          5    1    3    3  501    0 -0.43865755122E+02 -0.19210719203E+02 -0.68958153548E+02  0.84059238311E+02  0.41800000000E+01 0.  1.
         -5    1    3    3    0  501  0.67644023097E+02 -0.13729519422E+03 -0.27091212183E+03  0.31118569115E+03  0.41800000000E+01 0.  1.
</event>
<event>
11    1  0.2498402E-009  0.2255174E+03  0.7561462E-02  0.1037815E+00
         22   -1    0    0    0    0  0.00000000000E+00  0.00000000000E+00  0.10999298338E+04  0.10999298338E+04  0.00000000000E+00 0. -1.
         22   -1    0    0    0    0 -0.00000000000E+00 -0.00000000000E+00 -0.77745098096E+02  0.77745098096E+02  0.00000000000E+00 0. -1.
         25    2    1    2    0    0 -0.16981011336E+03  0.12420480229E+03  0.27640557167E+03  0.36920436496E+03  0.12509802374E+03 0.  0.
        -24    2    1    2    0    0  0.16899584389E+03 -0.65831275386E+02  0.59074712705E+03  0.62361451309E+03  0.83782699623E+02 0.  0.
         24    2    1    2    0    0  0.81426947190E+00 -0.58373526904E+02  0.15503203702E+03  0.18485605388E+03  0.82028632033E+02 0.  0.
        -11    1    5    5    0    0  0.78519857929E+01 -0.13586087664E+02 -0.65722980074E+01  0.17012658816E+02  0.00000000000E+00 0.  1.
         12    1    5    5    0    0 -0.70377163210E+01 -0.44787439240E+02  0.16160433503E+03  0.16784339506E+03  0.00000000000E+00 0. -1.
         13    1    4    4    0    0  0.11671779494E+03 -0.49976004057E+02  0.27142921996E+03  0.29965724767E+03  0.00000000000E+00 0. -1.
        -14    1    4    4    0    0  0.52278048957E+02 -0.15855271329E+02  0.31931790709E+03  0.32395726542E+03  0.00000000000E+00 0.  1.
          5    1    3    3  501    0 -0.58360223081E+01 -0.19748170648E+02  0.52442236551E+02  0.56495220814E+02  0.41800000000E+01 0.  1.
         -5    1    3    3    0  501 -0.16397409106E+03  0.14395297294E+03  0.22396333512E+03  0.31270914415E+03  0.41800000000E+01 0.  1.
</event>
<event>
11    1  0.2498402E-009  0.1407045E+03  0.7561462E-02  0.1106774E+00
         22   -1    0    0    0    0  0.00000000000E+00  0.00000000000E+00  0.36189229062E+03  0.36189229062E+03  0.00000000000E+00 0. -1.
         22   -1    0    0    0    0 -0.00000000000E+00 -0.00000000000E+00 -0.90884339145E+02  0.90884339145E+02  0.00000000000E+00 0. -1.
         25    2    1    2    0    0 -0.80401062675E+02  0.23569349669E+02  0.46834674126E+02  0.15766523984E+03  0.12507995854E+03 0.  0.
         24    2    1    2    0    0  0.21947133254E+02 -0.12503636245E+02  0.60593696938E+02  0.10273061848E+03  0.79018771739E+02 0.  0.
        -24    2    1    2    0    0  0.58453929421E+02 -0.11065713424E+02  0.16357958041E+03  0.19238077145E+03  0.81931497103E+02 0.  0.
        -11    1    4    4    0    0  0.13557966630E+02  0.33363354976E+02  0.21986420617E+02  0.42194011494E+02  0.00000000000E+00 0.  1.
         12    1    4    4    0    0  0.83891666245E+01 -0.45866991221E+02  0.38607276322E+02  0.60536606985E+02  0.00000000000E+00 0. -1.
         13    1    5    5    0    0  0.34035398670E+02 -0.45802717582E+02  0.11089345284E+03  0.12471429422E+03  0.00000000000E+00 0. -1.
        -14    1    5    5    0    0  0.24418530752E+02  0.34737004157E+02  0.52686127565E+02  0.67666477222E+02  0.00000000000E+00 0.  1.
          5    1    3    3  501    0 -0.87590474536E+02  0.13532390863E+02  0.81594463790E+02  0.12054188381E+03  0.41800000000E+01 0.  1.
         -5    1    3    3    0  501  0.71894118608E+01  0.10036958807E+02 -0.34759789663E+02  0.37123356023E+02  0.41800000000E+01 0.  1.
</event>
<event>
11    1  0.2498402E-009  0.1803120E+03  0.7561462E-02  0.1069391E+00
         22   -1    0    0    0    0  0.00000000000E+00  0.00000000000E+00  0.74875692417E+02  0.74875692417E+02  0.00000000000E+00 0.  1.
         22   -1    0    0    0    0 -0.00000000000E+00 -0.00000000000E+00 -0.92543383970E+03  0.92543383970E+03  0.00000000000E+00 0.  1.
         25    2    1    2    0    0 -0.15026227504E+03  0.29628079477E+02 -0.64251723020E+03  0.67225921969E+03  0.12508993948E+03 0.  0.
        -24    2    1    2    0    0  0.66902414130E+02 -0.74135609316E+02 -0.11563900011E+03  0.17332547106E+03  0.81837149168E+02 0.  0.
         24    2    1    2    0    0  0.83359860915E+02  0.44507529839E+02 -0.92401916962E+02  0.15472484137E+03  0.80447968608E+02 0.  0.
        -11    1    5    5    0    0  0.76208196442E+02  0.66336196920E+02 -0.77624020625E+02  0.12741141552E+03  0.00000000000E+00 0.  1.
         12    1    5    5    0    0  0.71516644728E+01 -0.21828667081E+02 -0.14777896337E+02  0.27313425846E+02  0.00000000000E+00 0. -1.
         13    1    4    4    0    0  0.12374542061E+02 -0.54257664712E+01  0.12254619791E+02  0.18241270220E+02  0.00000000000E+00 0. -1.
        -14    1    4    4    0    0  0.54527872069E+02 -0.68709842845E+02 -0.12789361991E+03  0.15508420084E+03  0.00000000000E+00 0.  1.
          5    1    3    3  501    0  0.55822697843E+01 -0.29909101351E+02 -0.90594537186E+02  0.95658552402E+02  0.41800000000E+01 0. -1.
         -5    1    3    3    0  501 -0.15584454483E+03  0.59537180828E+02 -0.55192269302E+03  0.57660066729E+03  0.41800000000E+01 0. -1.
</event>
<event>
11    1  0.2498402E-009  0.1714064E+03  0.7561462E-02  0.1076814E+00
         22   -1    0    0    0    0  0.00000000000E+00  0.00000000000E+00  0.69588327623E+03  0.69588327623E+03  0.00000000000E+00 0.  1.
         22   -1    0    0    0    0 -0.00000000000E+00 -0.00000000000E+00 -0.22786797154E+03  0.22786797154E+03  0.00000000000E+00 0. -1.
         25    2    1    2    0    0  0.93615710515E+02  0.80025258565E+02  0.11110602083E+02  0.17589521641E+03  0.12509092059E+03 0.  0.
        -24    2    1    2    0    0 -0.69865103244E+02 -0.92242141919E+02 -0.10734239800E+03  0.17727200215E+03  0.80704565793E+02 0.  0.
         24    2    1    2    0    0 -0.23750607271E+02  0.12216883354E+02  0.56424710061E+03  0.57058402922E+03  0.80486025327E+02 0.  0.
        -11    1    5    5    0    0 -0.36454782992E+02  0.39390753555E+02  0.31518360704E+03  0.31972064183E+03  0.00000000000E+00 0.  1.
         12    1    5    5    0    0  0.12704175722E+02 -0.27173870201E+02  0.24906349357E+03  0.25086338739E+03  0.00000000000E+00 0. -1.
         11    1    4    4    0    0 -0.68864536387E+02 -0.36257929272E+02 -0.89276143180E+02  0.11843644518E+03  0.00000000000E+00 0. -1.
        -12    1    4    4    0    0 -0.10005668573E+01 -0.55984212647E+02 -0.18066254817E+02  0.58835556961E+02  0.00000000000E+00 0.  1.
          5    1    3    3  501    0  0.80389067250E+02 -0.10883553198E+01 -0.27398158689E+02  0.85039509348E+02  0.41800000000E+01 0. -1.
         -5    1    3    3    0  501  0.13226643265E+02  0.81113613885E+02  0.38508760772E+02  0.90855707062E+02  0.41800000000E+01 0. -1.
</event>
<event>
11    1  0.2498402E-009  0.1571159E+03  0.7561462E-02  0.1089822E+00
         22   -1    0    0    0    0  0.00000000000E+00  0.00000000000E+00  0.12398150941E+04  0.12398150941E+04  0.00000000000E+00 0. -1.
         22   -1    0    0    0    0 -0.00000000000E+00 -0.00000000000E+00 -0.16346802458E+03  0.16346802458E+03  0.00000000000E+00 0.  1.
         25    2    1    2    0    0  0.86850719710E+02  0.52537389126E+02 -0.71676868931E+02  0.17631865813E+03  0.12508985129E+03 0.  0.
         24    2    1    2    0    0 -0.26519856051E+01 -0.87684314441E+01  0.97039985947E+01  0.81772730885E+02  0.80676474328E+02 0.  0.
        -24    2    1    2    0    0 -0.84198734105E+02 -0.43768957682E+02  0.11383199399E+04  0.11451917297E+04  0.81772022981E+02 0.  0.
        -11    1    4    4    0    0 -0.12256168569E+02 -0.43055907115E+02 -0.37016179622E+00  0.44767865990E+02  0.00000000000E+00 0.  1.
         12    1    4    4    0    0  0.96041829643E+01  0.34287475671E+02  0.10074160391E+02  0.37004864895E+02  0.00000000000E+00 0. -1.
         13    1    5    5    0    0 -0.91342228421E+02 -0.58017769510E+02  0.10362732592E+04  0.10419077368E+04  0.00000000000E+00 0. -1.
        -14    1    5    5    0    0  0.71434943160E+01  0.14248811828E+02  0.10204668068E+03  0.10328399289E+03  0.00000000000E+00 0.  1.
          5    1    3    3  501    0  0.34156615846E+02  0.89086621351E+02 -0.31658608381E+02  0.10061232725E+03  0.41800000000E+01 0. -1.
         -5    1    3    3    0  501  0.52694103864E+02 -0.36549232225E+02 -0.40018260549E+02  0.75706330882E+02  0.41800000000E+01 0. -1.
</event>
<event>
11    1  0.2498402E-009  0.1627519E+03  0.7561462E-02  0.1084517E+00
         22   -1    0    0    0    0  0.00000000000E+00  0.00000000000E+00  0.34282361961E+03  0.34282361961E+03  0.00000000000E+00 0. -1.
         22   -1    0    0    0    0 -0.00000000000E+00 -0.00000000000E+00 -0.56960515602E+03  0.56960515602E+03  0.00000000000E+00 0. -1.
         25    2    1    2    0    0  0.12555314824E+03 -0.77821679468E+01 -0.31520114070E+03  0.36169519684E+03  0.12508997223E+03 0.  0.
        -24    2    1    2    0    0 -0.88224421926E+02 -0.23589661874E+02 -0.20813695234E+03  0.24058502218E+03  0.78867871756E+02 0.  0.
         24    2    1    2    0    0 -0.37328726318E+02  0.31371829821E+02  0.29655655663E+03  0.31014855660E+03  0.76607508577E+02 0.  0.
        -13    1    5    5    0    0 -0.31426720589E+02  0.39411219422E+02  0.88465190547E+02  0.10181833294E+03  0.00000000000E+00 0.  1.
         14    1    5    5    0    0 -0.59020057294E+01 -0.80393896007E+01  0.20809136608E+03  0.20833022367E+03  0.00000000000E+00 0. -1.
         11    1    4    4    0    0 -0.68287831187E+02  0.13460614880E+02 -0.17040152660E+03  0.18406818386E+03  0.00000000000E+00 0. -1.
        -12    1    4    4    0    0 -0.19936590739E+02 -0.37050276754E+02 -0.37735425740E+02  0.56516838319E+02  0.00000000000E+00 0.  1.
          5    1    3    3  501    0  0.88073954483E+02  0.44576535695E+02 -0.11636493587E+03  0.15265110446E+03  0.41800000000E+01 0. -1.
         -5    1    3    3    0  501  0.37479193761E+02 -0.52358703642E+02 -0.19883620482E+03  0.20904409238E+03  0.41800000000E+01 0. -1.
</event>
<event>
11    1  0.2498402E-009  0.2620900E+03  0.7561462E-02  0.1017649E+00
         22   -1    0    0    0    0  0.00000000000E+00  0.00000000000E+00  0.39915374727E+03  0.39915374727E+03  0.00000000000E+00 0. -1.
         22   -1    0    0    0    0 -0.00000000000E+00 -0.00000000000E+00 -0.17124451795E+04  0.17124451795E+04  0.00000000000E+00 0. -1.
         25    2    1    2    0    0  0.77410949138E+02 -0.11973789227E+02 -0.55309877085E+03  0.57244961608E+03  0.12507791955E+03 0.  0.
        -24    2    1    2    0    0 -0.23344460593E+03  0.20342318225E+03 -0.10803941828E+04  0.11267683525E+04  0.80485742327E+02 0.  0.
         24    2    1    2    0    0  0.15603365679E+03 -0.19144939302E+03  0.32020152146E+03  0.41238095820E+03  0.80806362394E+02 0.  0.
        -13    1    5    5    0    0  0.14935384849E+02  0.53423675365E+01  0.95956326903E+01  0.18538683292E+02  0.00000000000E+00 0.  1.
         14    1    5    5    0    0  0.14109827194E+03 -0.19679176056E+03  0.31060588877E+03  0.39384227491E+03  0.00000000000E+00 0. -1.
         11    1    4    4    0    0 -0.23058185543E+03  0.19737929341E+03 -0.10775827938E+04  0.11195138476E+04  0.00000000000E+00 0. -1.
        -12    1    4    4    0    0 -0.28627505030E+01  0.60438888366E+01 -0.28113890777E+01  0.72545048941E+01  0.00000000000E+00 0.  1.
          5    1    3    3  501    0  0.42200734930E+02  0.55414629799E+02 -0.22204786942E+03  0.23275397298E+03  0.41800000000E+01 0. -1.
         -5    1    3    3    0  501  0.35210214208E+02 -0.67388419026E+02 -0.33105090143E+03  0.33969564310E+03  0.41800000000E+01 0. -1.
</event>
<event>
11    1  0.2498402E-009  0.1549597E+03  0.7561462E-02  0.1091916E+00
         22   -1    0    0    0    0  0.00000000000E+00  0.00000000000E+00  0.62942583287E+03  0.62942583287E+03  0.00000000000E+00 0.  1.
         22   -1    0    0    0    0 -0.00000000000E+00 -0.00000000000E+00 -0.13590987554E+04  0.13590987554E+04  0.00000000000E+00 0.  1.
         25    2    1    2    0    0  0.34539102882E+02 -0.55976641557E+02 -0.66645277787E+03  0.68127249889E+03  0.12508628457E+03 0.  0.
         24    2    1    2    0    0  0.55797425606E+02  0.73825643002E+02 -0.67364245674E+03  0.68463635516E+03  0.79807274215E+02 0.  0.
        -24    2    1    2    0    0 -0.90336528488E+02 -0.17849001445E+02  0.61042231212E+03  0.62261573417E+03  0.80967141851E+02 0.  0.
        -13    1    4    4    0    0  0.87028949805E+01 -0.16022765798E+02 -0.16288900913E+03  0.16390637175E+03  0.00000000000E+00 0.  1.
         14    1    4    4    0    0  0.47094530625E+02  0.89848408800E+02 -0.51075344761E+03  0.52072998341E+03  0.00000000000E+00 0. -1.
         11    1    5    5    0    0 -0.18740651793E+02 -0.22411370363E+01  0.19394039839E+02  0.27062215470E+02  0.00000000000E+00 0. -1.
        -12    1    5    5    0    0 -0.71595876695E+02 -0.15607864409E+02  0.59102827228E+03  0.59555351870E+03  0.00000000000E+00 0.  1.
          5    1    3    3  501    0  0.40759187369E+01 -0.68740033366E+02 -0.62158758551E+03  0.62540419263E+03  0.41800000000E+01 0. -1.
         -5    1    3    3    0  501  0.30463184145E+02  0.12763391809E+02 -0.44865192358E+02  0.55868306257E+02  0.41800000000E+01 0. -1.
</event>
<event>
11    1  0.2498402E-009  0.2551426E+03  0.7561462E-02  0.1021195E+00
         22   -1    0    0    0    0  0.00000000000E+00  0.00000000000E+00  0.23557678273E+03  0.23557678273E+03  0.00000000000E+00 0. -1.
         22   -1    0    0    0    0 -0.00000000000E+00 -0.00000000000E+00 -0.48406278039E+03  0.48406278039E+03  0.00000000000E+00 0.  1.
         25    2    1    2    0    0 -0.65433047241E+02 -0.22059219656E+03 -0.30419252136E+03  0.40140078457E+03  0.12508836454E+03 0.  0.
        -24    2    1    2    0    0  0.90673315945E+02  0.18397445194E+03  0.23327154516E+02  0.22161536399E+03  0.80628557155E+02 0.  0.
         24    2    1    2    0    0 -0.25240268704E+02  0.36617744624E+02  0.32379369186E+02  0.96623414564E+02  0.79433810858E+02 0.  0.
        -13    1    5    5    0    0  0.11045292822E+02  0.22681128107E+02 -0.19437992546E+02  0.31847568509E+02  0.00000000000E+00 0.  1.
         14    1    5    5    0    0 -0.36285561526E+02  0.13936616517E+02  0.51817361732E+02  0.64775846055E+02  0.00000000000E+00 0. -1.
         13    1    4    4    0    0  0.46535601259E+02  0.20271441813E+02  0.29245437653E+01  0.50843352505E+02  0.00000000000E+00 0. -1.
        -14    1    4    4    0    0  0.44137714686E+02  0.16370301013E+03  0.20402610750E+02  0.17077201149E+03  0.00000000000E+00 0.  1.
          5    1    3    3  501    0 -0.79968899804E+02 -0.22106877767E+03 -0.30628168915E+03  0.38612481778E+03  0.41800000000E+01 0. -1.
         -5    1    3    3    0  501  0.14535852563E+02  0.47658110670E+00  0.20891677875E+01  0.15275966789E+02  0.41800000000E+01 0. -1.
</event>
<event>
11    1  0.2498402E-009  0.1775138E+03  0.7561462E-02  0.1071672E+00
         22   -1    0    0    0    0  0.00000000000E+00  0.00000000000E+00  0.47020298394E+03  0.47020298394E+03  0.00000000000E+00 0.  1.
         22   -1    0    0    0    0 -0.00000000000E+00 -0.00000000000E+00 -0.23818621567E+03  0.23818621567E+03  0.00000000000E+00 0.  1.
         25    2    1    2    0    0 -0.12534803753E+03 -0.47590620719E+02 -0.66522120419E+02  0.19505371956E+03  0.12507503075E+03 0.  0.
        -24    2    1    2    0    0  0.11930987405E+03  0.13654534840E+02 -0.39906189726E+02  0.16349543019E+03  0.10352274798E+03 0.  0.
         24    2    1    2    0    0  0.60381634805E+01  0.33936085879E+02  0.33844507842E+03  0.34984004986E+03  0.81577399076E+02 0.  0.
        -11    1    5    5    0    0 -0.29992517069E+02  0.36963114724E+02  0.24624501062E+03  0.25080356493E+03  0.00000000000E+00 0.  1.
         12    1    5    5    0    0  0.36030680549E+02 -0.30270288452E+01  0.92200067799E+02  0.99036484927E+02  0.00000000000E+00 0. -1.
         11    1    4    4    0    0  0.79082796835E+02 -0.34280887720E+02  0.52084356086E+01  0.86350424548E+02  0.00000000000E+00 0. -1.
        -12    1    4    4    0    0  0.40227077213E+02  0.47935422560E+02 -0.45114625334E+02  0.77145005646E+02  0.00000000000E+00 0.  1.
          5    1    3    3  501    0 -0.47406115228E+02  0.34267351373E+02 -0.56616934312E+02  0.81514052666E+02  0.41800000000E+01 0.  1.
         -5    1    3    3    0  501 -0.77941922300E+02 -0.81857972092E+02 -0.99051861064E+01  0.11353966690E+03  0.41800000000E+01 0.  1.
</event>
<event>
11    1  0.2498402E-009  0.2398296E+03  0.7561462E-02  0.1029461E+00
         22   -1    0    0    0    0  0.00000000000E+00  0.00000000000E+00  0.70787032629E+02  0.70787032629E+02  0.00000000000E+00 0. -1.
         22   -1    0    0    0    0 -0.00000000000E+00 -0.00000000000E+00 -0.15920561444E+04  0.15920561444E+04  0.00000000000E+00 0. -1.
         25    2    1    2    0    0 -0.12382955581E+03  0.16046754905E+03 -0.59134381753E+03  0.63750912108E+03  0.12508707263E+03 0.  0.
        -24    2    1    2    0    0  0.11845359772E+03 -0.16827844529E+03 -0.91951276198E+03  0.94558660315E+03  0.79255376089E+02 0.  0.
         24    2    1    2    0    0  0.53759580873E+01  0.78108962369E+01 -0.10412532240E+02  0.79747452783E+02  0.78494104061E+02 0.  0.
        -11    1    5    5    0    0 -0.32232086038E+02  0.11655741311E+02  0.11376609874E+02  0.36113583706E+02  0.00000000000E+00 0.  1.
         12    1    5    5    0    0  0.37608044125E+02 -0.38448450737E+01 -0.21789142114E+02  0.43633869077E+02  0.00000000000E+00 0. -1.
         11    1    4    4    0    0  0.82552660592E+02 -0.13650224243E+03 -0.54037866547E+03  0.56343314248E+03  0.00000000000E+00 0. -1.
        -12    1    4    4    0    0  0.35900937131E+02 -0.31776202864E+02 -0.37913409652E+03  0.38215346066E+03  0.00000000000E+00 0.  1.
          5    1    3    3  501    0 -0.53587402041E+02  0.54812191588E+02 -0.80939466585E+02  0.11155561687E+03  0.41800000000E+01 0. -1.
         -5    1    3    3    0  501 -0.70242153770E+02  0.10565535746E+03 -0.51040435095E+03  0.52595350421E+03  0.41800000000E+01 0. -1.
</event>
<event>
11    1  0.2498402E-009  0.1479145E+03  0.7561462E-02  0.1099029E+00
         22   -1    0    0    0    0  0.00000000000E+00  0.00000000000E+00  0.61721539507E+03  0.61721539507E+03  0.00000000000E+00 0. -1.
         22   -1    0    0    0    0 -0.00000000000E+00 -0.00000000000E+00 -0.29153451009E+03  0.29153451009E+03  0.00000000000E+00 0.  1.
         25    2    1    2    0    0  0.65447745067E+02  0.25896464419E+02 -0.14187208472E+03  0.20181535125E+03  0.12509082049E+03 0.  0.
         24    2    1    2    0    0 -0.40581376433E+02 -0.96737819586E+02 -0.76289365081E+02  0.15238384098E+03  0.79973207497E+02 0.  0.
        -24    2    1    2    0    0 -0.24866368634E+02  0.70841355167E+02  0.54384233478E+03  0.55455071293E+03  0.78263492302E+02 0.  0.
        -13    1    4    4    0    0 -0.60437167893E+02 -0.53079074121E+02 -0.64215642493E+02  0.10292564361E+03  0.00000000000E+00 0.  1.
         14    1    4    4    0    0  0.19855791460E+02 -0.43658745465E+02 -0.12073722589E+02  0.49458197371E+02  0.00000000000E+00 0. -1.
         13    1    5    5    0    0 -0.13960097139E+02  0.44650564097E+02  0.50091794436E+03  0.50309774813E+03  0.00000000000E+00 0. -1.
        -14    1    5    5    0    0 -0.10906271495E+02  0.26190791070E+02  0.42924390414E+02  0.51452964805E+02  0.00000000000E+00 0.  1.
          5    1    3    3  501    0 -0.31439236305E+02  0.30781944170E+02 -0.61688833721E+02  0.75887668776E+02  0.41800000000E+01 0. -1.
         -5    1    3    3    0  501  0.96886981371E+02 -0.48854797509E+01 -0.80183250997E+02  0.12592768247E+03  0.41800000000E+01 0. -1.
</event>
<event>
11    1  0.2498402E-009  0.1395667E+03  0.7561462E-02  0.1108043E+00
         22   -1    0    0    0    0  0.00000000000E+00  0.00000000000E+00  0.27161392930E+02  0.27161392930E+02  0.00000000000E+00 0.  1.
         22   -1    0    0    0    0 -0.00000000000E+00 -0.00000000000E+00 -0.17535297532E+04  0.17535297532E+04  0.00000000000E+00 0. -1.
         25    2    1    2    0    0  0.45618923138E+02 -0.16629829737E+02 -0.77286482417E+03  0.78442656626E+03  0.12508942414E+03 0.  0.
        -24    2    1    2    0    0 -0.52284825035E+02 -0.10109476306E+03 -0.57579384745E+03  0.59242010247E+03  0.80431144502E+02 0.  0.
         24    2    1    2    0    0  0.66659018968E+01  0.11772459280E+03 -0.37770968865E+03  0.40384447740E+03  0.80760380284E+02 0.  0.
        -13    1    5    5    0    0  0.15246754742E+02  0.40032517876E+02 -0.45213556182E+02  0.62284281165E+02  0.00000000000E+00 0.  1.
         14    1    5    5    0    0 -0.85808528457E+01  0.77692074925E+02 -0.33249613247E+03  0.34156019623E+03  0.00000000000E+00 0. -1.
         13    1    4    4    0    0 -0.60881213574E+02 -0.75108052656E+02 -0.53245170387E+03  0.54115853379E+03  0.00000000000E+00 0. -1.
        -14    1    4    4    0    0  0.85963885391E+01 -0.25986710408E+02 -0.43342143576E+02  0.51261568680E+02  0.00000000000E+00 0.  1.
          5    1    3    3  501    0  0.27676171299E+02  0.47444177252E+00 -0.29615594847E+02  0.40752317859E+02  0.41800000000E+01 0. -1.
         -5    1    3    3    0  501  0.17942751839E+02 -0.17104271509E+02 -0.74324922932E+03  0.74367424840E+03  0.41800000000E+01 0. -1.
</event>
<event>
11    1  0.2498402E-009  0.2627921E+03  0.7561462E-02  0.1017297E+00
         22   -1    0    0    0    0  0.00000000000E+00  0.00000000000E+00  0.27840445512E+03  0.27840445512E+03  0.00000000000E+00 0.  1.
         22   -1    0    0    0    0 -0.00000000000E+00 -0.00000000000E+00 -0.96265144603E+03  0.96265144603E+03  0.00000000000E+00 0. -1.
         25    2    1    2    0    0 -0.17235433780E+03  0.17323370955E+03 -0.68699875225E+03  0.73981634994E+03  0.12508001505E+03 0.  0.
         24    2    1    2    0    0 -0.38452700055E+02 -0.24751773965E+03  0.10083043721E+02  0.26250104104E+03  0.77855553403E+02 0.  0.
        -24    2    1    2    0    0  0.21080703785E+03  0.74284030097E+02 -0.73312823825E+01  0.23873851017E+03  0.83573944498E+02 0.  0.
        -11    1    4    4    0    0 -0.10771949019E+02 -0.13870634071E+03  0.42792372667E+02  0.14555641861E+03  0.00000000000E+00 0.  1.
         12    1    4    4    0    0 -0.27680751037E+02 -0.10881139894E+03 -0.32709328946E+02  0.11694462244E+03  0.00000000000E+00 0. -1.
         13    1    5    5    0    0  0.18658187078E+03  0.88254353208E+02 -0.21265945662E+02  0.20749425489E+03  0.00000000000E+00 0. -1.
        -14    1    5    5    0    0  0.24225167069E+02 -0.13970323111E+02  0.13934663279E+02  0.31244255281E+02  0.00000000000E+00 0.  1.
          5    1    3    3  501    0 -0.12362564676E+03  0.40985330169E+02 -0.27393485983E+03  0.30334943161E+03  0.41800000000E+01 0. -1.
         -5    1    3    3    0  501 -0.48728691037E+02  0.13224837938E+03 -0.41306389242E+03  0.43646691834E+03  0.41800000000E+01 0. -1.
</event>
<event>
11    1  0.2498402E-009  0.2156975E+03  0.7561462E-02  0.1043947E+00
         22   -1    0    0    0    0  0.00000000000E+00  0.00000000000E+00  0.30408422926E+03  0.30408422926E+03  0.00000000000E+00 0.  1.
         22   -1    0    0    0    0 -0.00000000000E+00 -0.00000000000E+00 -0.27008528316E+03  0.27008528316E+03  0.00000000000E+00 0. -1.
         25    2    1    2    0    0  0.89462612258E+02  0.77440946785E+02 -0.37718186751E+02  0.17626824493E+03  0.12508866187E+03 0.  0.
        -24    2    1    2    0    0 -0.11907120186E+03 -0.19597002884E+03  0.64104592626E+02  0.25104631195E+03  0.79577940602E+02 0.  0.
         24    2    1    2    0    0  0.29608589600E+02  0.11852908206E+03  0.76125402295E+01  0.14685495554E+03  0.81133318224E+02 0.  0.
        -13    1    5    5    0    0 -0.10639888620E+02  0.91548995873E+02  0.24797735841E+02  0.95442933621E+02  0.00000000000E+00 0.  1.
         14    1    5    5    0    0  0.40248478220E+02  0.26980086185E+02 -0.17185195611E+02  0.51412021919E+02  0.00000000000E+00 0. -1.
         13    1    4    4    0    0 -0.94913629838E+02 -0.19144162752E+03  0.41535849681E+02  0.21767802067E+03  0.00000000000E+00 0. -1.
        -14    1    4    4    0    0 -0.24157572020E+02 -0.45284013252E+01  0.22568742945E+02  0.33368291275E+02  0.00000000000E+00 0.  1.
          5    1    3    3  501    0  0.27953586105E+02 -0.31896381221E+02  0.66569917483E+01  0.43134325661E+02  0.41800000000E+01 0.  1.
         -5    1    3    3    0  501  0.61509026153E+02  0.10933732801E+03 -0.44375178499E+02  0.13313391927E+03  0.41800000000E+01 0.  1.
</event>
<event>
11    1  0.2498402E-009  0.1877722E+03  0.7561462E-02  0.1063524E+00
         22   -1    0    0    0    0  0.00000000000E+00  0.00000000000E+00  0.76491470958E+03  0.76491470958E+03  0.00000000000E+00 0.  1.
         22   -1    0    0    0    0 -0.00000000000E+00 -0.00000000000E+00 -0.12443802865E+03  0.12443802865E+03  0.00000000000E+00 0.  1.
         25    2    1    2    0    0 -0.68079795638E+02  0.22884607153E+02  0.67259885708E+01  0.14439997233E+03  0.12509016456E+03 0.  0.
        -24    2    1    2    0    0 -0.97374132625E+02  0.79903059294E+02  0.12958670344E+03  0.19880471385E+03  0.82851553691E+02 0.  0.
         24    2    1    2    0    0  0.16545392826E+03 -0.10278766645E+03  0.50416398892E+03  0.54614805205E+03  0.78460565169E+02 0.  0.
        -13    1    5    5    0    0  0.10155180160E+03 -0.64860533844E+02  0.20406410784E+03  0.23698484628E+03  0.00000000000E+00 0.  1.
         14    1    5    5    0    0  0.63902126667E+02 -0.37927132604E+02  0.30009988108E+03  0.30916320577E+03  0.00000000000E+00 0. -1.
         11    1    4    4    0    0 -0.20212910571E+02  0.58597668035E+02  0.90578340139E+02  0.10975738770E+03  0.00000000000E+00 0. -1.
        -12    1    4    4    0    0 -0.77161222054E+02  0.21305391259E+02  0.39008363303E+02  0.89047326143E+02  0.00000000000E+00 0.  1.
          5    1    3    3  501    0 -0.91565084091E+01  0.27845349952E+02 -0.52709202516E+02  0.60456079843E+02  0.41800000000E+01 0.  1.
         -5    1    3    3    0  501 -0.58923287229E+02 -0.49607427985E+01  0.59435191087E+02  0.83943892490E+02  0.41800000000E+01 0.  1.
</event>
<event>
11    1  0.2498402E-009  0.1860694E+03  0.7561462E-02  0.1064836E+00
         22   -1    0    0    0    0  0.00000000000E+00  0.00000000000E+00  0.62094808499E+03  0.62094808499E+03  0.00000000000E+00 0. -1.
         22   -1    0    0    0    0 -0.00000000000E+00 -0.00000000000E+00 -0.16003862552E+03  0.16003862552E+03  0.00000000000E+00 0. -1.
         25    2    1    2    0    0 -0.32892519284E+02  0.12339513824E+03 -0.42401928592E+02  0.18371872193E+03  0.12508543989E+03 0.  0.
        -24    2    1    2    0    0  0.31842638155E+02 -0.19304693826E+03  0.37419503918E+03  0.43001603087E+03  0.81306736972E+02 0.  0.
         24    2    1    2    0    0  0.10498811297E+01  0.69651800024E+02  0.12911634888E+03  0.16725195772E+03  0.80310088510E+02 0.  0.
        -13    1    5    5    0    0  0.18369578088E+02  0.22535186289E+02  0.38169783772E+00  0.29076136494E+02  0.00000000000E+00 0.  1.
         14    1    5    5    0    0 -0.17319696958E+02  0.47116613736E+02  0.12873465105E+03  0.13817582123E+03  0.00000000000E+00 0. -1.
         13    1    4    4    0    0  0.39607017280E+02 -0.14692009898E+03  0.21030307486E+03  0.25957968834E+03  0.00000000000E+00 0. -1.
        -14    1    4    4    0    0 -0.77643791250E+01 -0.46126839281E+02  0.16389196432E+03  0.17043634253E+03  0.00000000000E+00 0.  1.
          5    1    3    3  501    0 -0.69621743563E+02  0.94005720505E+02  0.45259937770E+01  0.11714187844E+03  0.41800000000E+01 0. -1.
         -5    1    3    3    0  501  0.36729224279E+02  0.29389417732E+02 -0.46927922369E+02  0.66576843486E+02  0.41800000000E+01 0. -1.
</event>
<event>
11    1  0.2498402E-009  0.1551284E+03  0.7561462E-02  0.1091751E+00
         22   -1    0    0    0    0  0.00000000000E+00  0.00000000000E+00  0.37569025856E+03  0.37569025856E+03  0.00000000000E+00 0. -1.
         22   -1    0    0    0    0 -0.00000000000E+00 -0.00000000000E+00 -0.10558047008E+03  0.10558047008E+03  0.00000000000E+00 0. -1.
         25    2    1    2    0    0 -0.88265967523E+02 -0.25942756445E+02  0.84855241352E+02  0.17690886045E+03  0.12502969762E+03 0.  0.
         24    2    1    2    0    0  0.93288707415E+02 -0.37731694151E+02  0.51588831470E+02  0.13863413316E+03  0.80196955490E+02 0.  0.
        -24    2    1    2    0    0 -0.50227398921E+01  0.63674450596E+02  0.13366571566E+03  0.16572773503E+03  0.74293304129E+02 0.  0.
        -13    1    4    4    0    0 -0.33558663356E+01  0.10806891042E+02  0.24735960350E+02  0.27201442376E+02  0.00000000000E+00 0.  1.
         14    1    4    4    0    0  0.96644573751E+02 -0.48538585193E+02  0.26852871119E+02  0.11143269078E+03  0.00000000000E+00 0. -1.
         11    1    5    5    0    0 -0.33021325534E+02  0.14266769875E+02  0.79451462475E+02  0.87215156665E+02  0.00000000000E+00 0. -1.
        -12    1    5    5    0    0  0.27998585642E+02  0.49407680720E+02  0.54214253189E+02  0.78512578362E+02  0.00000000000E+00 0.  1.
          5    1    3    3  501    0 -0.58519873874E+02 -0.75157939027E+01  0.11578664938E+03  0.13001954996E+03  0.41800000000E+01 0.  1.
         -5    1    3    3    0  501 -0.29746093649E+02 -0.18426962542E+02 -0.30931408031E+02  0.46889310495E+02  0.41800000000E+01 0.  1.
</event>
<event>
11    1  0.2498402E-009  0.9551735E+03  0.7561462E-02  0.8722859E-01
         22   -1    0    0    0    0  0.00000000000E+00  0.00000000000E+00  0.16665717893E+03  0.16665717893E+03  0.00000000000E+00 0. -1.
         22   -1    0    0    0    0 -0.00000000000E+00 -0.00000000000E+00 -0.13686124161E+04  0.13686124161E+04  0.00000000000E+00 0. -1.
         25    2    1    2    0    0 -0.19839031626E+03  0.25769574099E+03 -0.10705241573E+04  0.11258043904E+04  0.12509093398E+03 0.  0.
        -24    2    1    2    0    0  0.16445411491E+03 -0.21978203860E+03 -0.75961012462E+02  0.29605663877E+03  0.80809390215E+02 0.  0.
         24    2    1    2    0    0  0.33936201352E+02 -0.37913702395E+02 -0.55470067482E+02  0.11340856585E+03  0.84826056312E+02 0.  0.
        -11    1    5    5    0    0 -0.12199580829E+02 -0.49167646600E+02 -0.21559438002E+02  0.55055395845E+02  0.00000000000E+00 0.  1.
         12    1    5    5    0    0  0.46135782181E+02  0.11253944206E+02 -0.33910629480E+02  0.58353170003E+02  0.00000000000E+00 0. -1.
         11    1    4    4    0    0  0.12895421104E+03 -0.11377271329E+03 -0.64531991938E+02  0.18367851485E+03  0.00000000000E+00 0. -1.
        -12    1    4    4    0    0  0.35499903875E+02 -0.10600932530E+03 -0.11429020524E+02  0.11237812392E+03  0.00000000000E+00 0.  1.
          5    1    3    3  501    0 -0.56531172480E+02  0.14885434697E+03 -0.37038487718E+03  0.40318211731E+03  0.41800000000E+01 0. -1.
         -5    1    3    3    0  501 -0.14185914378E+03  0.10884139402E+03 -0.70013928008E+03  0.72262227314E+03  0.41800000000E+01 0. -1.
</event>
<event>
11    1  0.2498402E-009  0.3482111E+03  0.7561462E-02  0.9816279E-01
         22   -1    0    0    0    0  0.00000000000E+00  0.00000000000E+00  0.12767724938E+04  0.12767724938E+04  0.00000000000E+00 0.  1.
         22   -1    0    0    0    0 -0.00000000000E+00 -0.00000000000E+00 -0.25755631873E+03  0.25755631873E+03  0.00000000000E+00 0. -1.
         25    2    1    2    0    0 -0.13769849088E+03 -0.67847556391E+02 -0.53926554044E+02  0.20523202587E+03  0.12509174998E+03 0.  0.
        -24    2    1    2    0    0 -0.24049098375E+03  0.47767109318E+02  0.91776258605E+02  0.27412787772E+03  0.81274852835E+02 0.  0.
         24    2    1    2    0    0  0.37818947462E+03  0.20080447072E+02  0.98136647048E+03  0.10549689089E+04  0.80304086535E+02 0.  0.
        -13    1    5    5    0    0  0.20625228264E+03 -0.29083637240E+02  0.53357399136E+03  0.57278884967E+03  0.00000000000E+00 0.  1.
         14    1    5    5    0    0  0.17193719198E+03  0.49164084312E+02  0.44779247911E+03  0.48218005923E+03  0.00000000000E+00 0. -1.
         11    1    4    4    0    0 -0.19791480939E+03  0.81037801131E+01  0.84993056208E+02  0.21554526818E+03  0.00000000000E+00 0. -1.
        -12    1    4    4    0    0 -0.42576174355E+02  0.39663329205E+02  0.67832023967E+01  0.58582609545E+02  0.00000000000E+00 0.  1.
          5    1    3    3  501    0 -0.12119549571E+03 -0.10246372986E+03 -0.50048511232E+02  0.16646167726E+03  0.41800000000E+01 0.  1.
         -5    1    3    3    0  501 -0.16502995163E+02  0.34616173473E+02 -0.38780428110E+01  0.38770348610E+02  0.41800000000E+01 0.  1.
</event>
<event>
11    1  0.2498402E-009  0.1886933E+03  0.7561462E-02  0.1062820E+00
         22   -1    0    0    0    0  0.00000000000E+00  0.00000000000E+00  0.19936843933E+03  0.19936843933E+03  0.00000000000E+00 0.  1.
         22   -1    0    0    0    0 -0.00000000000E+00 -0.00000000000E+00 -0.27899330860E+03  0.27899330860E+03  0.00000000000E+00 0. -1.
         25    2    1    2    0    0  0.31550867788E+02  0.12959679019E+03 -0.10449723760E+03  0.21061300548E+03  0.12508948847E+03 0.  0.
        -24    2    1    2    0    0 -0.67741725750E+02 -0.14246685309E+03  0.16437783951E+02  0.17812727006E+03  0.81076371171E+02 0.  0.
         24    2    1    2    0    0  0.36190857963E+02  0.12870062900E+02  0.84345843705E+01  0.89621472391E+02  0.80532287816E+02 0.  0.
        -13    1    5    5    0    0  0.54002834956E+02 -0.27123555856E+01  0.26147182086E+02  0.60061120429E+02  0.00000000000E+00 0.  1.
         14    1    5    5    0    0 -0.17811976993E+02  0.15582418486E+02 -0.17712597716E+02  0.29560351962E+02  0.00000000000E+00 0. -1.
         13    1    4    4    0    0  0.56016229472E+01 -0.78801211199E+02 -0.30971923392E+01  0.79060746685E+02  0.00000000000E+00 0. -1.
        -14    1    4    4    0    0 -0.73343348698E+02 -0.63665641888E+02  0.19534976290E+02  0.99066523376E+02  0.00000000000E+00 0.  1.
          5    1    3    3  501    0  0.70740266182E+02  0.46125203664E+02 -0.23375128875E+02  0.87724504686E+02  0.41800000000E+01 0.  1.
         -5    1    3    3    0  501 -0.39189398395E+02  0.83471586523E+02 -0.81122108723E+02  0.12288850079E+03  0.41800000000E+01 0.  1.
</event>
<event>
11    1  0.2498402E-009  0.1615213E+03  0.7561462E-02  0.1085655E+00
         22   -1    0    0    0    0  0.00000000000E+00  0.00000000000E+00  0.10095625553E+04  0.10095625553E+04  0.00000000000E+00 0.  1.
         22   -1    0    0    0    0 -0.00000000000E+00 -0.00000000000E+00 -0.54194028381E+02  0.54194028381E+02  0.00000000000E+00 0.  1.
         25    2    1    2    0    0 -0.30214551649E+02 -0.57208672509E+02  0.23997276331E+03  0.27824560958E+03  0.12509172944E+03 0.  0.
         24    2    1    2    0    0  0.13564594356E+03  0.76195649300E+02  0.28612919280E+03  0.33561708761E+03  0.81014292240E+02 0.  0.
        -24    2    1    2    0    0 -0.10543139191E+03 -0.18986976790E+02  0.42926657075E+03  0.44989388645E+03  0.81599243911E+02 0.  0.
        -13    1    4    4    0    0  0.14146380905E+03  0.64529566390E+02  0.22751426057E+03  0.27556997836E+03  0.00000000000E+00 0.  1.
         14    1    4    4    0    0 -0.58178654894E+01  0.11666082909E+02  0.58614932233E+02  0.60047109255E+02  0.00000000000E+00 0. -1.
         13    1    5    5    0    0 -0.82394083970E+02  0.26321573036E+01  0.17244089521E+03  0.19113235117E+03  0.00000000000E+00 0. -1.
        -14    1    5    5    0    0 -0.23037307938E+02 -0.21619134094E+02  0.25682567555E+03  0.25876153527E+03  0.00000000000E+00 0.  1.
          5    1    3    3  501    0  0.39572166946E+02 -0.12197134859E+02  0.15029707940E+03  0.15595323328E+03  0.41800000000E+01 0. -1.
         -5    1    3    3    0  501 -0.69786718595E+02 -0.45011537651E+02  0.89675683917E+02  0.12229237629E+03  0.41800000000E+01 0. -1.
</event>
<event>
11    1  0.2498402E-009  0.1274667E+03  0.7561462E-02  0.1122421E+00
         22   -1    0    0    0    0  0.00000000000E+00  0.00000000000E+00  0.22721663195E+03  0.22721663195E+03  0.00000000000E+00 0.  1.
         22   -1    0    0    0    0 -0.00000000000E+00 -0.00000000000E+00 -0.16515355350E+03  0.16515355350E+03  0.00000000000E+00 0.  1.
         25    2    1    2    0    0  0.74694478344E+01  0.14165433818E+02 -0.72478568889E+02  0.14546379198E+03  0.12510043830E+03 0.  0.
         24    2    1    2    0    0 -0.58375630425E+02  0.22904465982E+02  0.38165698976E+02  0.10860790638E+03  0.80042038706E+02 0.  0.
        -24    2    1    2    0    0  0.50906182591E+02 -0.37069899800E+02  0.96375948366E+02  0.13829848709E+03  0.76632442289E+02 0.  0.
        -13    1    4    4    0    0 -0.35697244828E+02  0.13491536534E+02 -0.21701667975E+02  0.43900765816E+02  0.00000000000E+00 0.  1.
         14    1    4    4    0    0 -0.22678385598E+02  0.94129294478E+01  0.59867366952E+02  0.64707140563E+02  0.00000000000E+00 0. -1.
         11    1    5    5    0    0  0.31723829454E+02  0.97425841816E+01  0.77491425620E+02  0.84298519242E+02  0.00000000000E+00 0. -1.
        -12    1    5    5    0    0  0.19182353137E+02 -0.46812483981E+02  0.18884522745E+02  0.53999967849E+02  0.00000000000E+00 0.  1.
          5    1    3    3  501    0  0.61034237916E+02 -0.51749741630E+01 -0.12510189705E+02  0.62657288499E+02  0.41800000000E+01 0. -1.
         -5    1    3    3    0  501 -0.53564790082E+02  0.19340407981E+02 -0.59968379184E+02  0.82806503485E+02  0.41800000000E+01 0. -1.
</event>
<event>
11    1  0.2498402E-009  0.1731319E+03  0.7561462E-02  0.1075338E+00
         22   -1    0    0    0    0  0.00000000000E+00  0.00000000000E+00  0.77928079702E+02  0.77928079702E+02  0.00000000000E+00 0. -1.
         22   -1    0    0    0    0 -0.00000000000E+00 -0.00000000000E+00 -0.10958570693E+04  0.10958570693E+04  0.00000000000E+00 0.  1.
         25    2    1    2    0    0 -0.95195519782E+02  0.54943163041E+02 -0.58100897135E+03  0.60440022538E+03  0.12508904630E+03 0.  0.
         24    2    1    2    0    0  0.10827289151E+03 -0.72379080012E+02 -0.45864931200E+03  0.48353064852E+03  0.80504325354E+02 0.  0.
        -24    2    1    2    0    0 -0.13077371723E+02  0.17435916971E+02  0.21729293795E+02  0.85854275057E+02  0.80148396646E+02 0.  0.
        -13    1    4    4    0    0  0.86974241349E+02 -0.90225776798E+02 -0.37438406150E+03  0.39480201996E+03  0.00000000000E+00 0.  1.
         14    1    4    4    0    0  0.21298650156E+02  0.17846696785E+02 -0.84265250499E+02  0.88728628560E+02  0.00000000000E+00 0. -1.
         13    1    5    5    0    0 -0.11861565105E+02  0.31033196059E+02  0.46749447416E+02  0.57352130022E+02  0.00000000000E+00 0. -1.
        -14    1    5    5    0    0 -0.12158066180E+01 -0.13597279088E+02 -0.25020153621E+02  0.28502145035E+02  0.00000000000E+00 0.  1.
          5    1    3    3  501    0  0.14769430573E+01 -0.30992622102E+02 -0.18916930515E+03  0.19174259411E+03  0.41800000000E+01 0.  1.
         -5    1    3    3    0  501 -0.96672462839E+02  0.85935785143E+02 -0.39183966619E+03  0.41265763127E+03  0.41800000000E+01 0.  1.
</event>
<event>
11    1  0.2498402E-009  0.2459265E+03  0.7561462E-02  0.1026092E+00
         22   -1    0    0    0    0  0.00000000000E+00  0.00000000000E+00  0.31029224428E+04  0.31029224428E+04  0.00000000000E+00 0. -1.
         22   -1    0    0    0    0 -0.00000000000E+00 -0.00000000000E+00 -0.11603722728E+03  0.11603722728E+03  0.00000000000E+00 0.  1.
         25    2    1    2    0    0  0.68158975096E+02  0.25334720590E+03  0.20390464142E+03  0.35504331272E+03  0.12509275954E+03 0.  0.
        -24    2    1    2    0    0  0.46573991443E+02 -0.17275161945E+03  0.22168660633E+03  0.29734870364E+03  0.85200008398E+02 0.  0.
         24    2    1    2    0    0 -0.11473296654E+03 -0.80595586449E+02  0.25612939678E+04  0.25665676537E+04  0.85926885197E+02 0.  0.
        -11    1    5    5    0    0 -0.11460979556E+02 -0.54755299876E+02  0.10843557635E+04  0.10857978260E+04  0.00000000000E+00 0.  1.
         12    1    5    5    0    0 -0.10327198698E+03 -0.25840286573E+02  0.14769382043E+04  0.14807698278E+04  0.00000000000E+00 0. -1.
         13    1    4    4    0    0  0.12965745954E+02 -0.47369243679E+02  0.12847097101E+03  0.13753816273E+03  0.00000000000E+00 0. -1.
        -14    1    4    4    0    0  0.33608245489E+02 -0.12538237577E+03  0.93215635315E+02  0.15981054091E+03  0.00000000000E+00 0.  1.
          5    1    3    3  501    0  0.91438674987E+02  0.10476181750E+03  0.11326038612E+03  0.17939190938E+03  0.41800000000E+01 0.  1.
         -5    1    3    3    0  501 -0.23279699891E+02  0.14858538840E+03  0.90644255299E+02  0.17565140333E+03  0.41800000000E+01 0.  1.
</event>
<event>
11    1  0.2498402E-009  0.1519551E+03  0.7561462E-02  0.1094898E+00
         22   -1    0    0    0    0  0.00000000000E+00  0.00000000000E+00  0.32385971564E+03  0.32385971564E+03  0.00000000000E+00 0. -1.
         22   -1    0    0    0    0 -0.00000000000E+00 -0.00000000000E+00 -0.27443505446E+03  0.27443505446E+03  0.00000000000E+00 0.  1.
         25    2    1    2    0    0 -0.19356164967E+02 -0.16491323965E+02 -0.93507456787E+02  0.15823416934E+03  0.12509109874E+03 0.  0.
        -24    2    1    2    0    0  0.58255813607E+02 -0.70584685085E+02 -0.10804102361E+03  0.15999875341E+03  0.74503696034E+02 0.  0.
         24    2    1    2    0    0 -0.38899648640E+02  0.87076009050E+02  0.25097314157E+03  0.28006184734E+03  0.79697594233E+02 0.  0.
        -13    1    5    5    0    0  0.95483243510E+01 -0.87586016946E+01  0.10416153650E+02  0.16624676190E+02  0.00000000000E+00 0.  1.
         14    1    5    5    0    0 -0.48447972991E+02  0.95834610744E+02  0.24055698792E+03  0.26343717115E+03  0.00000000000E+00 0. -1.
         11    1    4    4    0    0  0.68907627786E+02 -0.74347692579E+02 -0.78005420704E+02  0.12790889812E+03  0.00000000000E+00 0. -1.
        -12    1    4    4    0    0 -0.10651814179E+02  0.37630074948E+01 -0.30035602903E+02  0.32089855289E+02  0.00000000000E+00 0.  1.
          5    1    3    3  501    0 -0.36732753175E+02 -0.65324667466E+02 -0.47700673124E+02  0.88934998464E+02  0.41800000000E+01 0. -1.
         -5    1    3    3    0  501  0.17376588208E+02  0.48833343501E+02 -0.45806783663E+02  0.69299170881E+02  0.41800000000E+01 0. -1.
</event>
<event>
11    1  0.2498402E-009  0.2872986E+03  0.7561462E-02  0.1005715E+00
         22   -1    0    0    0    0  0.00000000000E+00  0.00000000000E+00  0.45713386566E+03  0.45713386566E+03  0.00000000000E+00 0.  1.
         22   -1    0    0    0    0 -0.00000000000E+00 -0.00000000000E+00 -0.45070479101E+03  0.45070479101E+03  0.00000000000E+00 0. -1.
         25    2    1    2    0    0 -0.20369274350E+02 -0.24786251512E+03 -0.26399884518E+03  0.38365223856E+03  0.12507164407E+03 0.  0.
         24    2    1    2    0    0 -0.79436561680E+01  0.31580911337E+03  0.25621413285E+03  0.41480105906E+03  0.81337192984E+02 0.  0.
        -24    2    1    2    0    0  0.28312930518E+02 -0.67946598247E+02  0.14213786988E+02  0.10938535905E+03  0.79654019276E+02 0.  0.
        -11    1    4    4    0    0  0.87494889667E+01  0.24963890971E+03  0.15927860976E+03  0.29625295666E+03  0.00000000000E+00 0.  1.
         12    1    4    4    0    0 -0.16693145135E+02  0.66170203656E+02  0.96935523089E+02  0.11854810240E+03  0.00000000000E+00 0. -1.
         13    1    5    5    0    0 -0.20461444335E+02 -0.52442458652E+02  0.14788206108E+02  0.58202862590E+02  0.00000000000E+00 0. -1.
        -14    1    5    5    0    0  0.48774374853E+02 -0.15504139594E+02 -0.57441911983E+00  0.51182496463E+02  0.00000000000E+00 0.  1.
          5    1    3    3  501    0 -0.79378748520E+01 -0.20613623603E+03 -0.26966640366E+03  0.33954763925E+03  0.41800000000E+01 0. -1.
         -5    1    3    3    0  501 -0.12431399498E+02 -0.41726279097E+02  0.56675584730E+01  0.44104599304E+02  0.41800000000E+01 0. -1.
</event>
<event>
11    1  0.2498402E-009  0.4901270E+03  0.7561462E-02  0.9415857E-01
         22   -1    0    0    0    0  0.00000000000E+00  0.00000000000E+00  0.71886391748E+03  0.71886391748E+03  0.00000000000E+00 0.  1.
         22   -1    0    0    0    0 -0.00000000000E+00 -0.00000000000E+00 -0.75818440776E+03  0.75818440776E+03  0.00000000000E+00 0.  1.
         25    2    1    2    0    0  0.25404869919E+03  0.42718975660E+03 -0.48740880101E+03  0.70728074386E+03  0.12508749590E+03 0.  0.
         24    2    1    2    0    0 -0.28629909767E+03 -0.37324173419E+03  0.45509008667E+03  0.66171442180E+03  0.97377736503E+02 0.  0.
        -24    2    1    2    0    0  0.32250398483E+02 -0.53948022411E+02 -0.70017759471E+01  0.10805315959E+03  0.87612688042E+02 0.  0.
        -11    1    4    4    0    0 -0.77065059090E+02 -0.72146614893E+02  0.55025064741E+02  0.11904585303E+03  0.00000000000E+00 0.  1.
         12    1    4    4    0    0 -0.20923403858E+03 -0.30109511930E+03  0.40006502193E+03  0.54266856878E+03  0.00000000000E+00 0. -1.
         13    1    5    5    0    0  0.39427853794E+02 -0.14120889533E+02  0.31337833641E+02  0.52306930644E+02  0.00000000000E+00 0. -1.
        -14    1    5    5    0    0 -0.71774553114E+01 -0.39827132878E+02 -0.38339609588E+02  0.55746228944E+02  0.00000000000E+00 0.  1.
          5    1    3    3  501    0  0.11323076270E+02  0.67503148147E+01  0.59962444739E+01  0.15073359085E+02  0.41800000000E+01 0.  1.
         -5    1    3    3    0  501  0.24272562292E+03  0.42043944178E+03 -0.49340504548E+03  0.69220738477E+03  0.41800000000E+01 0.  1.
</event>
<event>
11    1  0.2498402E-009  0.2308451E+03  0.7561462E-02  0.1034629E+00
         22   -1    0    0    0    0  0.00000000000E+00  0.00000000000E+00  0.45616512977E+02  0.45616512977E+02  0.00000000000E+00 0. -1.
         22   -1    0    0    0    0 -0.00000000000E+00 -0.00000000000E+00 -0.25549075049E+04  0.25549075049E+04  0.00000000000E+00 0.  1.
         25    2    1    2    0    0 -0.12892333078E+03 -0.14001903649E+03 -0.10379039127E+04  0.10625998675E+04  0.12508953071E+03 0.  0.
        -24    2    1    2    0    0  0.21684922623E+03  0.32651507052E+02 -0.12040274105E+04  0.12264414175E+04  0.79917691681E+02 0.  0.
         24    2    1    2    0    0 -0.87925895452E+02  0.10736752944E+03 -0.26735966870E+03  0.31148273284E+03  0.79256235968E+02 0.  0.
        -11    1    5    5    0    0  0.10217007718E+02  0.18533847822E+02 -0.75335216580E+02  0.78251425667E+02  0.00000000000E+00 0.  1.
         12    1    5    5    0    0 -0.98142903171E+02  0.88833681617E+02 -0.19202445212E+03  0.23323130717E+03  0.00000000000E+00 0. -1.
         11    1    4    4    0    0  0.16959423270E+03  0.18137632414E+02 -0.72139411105E+03  0.74128310444E+03  0.00000000000E+00 0. -1.
        -12    1    4    4    0    0  0.47254993533E+02  0.14513874638E+02 -0.48263329946E+03  0.48515831304E+03  0.00000000000E+00 0.  1.
          5    1    3    3  501    0 -0.12721728790E+03 -0.16093232473E+03 -0.90367545727E+03  0.92667699657E+03  0.41800000000E+01 0. -1.
         -5    1    3    3    0  501 -0.17060428766E+01  0.20913288237E+02 -0.13422845541E+03  0.13592287096E+03  0.41800000000E+01 0. -1.
</event>
<event>
11    1  0.2498402E-009  0.3572192E+03  0.7561462E-02  0.9785167E-01
         22   -1    0    0    0    0  0.00000000000E+00  0.00000000000E+00  0.38435641568E+03  0.38435641568E+03  0.00000000000E+00 0.  1.
         22   -1    0    0    0    0 -0.00000000000E+00 -0.00000000000E+00 -0.28392044359E+03  0.28392044359E+03  0.00000000000E+00 0.  1.
         25    2    1    2    0    0  0.92813680324E+02 -0.24813675143E+02 -0.39675692789E+02  0.16262727875E+03  0.12507347227E+03 0.  0.
        -24    2    1    2    0    0 -0.26913959896E+03 -0.17257601492E+02  0.14026775744E+03  0.30884377355E+03  0.54547998539E+02 0.  0.
         24    2    1    2    0    0  0.17632591863E+03  0.42071276635E+02 -0.15609256392E+00  0.19680580698E+03  0.76626884292E+02 0.  0.
        -11    1    5    5    0    0  0.82514414025E+02  0.57716433690E+02  0.98325889325E+01  0.10117556545E+03  0.00000000000E+00 0.  1.
         12    1    5    5    0    0  0.93811504608E+02 -0.15645157055E+02 -0.99886814965E+01  0.95630241525E+02  0.00000000000E+00 0. -1.
         13    1    4    4    0    0 -0.14884893617E+02 -0.12867475177E+02  0.18069907504E+02  0.26714294537E+02  0.00000000000E+00 0. -1.
        -14    1    4    4    0    0 -0.25425470534E+03 -0.43901263156E+01  0.12219784994E+03  0.28212947901E+03  0.00000000000E+00 0.  1.
          5    1    3    3  501    0  0.24733392818E+02  0.50244683250E+02 -0.10934451601E+02  0.57212791813E+02  0.41800000000E+01 0. -1.
         -5    1    3    3    0  501  0.68080287506E+02 -0.75058358393E+02 -0.28741241188E+02  0.10541448694E+03  0.41800000000E+01 0. -1.
</event>
<event>
11    1  0.2498402E-009  0.2361761E+03  0.7561462E-02  0.1031532E+00
         22   -1    0    0    0    0  0.00000000000E+00  0.00000000000E+00  0.50967135068E+03  0.50967135068E+03  0.00000000000E+00 0.  1.
         22   -1    0    0    0    0 -0.00000000000E+00 -0.00000000000E+00 -0.28975462022E+03  0.28975462022E+03  0.00000000000E+00 0.  1.
         25    2    1    2    0    0  0.75565197176E+01 -0.25300190023E+03 -0.10545622421E+03  0.30138874783E+03  0.12508836711E+03 0.  0.
        -24    2    1    2    0    0  0.30155488949E+02  0.63852551787E+02 -0.28354919947E+01  0.10895254355E+03  0.82922342275E+02 0.  0.
         24    2    1    2    0    0 -0.37712008666E+02  0.18914934845E+03  0.32820844666E+03  0.38908467951E+03  0.80414126585E+02 0.  0.
        -11    1    5    5    0    0  0.67005982849E+01  0.14313442610E+03  0.20284558170E+03  0.24835195181E+03  0.00000000000E+00 0.  1.
         12    1    5    5    0    0 -0.44412606951E+02  0.46014922345E+02  0.12536286496E+03  0.14073272770E+03  0.00000000000E+00 0. -1.
         13    1    4    4    0    0 -0.11370540118E+02  0.57277337633E+02 -0.22446179986E+02  0.62560479417E+02  0.00000000000E+00 0. -1.
        -14    1    4    4    0    0  0.41526029067E+02  0.65752141533E+01  0.19610687991E+02  0.46392064135E+02  0.00000000000E+00 0.  1.
          5    1    3    3  501    0 -0.15057758535E+02 -0.22082907449E+03 -0.12814593982E+03  0.25579497752E+03  0.41800000000E+01 0.  1.
         -5    1    3    3    0  501  0.22614278252E+02 -0.32172825738E+02  0.22689715608E+02  0.45593770311E+02  0.41800000000E+01 0.  1.
</event>
<event>
11    1  0.2498402E-009  0.1917913E+03  0.7561462E-02  0.1060485E+00
         22   -1    0    0    0    0  0.00000000000E+00  0.00000000000E+00  0.20614046891E+03  0.20614046891E+03  0.00000000000E+00 0.  1.
         22   -1    0    0    0    0 -0.00000000000E+00 -0.00000000000E+00 -0.91455626063E+03  0.91455626063E+03  0.00000000000E+00 0.  1.
         25    2    1    2    0    0  0.34947769432E+02  0.38257038424E+02 -0.65509909225E+03  0.66894509339E+03  0.12509104576E+03 0.  0.
         24    2    1    2    0    0 -0.17153678707E+03 -0.12506799282E+03 -0.12329163477E+03  0.25834498705E+03  0.80463861352E+02 0.  0.
        -24    2    1    2    0    0  0.13658901764E+03  0.86810954396E+02  0.69974935294E+02  0.19340664910E+03  0.79479172142E+02 0.  0.
        -13    1    4    4    0    0 -0.15799956638E+03 -0.74535108959E+02 -0.96105686066E+02  0.19938818505E+03  0.00000000000E+00 0.  1.
         14    1    4    4    0    0 -0.13537220695E+02 -0.50532883861E+02 -0.27185948699E+02  0.58956802001E+02  0.00000000000E+00 0. -1.
         13    1    5    5    0    0  0.27276583497E+02  0.50314384488E+02 -0.24664191805E+01  0.57285534974E+02  0.00000000000E+00 0. -1.
        -14    1    5    5    0    0  0.10931243414E+03  0.36496569908E+02  0.72441354475E+02  0.13612111413E+03  0.00000000000E+00 0.  1.
          5    1    3    3  501    0  0.43778585127E+02 -0.37686456945E+02 -0.24433032454E+03  0.25110080335E+03  0.41800000000E+01 0. -1.
         -5    1    3    3    0  501 -0.88308156941E+01  0.75943495369E+02 -0.41076876772E+03  0.41784429005E+03  0.41800000000E+01 0. -1.
</event>
<event>
11    1  0.2498402E-009  0.1658145E+03  0.7561462E-02  0.1081733E+00
         22   -1    0    0    0    0  0.00000000000E+00  0.00000000000E+00  0.43358094552E+03  0.43358094552E+03  0.00000000000E+00 0. -1.
         22   -1    0    0    0    0 -0.00000000000E+00 -0.00000000000E+00 -0.12899829038E+03  0.12899829038E+03  0.00000000000E+00 0. -1.
         25    2    1    2    0    0 -0.69189611694E+02 -0.73684229918E+02  0.54082059270E+02  0.16967082786E+03  0.12508698009E+03 0.  0.
        -24    2    1    2    0    0  0.14639618442E+03 -0.49054532408E+01  0.12156474203E+03  0.20655789010E+03  0.80201428773E+02 0.  0.
         24    2    1    2    0    0 -0.77206572724E+02  0.78589683159E+02  0.12893585384E+03  0.18635051793E+03  0.77232557620E+02 0.  0.
        -13    1    5    5    0    0 -0.41256701850E+02 -0.21165842574E+00  0.16530690030E+02  0.44445741750E+02  0.00000000000E+00 0.  1.
         14    1    5    5    0    0 -0.35949870873E+02  0.78801341584E+02  0.11240516381E+03  0.14190477618E+03  0.00000000000E+00 0. -1.
         11    1    4    4    0    0  0.12063509766E+03  0.78130226579E+01  0.52575884262E+02  0.13182599788E+03  0.00000000000E+00 0. -1.
        -12    1    4    4    0    0  0.25761086755E+02 -0.12718475899E+02  0.68988857764E+02  0.74731892225E+02  0.00000000000E+00 0.  1.
          5    1    3    3  501    0  0.30163639582E+02 -0.41430772060E+02  0.37918302553E+02  0.63887589522E+02  0.41800000000E+01 0.  1.
         -5    1    3    3    0  501 -0.99353251276E+02 -0.32253457858E+02  0.16163756717E+02  0.10578323834E+03  0.41800000000E+01 0.  1.
</event>
<event>
11    1  0.2498402E-009  0.1626583E+03  0.7561462E-02  0.1084603E+00
         22   -1    0    0    0    0  0.00000000000E+00  0.00000000000E+00  0.10029016120E+04  0.10029016120E+04  0.00000000000E+00 0. -1.
         22   -1    0    0    0    0 -0.00000000000E+00 -0.00000000000E+00 -0.26030082798E+03  0.26030082798E+03  0.00000000000E+00 0. -1.
         25    2    1    2    0    0  0.91397057480E+02 -0.36324341775E+02 -0.19229279958E+03  0.24959144615E+03  0.12508592767E+03 0.  0.
         24    2    1    2    0    0 -0.21602007004E+03 -0.10187258368E+02  0.45747185774E+03  0.51152187509E+03  0.74871070382E+02 0.  0.
        -24    2    1    2    0    0  0.12462301256E+03  0.46511600143E+02  0.47742172582E+03  0.50208911871E+03  0.80422351579E+02 0.  0.
        -11    1    4    4    0    0 -0.71125294091E+02 -0.18705856056E+02  0.88756381444E+02  0.11526669839E+03  0.00000000000E+00 0.  1.
         12    1    4    4    0    0 -0.14489477594E+03  0.85185976876E+01  0.36871547630E+03  0.39625517671E+03  0.00000000000E+00 0. -1.
         13    1    5    5    0    0  0.24501269363E+02  0.88524071122E+01  0.21473201933E+02  0.33760564470E+02  0.00000000000E+00 0. -1.
        -14    1    5    5    0    0  0.10012174319E+03  0.37659193031E+02  0.45594852389E+03  0.46832855424E+03  0.00000000000E+00 0.  1.
          5    1    3    3  501    0  0.83640446396E+01  0.14022863525E+02 -0.13646981160E+03  0.13750665374E+03  0.41800000000E+01 0.  1.
         -5    1    3    3    0  501  0.83033012840E+02 -0.50347205300E+02 -0.55822987971E+02  0.11208479241E+03  0.41800000000E+01 0.  1.
</event>
<event>
11    1  0.2498402E-009  0.1974362E+03  0.7561462E-02  0.1056352E+00
         22   -1    0    0    0    0  0.00000000000E+00  0.00000000000E+00  0.76715911430E+03  0.76715911430E+03  0.00000000000E+00 0. -1.
         22   -1    0    0    0    0 -0.00000000000E+00 -0.00000000000E+00 -0.26414173536E+03  0.26414173536E+03  0.00000000000E+00 0.  1.
         25    2    1    2    0    0 -0.14764880364E+03  0.40812547932E+02 -0.19481046674E+03  0.27760383533E+03  0.12508772183E+03 0.  0.
         24    2    1    2    0    0  0.96469201624E+01  0.94659011377E+01  0.10201531714E+03  0.13482481571E+03  0.87108780549E+02 0.  0.
        -24    2    1    2    0    0  0.13800188348E+03 -0.50278449070E+02  0.59581252854E+03  0.61887219861E+03  0.80235819711E+02 0.  0.
        -13    1    4    4    0    0  0.43877849425E+02  0.14835505914E+02  0.30788975780E+02  0.55617613536E+02  0.00000000000E+00 0.  1.
         14    1    4    4    0    0 -0.34230929263E+02 -0.53696047762E+01  0.71226341357E+02  0.79207202177E+02  0.00000000000E+00 0. -1.
         11    1    5    5    0    0  0.98340864707E+02 -0.51974961388E+02  0.29184182160E+03  0.31232030212E+03  0.00000000000E+00 0. -1.
        -12    1    5    5    0    0  0.39661018772E+02  0.16965123180E+01  0.30397070694E+03  0.30655189649E+03  0.00000000000E+00 0.  1.
          5    1    3    3  501    0 -0.55900859358E+02  0.73654387264E+02 -0.13331931051E+03  0.16230029512E+03  0.41800000000E+01 0. -1.
         -5    1    3    3    0  501 -0.91747944283E+02 -0.32841839332E+02 -0.61491156230E+02  0.11530354021E+03  0.41800000000E+01 0. -1.
</event>
<event>
11    1  0.2498402E-009  0.2561387E+03  0.7561462E-02  0.1020679E+00
         22   -1    0    0    0    0  0.00000000000E+00  0.00000000000E+00  0.13910078786E+04  0.13910078786E+04  0.00000000000E+00 0.  1.
         22   -1    0    0    0    0 -0.00000000000E+00 -0.00000000000E+00 -0.82212070095E+03  0.82212070095E+03  0.00000000000E+00 0.  1.
         25    2    1    2    0    0 -0.12461419696E+02 -0.26506651762E+02 -0.19155573310E+03  0.23064863914E+03  0.12508919332E+03 0.  0.
         24    2    1    2    0    0 -0.16884022089E+03  0.18602653700E+03 -0.56983723430E+03  0.62779426200E+03  0.79361635185E+02 0.  0.
        -24    2    1    2    0    0  0.18130164059E+03 -0.15951988524E+03  0.13302801450E+04  0.13546856784E+04  0.84918456783E+02 0.  0.
        -13    1    4    4    0    0 -0.14937061029E+03  0.18983988866E+03 -0.54398947127E+03  0.59521030518E+03  0.00000000000E+00 0.  1.
         14    1    4    4    0    0 -0.19469610605E+02 -0.38133516538E+01 -0.25847763032E+02  0.32583956814E+02  0.00000000000E+00 0. -1.
         11    1    5    5    0    0  0.25932798865E+02 -0.20848907868E+02  0.39995960336E+03  0.40134134018E+03  0.00000000000E+00 0. -1.
        -12    1    5    5    0    0  0.15536884172E+03 -0.13867097737E+03  0.93032054167E+03  0.95334433821E+03  0.00000000000E+00 0.  1.
          5    1    3    3  501    0 -0.11361504315E+02 -0.20041896821E+02  0.12433750442E+02  0.26510978076E+02  0.41800000000E+01 0. -1.
         -5    1    3    3    0  501 -0.10999153804E+01 -0.64647549408E+01 -0.20398948354E+03  0.20413766106E+03  0.41800000000E+01 0. -1.
</event>
<event>
11    1  0.2498402E-009  0.1652309E+03  0.7561462E-02  0.1082258E+00
         22   -1    0    0    0    0  0.00000000000E+00  0.00000000000E+00  0.89054867051E+03  0.89054867051E+03  0.00000000000E+00 0.  1.
         22   -1    0    0    0    0 -0.00000000000E+00 -0.00000000000E+00 -0.18592889567E+04  0.18592889567E+04  0.00000000000E+00 0. -1.
         25    2    1    2    0    0  0.84753326113E+02  0.30461315330E+02 -0.49861707416E+03  0.52189825512E+03  0.12509110292E+03 0.  0.
        -24    2    1    2    0    0  0.23379533470E+02 -0.34176225280E+02 -0.13422641794E+04  0.13454674741E+04  0.83036014410E+02 0.  0.
         24    2    1    2    0    0 -0.10813285958E+03  0.37149099496E+01  0.87214096741E+03  0.88247189793E+03  0.80126573115E+02 0.  0.
        -13    1    5    5    0    0  0.47895544782E+01 -0.71571235882E+01  0.24510563008E+03  0.24525687380E+03  0.00000000000E+00 0.  1.
         14    1    5    5    0    0 -0.11292241406E+03  0.10872033538E+02  0.62703533733E+03  0.63721502412E+03  0.00000000000E+00 0. -1.
         13    1    4    4    0    0  0.23147710649E+02 -0.35961999404E+02 -0.13428826221E+04  0.13435634777E+04  0.00000000000E+00 0. -1.
        -14    1    4    4    0    0  0.23182282121E+00  0.17857741242E+01  0.61844268915E+00  0.19039964293E+01  0.00000000000E+00 0.  1.
          5    1    3    3  501    0  0.11547165810E+03  0.32422114815E+02 -0.43260511661E+03  0.44894270978E+03  0.41800000000E+01 0.  1.
         -5    1    3    3    0  501 -0.30718331987E+02 -0.19607994849E+01 -0.66011957554E+02  0.72955545333E+02  0.41800000000E+01 0.  1.
</event>
<event>
11    1  0.2498402E-009  0.3094828E+03  0.7561462E-02  0.9962559E-01
         22   -1    0    0    0    0  0.00000000000E+00  0.00000000000E+00  0.64171414865E+03  0.64171414865E+03  0.00000000000E+00 0. -1.
         22   -1    0    0    0    0 -0.00000000000E+00 -0.00000000000E+00 -0.56494253326E+03  0.56494253326E+03  0.00000000000E+00 0. -1.
         25    2    1    2    0    0 -0.13924292951E+03 -0.74075070827E+02 -0.33352100223E+03  0.38956395961E+03  0.12509240649E+03 0.  0.
         24    2    1    2    0    0 -0.12024565407E+03 -0.14855645684E+03 -0.72957445074E+02  0.21975365946E+03  0.80254868143E+02 0.  0.
        -24    2    1    2    0    0  0.25948858358E+03  0.22263152767E+03  0.48325006270E+03  0.59733906285E+03  0.79901256431E+02 0.  0.
        -13    1    4    4    0    0 -0.56785562602E+02 -0.12843916666E+03 -0.44080008239E+02  0.14718786220E+03  0.00000000000E+00 0.  1.
         14    1    4    4    0    0 -0.63460091467E+02 -0.20117290181E+02 -0.28877436836E+02  0.72565797257E+02  0.00000000000E+00 0. -1.
         11    1    5    5    0    0  0.24551624616E+03  0.18653078348E+03  0.45406452083E+03  0.54885931658E+03  0.00000000000E+00 0. -1.
        -12    1    5    5    0    0  0.13972337424E+02  0.36100744193E+02  0.29185541868E+02  0.48479746271E+02  0.00000000000E+00 0.  1.
          5    1    3    3  501    0  0.21378484988E+01 -0.45602405772E+02 -0.33906553380E+02  0.57019966420E+02  0.41800000000E+01 0.  1.
         -5    1    3    3    0  501 -0.14138077801E+03 -0.28472665054E+02 -0.29961444885E+03  0.33254399319E+03  0.41800000000E+01 0.  1.
</event>
<event>
11    1  0.2498402E-009  0.1796469E+04  0.7561462E-02  0.8155946E-01
         22   -1    0    0    0    0  0.00000000000E+00  0.00000000000E+00  0.40324050969E+03  0.40324050969E+03  0.00000000000E+00 0. -1.
         22   -1    0    0    0    0 -0.00000000000E+00 -0.00000000000E+00 -0.20008529815E+04  0.20008529815E+04  0.00000000000E+00 0. -1.
         25    2    1    2    0    0  0.84535798388E+03  0.17857432564E+03 -0.67521443228E+03  0.11036675884E+04  0.12509478621E+03 0.  0.
        -24    2    1    2    0    0 -0.78250380809E+03 -0.17046824406E+03 -0.86815016006E+03  0.11833015203E+04  0.71736710986E+02 0.  0.
         24    2    1    2    0    0 -0.62854175787E+02 -0.81060815876E+01 -0.54247879437E+02  0.11712438238E+03  0.82212727426E+02 0.  0.
        -13    1    5    5    0    0 -0.63491824313E+02 -0.92924009929E+01 -0.13224776203E+01  0.64181846482E+02  0.00000000000E+00 0.  1.
         14    1    5    5    0    0  0.63764852601E+00  0.11863194052E+01 -0.52925401817E+02  0.52942535893E+02  0.00000000000E+00 0. -1.
         11    1    4    4    0    0 -0.25684530287E+03 -0.43927596447E+02 -0.23703595900E+03  0.35225727699E+03  0.00000000000E+00 0. -1.
        -12    1    4    4    0    0 -0.52565850522E+03 -0.12654064761E+03 -0.63111420107E+03  0.83104424335E+03  0.00000000000E+00 0.  1.
          5    1    3    3  501    0  0.83965097355E+03  0.16507006083E+03 -0.67207884099E+03  0.10881035444E+04  0.41800000000E+01 0. -1.
         -5    1    3    3    0  501  0.57070103235E+01  0.13504264814E+02 -0.31355912835E+01  0.15564044066E+02  0.41800000000E+01 0. -1.
</event>
<event>
11    1  0.2498402E-009  0.1650329E+03  0.7561462E-02  0.1082437E+00
         22   -1    0    0    0    0  0.00000000000E+00  0.00000000000E+00  0.19675907191E+04  0.19675907191E+04  0.00000000000E+00 0.  1.
         22   -1    0    0    0    0 -0.00000000000E+00 -0.00000000000E+00 -0.35385817513E+03  0.35385817513E+03  0.00000000000E+00 0.  1.
         25    2    1    2    0    0 -0.14565122490E+03  0.52058733949E+02 -0.20571264586E+03  0.28616401616E+03  0.12509100841E+03 0.  0.
         24    2    1    2    0    0  0.85373212034E+02  0.36925403437E+02 -0.70456427484E+02  0.14061996858E+03  0.78471629510E+02 0.  0.
        -24    2    1    2    0    0  0.60278012869E+02 -0.88984137386E+02  0.18899016174E+04  0.18946649095E+04  0.80469749282E+02 0.  0.
        -11    1    4    4    0    0  0.95698187759E+02  0.20166206747E+02 -0.71118887867E+02  0.12092441956E+03  0.00000000000E+00 0.  1.
         12    1    4    4    0    0 -0.10324975725E+02  0.16759196690E+02  0.66246038281E+00  0.19695549020E+02  0.00000000000E+00 0. -1.
         11    1    5    5    0    0  0.16840819102E+02  0.98937546402E+01  0.57641232060E+03  0.57674315160E+03  0.00000000000E+00 0. -1.
        -12    1    5    5    0    0  0.43437193768E+02 -0.98877892026E+02  0.13134892967E+04  0.13179217579E+04  0.00000000000E+00 0.  1.
          5    1    3    3  501    0 -0.80153716742E+02 -0.32386463703E+02 -0.59578807151E+02  0.10507429752E+03  0.41800000000E+01 0. -1.
         -5    1    3    3    0  501 -0.65497508161E+02  0.84445197652E+02 -0.14613383871E+03  0.18108971864E+03  0.41800000000E+01 0. -1.
</event>
<event>
11    1  0.2498402E-009  0.3690462E+03  0.7561462E-02  0.9745779E-01
         22   -1    0    0    0    0  0.00000000000E+00  0.00000000000E+00  0.15584969643E+04  0.15584969643E+04  0.00000000000E+00 0.  1.
         22   -1    0    0    0    0 -0.00000000000E+00 -0.00000000000E+00 -0.31386421428E+03  0.31386421428E+03  0.00000000000E+00 0. -1.
         25    2    1    2    0    0 -0.33798636720E+03 -0.93926445793E+02 -0.15290123936E+03  0.40259588500E+03  0.12509075099E+03 0.  0.
        -24    2    1    2    0    0  0.28443937839E+03  0.13880464117E+03  0.12126066776E+04  0.12557106416E+04  0.78878212943E+02 0.  0.
         24    2    1    2    0    0  0.53546988811E+02 -0.44878195373E+02  0.18492731180E+03  0.21405465201E+03  0.82097204391E+02 0.  0.
        -13    1    5    5    0    0  0.28339009989E+02  0.21963012674E+02  0.52254065197E+02  0.63371608331E+02  0.00000000000E+00 0.  1.
         14    1    5    5    0    0  0.25207978822E+02 -0.66841208046E+02  0.13267324660E+03  0.15068304368E+03  0.00000000000E+00 0. -1.
         13    1    4    4    0    0  0.81182573704E+01  0.11124089577E+02  0.16562447578E+02  0.21539873292E+02  0.00000000000E+00 0. -1.
        -14    1    4    4    0    0  0.27632112102E+03  0.12768055159E+03  0.11960442300E+04  0.12341707683E+04  0.00000000000E+00 0.  1.
          5    1    3    3  501    0 -0.75140901046E+01  0.70752907560E+00  0.17044256641E+02  0.19103435082E+02  0.41800000000E+01 0. -1.
         -5    1    3    3    0  501 -0.33047227710E+03 -0.94633974868E+02 -0.16994549600E+03  0.38349244991E+03  0.41800000000E+01 0. -1.
</event>
<event>
11    1  0.2498402E-009  0.1914082E+03  0.7561462E-02  0.1060771E+00
         22   -1    0    0    0    0  0.00000000000E+00  0.00000000000E+00  0.95711000438E+02  0.95711000438E+02  0.00000000000E+00 0. -1.
         22   -1    0    0    0    0 -0.00000000000E+00 -0.00000000000E+00 -0.17632939975E+04  0.17632939975E+04  0.00000000000E+00 0.  1.
         25    2    1    2    0    0 -0.40094283162E+02 -0.14366995730E+03 -0.12580559866E+04  0.12730286915E+04  0.12509426686E+03 0.  0.
        -24    2    1    2    0    0  0.64001383239E+01  0.13928891927E+03 -0.45986021624E+03  0.48708180653E+03  0.79592103693E+02 0.  0.
         24    2    1    2    0    0  0.33694144838E+02  0.43810380376E+01  0.50333205840E+02  0.98894499919E+02  0.78052556739E+02 0.  0.
        -13    1    5    5    0    0  0.32276724435E+02 -0.33844823469E+02  0.25212486746E+02  0.53131238493E+02  0.00000000000E+00 0.  1.
         14    1    5    5    0    0  0.14174204033E+01  0.38225861507E+02  0.25120719094E+02  0.45763261426E+02  0.00000000000E+00 0. -1.
         13    1    4    4    0    0  0.63579729829E+01  0.13768709813E+02 -0.17668011733E+03  0.17732981997E+03  0.00000000000E+00 0. -1.
        -14    1    4    4    0    0  0.42165341017E-01  0.12552020945E+03 -0.28318009890E+03  0.30975198655E+03  0.00000000000E+00 0.  1.
          5    1    3    3  501    0 -0.48146846500E+02 -0.66987116181E+01 -0.52252718459E+03  0.52480007869E+03  0.41800000000E+01 0.  1.
         -5    1    3    3    0  501  0.80525633377E+01 -0.13697124569E+03 -0.73552880204E+03  0.74822861276E+03  0.41800000000E+01 0.  1.
</event>
<event>
11    1  0.2498402E-009  0.2441556E+03  0.7561462E-02  0.1027059E+00
         22   -1    0    0    0    0  0.00000000000E+00  0.00000000000E+00  0.70139292121E+02  0.70139292121E+02  0.00000000000E+00 0.  1.
         22   -1    0    0    0    0 -0.00000000000E+00 -0.00000000000E+00 -0.20599107230E+04  0.20599107230E+04  0.00000000000E+00 0.  1.
         25    2    1    2    0    0 -0.18671993357E+03 -0.10278215863E+03 -0.14654689146E+04  0.14861607261E+04  0.12508420483E+03 0.  0.
        -24    2    1    2    0    0 -0.29084956993E+02  0.10117659498E+03 -0.28159450176E+03  0.31039528122E+03  0.77247194698E+02 0.  0.
         24    2    1    2    0    0  0.21580489057E+03  0.16055636515E+01 -0.24270801451E+03  0.33349400783E+03  0.75741298673E+02 0.  0.
        -11    1    5    5    0    0  0.10423370169E+03  0.38012378417E+02 -0.10802386321E+03  0.15485076849E+03  0.00000000000E+00 0.  1.
         12    1    5    5    0    0  0.11157118888E+03 -0.36406814766E+02 -0.13468415130E+03  0.17864323934E+03  0.00000000000E+00 0. -1.
         11    1    4    4    0    0 -0.11874952278E+02  0.10904003839E+03 -0.21788965760E+03  0.24393984372E+03  0.00000000000E+00 0. -1.
        -12    1    4    4    0    0 -0.17210004714E+02 -0.78634434115E+01 -0.63704844150E+02  0.66455437496E+02  0.00000000000E+00 0.  1.
          5    1    3    3  501    0 -0.13317967488E+03 -0.10057367296E+02 -0.97566289149E+03  0.98477079905E+03  0.41800000000E+01 0.  1.
         -5    1    3    3    0  501 -0.53540258692E+02 -0.92724791337E+02 -0.48980602316E+03  0.50138992706E+03  0.41800000000E+01 0.  1.
</event>
<event>
11    1  0.2498402E-009  0.6367674E+03  0.7561462E-02  0.9131054E-01
         22   -1    0    0    0    0  0.00000000000E+00  0.00000000000E+00  0.88244662824E+03  0.88244662824E+03  0.00000000000E+00 0.  1.
         22   -1    0    0    0    0 -0.00000000000E+00 -0.00000000000E+00 -0.23927474561E+04  0.23927474561E+04  0.00000000000E+00 0.  1.
         25    2    1    2    0    0 -0.53462215477E+02  0.61797333541E+03 -0.20250657402E+04  0.21216237848E+04  0.12508789018E+03 0.  0.
         24    2    1    2    0    0 -0.10189291004E+03 -0.69994385975E+03  0.61094300592E+03  0.93797313177E+03  0.78985236024E+02 0.  0.
        -24    2    1    2    0    0  0.15535512552E+03  0.81970524344E+02 -0.96178093574E+02  0.21559716777E+03  0.79859446419E+02 0.  0.
        -13    1    4    4    0    0 -0.24511297791E+02 -0.41151017820E+03  0.37672584706E+03  0.55844766481E+03  0.00000000000E+00 0.  1.
         14    1    4    4    0    0 -0.77381612248E+02 -0.28843368155E+03  0.23421715886E+03  0.37952546696E+03  0.00000000000E+00 0. -1.
         11    1    5    5    0    0  0.13829392109E+03  0.55912527893E+02 -0.45217135530E+02  0.15587177016E+03  0.00000000000E+00 0. -1.
        -12    1    5    5    0    0  0.17061204424E+02  0.26057996450E+02 -0.50960958044E+02  0.59725397614E+02  0.00000000000E+00 0.  1.
          5    1    3    3  501    0 -0.31420747364E+02  0.71803148996E+02 -0.16184454953E+03  0.17987241641E+03  0.41800000000E+01 0.  1.
         -5    1    3    3    0  501 -0.22041468113E+02  0.54617018641E+03 -0.18632211907E+04  0.19417513684E+04  0.41800000000E+01 0.  1.
</event>
<event>
11    1  0.2498402E-009  0.1410894E+03  0.7561462E-02  0.1106348E+00
         22   -1    0    0    0    0  0.00000000000E+00  0.00000000000E+00  0.14972461118E+03  0.14972461118E+03  0.00000000000E+00 0. -1.
         22   -1    0    0    0    0 -0.00000000000E+00 -0.00000000000E+00 -0.27310840795E+03  0.27310840795E+03  0.00000000000E+00 0.  1.
         25    2    1    2    0    0 -0.60225607724E+02  0.41649881581E+02 -0.17244027192E+03  0.22526692178E+03  0.12509077586E+03 0.  0.
        -24    2    1    2    0    0  0.68418938556E+01 -0.45950210137E+02  0.11260738907E+02  0.93501190770E+02  0.80358167671E+02 0.  0.
         24    2    1    2    0    0  0.53383713868E+02  0.43003285555E+01  0.37795736254E+02  0.10406490658E+03  0.80824955127E+02 0.  0.
        -11    1    5    5    0    0 -0.57269745178E+01  0.27152899641E+02  0.28905450675E+02  0.40069979720E+02  0.00000000000E+00 0.  1.
         12    1    5    5    0    0  0.59110688386E+02 -0.22852571085E+02  0.88902855792E+01  0.63994926864E+02  0.00000000000E+00 0. -1.
         11    1    4    4    0    0  0.35641664844E+00  0.56742909628E+01  0.35605910339E+02  0.36056975217E+02  0.00000000000E+00 0. -1.
        -12    1    4    4    0    0  0.64854772071E+01 -0.51624501100E+02 -0.24345171432E+02  0.57444215552E+02  0.00000000000E+00 0.  1.
          5    1    3    3  501    0  0.29844582250E+02  0.22876166134E+02 -0.10998302932E+02  0.39401181886E+02  0.41800000000E+01 0.  1.
         -5    1    3    3    0  501 -0.90070189974E+02  0.18773715448E+02 -0.16144196899E+03  0.18586573989E+03  0.41800000000E+01 0.  1.
</event>
<event>
11    1  0.2498402E-009  0.3856993E+03  0.7561462E-02  0.9692921E-01
         22   -1    0    0    0    0  0.00000000000E+00  0.00000000000E+00  0.53280895487E+03  0.53280895487E+03  0.00000000000E+00 0.  1.
         22   -1    0    0    0    0 -0.00000000000E+00 -0.00000000000E+00 -0.13391967900E+04  0.13391967900E+04  0.00000000000E+00 0.  1.
         25    2    1    2    0    0  0.32551128504E+02 -0.71667975115E+01 -0.78636122476E+03  0.79694446764E+03  0.12508225192E+03 0.  0.
         24    2    1    2    0    0  0.29297502369E+03  0.20415896031E+03 -0.39230635093E+03  0.53681344329E+03  0.82153236897E+02 0.  0.
        -24    2    1    2    0    0 -0.32552615219E+03 -0.19699216280E+03  0.37227974056E+03  0.53824783393E+03  0.79657626933E+02 0.  0.
        -11    1    4    4    0    0  0.20404112689E+03  0.10082870551E+03 -0.21439303208E+03  0.31267168327E+03  0.00000000000E+00 0.  1.
         12    1    4    4    0    0  0.88933896800E+02  0.10333025481E+03 -0.17791331885E+03  0.22414176001E+03  0.00000000000E+00 0. -1.
         13    1    5    5    0    0 -0.19606799685E+02 -0.14433310145E+02  0.59070141034E+02  0.63890755179E+02  0.00000000000E+00 0. -1.
        -14    1    5    5    0    0 -0.30591935251E+03 -0.18255885266E+03  0.31320959953E+03  0.47435707875E+03  0.00000000000E+00 0.  1.
          5    1    3    3  501    0  0.28609628937E+02  0.13837807941E+01 -0.34595506541E+02  0.45108172098E+02  0.41800000000E+01 0.  1.
         -5    1    3    3    0  501  0.39414995668E+01 -0.85505783057E+01 -0.75176571822E+03  0.75183629555E+03  0.41800000000E+01 0.  1.
</event>
<event>
11    1  0.2498402E-009  0.1893401E+03  0.7561462E-02  0.1062329E+00
         22   -1    0    0    0    0  0.00000000000E+00  0.00000000000E+00  0.95257715292E+03  0.95257715292E+03  0.00000000000E+00 0. -1.
         22   -1    0    0    0    0 -0.00000000000E+00 -0.00000000000E+00 -0.21659896447E+03  0.21659896447E+03  0.00000000000E+00 0.  1.
         25    2    1    2    0    0 -0.37016238246E+02  0.91626447947E+02 -0.13593722424E+03  0.20950560175E+03  0.12509220748E+03 0.  0.
        -24    2    1    2    0    0 -0.46688757597E+02  0.25883402307E+02  0.33251017458E+02  0.10490170364E+03  0.83958005355E+02 0.  0.
         24    2    1    2    0    0  0.83704995844E+02 -0.11750985025E+03  0.83866439523E+03  0.85476881200E+03  0.80353362751E+02 0.  0.
        -11    1    5    5    0    0  0.13724519579E+02 -0.21350738069E+02  0.40523065585E+02  0.47815638636E+02  0.00000000000E+00 0.  1.
         12    1    5    5    0    0  0.69980476265E+02 -0.96159112185E+02  0.79814132965E+03  0.80695317337E+03  0.00000000000E+00 0. -1.
         11    1    4    4    0    0 -0.38882085242E+02 -0.23168885827E+02  0.31606377567E+02  0.55204863247E+02  0.00000000000E+00 0. -1.
        -12    1    4    4    0    0 -0.78066723552E+01  0.49052288134E+02  0.16446398911E+01  0.49696840391E+02  0.00000000000E+00 0.  1.
          5    1    3    3  501    0 -0.19276821223E+01 -0.28957528154E+02 -0.84777550676E+01  0.30522108809E+02  0.41800000000E+01 0.  1.
         -5    1    3    3    0  501 -0.35088556124E+02  0.12058397610E+03 -0.12745946917E+03  0.17898349294E+03  0.41800000000E+01 0.  1.
</event>
<event>
11    1  0.2498402E-009  0.1523652E+04  0.7561462E-02  0.8296430E-01
         22   -1    0    0    0    0  0.00000000000E+00  0.00000000000E+00  0.58359678704E+03  0.58359678704E+03  0.00000000000E+00 0. -1.
         22   -1    0    0    0    0 -0.00000000000E+00 -0.00000000000E+00 -0.99448547757E+03  0.99448547757E+03  0.00000000000E+00 0. -1.
         25    2    1    2    0    0 -0.20517506222E+03  0.25389432228E+03 -0.88562382963E+03  0.95212194299E+03  0.12508994234E+03 0.  0.
        -24    2    1    2    0    0  0.11067439660E+03 -0.80236350305E+02  0.80964312558E+02  0.17811723559E+03  0.80522268551E+02 0.  0.
         24    2    1    2    0    0  0.94500665619E+02 -0.17365797197E+03  0.39377082653E+03  0.44784308603E+03  0.80128015343E+02 0.  0.
        -13    1    5    5    0    0 -0.94233784673E+01 -0.74973726388E+01  0.56461655274E+02  0.57731526695E+02  0.00000000000E+00 0.  1.
         14    1    5    5    0    0  0.10392404409E+03 -0.16616059933E+03  0.33730917126E+03  0.39011155933E+03  0.00000000000E+00 0. -1.
         11    1    4    4    0    0  0.10693178364E+03 -0.36664433617E+02  0.45671931966E+02  0.12192051679E+03  0.00000000000E+00 0. -1.
        -12    1    4    4    0    0  0.37426129593E+01 -0.43571916689E+02  0.35292380592E+02  0.56196718797E+02  0.00000000000E+00 0.  1.
          5    1    3    3  501    0 -0.26192754878E+01  0.41903269936E+02 -0.44378133485E+02  0.61234269548E+02  0.41800000000E+01 0. -1.
         -5    1    3    3    0  501 -0.20255578673E+03  0.21199105234E+03 -0.84124569614E+03  0.89088767344E+03  0.41800000000E+01 0. -1.
</event>
<event>
11    1  0.2498402E-009  0.1657026E+03  0.7561462E-02  0.1081833E+00
         22   -1    0    0    0    0  0.00000000000E+00  0.00000000000E+00  0.30193430008E+03  0.30193430008E+03  0.00000000000E+00 0.  1.
         22   -1    0    0    0    0 -0.00000000000E+00 -0.00000000000E+00 -0.36331778505E+03  0.36331778505E+03  0.00000000000E+00 0. -1.
         25    2    1    2    0    0  0.40149110727E+02 -0.83726017000E+02 -0.21835607180E+03  0.26823347216E+03  0.12509126460E+03 0.  0.
         24    2    1    2    0    0 -0.12515473655E+03  0.15693921662E+03  0.55524493118E+02  0.22313995834E+03  0.80092732987E+02 0.  0.
        -24    2    1    2    0    0  0.85005625820E+02 -0.73213199623E+02  0.10144809371E+03  0.17387865463E+03  0.85766787277E+02 0.  0.
        -13    1    4    4    0    0 -0.78816606046E+02  0.94191757532E+02 -0.72254951280E+01  0.12302988399E+03  0.00000000000E+00 0.  1.
         14    1    4    4    0    0 -0.46338130501E+02  0.62747459091E+02  0.62749988246E+02  0.10011007435E+03  0.00000000000E+00 0. -1.
         13    1    5    5    0    0 -0.13313347329E+02  0.41352413891E+01  0.20316007756E+01  0.14088038904E+02  0.00000000000E+00 0. -1.
        -14    1    5    5    0    0  0.98318973149E+02 -0.77348441012E+02  0.99416492931E+02  0.15979061573E+03  0.00000000000E+00 0.  1.
          5    1    3    3  501    0 -0.24319476534E+02 -0.50088518563E+02 -0.17449329008E+03  0.18320938107E+03  0.41800000000E+01 0. -1.
         -5    1    3    3    0  501  0.64468587261E+02 -0.33637498436E+02 -0.43862781720E+02  0.85024091084E+02  0.41800000000E+01 0. -1.
</event>
<event>
11    1  0.2498402E-009  0.6414075E+03  0.7561462E-02  0.9123403E-01
         22   -1    0    0    0    0  0.00000000000E+00  0.00000000000E+00  0.15348790572E+03  0.15348790572E+03  0.00000000000E+00 0.  1.
         22   -1    0    0    0    0 -0.00000000000E+00 -0.00000000000E+00 -0.67009110071E+03  0.67009110071E+03  0.00000000000E+00 0.  1.
         25    2    1    2    0    0 -0.22488513283E+03 -0.93088122721E+02 -0.39564477601E+03  0.48106234488E+03  0.12508984500E+03 0.  0.
        -24    2    1    2    0    0  0.26443435903E+02  0.81554677189E+01 -0.62554552616E+02  0.10510048456E+03  0.79795193123E+02 0.  0.
         24    2    1    2    0    0  0.19844169693E+03  0.84932655002E+02 -0.58403866366E+02  0.23741617698E+03  0.79766951307E+02 0.  0.
        -13    1    5    5    0    0  0.16565215172E+03  0.86199382263E+02 -0.21401959493E+02  0.18796013604E+03  0.00000000000E+00 0.  1.
         14    1    5    5    0    0  0.32789545208E+02 -0.12667272603E+01 -0.37001906874E+02  0.49456040937E+02  0.00000000000E+00 0. -1.
         11    1    4    4    0    0 -0.21047271475E+02 -0.20140224172E+02 -0.19965717209E+02  0.35316371981E+02  0.00000000000E+00 0. -1.
        -12    1    4    4    0    0  0.47490707379E+02  0.28295691891E+02 -0.42588835407E+02  0.69784112578E+02  0.00000000000E+00 0.  1.
          5    1    3    3  501    0 -0.84186482286E+02 -0.65294109340E+02 -0.27020718698E+03  0.29048249656E+03  0.41800000000E+01 0.  1.
         -5    1    3    3    0  501 -0.14069865054E+03 -0.27794013382E+02 -0.12543758903E+03  0.19057984832E+03  0.41800000000E+01 0.  1.
</event>
<event>
11    1  0.2498402E-009  0.4445893E+03  0.7561462E-02  0.9526646E-01
         22   -1    0    0    0    0  0.00000000000E+00  0.00000000000E+00  0.16832340796E+04  0.16832340796E+04  0.00000000000E+00 0.  1.
         22   -1    0    0    0    0 -0.00000000000E+00 -0.00000000000E+00 -0.15160103177E+04  0.15160103177E+04  0.00000000000E+00 0.  1.
         25    2    1    2    0    0 -0.44282202038E+03 -0.20142126389E+03 -0.10216829509E+04  0.11384839541E+04  0.12509114361E+03 0.  0.
        -24    2    1    2    0    0  0.33535600033E+03  0.10469139097E+03 -0.35623281169E+03  0.50659680003E+03  0.79464252150E+02 0.  0.
         24    2    1    2    0    0  0.10746602005E+03  0.96729872921E+02  0.15451395245E+04  0.15541636433E+04  0.84040858917E+02 0.  0.
        -13    1    5    5    0    0  0.32873860777E+02  0.20866708269E+02  0.85362914896E+03  0.85451672552E+03  0.00000000000E+00 0.  1.
         14    1    5    5    0    0  0.74592159276E+02  0.75863164653E+02  0.69151037557E+03  0.69964691773E+03  0.00000000000E+00 0. -1.
         11    1    4    4    0    0  0.64181766900E+02  0.54341493492E+02 -0.74839613472E+02  0.11257559621E+03  0.00000000000E+00 0. -1.
        -12    1    4    4    0    0  0.27117423343E+03  0.50349897481E+02 -0.28139319822E+03  0.39402120382E+03  0.00000000000E+00 0.  1.
          5    1    3    3  501    0 -0.10116569962E+03 -0.58247932013E+02 -0.14131135641E+03  0.18334037257E+03  0.41800000000E+01 0.  1.
         -5    1    3    3    0  501 -0.34165632076E+03 -0.14317333188E+03 -0.88037159449E+03  0.95514358149E+03  0.41800000000E+01 0.  1.
</event>
<event>
11    1  0.2498402E-009  0.5028826E+03  0.7561462E-02  0.9387103E-01
         22   -1    0    0    0    0  0.00000000000E+00  0.00000000000E+00  0.73363416434E+03  0.73363416434E+03  0.00000000000E+00 0. -1.
         22   -1    0    0    0    0 -0.00000000000E+00 -0.00000000000E+00 -0.23623238752E+04  0.23623238752E+04  0.00000000000E+00 0. -1.
         25    2    1    2    0    0  0.25600492561E+03  0.40018835099E+03 -0.19104269449E+04  0.19725790983E+04  0.12509176245E+03 0.  0.
         24    2    1    2    0    0  0.31769013084E+03  0.55096778459E+02 -0.72823189962E+01  0.33188832054E+03  0.78320820426E+02 0.  0.
        -24    2    1    2    0    0 -0.57369505645E+03 -0.45528512945E+03  0.28901955308E+03  0.79149062066E+03  0.80712661000E+02 0.  0.
        -11    1    4    4    0    0  0.12543514917E+02  0.20772597407E+02  0.40825615980E+01  0.24607069689E+02  0.00000000000E+00 0.  1.
         12    1    4    4    0    0  0.30514661592E+03  0.34324181052E+02 -0.11364880594E+02  0.30728125085E+03  0.00000000000E+00 0. -1.
         13    1    5    5    0    0 -0.31377534117E+03 -0.21966025986E+03  0.11522292529E+03  0.39997739561E+03  0.00000000000E+00 0. -1.
        -14    1    5    5    0    0 -0.25991971527E+03 -0.23562486958E+03  0.17379662779E+03  0.39151322505E+03  0.00000000000E+00 0.  1.
          5    1    3    3  501    0  0.99778195012E+01 -0.27307353931E+01 -0.13476670755E+03  0.13522777696E+03  0.41800000000E+01 0. -1.
         -5    1    3    3    0  501  0.24602710611E+03  0.40291908638E+03 -0.17756602374E+04  0.18373513213E+04  0.41800000000E+01 0. -1.
</event>
<event>
11    1  0.2498402E-009  0.4682537E+03  0.7561462E-02  0.9467398E-01
         22   -1    0    0    0    0  0.00000000000E+00  0.00000000000E+00  0.82718870685E+03  0.82718870685E+03  0.00000000000E+00 0. -1.
         22   -1    0    0    0    0 -0.00000000000E+00 -0.00000000000E+00 -0.89505353834E+03  0.89505353834E+03  0.00000000000E+00 0. -1.
         25    2    1    2    0    0 -0.43808925868E+03  0.11384218557E+03 -0.66547200060E+03  0.81448205943E+03  0.12508317135E+03 0.  0.
         24    2    1    2    0    0  0.46032103371E+03  0.35933817578E+02  0.55979311825E+03  0.73273825075E+03  0.10173650055E+03 0.  0.
        -24    2    1    2    0    0 -0.22231775029E+02 -0.14977600315E+03  0.37814050853E+02  0.17502193501E+03  0.79219141331E+02 0.  0.
        -13    1    4    4    0    0  0.11911047449E+02  0.52056517747E+00  0.56459830367E+02  0.57704908669E+02  0.00000000000E+00 0.  1.
         14    1    4    4    0    0  0.44840998626E+03  0.35413252401E+02  0.50333328788E+03  0.67503334208E+03  0.00000000000E+00 0. -1.
         13    1    5    5    0    0 -0.42377025052E+02 -0.60339860161E+02  0.38842271919E+02  0.83339264842E+02  0.00000000000E+00 0. -1.
        -14    1    5    5    0    0  0.20145250023E+02 -0.89436142989E+02 -0.10282210661E+01  0.91682670172E+02  0.00000000000E+00 0.  1.
          5    1    3    3  501    0 -0.14045792791E+03 -0.69483418596E+01 -0.27460220670E+03  0.30854586902E+03  0.41800000000E+01 0. -1.
         -5    1    3    3    0  501 -0.29763133077E+03  0.12079052743E+03 -0.39086979391E+03  0.50593619041E+03  0.41800000000E+01 0. -1.
</event>
<event>
11    1  0.2498402E-009  0.7216390E+03  0.7561462E-02  0.9001010E-01
         22   -1    0    0    0    0  0.00000000000E+00  0.00000000000E+00  0.52739639627E+03  0.52739639627E+03  0.00000000000E+00 0.  1.
         22   -1    0    0    0    0 -0.00000000000E+00 -0.00000000000E+00 -0.16277704730E+04  0.16277704730E+04  0.00000000000E+00 0.  1.
         25    2    1    2    0    0 -0.70265025247E+03 -0.12070288938E+03 -0.11160527206E+04  0.13302283434E+04  0.12508879091E+03 0.  0.
        -24    2    1    2    0    0  0.68247719271E+03  0.18029865257E+03 -0.48013395634E+02  0.71169115866E+03  0.76917465241E+02 0.  0.
         24    2    1    2    0    0  0.20173059754E+02 -0.59595763191E+02  0.63692039581E+02  0.11324736714E+03  0.69351877604E+02 0.  0.
        -13    1    5    5    0    0  0.15995666719E+02 -0.73731593816E+02  0.63329145110E+02  0.98502740575E+02  0.00000000000E+00 0.  1.
         14    1    5    5    0    0  0.41773930355E+01  0.14135830625E+02  0.36289447046E+00  0.14744626561E+02  0.00000000000E+00 0. -1.
         13    1    4    4    0    0  0.18443366772E+03  0.31459958756E+02 -0.42452852698E+02  0.19185346360E+03  0.00000000000E+00 0. -1.
        -14    1    4    4    0    0  0.49804352499E+03  0.14883869382E+03 -0.55605429363E+01  0.51983769506E+03  0.00000000000E+00 0.  1.
          5    1    3    3  501    0 -0.68864885161E+03 -0.10485376217E+03 -0.10443476314E+04  0.12553529384E+04  0.41800000000E+01 0. -1.
         -5    1    3    3    0  501 -0.14001400855E+02 -0.15849127216E+02 -0.71705089232E+02  0.74875405048E+02  0.41800000000E+01 0. -1.
</event>
<event>
11    1  0.2498402E-009  0.1406939E+03  0.7561462E-02  0.1106786E+00
         22   -1    0    0    0    0  0.00000000000E+00  0.00000000000E+00  0.27925198228E+03  0.27925198228E+03  0.00000000000E+00 0. -1.
         22   -1    0    0    0    0 -0.00000000000E+00 -0.00000000000E+00 -0.11729148733E+03  0.11729148733E+03  0.00000000000E+00 0.  1.
         25    2    1    2    0    0 -0.11189810716E+02  0.69367541872E+02  0.48893787435E+01  0.14355621160E+03  0.12508961642E+03 0.  0.
        -24    2    1    2    0    0  0.29040270490E+02 -0.54584885088E+02  0.14030716744E+02  0.88133586235E+02  0.61219449688E+02 0.  0.
         24    2    1    2    0    0 -0.17850459773E+02 -0.14782656784E+02  0.14304039946E+03  0.16485367178E+03  0.78606687782E+02 0.  0.
        -11    1    5    5    0    0 -0.24198688712E+02  0.15896260817E+02  0.14178536729E+02  0.32238153593E+02  0.00000000000E+00 0.  1.
         12    1    5    5    0    0  0.63482289383E+01 -0.30678917601E+02  0.12886186273E+03  0.13261551818E+03  0.00000000000E+00 0. -1.
         13    1    4    4    0    0 -0.16174013364E+02 -0.17878467193E+00  0.10329550486E+01  0.16207950777E+02  0.00000000000E+00 0. -1.
        -14    1    4    4    0    0  0.45214283854E+02 -0.54406100416E+02  0.12997761695E+02  0.71925635458E+02  0.00000000000E+00 0.  1.
          5    1    3    3  501    0  0.39008477383E+02  0.19159503653E+02 -0.40198416275E+02  0.59347560682E+02  0.41800000000E+01 0. -1.
         -5    1    3    3    0  501 -0.50198288099E+02  0.50208038219E+02  0.45087795018E+02  0.84208650918E+02  0.41800000000E+01 0. -1.
</event>
<event>
11    1  0.2498402E-009  0.1431880E+03  0.7561462E-02  0.1104050E+00
         22   -1    0    0    0    0  0.00000000000E+00  0.00000000000E+00  0.15732801988E+04  0.15732801988E+04  0.00000000000E+00 0.  1.
         22   -1    0    0    0    0 -0.00000000000E+00 -0.00000000000E+00 -0.20292821165E+03  0.20292821165E+03  0.00000000000E+00 0.  1.
         25    2    1    2    0    0 -0.13811437735E+02 -0.22715392810E+02 -0.50963506529E+01  0.12798623607E+03  0.12509100267E+03 0.  0.
         24    2    1    2    0    0 -0.49646464803E+02 -0.93003523711E+01 -0.11741434610E+03  0.15140526001E+03  0.81155135797E+02 0.  0.
        -24    2    1    2    0    0  0.63457902538E+02  0.32015745181E+02  0.14928626839E+04  0.14968169143E+04  0.82279820535E+02 0.  0.
        -11    1    4    4    0    0 -0.58112372347E+02  0.31650646940E+01 -0.12240147123E+03  0.13553296873E+03  0.00000000000E+00 0.  1.
         12    1    4    4    0    0  0.84659075442E+01 -0.12465417065E+02  0.49871251323E+01  0.15872291273E+02  0.00000000000E+00 0. -1.
         13    1    5    5    0    0  0.39863415946E+02 -0.13857785903E+02  0.31367284700E+03  0.31649926557E+03  0.00000000000E+00 0. -1.
        -14    1    5    5    0    0  0.23594486591E+02  0.45873531084E+02  0.11791898369E+04  0.11803176488E+04  0.00000000000E+00 0.  1.
          5    1    3    3  501    0 -0.54136182863E+02 -0.85237986035E+01  0.38250550953E+02  0.66962366190E+02  0.41800000000E+01 0. -1.
         -5    1    3    3    0  501  0.40324745128E+02 -0.14191594206E+02 -0.43346901606E+02  0.61023869876E+02  0.41800000000E+01 0. -1.
</event>
<event>
11    1  0.2498402E-009  0.3803085E+03  0.7561462E-02  0.9709714E-01
         22   -1    0    0    0    0  0.00000000000E+00  0.00000000000E+00  0.39530029723E+04  0.39530029723E+04  0.00000000000E+00 0. -1.
         22   -1    0    0    0    0 -0.00000000000E+00 -0.00000000000E+00 -0.64056673188E+03  0.64056673188E+03  0.00000000000E+00 0.  1.
         25    2    1    2    0    0  0.50745224248E+01 -0.30792525957E+03 -0.48186878567E+03  0.58540065543E+03  0.12511068907E+03 0.  0.
        -24    2    1    2    0    0 -0.35088622763E+03  0.14158206384E+03  0.29316488250E+03  0.48533544770E+03  0.80238537626E+02 0.  0.
         24    2    1    2    0    0  0.34581170521E+03  0.16634319574E+03  0.35011401436E+04  0.35228336010E+04  0.71543563400E+02 0.  0.
        -11    1    5    5    0    0  0.21622287229E+02 -0.51702993106E+01  0.14189537219E+03  0.14362643193E+03  0.00000000000E+00 0.  1.
         12    1    5    5    0    0  0.32418941798E+03  0.17151349505E+03  0.33592447714E+04  0.33792071691E+04  0.00000000000E+00 0. -1.
         11    1    4    4    0    0 -0.16092836403E+03  0.10331492660E+03  0.16885338063E+03  0.25511443816E+03  0.00000000000E+00 0. -1.
        -12    1    4    4    0    0 -0.18995786360E+03  0.38267137237E+02  0.12431150188E+03  0.23022100954E+03  0.00000000000E+00 0.  1.
          5    1    3    3  501    0 -0.29360951374E+02 -0.20113373507E+03 -0.21516365633E+03  0.29602316844E+03  0.41800000000E+01 0.  1.
         -5    1    3    3    0  501  0.34435473798E+02 -0.10679152450E+03 -0.26670512934E+03  0.28937748699E+03  0.41800000000E+01 0.  1.
</event>
<event>
11    1  0.2498402E-009  0.2467066E+03  0.7561462E-02  0.1025668E+00
         22   -1    0    0    0    0  0.00000000000E+00  0.00000000000E+00  0.31005556933E+03  0.31005556933E+03  0.00000000000E+00 0.  1.
         22   -1    0    0    0    0 -0.00000000000E+00 -0.00000000000E+00 -0.32505270583E+03  0.32505270583E+03  0.00000000000E+00 0.  1.
         25    2    1    2    0    0  0.16631223989E+03  0.12748460106E+03 -0.74224708935E+01  0.24416192561E+03  0.12509143935E+03 0.  0.
        -24    2    1    2    0    0 -0.88759770536E+02 -0.21039262193E+03  0.36072692681E+02  0.24484471592E+03  0.80649510404E+02 0.  0.
         24    2    1    2    0    0 -0.77552469354E+02  0.82908020870E+02 -0.43647358289E+02  0.14610163363E+03  0.80947328785E+02 0.  0.
        -11    1    5    5    0    0 -0.51576095364E+02  0.85943018629E+02 -0.61961130750E+01  0.10042254668E+03  0.00000000000E+00 0.  1.
         12    1    5    5    0    0 -0.25976373990E+02 -0.30349977586E+01 -0.37451245214E+02  0.45679086956E+02  0.00000000000E+00 0. -1.
         13    1    4    4    0    0 -0.90158957836E+01 -0.63592085460E+01 -0.16229266993E+02  0.19624347562E+02  0.00000000000E+00 0. -1.
        -14    1    4    4    0    0 -0.79743874753E+02 -0.20403341338E+03  0.52301959673E+02  0.22522036835E+03  0.00000000000E+00 0.  1.
          5    1    3    3  501    0  0.15272285580E+03  0.10276433888E+03 -0.51924219436E+02  0.19130702286E+03  0.41800000000E+01 0. -1.
         -5    1    3    3    0  501  0.13589384090E+02  0.24720262172E+02  0.44501748542E+02  0.52854902754E+02  0.41800000000E+01 0. -1.
</event>
<event>
11    1  0.2498402E-009  0.3297337E+03  0.7561462E-02  0.9883375E-01
         22   -1    0    0    0    0  0.00000000000E+00  0.00000000000E+00  0.26387580813E+04  0.26387580813E+04  0.00000000000E+00 0.  1.
         22   -1    0    0    0    0 -0.00000000000E+00 -0.00000000000E+00 -0.50812063356E+03  0.50812063356E+03  0.00000000000E+00 0. -1.
         25    2    1    2    0    0 -0.15051206273E+03  0.26267735440E+03 -0.42162670408E+03  0.53392007245E+03  0.12509313581E+03 0.  0.
        -24    2    1    2    0    0  0.20345641133E+03 -0.29015533649E+03  0.11204216198E+04  0.11776134313E+04  0.76447085525E+02 0.  0.
         24    2    1    2    0    0 -0.52944348605E+02  0.27477982086E+02  0.14318425320E+04  0.14353452111E+04  0.80527603708E+02 0.  0.
        -11    1    5    5    0    0 -0.55722214561E+01  0.46585414661E+02  0.53687897295E+03  0.53892511734E+03  0.00000000000E+00 0.  1.
         12    1    5    5    0    0 -0.47372127149E+02 -0.19107432575E+02  0.89496355907E+03  0.89642009375E+03  0.00000000000E+00 0. -1.
         13    1    4    4    0    0  0.12749224846E+03 -0.11537383404E+03  0.53565739347E+03  0.56257820628E+03  0.00000000000E+00 0. -1.
        -14    1    4    4    0    0  0.75964162877E+02 -0.17478150245E+03  0.58476422632E+03  0.61503522502E+03  0.00000000000E+00 0.  1.
          5    1    3    3  501    0 -0.10981831376E+03  0.14959397189E+03 -0.15648801085E+03  0.24278465438E+03  0.41800000000E+01 0. -1.
         -5    1    3    3    0  501 -0.40693748969E+02  0.11308338252E+03 -0.26513869323E+03  0.29113541807E+03  0.41800000000E+01 0. -1.
</event>
<event>
11    1  0.2498402E-009  0.1588087E+03  0.7561462E-02  0.1088203E+00
         22   -1    0    0    0    0  0.00000000000E+00  0.00000000000E+00  0.73152365384E+02  0.73152365384E+02  0.00000000000E+00 0.  1.
         22   -1    0    0    0    0 -0.00000000000E+00 -0.00000000000E+00 -0.92942067089E+03  0.92942067089E+03  0.00000000000E+00 0. -1.
         25    2    1    2    0    0 -0.12513328153E+02 -0.61357354726E+02 -0.64536877173E+03  0.66035572468E+03  0.12509006054E+03 0.  0.
         24    2    1    2    0    0  0.40530715297E+02 -0.37572483616E+02 -0.18697390895E+03  0.21042768715E+03  0.79158944416E+02 0.  0.
        -24    2    1    2    0    0 -0.28017387144E+02  0.98929838341E+02 -0.23925624829E+02  0.13178962444E+03  0.78892221993E+02 0.  0.
        -11    1    4    4    0    0 -0.48760054863E+01 -0.10397251028E+02  0.40751101670E+01  0.12185433161E+02  0.00000000000E+00 0.  1.
         12    1    4    4    0    0  0.45406720784E+02 -0.27175232587E+02 -0.19104901912E+03  0.19824225398E+03  0.00000000000E+00 0. -1.
         11    1    5    5    0    0 -0.48840734690E+02  0.50677143527E+02 -0.34183356342E+02  0.78243799064E+02  0.00000000000E+00 0. -1.
        -12    1    5    5    0    0  0.20823347546E+02  0.48252694814E+02  0.10257731513E+02  0.53545825380E+02  0.00000000000E+00 0.  1.
          5    1    3    3  501    0 -0.13857969271E+02 -0.94082908030E+02 -0.57243933604E+03  0.58029983866E+03  0.41800000000E+01 0. -1.
         -5    1    3    3    0  501  0.13446411182E+01  0.32725553304E+02 -0.72929435681E+02  0.80055886027E+02  0.41800000000E+01 0. -1.
</event>
<event>
11    1  0.2498402E-009  0.1209157E+04  0.7561462E-02  0.8502116E-01
         22   -1    0    0    0    0  0.00000000000E+00  0.00000000000E+00  0.14260571529E+04  0.14260571529E+04  0.00000000000E+00 0. -1.
         22   -1    0    0    0    0 -0.00000000000E+00 -0.00000000000E+00 -0.25631176926E+03  0.25631176926E+03  0.00000000000E+00 0. -1.
         25    2    1    2    0    0  0.84848825015E+02 -0.53289631512E+03  0.27701329744E+03  0.61932378829E+03  0.12509109484E+03 0.  0.
         24    2    1    2    0    0 -0.97244357731E+02  0.36679195921E+03  0.53769984857E+03  0.66280870692E+03  0.78749275324E+02 0.  0.
        -24    2    1    2    0    0  0.12395532716E+02  0.16610435592E+03  0.35503223765E+03  0.40023642696E+03  0.79981256630E+02 0.  0.
        -11    1    4    4    0    0 -0.46541700897E+02  0.29523859463E+03  0.43461876761E+03  0.52747078671E+03  0.00000000000E+00 0.  1.
         12    1    4    4    0    0 -0.50702656834E+02  0.71553364579E+02  0.10308108097E+03  0.13533792021E+03  0.00000000000E+00 0. -1.
         13    1    5    5    0    0  0.18872743431E+02  0.92182833941E+02  0.11280162848E+03  0.14689473342E+03  0.00000000000E+00 0. -1.
        -14    1    5    5    0    0 -0.64772107156E+01  0.73921521975E+02  0.24223060917E+03  0.25334169355E+03  0.00000000000E+00 0.  1.
          5    1    3    3  501    0  0.92270026338E+02 -0.21755722359E+03  0.92063733119E+02  0.25364957452E+03  0.41800000000E+01 0. -1.
         -5    1    3    3    0  501 -0.74212013232E+01 -0.31533909153E+03  0.18494956432E+03  0.36567421378E+03  0.41800000000E+01 0. -1.
</event>
<event>
11    1  0.2498402E-009  0.1398126E+04  0.7561462E-02  0.8371732E-01
         22   -1    0    0    0    0  0.00000000000E+00  0.00000000000E+00  0.90797649944E+03  0.90797649944E+03  0.00000000000E+00 0.  1.
         22   -1    0    0    0    0 -0.00000000000E+00 -0.00000000000E+00 -0.53821752799E+03  0.53821752799E+03  0.00000000000E+00 0.  1.
         25    2    1    2    0    0  0.62532359974E+03 -0.42318165513E+02 -0.69882248520E+02  0.64292515656E+03  0.12509515080E+03 0.  0.
        -24    2    1    2    0    0 -0.42673381401E+03 -0.10588303809E+02  0.20310913980E+03  0.47947953514E+03  0.80208738656E+02 0.  0.
         24    2    1    2    0    0 -0.19858978574E+03  0.52906469322E+02  0.23653208016E+03  0.32378933573E+03  0.81578866680E+02 0.  0.
        -13    1    5    5    0    0 -0.13374014744E+03 -0.12904644779E+01  0.16953570253E+03  0.21594084090E+03  0.00000000000E+00 0.  1.
         14    1    5    5    0    0 -0.64849638295E+02  0.54196933799E+02  0.66996377630E+02  0.10784849482E+03  0.00000000000E+00 0. -1.
         13    1    4    4    0    0 -0.41013310655E+03 -0.11571544462E+02  0.21065908983E+03  0.46121612923E+03  0.00000000000E+00 0. -1.
        -14    1    4    4    0    0 -0.16600707455E+02  0.98324065330E+00 -0.75499500308E+01  0.18263405916E+02  0.00000000000E+00 0.  1.
          5    1    3    3  501    0  0.18095642863E+01 -0.12921303042E+02 -0.74367517967E+01  0.15588850904E+02  0.41800000000E+01 0. -1.
         -5    1    3    3    0  501  0.62351403546E+03 -0.29396862471E+02 -0.62445496724E+02  0.62733630566E+03  0.41800000000E+01 0. -1.
</event>
<event>
11    1  0.2498402E-009  0.3835973E+03  0.7561462E-02  0.9699434E-01
         22   -1    0    0    0    0  0.00000000000E+00  0.00000000000E+00  0.56482113407E+03  0.56482113407E+03  0.00000000000E+00 0.  1.
         22   -1    0    0    0    0 -0.00000000000E+00 -0.00000000000E+00 -0.73113374594E+03  0.73113374594E+03  0.00000000000E+00 0.  1.
         25    2    1    2    0    0  0.18985037106E+03 -0.99606331195E+02 -0.31281881714E+03  0.39933406357E+03  0.12508995709E+03 0.  0.
        -24    2    1    2    0    0 -0.51019304064E+03  0.11360310926E+03 -0.14323748252E+02  0.52892073854E+03  0.79682951369E+02 0.  0.
         24    2    1    2    0    0  0.32034266958E+03 -0.13996778062E+02  0.16082995352E+03  0.36770007790E+03  0.80757275723E+02 0.  0.
        -11    1    5    5    0    0  0.31464187206E+03  0.84577569220E+00  0.15092866783E+03  0.34896946251E+03  0.00000000000E+00 0.  1.
         12    1    5    5    0    0  0.57007975201E+01 -0.14842553754E+02  0.99012856982E+01  0.18730615387E+02  0.00000000000E+00 0. -1.
         13    1    4    4    0    0 -0.41167522379E+03  0.11555133925E+03  0.89266298527E+01  0.42767778362E+03  0.00000000000E+00 0. -1.
        -14    1    4    4    0    0 -0.98517816855E+02 -0.19482299977E+01 -0.23250378104E+02  0.10124295491E+03  0.00000000000E+00 0.  1.
          5    1    3    3  501    0  0.12524549540E+03 -0.63415105541E+02 -0.95846709786E+02  0.17003521372E+03  0.41800000000E+01 0. -1.
         -5    1    3    3    0  501  0.64604875663E+02 -0.36191225654E+02 -0.21697210735E+03  0.22929884985E+03  0.41800000000E+01 0. -1.
</event>
<event>
11    1  0.2498402E-009  0.2114292E+03  0.7561462E-02  0.1046723E+00
         22   -1    0    0    0    0  0.00000000000E+00  0.00000000000E+00  0.56530348191E+03  0.56530348191E+03  0.00000000000E+00 0.  1.
         22   -1    0    0    0    0 -0.00000000000E+00 -0.00000000000E+00 -0.28364047053E+03  0.28364047053E+03  0.00000000000E+00 0.  1.
         25    2    1    2    0    0  0.82177459415E+02  0.46757282260E+02 -0.15493415868E+03  0.22043440738E+03  0.12508939264E+03 0.  0.
         24    2    1    2    0    0  0.14030850016E+03 -0.52691296645E+02  0.54095282692E+02  0.17899843598E+03  0.81555456676E+02 0.  0.
        -24    2    1    2    0    0 -0.22248595958E+03  0.59340143854E+01  0.38250188736E+03  0.44951110908E+03  0.78850038771E+02 0.  0.
        -11    1    4    4    0    0 -0.99439118804E+01 -0.75747089439E+01  0.10087717463E+02  0.16062989842E+02  0.00000000000E+00 0.  1.
         12    1    4    4    0    0  0.15025241204E+03 -0.45116587701E+02  0.44007565230E+02  0.16293544614E+03  0.00000000000E+00 0. -1.
         11    1    5    5    0    0  0.50547553241E+01  0.17934881920E+01  0.26110246331E+02  0.26655433119E+02  0.00000000000E+00 0. -1.
        -12    1    5    5    0    0 -0.22754071490E+03  0.41405261934E+01  0.35639164103E+03  0.42285567596E+03  0.00000000000E+00 0.  1.
          5    1    3    3  501    0 -0.16489522687E+02  0.29718669905E+02 -0.10096031029E+03  0.10660938211E+03  0.41800000000E+01 0. -1.
         -5    1    3    3    0  501  0.98666982103E+02  0.17038612355E+02 -0.53973848389E+02  0.11382502527E+03  0.41800000000E+01 0. -1.
</event>
<event>
11    1  0.2498402E-009  0.2014845E+03  0.7561462E-02  0.1053479E+00
         22   -1    0    0    0    0  0.00000000000E+00  0.00000000000E+00  0.13530661026E+04  0.13530661026E+04  0.00000000000E+00 0. -1.
         22   -1    0    0    0    0 -0.00000000000E+00 -0.00000000000E+00 -0.70183607363E+03  0.70183607363E+03  0.00000000000E+00 0.  1.
         25    2    1    2    0    0  0.14779355174E+03 -0.64945897614E+02 -0.43858830723E+03  0.48380590354E+03  0.12509014949E+03 0.  0.
         24    2    1    2    0    0 -0.18094827258E+03 -0.11281764804E+03 -0.17716961456E+03  0.28867684161E+03  0.80468301221E+02 0.  0.
        -24    2    1    2    0    0  0.33154720841E+02  0.17776354565E+03  0.12669879507E+04  0.12824194310E+04  0.81498565211E+02 0.  0.
        -13    1    4    4    0    0 -0.58440829910E+02 -0.10397254798E+02 -0.15294943807E+02  0.61297380156E+02  0.00000000000E+00 0.  1.
         14    1    4    4    0    0 -0.12250744267E+03 -0.10242039324E+03 -0.16187467075E+03  0.22737946146E+03  0.00000000000E+00 0. -1.
         11    1    5    5    0    0  0.45359874531E+02  0.11067440759E+03  0.58973634183E+03  0.60174354636E+03  0.00000000000E+00 0. -1.
        -12    1    5    5    0    0 -0.12205153690E+02  0.67089138068E+02  0.67725160890E+03  0.68067588468E+03  0.00000000000E+00 0.  1.
          5    1    3    3  501    0 -0.22633104886E+02 -0.10176264333E+02 -0.53450165124E+02  0.59077968349E+02  0.41800000000E+01 0.  1.
         -5    1    3    3    0  501  0.17042665663E+03 -0.54769633281E+02 -0.38513814211E+03  0.42472793519E+03  0.41800000000E+01 0.  1.
</event>
<event>
11    1  0.2498402E-009  0.2097476E+03  0.7561462E-02  0.1047837E+00
         22   -1    0    0    0    0  0.00000000000E+00  0.00000000000E+00  0.78015468601E+03  0.78015468601E+03  0.00000000000E+00 0.  1.
         22   -1    0    0    0    0 -0.00000000000E+00 -0.00000000000E+00 -0.74559041578E+02  0.74559041578E+02  0.00000000000E+00 0. -1.
         25    2    1    2    0    0  0.38909230112E+01 -0.17181602153E+03  0.35125550746E+03  0.41057082857E+03  0.12510830992E+03 0.  0.
         24    2    1    2    0    0 -0.16730818050E+02  0.16533592975E+03  0.22506432020E+03  0.29158558572E+03  0.82172474906E+02 0.  0.
        -24    2    1    2    0    0  0.12839895038E+02  0.64800917867E+01  0.12927581677E+03  0.15255731330E+03  0.79716011860E+02 0.  0.
        -11    1    4    4    0    0  0.15388894335E+02  0.42352830341E+02  0.11475809704E+03  0.12328828469E+03  0.00000000000E+00 0.  1.
         12    1    4    4    0    0 -0.32119712385E+02  0.12298309941E+03  0.11030622316E+03  0.16829730102E+03  0.00000000000E+00 0. -1.
         11    1    5    5    0    0  0.45567954417E+02  0.88903108234E+01  0.90849067291E+02  0.10202464959E+03  0.00000000000E+00 0. -1.
        -12    1    5    5    0    0 -0.32728059379E+02 -0.24102190367E+01  0.38426749477E+02  0.50532663712E+02  0.00000000000E+00 0.  1.
          5    1    3    3  501    0 -0.51108077436E+02 -0.11795860597E+03  0.26702129786E+03  0.29638507758E+03  0.41800000000E+01 0.  1.
         -5    1    3    3    0  501  0.54999000447E+02 -0.53857415560E+02  0.84234209607E+02  0.11418575099E+03  0.41800000000E+01 0.  1.
</event>
<event>
11    1  0.2498402E-009  0.5531665E+03  0.7561462E-02  0.9281986E-01
         22   -1    0    0    0    0  0.00000000000E+00  0.00000000000E+00  0.74152423860E+03  0.74152423860E+03  0.00000000000E+00 0. -1.
         22   -1    0    0    0    0 -0.00000000000E+00 -0.00000000000E+00 -0.14833290483E+04  0.14833290483E+04  0.00000000000E+00 0.  1.
         25    2    1    2    0    0 -0.27582826015E+03 -0.20049478159E+03 -0.79558658743E+03  0.87457656987E+03  0.12508705738E+03 0.  0.
         24    2    1    2    0    0  0.60224603348E+02 -0.33561974454E+03 -0.45624509173E+03  0.57514078976E+03  0.79747906189E+02 0.  0.
        -24    2    1    2    0    0  0.21560365680E+03  0.53611452613E+03  0.51002686943E+03  0.77513592731E+03  0.82489855857E+02 0.  0.
        -11    1    4    4    0    0 -0.11476127444E+01 -0.17091927789E+03 -0.26552609461E+03  0.31578287396E+03  0.00000000000E+00 0.  1.
         12    1    4    4    0    0  0.61372216092E+02 -0.16470046665E+03 -0.19071899712E+03  0.25935791580E+03  0.00000000000E+00 0. -1.
         13    1    5    5    0    0  0.17782920224E+03  0.49397011379E+03  0.47852820146E+03  0.71036535535E+03  0.00000000000E+00 0. -1.
        -14    1    5    5    0    0  0.37774454557E+02  0.42144412338E+02  0.31498667963E+02  0.64770571958E+02  0.00000000000E+00 0.  1.
          5    1    3    3  501    0 -0.24917674400E+03 -0.12040566472E+03 -0.56903080447E+03  0.63277176192E+03  0.41800000000E+01 0. -1.
         -5    1    3    3    0  501 -0.26651516143E+02 -0.80089116876E+02 -0.22655578296E+03  0.24180480795E+03  0.41800000000E+01 0. -1.
</event>
<event>
11    1  0.2498402E-009  0.3674423E+03  0.7561462E-02  0.9751027E-01
         22   -1    0    0    0    0  0.00000000000E+00  0.00000000000E+00  0.73670703283E+03  0.73670703283E+03  0.00000000000E+00 0. -1.
         22   -1    0    0    0    0 -0.00000000000E+00 -0.00000000000E+00 -0.25763777207E+04  0.25763777207E+04  0.00000000000E+00 0. -1.
         25    2    1    2    0    0 -0.10350069268E+03  0.10153418876E+03 -0.22721056693E+04  0.22801608138E+04  0.12509028648E+03 0.  0.
        -24    2    1    2    0    0  0.10244014217E+03  0.27213412771E+03 -0.14569066379E+03  0.33916909008E+03  0.96223364935E+02 0.  0.
         24    2    1    2    0    0  0.10605505159E+01 -0.37366831647E+03  0.57812564520E+03  0.69375484960E+03  0.86240328172E+02 0.  0.
        -13    1    5    5    0    0  0.85491534495E+01 -0.24351601491E+03  0.29920791481E+03  0.38587370191E+03  0.00000000000E+00 0.  1.
         14    1    5    5    0    0 -0.74886029336E+01 -0.13015230156E+03  0.27891773039E+03  0.30788114769E+03  0.00000000000E+00 0. -1.
         13    1    4    4    0    0 -0.15413375232E+02  0.63752392539E+02 -0.44507236019E+02  0.79264328348E+02  0.00000000000E+00 0. -1.
        -14    1    4    4    0    0  0.11785351740E+03  0.20838173517E+03 -0.10118342777E+03  0.25990476173E+03  0.00000000000E+00 0.  1.
          5    1    3    3  501    0 -0.38391323089E+02  0.26201319203E+02 -0.18913239267E+03  0.19480486948E+03  0.41800000000E+01 0. -1.
         -5    1    3    3    0  501 -0.65109369593E+02  0.75332869557E+02 -0.20829732766E+04  0.20853559444E+04  0.41800000000E+01 0. -1.
</event>
<event>
11    1  0.2498402E-009  0.1578632E+03  0.7561462E-02  0.1089104E+00
         22   -1    0    0    0    0  0.00000000000E+00  0.00000000000E+00  0.68421193566E+03  0.68421193566E+03  0.00000000000E+00 0.  1.
         22   -1    0    0    0    0 -0.00000000000E+00 -0.00000000000E+00 -0.14567509834E+03  0.14567509834E+03  0.00000000000E+00 0.  1.
         25    2    1    2    0    0  0.40409013825E+02 -0.10458688437E+03 -0.54096229377E+02  0.17647876433E+03  0.12508815870E+03 0.  0.
        -24    2    1    2    0    0 -0.16245615616E+02  0.66963322942E+02  0.81397795644E+02  0.13387323812E+03  0.80922407918E+02 0.  0.
         24    2    1    2    0    0 -0.24163398209E+02  0.37623561426E+02  0.51123527106E+03  0.51953503155E+03  0.80967551830E+02 0.  0.
        -11    1    5    5    0    0  0.22369381962E+02  0.39049376270E+02  0.21450129182E+03  0.21917127373E+03  0.00000000000E+00 0.  1.
         12    1    5    5    0    0 -0.46532780170E+02 -0.14258148437E+01  0.29673397924E+03  0.30036375782E+03  0.00000000000E+00 0. -1.
         13    1    4    4    0    0  0.28631630199E+02  0.37598578104E+02  0.17365913229E+02  0.50348766277E+02  0.00000000000E+00 0. -1.
        -14    1    4    4    0    0 -0.44877245815E+02  0.29364744838E+02  0.64031882415E+02  0.83524471845E+02  0.00000000000E+00 0.  1.
          5    1    3    3  501    0 -0.11581550899E+02 -0.94447452620E+02 -0.73082211724E+02  0.12005388664E+03  0.41800000000E+01 0.  1.
         -5    1    3    3    0  501  0.51990564724E+02 -0.10139431748E+02  0.18985982347E+02  0.56424877689E+02  0.41800000000E+01 0.  1.
</event>
<event>
11    1  0.2498402E-009  0.1600935E+03  0.7561462E-02  0.1086989E+00
         22   -1    0    0    0    0  0.00000000000E+00  0.00000000000E+00  0.34174061306E+03  0.34174061306E+03  0.00000000000E+00 0.  1.
         22   -1    0    0    0    0 -0.00000000000E+00 -0.00000000000E+00 -0.32806009834E+03  0.32806009834E+03  0.00000000000E+00 0. -1.
         25    2    1    2    0    0 -0.79994589165E+02  0.24809325911E+02 -0.17534848136E+03  0.23108991329E+03  0.12506326863E+03 0.  0.
         24    2    1    2    0    0  0.43189716453E+02  0.71799010153E+02 -0.79464920772E+02  0.14037192910E+03  0.79806988294E+02 0.  0.
        -24    2    1    2    0    0  0.36804872712E+02 -0.96608336064E+02  0.26849391685E+03  0.29833886901E+03  0.78926092791E+02 0.  0.
        -13    1    4    4    0    0  0.24027028390E+02  0.81471279493E+02 -0.36715290950E+02  0.92535831249E+02  0.00000000000E+00 0.  1.
         14    1    4    4    0    0  0.19162688064E+02 -0.96722693400E+01 -0.42749629821E+02  0.47836097854E+02  0.00000000000E+00 0. -1.
         11    1    5    5    0    0  0.65328251966E+01  0.90522576901E+01  0.39009258211E+01  0.11825328604E+02  0.00000000000E+00 0. -1.
        -12    1    5    5    0    0  0.30272047516E+02 -0.10566059375E+03  0.26459299103E+03  0.28651354041E+03  0.00000000000E+00 0.  1.
          5    1    3    3  501    0  0.18073777505E+02 -0.23346454913E+02 -0.74584273236E+01  0.30737907028E+02  0.41800000000E+01 0.  1.
         -5    1    3    3    0  501 -0.98068366671E+02  0.48155780824E+02 -0.16789005404E+03  0.20035200626E+03  0.41800000000E+01 0.  1.
</event>
<event>
11    1  0.2498402E-009  0.1574656E+03  0.7561462E-02  0.1089485E+00
         22   -1    0    0    0    0  0.00000000000E+00  0.00000000000E+00  0.77763181808E+03  0.77763181808E+03  0.00000000000E+00 0. -1.
         22   -1    0    0    0    0 -0.00000000000E+00 -0.00000000000E+00 -0.31208541830E+03  0.31208541830E+03  0.00000000000E+00 0. -1.
         25    2    1    2    0    0  0.15993447097E+03 -0.93879290839E+02 -0.21404730319E+03  0.30960544984E+03  0.12508769050E+03 0.  0.
         24    2    1    2    0    0 -0.79064002680E+02  0.47691799209E+02  0.47244260882E+02  0.13308279328E+03  0.83386962108E+02 0.  0.
        -24    2    1    2    0    0 -0.80870468290E+02  0.46187491630E+02  0.63234944209E+03  0.64702899326E+03  0.10053548721E+03 0.  0.
        -11    1    4    4    0    0 -0.68567915812E+02  0.31801254234E+01  0.53361260209E+02  0.86943063942E+02  0.00000000000E+00 0.  1.
         12    1    4    4    0    0 -0.10496086868E+02  0.44511673785E+02 -0.61169993271E+01  0.46139729339E+02  0.00000000000E+00 0. -1.
         11    1    5    5    0    0 -0.84431376183E+02  0.66752195360E+02  0.59089099532E+03  0.60061358727E+03  0.00000000000E+00 0. -1.
        -12    1    5    5    0    0  0.35609078923E+01 -0.20564703730E+02  0.41458446771E+02  0.46415405990E+02  0.00000000000E+00 0.  1.
          5    1    3    3  501    0  0.16284086207E+03 -0.10798332447E+03 -0.15719589418E+03  0.25080982092E+03  0.41800000000E+01 0. -1.
         -5    1    3    3    0  501 -0.29063910995E+01  0.14104033632E+02 -0.56851409003E+02  0.58795628915E+02  0.41800000000E+01 0. -1.
</event>
<event>
11    1  0.2498402E-009  0.5727289E+03  0.7561462E-02  0.9244247E-01
         22   -1    0    0    0    0  0.00000000000E+00  0.00000000000E+00  0.65697880611E+03  0.65697880611E+03  0.00000000000E+00 0.  1.
         22   -1    0    0    0    0 -0.00000000000E+00 -0.00000000000E+00 -0.95238241665E+03  0.95238241665E+03  0.00000000000E+00 0.  1.
         25    2    1    2    0    0 -0.50700296428E+03  0.33061658999E+03 -0.27311079608E+02  0.61866966495E+03  0.12508766485E+03 0.  0.
        -24    2    1    2    0    0  0.31267524147E+03 -0.45416009520E+03 -0.42340173013E+03  0.69980948593E+03  0.80231495237E+02 0.  0.
         24    2    1    2    0    0  0.19432772281E+03  0.12354350521E+03  0.15530919920E+03  0.29088207187E+03  0.86401220189E+02 0.  0.
        -11    1    5    5    0    0  0.15474552472E+03  0.55456377820E+02  0.12493505074E+03  0.20647119452E+03  0.00000000000E+00 0.  1.
         12    1    5    5    0    0  0.39582198088E+02  0.68087127388E+02  0.30374148463E+02  0.84410877357E+02  0.00000000000E+00 0. -1.
         13    1    4    4    0    0  0.11020614450E+02 -0.38215662542E+02 -0.53644919556E+02  0.66780747230E+02  0.00000000000E+00 0. -1.
        -14    1    4    4    0    0  0.30165462702E+03 -0.41594443265E+03 -0.36975681057E+03  0.63302873870E+03  0.00000000000E+00 0.  1.
          5    1    3    3  501    0 -0.48498034592E+03  0.29245743503E+03  0.59054686873E+00  0.56635245950E+03  0.41800000000E+01 0. -1.
         -5    1    3    3    0  501 -0.22022618363E+02  0.38159154958E+02 -0.27901626477E+02  0.52317205455E+02  0.41800000000E+01 0. -1.
</event>
<event>
11    1  0.2498402E-009  0.2068047E+03  0.7561462E-02  0.1049813E+00
         22   -1    0    0    0    0  0.00000000000E+00  0.00000000000E+00  0.13268641630E+03  0.13268641630E+03  0.00000000000E+00 0. -1.
         22   -1    0    0    0    0 -0.00000000000E+00 -0.00000000000E+00 -0.67732406398E+03  0.67732406398E+03  0.00000000000E+00 0.  1.
         25    2    1    2    0    0  0.68073916193E+02  0.98486965578E+02 -0.34400789660E+03  0.38512767437E+03  0.12509257449E+03 0.  0.
        -24    2    1    2    0    0 -0.30767406012E+02  0.76753098878E+02 -0.19666730579E+03  0.22877109214E+03  0.82586390960E+02 0.  0.
         24    2    1    2    0    0 -0.37306510182E+02 -0.17524006446E+03 -0.39624452948E+01  0.19611171377E+03  0.79644506471E+02 0.  0.
        -13    1    5    5    0    0 -0.33721903500E+02 -0.81053980200E+02 -0.38323640236E+02  0.95789435132E+02  0.00000000000E+00 0.  1.
         14    1    5    5    0    0 -0.35846066812E+01 -0.94186084257E+02  0.34361194941E+02  0.10032227863E+03  0.00000000000E+00 0. -1.
         13    1    4    4    0    0 -0.24329054989E+02 -0.10584045965E+02 -0.27103270223E+02  0.37927723402E+02  0.00000000000E+00 0. -1.
        -14    1    4    4    0    0 -0.64383510224E+01  0.87337144843E+02 -0.16956403557E+03  0.19084336874E+03  0.00000000000E+00 0.  1.
          5    1    3    3  501    0  0.54149958755E+02  0.12714077489E+03 -0.30283193020E+03  0.33289885104E+03  0.41800000000E+01 0.  1.
         -5    1    3    3    0  501  0.13923957438E+02 -0.28653809307E+02 -0.41175966396E+02  0.52228823337E+02  0.41800000000E+01 0.  1.
</event>
<event>
11    1  0.2498402E-009  0.1341950E+03  0.7561462E-02  0.1114219E+00
         22   -1    0    0    0    0  0.00000000000E+00  0.00000000000E+00  0.71282808876E+03  0.71282808876E+03  0.00000000000E+00 0. -1.
         22   -1    0    0    0    0 -0.00000000000E+00 -0.00000000000E+00 -0.27245250991E+03  0.27245250991E+03  0.00000000000E+00 0. -1.
         25    2    1    2    0    0 -0.52684169323E+01 -0.13968423024E+02 -0.97943659699E+02  0.15957695601E+03  0.12509584867E+03 0.  0.
         24    2    1    2    0    0  0.27034029990E+02 -0.30620536236E+02 -0.12647799116E+03  0.15388178690E+03  0.77552988818E+02 0.  0.
        -24    2    1    2    0    0 -0.21765613058E+02  0.44588959261E+02  0.66479722971E+03  0.67182185577E+03  0.83230595664E+02 0.  0.
        -13    1    4    4    0    0  0.73760060785E+01 -0.50525468779E+02 -0.11034787410E+03  0.12158898708E+03  0.00000000000E+00 0.  1.
         14    1    4    4    0    0  0.19658023912E+02  0.19904932542E+02 -0.16130117054E+02  0.32292799814E+02  0.00000000000E+00 0. -1.
         11    1    5    5    0    0 -0.49171363326E+02  0.34878908105E+02  0.55410329183E+03  0.55737314182E+03  0.00000000000E+00 0. -1.
        -12    1    5    5    0    0  0.27405750268E+02  0.97100511559E+01  0.11069393788E+03  0.11444871395E+03  0.00000000000E+00 0.  1.
          5    1    3    3  501    0 -0.92286565168E+01 -0.49370718802E+02  0.49202355333E+01  0.50639086621E+02  0.41800000000E+01 0. -1.
         -5    1    3    3    0  501  0.39602395845E+01  0.35402295778E+02 -0.10286389523E+03  0.10893786939E+03  0.41800000000E+01 0. -1.
</event>
<event>
11    1  0.2498402E-009  0.3871394E+03  0.7561462E-02  0.9688485E-01
         22   -1    0    0    0    0  0.00000000000E+00  0.00000000000E+00  0.66553020949E+03  0.66553020949E+03  0.00000000000E+00 0. -1.
         22   -1    0    0    0    0 -0.00000000000E+00 -0.00000000000E+00 -0.46062521782E+03  0.46062521782E+03  0.00000000000E+00 0. -1.
         25    2    1    2    0    0 -0.28703396441E+02 -0.35899280682E+03 -0.23959679599E+03  0.45028158657E+03  0.12508861754E+03 0.  0.
         24    2    1    2    0    0 -0.24573977645E+02  0.39617307847E+03  0.37376743134E+03  0.55126322295E+03  0.81437459213E+02 0.  0.
        -24    2    1    2    0    0  0.53277374086E+02 -0.37180271648E+02  0.70734356330E+02  0.12461061779E+03  0.79395249932E+02 0.  0.
        -11    1    4    4    0    0 -0.48397168118E+02  0.15028149336E+03  0.15573486973E+03  0.22176600906E+03  0.00000000000E+00 0.  1.
         12    1    4    4    0    0  0.23823190474E+02  0.24589158511E+03  0.21803256161E+03  0.32949721388E+03  0.00000000000E+00 0. -1.
         11    1    5    5    0    0  0.66297981381E+01  0.22933055453E+02  0.57671367766E+01  0.24558890903E+02  0.00000000000E+00 0. -1.
        -12    1    5    5    0    0  0.46647575948E+02 -0.60113327101E+02  0.64967219554E+02  0.10005172689E+03  0.00000000000E+00 0.  1.
          5    1    3    3  501    0  0.10266118842E+02 -0.17907516225E+03 -0.50606384934E+02  0.18641830792E+03  0.41800000000E+01 0.  1.
         -5    1    3    3    0  501 -0.38969515284E+02 -0.17991764457E+03 -0.18899041106E+03  0.26386327865E+03  0.41800000000E+01 0.  1.
</event>
<event>
11    1  0.2498402E-009  0.1866760E+03  0.7561462E-02  0.1064367E+00
         22   -1    0    0    0    0  0.00000000000E+00  0.00000000000E+00  0.19451196609E+03  0.19451196609E+03  0.00000000000E+00 0. -1.
         22   -1    0    0    0    0 -0.00000000000E+00 -0.00000000000E+00 -0.50987500668E+03  0.50987500668E+03  0.00000000000E+00 0. -1.
         25    2    1    2    0    0 -0.12631477454E+03  0.32004990167E+02 -0.25018315205E+03  0.30857550155E+03  0.12508992335E+03 0.  0.
         24    2    1    2    0    0  0.18217503120E+03  0.99067052217E+02 -0.15381366370E+02  0.22412458698E+03  0.83625481939E+02 0.  0.
        -24    2    1    2    0    0 -0.55860256655E+02 -0.13107204238E+03 -0.49798522174E+02  0.17168688425E+03  0.81830586243E+02 0.  0.
        -11    1    4    4    0    0  0.42423666864E+02  0.57929900463E+02  0.19344150844E+02  0.74362874136E+02  0.00000000000E+00 0.  1.
         12    1    4    4    0    0  0.13975136433E+03  0.41137151754E+02 -0.34725517214E+02  0.14976171284E+03  0.00000000000E+00 0. -1.
         11    1    5    5    0    0 -0.61941862798E+02 -0.59523642733E+02 -0.50935777484E+02  0.99871476604E+02  0.00000000000E+00 0. -1.
        -12    1    5    5    0    0  0.60816061432E+01 -0.71548399651E+02  0.11372553099E+01  0.71815407648E+02  0.00000000000E+00 0.  1.
          5    1    3    3  501    0 -0.10991149943E+03  0.75185448192E+02 -0.19924191984E+03  0.23968355044E+03  0.41800000000E+01 0. -1.
         -5    1    3    3    0  501 -0.16403275113E+02 -0.43180458025E+02 -0.50941232201E+02  0.68891951110E+02  0.41800000000E+01 0. -1.
</event>
<event>
11    1  0.2498402E-009  0.1286614E+03  0.7561462E-02  0.1120925E+00
         22   -1    0    0    0    0  0.00000000000E+00  0.00000000000E+00  0.20035175176E+04  0.20035175176E+04  0.00000000000E+00 0.  1.
         22   -1    0    0    0    0 -0.00000000000E+00 -0.00000000000E+00 -0.32484242926E+03  0.32484242926E+03  0.00000000000E+00 0. -1.
         25    2    1    2    0    0  0.21829106019E+02 -0.44690941898E+01 -0.15815748851E+03  0.20287441626E+03  0.12509098661E+03 0.  0.
        -24    2    1    2    0    0  0.37744559485E+01 -0.11453209573E+02 -0.13126075301E+03  0.15539588847E+03  0.82298689804E+02 0.  0.
         24    2    1    2    0    0 -0.25603561967E+02  0.15922303762E+02  0.19680933298E+04  0.19700896421E+04  0.83383336395E+02 0.  0.
        -13    1    5    5    0    0 -0.36417176903E+02  0.25391027089E+02  0.18989161575E+04  0.18994350445E+04  0.00000000000E+00 0.  1.
         14    1    5    5    0    0  0.10813614936E+02 -0.94687233269E+01  0.69177172307E+02  0.70654597571E+02  0.00000000000E+00 0. -1.
         11    1    4    4    0    0 -0.13266653257E+02  0.94447447937E+01 -0.12706719594E+03  0.12810651653E+03  0.00000000000E+00 0. -1.
        -12    1    4    4    0    0  0.17041109205E+02 -0.20897954366E+02 -0.41935570683E+01  0.27289371934E+02  0.00000000000E+00 0.  1.
          5    1    3    3  501    0  0.94545293251E+00  0.48644090219E+02 -0.18979005692E+02  0.52390995902E+02  0.41800000000E+01 0.  1.
         -5    1    3    3    0  501  0.20883653086E+02 -0.53113184409E+02 -0.13917848282E+03  0.15048342036E+03  0.41800000000E+01 0.  1.
</event>
<event>
11    1  0.2498402E-009  0.2126742E+03  0.7561462E-02  0.1045906E+00
         22   -1    0    0    0    0  0.00000000000E+00  0.00000000000E+00  0.12344517828E+03  0.12344517828E+03  0.00000000000E+00 0.  1.
         22   -1    0    0    0    0 -0.00000000000E+00 -0.00000000000E+00 -0.60745773882E+03  0.60745773882E+03  0.00000000000E+00 0.  1.
         25    2    1    2    0    0 -0.13932159107E+03  0.12560409725E+03 -0.36290545134E+03  0.42724233430E+03  0.12509496641E+03 0.  0.
         24    2    1    2    0    0  0.73549367605E+02 -0.12462664671E+03 -0.37258004856E+02  0.16986995543E+03  0.80785718325E+02 0.  0.
        -24    2    1    2    0    0  0.65772223462E+02 -0.97745054145E+00 -0.83849104342E+02  0.13379062738E+03  0.80884602288E+02 0.  0.
        -11    1    4    4    0    0 -0.10232688986E+02 -0.27200938278E+02 -0.29082272348E+02  0.41114201099E+02  0.00000000000E+00 0.  1.
         12    1    4    4    0    0  0.83782056591E+02 -0.97425708436E+02 -0.81757325079E+01  0.12875575433E+03  0.00000000000E+00 0. -1.
         11    1    5    5    0    0 -0.15767219353E+02 -0.13323570057E+02 -0.25293241684E+02  0.32647676795E+02  0.00000000000E+00 0. -1.
        -12    1    5    5    0    0  0.81539442815E+02  0.12346119516E+02 -0.58555862658E+02  0.10114295059E+03  0.00000000000E+00 0.  1.
          5    1    3    3  501    0 -0.86930728466E+02  0.12561459239E+03 -0.17599436496E+03  0.23308253103E+03  0.41800000000E+01 0. -1.
         -5    1    3    3    0  501 -0.52390862601E+02 -0.10495134897E-01 -0.18691108638E+03  0.19415980327E+03  0.41800000000E+01 0. -1.
</event>
<event>
11    1  0.2498402E-009  0.2541035E+03  0.7561462E-02  0.1021736E+00
         22   -1    0    0    0    0  0.00000000000E+00  0.00000000000E+00  0.18663602248E+04  0.18663602248E+04  0.00000000000E+00 0.  1.
         22   -1    0    0    0    0 -0.00000000000E+00 -0.00000000000E+00 -0.80814755085E+02  0.80814755085E+02  0.00000000000E+00 0.  1.
         25    2    1    2    0    0 -0.47891016746E+02 -0.65961836601E+02  0.16896480244E+03  0.22548134752E+03  0.12509284649E+03 0.  0.
        -24    2    1    2    0    0  0.19746665150E+03 -0.12855768678E+03  0.35436852192E+03  0.43321960475E+03  0.81129645178E+02 0.  0.
         24    2    1    2    0    0 -0.14957563475E+03  0.19451952338E+03  0.12622121454E+04  0.12884740277E+04  0.82311022829E+02 0.  0.
        -11    1    5    5    0    0 -0.84336982609E+02  0.16786203225E+03  0.95189736767E+03  0.97025717574E+03  0.00000000000E+00 0.  1.
         12    1    5    5    0    0 -0.65238652146E+02  0.26657491124E+02  0.31031477773E+03  0.31821685192E+03  0.00000000000E+00 0. -1.
         13    1    4    4    0    0  0.18163709540E+03 -0.11153447414E+03  0.34965557642E+03  0.40950091022E+03  0.00000000000E+00 0. -1.
        -14    1    4    4    0    0  0.15829556101E+02 -0.17023212636E+02  0.47129454936E+01  0.23718694526E+02  0.00000000000E+00 0.  1.
          5    1    3    3  501    0  0.80119066200E+01  0.26651932243E+02  0.43761962334E+01  0.28480513223E+02  0.41800000000E+01 0. -1.
         -5    1    3    3    0  501 -0.55902923366E+02 -0.92613768844E+02  0.16458860621E+03  0.19700083430E+03  0.41800000000E+01 0. -1.
</event>
<event>
11    1  0.2498402E-009  0.1316135E+03  0.7561462E-02  0.1117302E+00
         22   -1    0    0    0    0  0.00000000000E+00  0.00000000000E+00  0.91272796847E+02  0.91272796847E+02  0.00000000000E+00 0.  1.
         22   -1    0    0    0    0 -0.00000000000E+00 -0.00000000000E+00 -0.91320859300E+03  0.91320859300E+03  0.00000000000E+00 0.  1.
         25    2    1    2    0    0 -0.28334773600E+02  0.31551606395E+02 -0.62388388569E+03  0.63771203014E+03  0.12508863779E+03 0.  0.
        -24    2    1    2    0    0  0.19525267458E+02 -0.34723505180E+02 -0.25233973649E+03  0.26730414205E+03  0.78671493349E+02 0.  0.
         24    2    1    2    0    0  0.88095061413E+01  0.31718987858E+01  0.54287826020E+02  0.99465217657E+02  0.82816019762E+02 0.  0.
        -13    1    5    5    0    0 -0.12824807458E+02  0.39052550182E+02  0.22393099852E+02  0.46808421070E+02  0.00000000000E+00 0.  1.
         14    1    5    5    0    0  0.21634313599E+02 -0.35880651396E+02  0.31894726168E+02  0.52656796588E+02  0.00000000000E+00 0. -1.
         13    1    4    4    0    0  0.31648697195E+02  0.14357591654E+02 -0.71004857795E+02  0.79053591334E+02  0.00000000000E+00 0. -1.
        -14    1    4    4    0    0 -0.12123429736E+02 -0.49081096835E+02 -0.18133487869E+03  0.18825055072E+03  0.00000000000E+00 0.  1.
          5    1    3    3  501    0 -0.19100755894E+02  0.64108361503E+02 -0.57012550838E+03  0.57405164280E+03  0.41800000000E+01 0.  1.
         -5    1    3    3    0  501 -0.92340177056E+01 -0.32556755109E+02 -0.53758377307E+02  0.63660387345E+02  0.41800000000E+01 0.  1.
</event>
<event>
11    1  0.2498402E-009  0.5079922E+03  0.7561462E-02  0.9375838E-01
         22   -1    0    0    0    0  0.00000000000E+00  0.00000000000E+00  0.16600675199E+03  0.16600675199E+03  0.00000000000E+00 0. -1.
         22   -1    0    0    0    0 -0.00000000000E+00 -0.00000000000E+00 -0.29411763308E+04  0.29411763308E+04  0.00000000000E+00 0. -1.
         25    2    1    2    0    0  0.74648748983E+02  0.26640872819E+03 -0.94791304831E+03  0.99535501269E+03  0.12508560251E+03 0.  0.
        -24    2    1    2    0    0 -0.54278317616E+03 -0.16888480865E+03 -0.10164672550E+04  0.11672818330E+04  0.78775263974E+02 0.  0.
         24    2    1    2    0    0  0.46813442718E+03 -0.97523919535E+02 -0.81078927551E+03  0.94454623712E+03  0.78278911466E+02 0.  0.
        -13    1    5    5    0    0  0.17771821960E+02 -0.18939286622E+02 -0.29262268153E+02  0.39125625503E+02  0.00000000000E+00 0.  1.
         14    1    5    5    0    0  0.45036260522E+03 -0.78584632913E+02 -0.78152700736E+03  0.90542061162E+03  0.00000000000E+00 0. -1.
         13    1    4    4    0    0 -0.21329897590E+03 -0.94043742200E+02 -0.35835941370E+03  0.42750689814E+03  0.00000000000E+00 0. -1.
        -14    1    4    4    0    0 -0.32948420026E+03 -0.74841066452E+02 -0.65810784132E+03  0.73977493486E+03  0.00000000000E+00 0.  1.
          5    1    3    3  501    0  0.77715039790E+02  0.26668031375E+03 -0.79116535619E+03  0.83852138338E+03  0.41800000000E+01 0.  1.
         -5    1    3    3    0  501 -0.30662908071E+01 -0.27158556055E+00 -0.15674769212E+03  0.15683362931E+03  0.41800000000E+01 0.  1.
</event>
<event>
11    1  0.2498402E-009  0.1512711E+03  0.7561462E-02  0.1095587E+00
         22   -1    0    0    0    0  0.00000000000E+00  0.00000000000E+00  0.55001144569E+03  0.55001144569E+03  0.00000000000E+00 0. -1.
         22   -1    0    0    0    0 -0.00000000000E+00 -0.00000000000E+00 -0.68097778370E+03  0.68097778370E+03  0.00000000000E+00 0. -1.
         25    2    1    2    0    0  0.63403350880E+02  0.54924871397E+02 -0.30795729422E+03  0.34280071252E+03  0.12505161751E+03 0.  0.
        -24    2    1    2    0    0 -0.30202862140E+02 -0.84886014441E+02 -0.34125711132E+03  0.36208707230E+03  0.80825636868E+02 0.  0.
         24    2    1    2    0    0 -0.33200488740E+02  0.29961143044E+02  0.51824806753E+03  0.52610144456E+03  0.78751050318E+02 0.  0.
        -11    1    5    5    0    0  0.17849800533E+02  0.33750258374E+02  0.26449417373E+03  0.26723559504E+03  0.00000000000E+00 0.  1.
         12    1    5    5    0    0 -0.51050289273E+02 -0.37891153297E+01  0.25375389380E+03  0.25886584952E+03  0.00000000000E+00 0. -1.
         11    1    4    4    0    0  0.26142166648E+02 -0.36694098011E+02 -0.16079209175E+03  0.16698492888E+03  0.00000000000E+00 0. -1.
        -12    1    4    4    0    0 -0.56345028788E+02 -0.48191916429E+02 -0.18046501957E+03  0.19510214342E+03  0.00000000000E+00 0.  1.
          5    1    3    3  501    0  0.71611244406E+02  0.29600750269E+02 -0.30610700809E+03  0.31579003712E+03  0.41800000000E+01 0.  1.
         -5    1    3    3    0  501 -0.82078935264E+01  0.25324121128E+02 -0.18502861326E+01  0.27010675405E+02  0.41800000000E+01 0.  1.
</event>
<event>
11    1  0.2498402E-009  0.1466081E+03  0.7561462E-02  0.1100396E+00
         22   -1    0    0    0    0  0.00000000000E+00  0.00000000000E+00  0.96516064940E+03  0.96516064940E+03  0.00000000000E+00 0. -1.
         22   -1    0    0    0    0 -0.00000000000E+00 -0.00000000000E+00 -0.35397109528E+03  0.35397109528E+03  0.00000000000E+00 0. -1.
         25    2    1    2    0    0 -0.51352244000E+02 -0.38184484924E+01 -0.88554158190E+02  0.16168187492E+03  0.12509019238E+03 0.  0.
         24    2    1    2    0    0  0.41316692258E+02  0.91375961280E+02 -0.20665924789E+03  0.24348599494E+03  0.80751158701E+02 0.  0.
        -24    2    1    2    0    0  0.10035551742E+02 -0.87557512787E+02  0.90640296020E+03  0.91396387482E+03  0.77437767777E+02 0.  0.
        -13    1    4    4    0    0  0.17551371695E+02  0.27574843843E+02 -0.82377238020E+01  0.33708793434E+02  0.00000000000E+00 0.  1.
         14    1    4    4    0    0  0.23765320563E+02  0.63801117437E+02 -0.19842152409E+03  0.20977720150E+03  0.00000000000E+00 0. -1.
         11    1    5    5    0    0 -0.32204445815E+02 -0.28730373952E+02  0.26590102377E+03  0.26938061393E+03  0.00000000000E+00 0. -1.
        -12    1    5    5    0    0  0.42239997557E+02 -0.58827138836E+02  0.64050193643E+03  0.64458326090E+03  0.00000000000E+00 0.  1.
          5    1    3    3  501    0 -0.79454255229E+02 -0.40108464441E+02 -0.61048199425E+02  0.10800936370E+03  0.41800000000E+01 0.  1.
         -5    1    3    3    0  501  0.28102011228E+02  0.36290015949E+02 -0.27505958765E+02  0.53672511216E+02  0.41800000000E+01 0.  1.
</event>
<event>
11    1  0.2498402E-009  0.1744866E+04  0.7561462E-02  0.8180451E-01
         22   -1    0    0    0    0  0.00000000000E+00  0.00000000000E+00  0.11572888046E+04  0.11572888046E+04  0.00000000000E+00 0.  1.
         22   -1    0    0    0    0 -0.00000000000E+00 -0.00000000000E+00 -0.38144119587E+04  0.38144119587E+04  0.00000000000E+00 0.  1.
         25    2    1    2    0    0  0.17562256658E+04 -0.77400886200E+02 -0.25329923234E+04  0.30857756245E+04  0.12506641182E+03 0.  0.
        -24    2    1    2    0    0 -0.16951208476E+04 -0.25056775660E+02 -0.22377197071E+03  0.17111940913E+04  0.63630130170E+02 0.  0.
         24    2    1    2    0    0 -0.61104818274E+02  0.10245766186E+03  0.99641140024E+02  0.17473104756E+03  0.79819865359E+02 0.  0.
        -11    1    5    5    0    0 -0.72236796582E+02  0.69356156121E+02  0.97461839794E+02  0.13973990621E+03  0.00000000000E+00 0.  1.
         12    1    5    5    0    0  0.11131978309E+02  0.33101505739E+02  0.21793002299E+01  0.34991141347E+02  0.00000000000E+00 0. -1.
         13    1    4    4    0    0 -0.45763308395E+03  0.21461212750E+02 -0.61572205086E+02  0.46225508068E+03  0.00000000000E+00 0. -1.
        -14    1    4    4    0    0 -0.12374877636E+04 -0.46517988410E+02 -0.16219976562E+03  0.12489390107E+04  0.00000000000E+00 0.  1.
          5    1    3    3  501    0  0.98018595888E+03 -0.14476450228E+02 -0.13149677816E+04  0.16401621324E+04  0.41800000000E+01 0. -1.
         -5    1    3    3    0  501  0.77603970696E+03 -0.62924435972E+02 -0.12180245419E+04  0.14456134921E+04  0.41800000000E+01 0. -1.
</event>
<event>
11    1  0.2498402E-009  0.1915950E+03  0.7561462E-02  0.1060632E+00
         22   -1    0    0    0    0  0.00000000000E+00  0.00000000000E+00  0.33421405754E+03  0.33421405754E+03  0.00000000000E+00 0. -1.
         22   -1    0    0    0    0 -0.00000000000E+00 -0.00000000000E+00 -0.11700207780E+04  0.11700207780E+04  0.00000000000E+00 0. -1.
         25    2    1    2    0    0  0.17977844065E+02 -0.19609497109E+03 -0.88122060891E+03  0.91157749712E+03  0.12508929267E+03 0.  0.
         24    2    1    2    0    0  0.56450697219E+02  0.72495768461E+02 -0.23587202123E+03  0.26507422172E+03  0.78653766356E+02 0.  0.
        -24    2    1    2    0    0 -0.74428541284E+02  0.12359920263E+03  0.28128590965E+03  0.32758311671E+03  0.85863640346E+02 0.  0.
        -13    1    4    4    0    0  0.45867021394E+01 -0.96411132263E+01 -0.78209058365E+00  0.10705165409E+02  0.00000000000E+00 0.  1.
         14    1    4    4    0    0  0.51863995079E+02  0.82136881687E+02 -0.23508993065E+03  0.25436905631E+03  0.00000000000E+00 0. -1.
         13    1    5    5    0    0 -0.82342674009E+02  0.10876843474E+03  0.18510984617E+03  0.22994900197E+03  0.00000000000E+00 0. -1.
        -14    1    5    5    0    0  0.79141327252E+01  0.14830767890E+02  0.96176063485E+02  0.97634114737E+02  0.00000000000E+00 0.  1.
          5    1    3    3  501    0  0.26775118351E+02 -0.15438015036E+03 -0.83062105882E+03  0.84528039936E+03  0.41800000000E+01 0. -1.
         -5    1    3    3    0  501 -0.87972742864E+01 -0.41714820726E+02 -0.50599550090E+02  0.66297097768E+02  0.41800000000E+01 0. -1.
</event>
<event>
11    1  0.2498402E-009  0.1645600E+04  0.7561462E-02  0.8230154E-01
         22   -1    0    0    0    0  0.00000000000E+00  0.00000000000E+00  0.22910642708E+03  0.22910642708E+03  0.00000000000E+00 0.  1.
         22   -1    0    0    0    0 -0.00000000000E+00 -0.00000000000E+00 -0.29549587167E+04  0.29549587167E+04  0.00000000000E+00 0.  1.
         25    2    1    2    0    0 -0.19259728279E+03 -0.60887047618E+03 -0.22698737860E+04  0.23613113863E+04  0.12508992163E+03 0.  0.
        -24    2    1    2    0    0  0.13259136585E+03  0.52466316114E+03 -0.41054994218E+03  0.68335621310E+03  0.74649554617E+02 0.  0.
         24    2    1    2    0    0  0.60005916934E+02  0.84207315042E+02 -0.45428561478E+02  0.13939754443E+03  0.81708868686E+02 0.  0.
        -11    1    5    5    0    0  0.27724996466E+02  0.70501080987E+02  0.72608286442E+01  0.76103859836E+02  0.00000000000E+00 0.  1.
         12    1    5    5    0    0  0.32280920468E+02  0.13706234055E+02 -0.52689390122E+02  0.63293684596E+02  0.00000000000E+00 0. -1.
         11    1    4    4    0    0  0.69016480800E+02  0.13880689879E+03 -0.12506630606E+03  0.19917884096E+03  0.00000000000E+00 0. -1.
        -12    1    4    4    0    0  0.63574885052E+02  0.38585626235E+03 -0.28548363612E+03  0.48417737214E+03  0.00000000000E+00 0.  1.
          5    1    3    3  501    0 -0.83047419387E+02 -0.33647845008E+03 -0.14365207117E+04  0.14777428223E+04  0.41800000000E+01 0.  1.
         -5    1    3    3    0  501 -0.10954986340E+03 -0.27239202610E+03 -0.83335307433E+03  0.88356856403E+03  0.41800000000E+01 0.  1.
</event>
<event>
11    1  0.2498402E-009  0.4062090E+03  0.7561462E-02  0.9631614E-01
         22   -1    0    0    0    0  0.00000000000E+00  0.00000000000E+00  0.62338380737E+03  0.62338380737E+03  0.00000000000E+00 0.  1.
         22   -1    0    0    0    0 -0.00000000000E+00 -0.00000000000E+00 -0.35804419425E+03  0.35804419425E+03  0.00000000000E+00 0.  1.
         25    2    1    2    0    0 -0.23778208876E+03  0.32823177222E+03 -0.15614390861E+02  0.42447395127E+03  0.12513156305E+03 0.  0.
         24    2    1    2    0    0  0.15503944568E+03 -0.32564393126E+03  0.21505685882E+03  0.42730183250E+03  0.79096168393E+02 0.  0.
        -24    2    1    2    0    0  0.82742643082E+02 -0.25878409633E+01  0.65897145170E+02  0.12965221785E+03  0.74928111859E+02 0.  0.
        -13    1    4    4    0    0  0.77862145979E+02 -0.20533154602E+03  0.16908631775E+03  0.27715291883E+03  0.00000000000E+00 0.  1.
         14    1    4    4    0    0  0.77177299700E+02 -0.12031238524E+03  0.45970541073E+02  0.15014891367E+03  0.00000000000E+00 0. -1.
         11    1    5    5    0    0  0.14134906995E+02  0.23224827889E+02 -0.50333540688E+01  0.27650006861E+02  0.00000000000E+00 0. -1.
        -12    1    5    5    0    0  0.68607736087E+02 -0.25812668853E+02  0.70930499239E+02  0.10200221099E+03  0.00000000000E+00 0.  1.
          5    1    3    3  501    0 -0.24011840880E+03  0.25445155861E+03 -0.19572848361E+02  0.35043261081E+03  0.41800000000E+01 0.  1.
         -5    1    3    3    0  501  0.23363200383E+01  0.73780213607E+02  0.39584574999E+01  0.74041340459E+02  0.41800000000E+01 0.  1.
</event>
<event>
11    1  0.2498402E-009  0.1454285E+03  0.7561462E-02  0.1101644E+00
         22   -1    0    0    0    0  0.00000000000E+00  0.00000000000E+00  0.95984292217E+02  0.95984292217E+02  0.00000000000E+00 0. -1.
         22   -1    0    0    0    0 -0.00000000000E+00 -0.00000000000E+00 -0.12736022480E+04  0.12736022480E+04  0.00000000000E+00 0.  1.
         25    2    1    2    0    0 -0.57988788033E+02 -0.64538305741E+02 -0.85197210173E+03  0.86547108386E+03  0.12512330889E+03 0.  0.
         24    2    1    2    0    0  0.66139121509E+02 -0.97798172934E+01 -0.37183110748E+03  0.38475446434E+03  0.72853257476E+02 0.  0.
        -24    2    1    2    0    0 -0.81503334766E+01  0.74318123035E+02  0.46185253452E+02  0.11936099198E+03  0.80773494563E+02 0.  0.
        -13    1    4    4    0    0  0.30623446778E+01  0.17277874995E+02 -0.18295081451E+03  0.18379037909E+03  0.00000000000E+00 0.  1.
         14    1    4    4    0    0  0.63076776832E+02 -0.27057692289E+02 -0.18888029297E+03  0.20096408525E+03  0.00000000000E+00 0. -1.
         11    1    5    5    0    0 -0.40282286602E+02  0.23369163990E+02  0.34612837865E+02  0.58024382673E+02  0.00000000000E+00 0. -1.
        -12    1    5    5    0    0  0.32131953125E+02  0.50948959045E+02  0.11572415586E+02  0.61336609312E+02  0.00000000000E+00 0.  1.
          5    1    3    3  501    0 -0.94182196075E+02 -0.51240356792E+02 -0.71885124440E+03  0.72681527515E+03  0.41800000000E+01 0.  1.
         -5    1    3    3    0  501  0.36193408042E+02 -0.13297948950E+02 -0.13312085733E+03  0.13865580870E+03  0.41800000000E+01 0.  1.
</event>
<event>
11    1  0.2498402E-009  0.2445719E+03  0.7561462E-02  0.1026831E+00
         22   -1    0    0    0    0  0.00000000000E+00  0.00000000000E+00  0.39818467639E+03  0.39818467639E+03  0.00000000000E+00 0. -1.
         22   -1    0    0    0    0 -0.00000000000E+00 -0.00000000000E+00 -0.13811256864E+04  0.13811256864E+04  0.00000000000E+00 0.  1.
         25    2    1    2    0    0  0.24591821525E+03 -0.15466337624E+03 -0.93868202628E+03  0.99053885266E+03  0.12508694427E+03 0.  0.
         24    2    1    2    0    0 -0.13081901356E+03  0.71626192623E+02 -0.37769029442E+03  0.41717781145E+03  0.95621347439E+02 0.  0.
        -24    2    1    2    0    0 -0.11509920169E+03  0.83037183616E+02  0.33343131073E+03  0.37159369863E+03  0.82234042786E+02 0.  0.
        -13    1    4    4    0    0 -0.14072344957E+03  0.73573419806E+02 -0.30569835784E+03  0.34448167345E+03  0.00000000000E+00 0.  1.
         14    1    4    4    0    0  0.99044360087E+01 -0.19472271821E+01 -0.71991936584E+02  0.72696137996E+02  0.00000000000E+00 0. -1.
         11    1    5    5    0    0 -0.71765348330E+02  0.55156361566E+02  0.29128718925E+03  0.30502576295E+03  0.00000000000E+00 0. -1.
        -12    1    5    5    0    0 -0.43333853358E+02  0.27880822051E+02  0.42144121480E+02  0.66567935678E+02  0.00000000000E+00 0.  1.
          5    1    3    3  501    0  0.11733785664E+03 -0.14352272449E+03 -0.60341718434E+03  0.63126596281E+03  0.41800000000E+01 0.  1.
         -5    1    3    3    0  501  0.12858035860E+03 -0.11140651754E+02 -0.33526484194E+03  0.35927288985E+03  0.41800000000E+01 0.  1.
</event>
<event>
11    1  0.2498402E-009  0.1907679E+03  0.7561462E-02  0.1061251E+00
         22   -1    0    0    0    0  0.00000000000E+00  0.00000000000E+00  0.10607022135E+04  0.10607022135E+04  0.00000000000E+00 0.  1.
         22   -1    0    0    0    0 -0.00000000000E+00 -0.00000000000E+00 -0.83357699950E+03  0.83357699950E+03  0.00000000000E+00 0.  1.
         25    2    1    2    0    0 -0.56103565703E+02  0.39922751254E+02 -0.48258035453E+03  0.50326683181E+03  0.12510902951E+03 0.  0.
         24    2    1    2    0    0 -0.69381076620E+02  0.32792090656E+02 -0.32480072376E+03  0.34322841527E+03  0.80132264982E+02 0.  0.
        -24    2    1    2    0    0  0.12548464232E+03 -0.72714841910E+02  0.10345062923E+04  0.10477839659E+04  0.81327281688E+02 0.  0.
        -13    1    4    4    0    0  0.88574225445E+01  0.31477879467E+02 -0.94878999538E+02  0.10035604308E+03  0.00000000000E+00 0.  1.
         14    1    4    4    0    0 -0.78238499165E+02  0.13142111888E+01 -0.22992172422E+03  0.24287237219E+03  0.00000000000E+00 0. -1.
         13    1    5    5    0    0  0.18444212320E+02 -0.48684285743E+02  0.45648752268E+03  0.45944663129E+03  0.00000000000E+00 0. -1.
        -14    1    5    5    0    0  0.10704043000E+03 -0.24030556167E+02  0.57801876963E+03  0.58833733464E+03  0.00000000000E+00 0.  1.
          5    1    3    3  501    0  0.26086657245E+02  0.23952060890E+02 -0.30290365020E+03  0.30499558785E+03  0.41800000000E+01 0.  1.
         -5    1    3    3    0  501 -0.82190222948E+02  0.15970690364E+02 -0.17967670433E+03  0.19827124395E+03  0.41800000000E+01 0.  1.
</event>
<event>
11    1  0.2498402E-009  0.5467361E+03  0.7561462E-02  0.9294753E-01
         22   -1    0    0    0    0  0.00000000000E+00  0.00000000000E+00  0.13810880646E+04  0.13810880646E+04  0.00000000000E+00 0. -1.
         22   -1    0    0    0    0 -0.00000000000E+00 -0.00000000000E+00 -0.41279027889E+03  0.41279027889E+03  0.00000000000E+00 0. -1.
         25    2    1    2    0    0 -0.43476786045E+03 -0.27702787166E+03  0.65660267213E+00  0.53048629539E+03  0.12509094418E+03 0.  0.
         24    2    1    2    0    0  0.47706175503E+03  0.30881013065E+03  0.42928765674E+03  0.71662820404E+03  0.79476258630E+02 0.  0.
        -24    2    1    2    0    0 -0.42293894589E+02 -0.31782258991E+02  0.53835352626E+03  0.54676384401E+03  0.79544304495E+02 0.  0.
        -11    1    4    4    0    0  0.28309362174E+02  0.38611775198E+02  0.54470818736E+02  0.72521440032E+02  0.00000000000E+00 0.  1.
         12    1    4    4    0    0  0.44875239286E+03  0.27019835545E+03  0.37481683800E+03  0.64410676401E+03  0.00000000000E+00 0. -1.
         11    1    5    5    0    0  0.46251701062E+01 -0.46078924275E+02  0.27785109631E+03  0.28168402720E+03  0.00000000000E+00 0. -1.
        -12    1    5    5    0    0 -0.46919064695E+02  0.14296665284E+02  0.26050242995E+03  0.26507981681E+03  0.00000000000E+00 0.  1.
          5    1    3    3  501    0 -0.51769106372E+02 -0.45043971686E+02 -0.42160156628E+02  0.80647076616E+02  0.41800000000E+01 0.  1.
         -5    1    3    3    0  501 -0.38299875407E+03 -0.23198389997E+03  0.42816759301E+02  0.44983921877E+03  0.41800000000E+01 0.  1.
</event>
<event>
11    1  0.2498402E-009  0.3156108E+03  0.7561462E-02  0.9937926E-01
         22   -1    0    0    0    0  0.00000000000E+00  0.00000000000E+00  0.33326454996E+03  0.33326454996E+03  0.00000000000E+00 0. -1.
         22   -1    0    0    0    0 -0.00000000000E+00 -0.00000000000E+00 -0.98606874299E+03  0.98606874299E+03  0.00000000000E+00 0. -1.
         25    2    1    2    0    0  0.17543960596E+03  0.21078062909E+03 -0.67931545635E+03  0.74318573434E+03  0.12509203637E+03 0.  0.
         24    2    1    2    0    0 -0.30988898007E+03 -0.21903580143E+03 -0.66283918797E+02  0.39358982315E+03  0.80694043860E+02 0.  0.
        -24    2    1    2    0    0  0.13444937411E+03  0.82551723427E+01  0.92795182110E+02  0.18255773546E+03  0.81065398813E+02 0.  0.
        -13    1    4    4    0    0 -0.19352673518E+02 -0.43022262265E+02  0.15014712605E+01  0.47198468604E+02  0.00000000000E+00 0.  1.
         14    1    4    4    0    0 -0.29053630655E+03 -0.17601353917E+03 -0.67785390058E+02  0.34639135454E+03  0.00000000000E+00 0. -1.
         13    1    5    5    0    0  0.86761763396E+02 -0.26412246485E+02  0.82710037625E+02  0.12274428979E+03  0.00000000000E+00 0. -1.
        -14    1    5    5    0    0  0.47687610714E+02  0.34667418828E+02  0.10085144485E+02  0.59813445671E+02  0.00000000000E+00 0.  1.
          5    1    3    3  501    0  0.19161923397E+03  0.18854617234E+03 -0.64644959096E+03  0.70013008504E+03  0.41800000000E+01 0.  1.
         -5    1    3    3    0  501 -0.16179628005E+02  0.22234456745E+02 -0.32865865388E+02  0.43055649302E+02  0.41800000000E+01 0.  1.
</event>
<event>
11    1  0.2498402E-009  0.1917203E+03  0.7561462E-02  0.1060538E+00
         22   -1    0    0    0    0  0.00000000000E+00  0.00000000000E+00  0.28227970187E+04  0.28227970187E+04  0.00000000000E+00 0. -1.
         22   -1    0    0    0    0 -0.00000000000E+00 -0.00000000000E+00 -0.33578724880E+02  0.33578724880E+02  0.00000000000E+00 0. -1.
         25    2    1    2    0    0 -0.38247738374E+02 -0.13044548560E+03  0.51510700428E+03  0.54723073498E+03  0.12508931705E+03 0.  0.
         24    2    1    2    0    0  0.51529264055E+02  0.14445462465E+03  0.43606061042E+03  0.46923735440E+03  0.80699660269E+02 0.  0.
        -24    2    1    2    0    0 -0.13281525682E+02 -0.14009139050E+02  0.18380506792E+04  0.18399076542E+04  0.80356842190E+02 0.  0.
        -13    1    4    4    0    0  0.65802557252E+00 -0.89783388104E+01  0.48316453652E+02  0.49147973091E+02  0.00000000000E+00 0.  1.
         14    1    4    4    0    0  0.50871238483E+02  0.15343296346E+03  0.38774415677E+03  0.42008938131E+03  0.00000000000E+00 0. -1.
         13    1    5    5    0    0  0.17144814446E+02 -0.98509668058E+01  0.15667044350E+04  0.15668292099E+04  0.00000000000E+00 0. -1.
        -14    1    5    5    0    0 -0.30426340128E+02 -0.41581722443E+01  0.27134624414E+03  0.27307844437E+03  0.00000000000E+00 0.  1.
          5    1    3    3  501    0 -0.24303715074E+02 -0.15411165351E+03  0.45471193145E+03  0.48075095976E+03  0.41800000000E+01 0. -1.
         -5    1    3    3    0  501 -0.13944023300E+02  0.23666167915E+02  0.60395072835E+02  0.66479775212E+02  0.41800000000E+01 0. -1.
</event>
<event>
11    1  0.2498402E-009  0.2517192E+03  0.7561462E-02  0.1022987E+00
         22   -1    0    0    0    0  0.00000000000E+00  0.00000000000E+00  0.20554038946E+04  0.20554038946E+04  0.00000000000E+00 0.  1.
         22   -1    0    0    0    0 -0.00000000000E+00 -0.00000000000E+00 -0.14034022051E+03  0.14034022051E+03  0.00000000000E+00 0.  1.
         25    2    1    2    0    0  0.20920780165E+03  0.38094645630E+02  0.57552468296E+02  0.25333421077E+03  0.12508728728E+03 0.  0.
        -24    2    1    2    0    0 -0.22424013991E+03 -0.62695580527E+02  0.32692963157E+03  0.40953040974E+03  0.81349839199E+02 0.  0.
         24    2    1    2    0    0  0.15032338259E+02  0.24600934897E+02  0.15305815742E+04  0.15328794946E+04  0.78793479499E+02 0.  0.
        -11    1    5    5    0    0 -0.16577983880E+02  0.21200377589E+02  0.12808016765E+04  0.12810843922E+04  0.00000000000E+00 0.  1.
         12    1    5    5    0    0  0.31610322139E+02  0.34005573076E+01  0.24977989779E+03  0.25179510240E+03  0.00000000000E+00 0. -1.
         13    1    4    4    0    0 -0.15754613095E+03 -0.32905229510E+02  0.15824661620E+03  0.22571116287E+03  0.00000000000E+00 0. -1.
        -14    1    4    4    0    0 -0.66694008964E+02 -0.29790351016E+02  0.16868301536E+03  0.18381924686E+03  0.00000000000E+00 0.  1.
          5    1    3    3  501    0  0.41201978585E+02  0.31256362088E+02 -0.33806975990E+02  0.61926950804E+02  0.41800000000E+01 0. -1.
         -5    1    3    3    0  501  0.16800582307E+03  0.68382835419E+01  0.91359444286E+02  0.19140725996E+03  0.41800000000E+01 0. -1.
</event>
<event>
11    1  0.2498402E-009  0.7257201E+03  0.7561462E-02  0.8995238E-01
         22   -1    0    0    0    0  0.00000000000E+00  0.00000000000E+00  0.15651469149E+03  0.15651469149E+03  0.00000000000E+00 0. -1.
         22   -1    0    0    0    0 -0.00000000000E+00 -0.00000000000E+00 -0.84124636502E+03  0.84124636502E+03  0.00000000000E+00 0. -1.
         25    2    1    2    0    0  0.19388348878E+03 -0.21063948677E+03 -0.51920091646E+03  0.60595112559E+03  0.12508946537E+03 0.  0.
         24    2    1    2    0    0 -0.12539492568E+03  0.71628706658E+02 -0.13794362320E+03  0.21544428213E+03  0.80828438798E+02 0.  0.
        -24    2    1    2    0    0 -0.68488563099E+02  0.13901078011E+03 -0.27587133864E+02  0.17636564879E+03  0.79555715407E+02 0.  0.
        -13    1    4    4    0    0 -0.12119629968E+03  0.71555750013E+02 -0.14818759722E+03  0.20437302265E+03  0.00000000000E+00 0.  1.
         14    1    4    4    0    0 -0.41986259984E+01  0.72956644782E-01  0.10243974018E+02  0.11071259487E+02  0.00000000000E+00 0. -1.
         11    1    5    5    0    0 -0.56375578450E+02  0.13889485921E+03 -0.41200632138E+01  0.14995653597E+03  0.00000000000E+00 0. -1.
        -12    1    5    5    0    0 -0.12112984650E+02  0.11592090652E+00 -0.23467070650E+02  0.26409112815E+02  0.00000000000E+00 0.  1.
          5    1    3    3  501    0  0.20080262033E+03 -0.18290911862E+03 -0.40155088249E+03  0.48480720047E+03  0.41800000000E+01 0.  1.
         -5    1    3    3    0  501 -0.69191315502E+01 -0.27730368152E+02 -0.11765003397E+03  0.12114392512E+03  0.41800000000E+01 0.  1.
</event>
<event>
11    1  0.2498402E-009  0.7121877E+03  0.7561462E-02  0.9014535E-01
         22   -1    0    0    0    0  0.00000000000E+00  0.00000000000E+00  0.63008526861E+03  0.63008526861E+03  0.00000000000E+00 0.  1.
         22   -1    0    0    0    0 -0.00000000000E+00 -0.00000000000E+00 -0.13652840282E+04  0.13652840282E+04  0.00000000000E+00 0.  1.
         25    2    1    2    0    0 -0.70855471802E+03 -0.19574957123E+03 -0.76637352409E+03  0.10692707195E+04  0.12507521802E+03 0.  0.
         24    2    1    2    0    0  0.61703513081E+03  0.19203428038E+03 -0.18599060532E+03  0.67725278278E+03  0.80432014934E+02 0.  0.
        -24    2    1    2    0    0  0.91519587214E+02  0.37152908513E+01  0.21716536980E+03  0.24884579452E+03  0.79836040626E+02 0.  0.
        -13    1    4    4    0    0  0.53640226419E+03  0.15701598552E+03 -0.13268375931E+03  0.57444441743E+03  0.00000000000E+00 0.  1.
         14    1    4    4    0    0  0.80632866623E+02  0.35018294857E+02 -0.53306846013E+02  0.10280836535E+03  0.00000000000E+00 0. -1.
         11    1    5    5    0    0  0.88917174900E+01 -0.28199965526E+02  0.82704430301E+02  0.87831221596E+02  0.00000000000E+00 0. -1.
        -12    1    5    5    0    0  0.82627869724E+02  0.31915256378E+02  0.13446093950E+03  0.16101457293E+03  0.00000000000E+00 0.  1.
          5    1    3    3  501    0 -0.30561757445E+03 -0.12031843325E+03 -0.26790304619E+03  0.42387278958E+03  0.41800000000E+01 0.  1.
         -5    1    3    3    0  501 -0.40293714357E+03 -0.75431137986E+02 -0.49847047790E+03  0.64539792995E+03  0.41800000000E+01 0.  1.
</event>
<event>
11    1  0.2498402E-009  0.9956572E+03  0.7561462E-02  0.8683156E-01
         22   -1    0    0    0    0  0.00000000000E+00  0.00000000000E+00  0.22508306685E+04  0.22508306685E+04  0.00000000000E+00 0. -1.
         22   -1    0    0    0    0 -0.00000000000E+00 -0.00000000000E+00 -0.10483587281E+04  0.10483587281E+04  0.00000000000E+00 0. -1.
         25    2    1    2    0    0 -0.31406513784E+03 -0.87822830533E+03 -0.39070384506E+03  0.10189301638E+04  0.12508923605E+03 0.  0.
        -24    2    1    2    0    0  0.24887600725E+03  0.12336630576E+04  0.12182901924E+04  0.17539029852E+04  0.89893725673E+02 0.  0.
         24    2    1    2    0    0  0.65189130597E+02 -0.35543475225E+03  0.37488559300E+03  0.52635624763E+03  0.76994842213E+02 0.  0.
        -13    1    5    5    0    0  0.24688634982E+02 -0.10191639061E+03  0.62760424235E+02  0.12221027052E+03  0.00000000000E+00 0.  1.
         14    1    5    5    0    0  0.40500495615E+02 -0.25351836164E+03  0.31212516877E+03  0.40414597711E+03  0.00000000000E+00 0. -1.
         13    1    4    4    0    0  0.47934140857E+02  0.18803000319E+03  0.23284596126E+03  0.30310098257E+03  0.00000000000E+00 0. -1.
        -14    1    4    4    0    0  0.20094186639E+03  0.10456330544E+04  0.98544423115E+03  0.14508020026E+04  0.00000000000E+00 0.  1.
          5    1    3    3  501    0 -0.21455813546E+03 -0.74040565954E+03 -0.31362364886E+03  0.83223374102E+03  0.41800000000E+01 0. -1.
         -5    1    3    3    0  501 -0.99507002383E+02 -0.13782264579E+03 -0.77080196202E+02  0.18669642274E+03  0.41800000000E+01 0. -1.
</event>
<event>
11    1  0.2498402E-009  0.1845087E+03  0.7561462E-02  0.1066053E+00
         22   -1    0    0    0    0  0.00000000000E+00  0.00000000000E+00  0.11125231309E+04  0.11125231309E+04  0.00000000000E+00 0. -1.
         22   -1    0    0    0    0 -0.00000000000E+00 -0.00000000000E+00 -0.77804656531E+03  0.77804656531E+03  0.00000000000E+00 0.  1.
         25    2    1    2    0    0  0.17133144717E+03 -0.81951993512E+01 -0.60138002429E+03  0.63775166065E+03  0.12509045111E+03 0.  0.
         24    2    1    2    0    0 -0.51748812116E+02 -0.55414766369E+02 -0.13210028376E+03  0.17333183307E+03  0.82732723259E+02 0.  0.
        -24    2    1    2    0    0 -0.11958263506E+03  0.63609965720E+02  0.10679568737E+04  0.10794862025E+04  0.80077107180E+02 0.  0.
        -13    1    4    4    0    0 -0.33830800736E+02 -0.37228659892E+02 -0.13821073372E+03  0.14708060073E+03  0.00000000000E+00 0.  1.
         14    1    4    4    0    0 -0.17918011380E+02 -0.18186106477E+02  0.61104499585E+01  0.26251232339E+02  0.00000000000E+00 0. -1.
         11    1    5    5    0    0 -0.10958604490E+03  0.53925424200E+02  0.10483548259E+04  0.10554453532E+04  0.00000000000E+00 0. -1.
        -12    1    5    5    0    0 -0.99965901587E+01  0.96845415201E+01  0.19602047718E+02  0.24040849278E+02  0.00000000000E+00 0.  1.
          5    1    3    3  501    0  0.92645272090E+02 -0.66615987020E+02 -0.32763580899E+03  0.34696330051E+03  0.41800000000E+01 0. -1.
         -5    1    3    3    0  501  0.78686175084E+02  0.58420787669E+02 -0.27374421530E+03  0.29078836014E+03  0.41800000000E+01 0. -1.
</event>
