<event>
11    1  0.8299058E-009  0.1540480E+03  0.7561462E-02  0.1092813E+00
         22   -1    0    0    0    0  0.00000000000E+00  0.00000000000E+00  0.10533858919E+04  0.10533858919E+04  0.00000000000E+00 0. -1.
         22   -1    0    0    0    0 -0.00000000000E+00 -0.00000000000E+00 -0.79144720444E+03  0.79144720444E+03  0.00000000000E+00 0. -1.
        -24    2    1    2    0    0 -0.27657388716E+02 -0.84920865763E+02 -0.72681792998E+03  0.73643030008E+03  0.78030756421E+02 0.  0.
         25    2    1    2    0    0  0.61012031387E+02  0.89815392399E+02  0.60711165131E+02  0.17641835560E+03  0.12509323697E+03 0.  0.
         24    2    1    2    0    0 -0.33354642671E+02 -0.48945266352E+01  0.92804545227E+03  0.93198444060E+03  0.78677490289E+02 0.  0.
        -13    1    5    5    0    0  0.10364959172E+02 -0.10525342433E+02  0.36865830726E+02  0.39715295380E+02  0.00000000000E+00 0.  1.
         14    1    5    5    0    0 -0.43719601844E+02  0.56308157978E+01  0.89117962154E+03  0.89226914522E+03  0.00000000000E+00 0. -1.
         11    1    3    3    0    0  0.13149415587E+02 -0.62780681623E+02 -0.28234638202E+03  0.28954067168E+03  0.00000000000E+00 0. -1.
        -12    1    3    3    0    0 -0.40806804303E+02 -0.22140184140E+02 -0.44447154796E+03  0.44688962840E+03  0.00000000000E+00 0.  1.
          5    1    4    4  501    0  0.59517312306E+02  0.37143926977E+02 -0.25941674016E+02  0.74916117266E+02  0.41800000000E+01 0. -1.
         -5    1    4    4    0  501  0.14947190815E+01  0.52671465421E+02  0.86652839147E+02  0.10150223834E+03  0.41800000000E+01 0. -1.
</event>
<event>
11    1  0.8299058E-009  0.1483680E+03  0.7561462E-02  0.1098558E+00
         22   -1    0    0    0    0  0.00000000000E+00  0.00000000000E+00  0.48654848867E+02  0.48654848867E+02  0.00000000000E+00 0. -1.
         22   -1    0    0    0    0 -0.00000000000E+00 -0.00000000000E+00 -0.12344070788E+04  0.12344070788E+04  0.00000000000E+00 0. -1.
        -24    2    1    2    0    0 -0.61799395719E+02 -0.59841674798E+02 -0.65542239625E+03  0.66636140146E+03  0.84016715598E+02 0.  0.
         25    2    1    2    0    0 -0.12681094439E+02  0.91478392444E+02 -0.45756883624E+03  0.48326551296E+03  0.12508880714E+03 0.  0.
         24    2    1    2    0    0  0.74480490158E+02 -0.31636717646E+02 -0.72760997483E+02  0.13343501329E+03  0.77217321243E+02 0.  0.
        -11    1    5    5    0    0  0.83394512958E+02 -0.50708870689E+01 -0.50290010725E+02  0.97516377424E+02  0.00000000000E+00 0.  1.
         12    1    5    5    0    0 -0.89140228003E+01 -0.26565830577E+02 -0.22470986757E+02  0.35918635867E+02  0.00000000000E+00 0. -1.
         13    1    3    3    0    0 -0.45846654854E+02 -0.67509280255E+01 -0.48365454978E+03  0.48586954454E+03  0.00000000000E+00 0. -1.
        -14    1    3    3    0    0 -0.15952740865E+02 -0.53090746773E+02 -0.17176784647E+03  0.18049185693E+03  0.00000000000E+00 0.  1.
          5    1    4    4  501    0 -0.50207522835E+02  0.59020561758E+02 -0.39861646206E+03  0.40609946846E+03  0.41800000000E+01 0. -1.
         -5    1    4    4    0  501  0.37526428395E+02  0.32457830686E+02 -0.58952374181E+02  0.77166044492E+02  0.41800000000E+01 0. -1.
</event>
<event>
11    1  0.8299058E-009  0.2099311E+03  0.7561462E-02  0.1047715E+00
         22   -1    0    0    0    0  0.00000000000E+00  0.00000000000E+00  0.23860406768E+03  0.23860406768E+03  0.00000000000E+00 0. -1.
         22   -1    0    0    0    0 -0.00000000000E+00 -0.00000000000E+00 -0.17350416117E+04  0.17350416117E+04  0.00000000000E+00 0.  1.
         24    2    1    2    0    0  0.29151772162E+02 -0.17924175450E+02 -0.13038115093E+04  0.13066924646E+04  0.79684650010E+02 0.  0.
         25    2    1    2    0    0 -0.11284150069E+03  0.16087937601E+03 -0.35305672665E+03  0.42297986648E+03  0.12509011674E+03 0.  0.
        -24    2    1    2    0    0  0.83689728532E+02 -0.14295520056E+03  0.16043069188E+03  0.24397334832E+03  0.79654427164E+02 0.  0.
        -13    1    3    3    0    0  0.41570672503E+02 -0.16268618874E+02 -0.12673964696E+04  0.12681824001E+04  0.00000000000E+00 0.  1.
         14    1    3    3    0    0 -0.12418900341E+02 -0.16555565759E+01 -0.36415039643E+02  0.38510064470E+02  0.00000000000E+00 0. -1.
         11    1    5    5    0    0  0.44746067189E+02 -0.10745173656E+03  0.15064650474E+03  0.19037451407E+03  0.00000000000E+00 0. -1.
        -12    1    5    5    0    0  0.38943661343E+02 -0.35503464005E+02  0.97841871368E+01  0.53598834251E+02  0.00000000000E+00 0.  1.
          5    1    4    4  501    0 -0.10734605344E+03  0.46778427711E+02 -0.20235525025E+03  0.23383010112E+03  0.41800000000E+01 0. -1.
         -5    1    4    4    0  501 -0.54954472560E+01  0.11410094830E+03 -0.15070147640E+03  0.18914976535E+03  0.41800000000E+01 0. -1.
</event>
<event>
11    1  0.8299058E-009  0.1423263E+03  0.7561462E-02  0.1104988E+00
         22   -1    0    0    0    0  0.00000000000E+00  0.00000000000E+00  0.93659019495E+02  0.93659019495E+02  0.00000000000E+00 0. -1.
         22   -1    0    0    0    0 -0.00000000000E+00 -0.00000000000E+00 -0.21890316630E+04  0.21890316630E+04  0.00000000000E+00 0. -1.
         24    2    1    2    0    0  0.11306437659E+02 -0.65116807077E+02 -0.12606579947E+04  0.12648903733E+04  0.79504984864E+02 0.  0.
         25    2    1    2    0    0 -0.35489759087E+02  0.66722341658E+02 -0.90034816934E+03  0.91213276787E+03  0.12509183153E+03 0.  0.
        -24    2    1    2    0    0  0.24183321428E+02 -0.16055345813E+01  0.65633520597E+02  0.10566754132E+03  0.79186232936E+02 0.  0.
        -11    1    3    3    0    0 -0.22090861937E+02 -0.80363963500E+01 -0.11791402260E+03  0.12023438183E+03  0.00000000000E+00 0.  1.
         12    1    3    3    0    0  0.33397299595E+02 -0.57080410727E+02 -0.11427439721E+04  0.11446559915E+04  0.00000000000E+00 0. -1.
         11    1    5    5    0    0 -0.91095779809E+01 -0.25225079485E+02  0.58328205706E+02  0.64198665305E+02  0.00000000000E+00 0. -1.
        -12    1    5    5    0    0  0.33292899409E+02  0.23619544903E+02  0.73053148906E+01  0.41468876017E+02  0.00000000000E+00 0.  1.
          5    1    4    4  501    0  0.23062833846E+02  0.34471637800E+02 -0.91868482107E+02  0.10088348984E+03  0.41800000000E+01 0.  1.
         -5    1    4    4    0  501 -0.58552592933E+02  0.32250703858E+02 -0.80847968723E+03  0.81124927803E+03  0.41800000000E+01 0.  1.
</event>
<event>
11    1  0.8299058E-009  0.2414459E+03  0.7561462E-02  0.1028557E+00
         22   -1    0    0    0    0  0.00000000000E+00  0.00000000000E+00  0.53792876549E+03  0.53792876549E+03  0.00000000000E+00 0.  1.
         22   -1    0    0    0    0 -0.00000000000E+00 -0.00000000000E+00 -0.53151650158E+03  0.53151650158E+03  0.00000000000E+00 0.  1.
        -24    2    1    2    0    0  0.79609394559E+02  0.17859603572E+03 -0.26197750886E+03  0.33670840381E+03  0.80660612282E+02 0.  0.
         25    2    1    2    0    0 -0.10994633047E+03 -0.20084911534E+03 -0.15270295612E+03  0.30231586750E+03  0.12509247866E+03 0.  0.
         24    2    1    2    0    0  0.30336935910E+02  0.22253079627E+02  0.42109272889E+03  0.43042099577E+03  0.80793675722E+02 0.  0.
        -13    1    5    5    0    0  0.19313693916E+01 -0.22768207640E+02  0.25463986222E+03  0.25566302216E+03  0.00000000000E+00 0.  1.
         14    1    5    5    0    0  0.28405566518E+02  0.45021287267E+02  0.16645286667E+03  0.17475797361E+03  0.00000000000E+00 0. -1.
         13    1    3    3    0    0  0.90923340446E+01 -0.76150700013E+01 -0.20929285735E+02  0.24056076797E+02  0.00000000000E+00 0. -1.
        -14    1    3    3    0    0  0.70517060514E+02  0.18621110572E+03 -0.24104822312E+03  0.31265232701E+03  0.00000000000E+00 0.  1.
          5    1    4    4  501    0 -0.76866763499E+02 -0.10594710528E+03 -0.15343385400E+03  0.20172433766E+03  0.41800000000E+01 0.  1.
         -5    1    4    4    0  501 -0.33079566970E+02 -0.94902010060E+02  0.73089788260E+00  0.10059152984E+03  0.41800000000E+01 0.  1.
</event>
<event>
11    1  0.8299058E-009  0.1340974E+03  0.7561462E-02  0.1114335E+00
         22   -1    0    0    0    0  0.00000000000E+00  0.00000000000E+00  0.20511593723E+03  0.20511593723E+03  0.00000000000E+00 0.  1.
         22   -1    0    0    0    0 -0.00000000000E+00 -0.00000000000E+00 -0.31472101658E+03  0.31472101658E+03  0.00000000000E+00 0.  1.
        -24    2    1    2    0    0  0.37289793133E+02  0.26713764498E+01 -0.10692894397E+03  0.13994450739E+03  0.82176646103E+02 0.  0.
         25    2    1    2    0    0 -0.26485311649E+02 -0.50105084393E+02 -0.15120462008E+03  0.20426054047E+03  0.12509012768E+03 0.  0.
         24    2    1    2    0    0 -0.10804481484E+02  0.47433707943E+02  0.14852848470E+03  0.17563190595E+03  0.80119673939E+02 0.  0.
        -13    1    5    5    0    0  0.19446017680E+02  0.12064302765E+02  0.11747186130E+03  0.11968012868E+03  0.00000000000E+00 0.  1.
         14    1    5    5    0    0 -0.30250499164E+02  0.35369405178E+02  0.31056623396E+02  0.55951777265E+02  0.00000000000E+00 0. -1.
         13    1    3    3    0    0  0.68449458734E+01 -0.35850133112E+02 -0.24362139035E+02  0.43881649315E+02  0.00000000000E+00 0. -1.
        -14    1    3    3    0    0  0.30444847260E+02  0.38521509562E+02 -0.82566804934E+02  0.96062858071E+02  0.00000000000E+00 0.  1.
          5    1    4    4  501    0  0.23189307718E+01 -0.54845773109E+02 -0.16334248436E+03  0.17237075119E+03  0.41800000000E+01 0. -1.
         -5    1    4    4    0  501 -0.28804242421E+02  0.47406887161E+01  0.12137864283E+02  0.31889789280E+02  0.41800000000E+01 0. -1.
</event>
<event>
11    1  0.8299058E-009  0.1503113E+03  0.7561462E-02  0.1096561E+00
         22   -1    0    0    0    0  0.00000000000E+00  0.00000000000E+00  0.22989662267E+03  0.22989662267E+03  0.00000000000E+00 0. -1.
         22   -1    0    0    0    0 -0.00000000000E+00 -0.00000000000E+00 -0.78553235503E+03  0.78553235503E+03  0.00000000000E+00 0. -1.
         24    2    1    2    0    0  0.10038761634E+03  0.55388950977E+02 -0.59854285625E+03  0.61447606158E+03  0.78623597543E+02 0.  0.
         25    2    1    2    0    0 -0.59843308270E+02  0.33027446751E+02 -0.11689042439E+03  0.18434314516E+03  0.12508792935E+03 0.  0.
        -24    2    1    2    0    0 -0.40544308069E+02 -0.88416397728E+02  0.15979754828E+03  0.21660977095E+03  0.10919357183E+03 0.  0.
        -13    1    3    3    0    0  0.23389510977E+02  0.47096118864E+02 -0.14225393848E+03  0.15166178374E+03  0.00000000000E+00 0.  1.
         14    1    3    3    0    0  0.76998105362E+02  0.82928321126E+01 -0.45628891777E+03  0.46281427784E+03  0.00000000000E+00 0. -1.
         13    1    5    5    0    0 -0.76392093828E+02 -0.77051003450E+02  0.11466076214E+03  0.15785974631E+03  0.00000000000E+00 0. -1.
        -14    1    5    5    0    0  0.35847785760E+02 -0.11365394279E+02  0.45136786143E+02  0.58750024632E+02  0.00000000000E+00 0.  1.
          5    1    4    4  501    0 -0.70717789387E+02  0.40627352389E+02 -0.13723671133E+03  0.15969650853E+03  0.41800000000E+01 0. -1.
         -5    1    4    4    0  501  0.10874481117E+02 -0.75999056379E+01  0.20346286938E+02  0.24646636635E+02  0.41800000000E+01 0. -1.
</event>
<event>
11    1  0.8299058E-009  0.2639050E+03  0.7561462E-02  0.1016742E+00
         22   -1    0    0    0    0  0.00000000000E+00  0.00000000000E+00  0.50217848316E+03  0.50217848316E+03  0.00000000000E+00 0. -1.
         22   -1    0    0    0    0 -0.00000000000E+00 -0.00000000000E+00 -0.11942951323E+04  0.11942951323E+04  0.00000000000E+00 0. -1.
        -24    2    1    2    0    0 -0.20870624224E+03 -0.60718773522E+02 -0.72026504599E+03  0.75750519227E+03  0.88245763792E+02 0.  0.
         25    2    1    2    0    0  0.27319320455E+03  0.36553698312E+02 -0.39808190636E+03  0.50008736359E+03  0.12508983642E+03 0.  0.
         24    2    1    2    0    0 -0.64486962309E+02  0.24165075211E+02  0.42623030326E+03  0.43888105956E+03  0.78751468932E+02 0.  0.
        -13    1    5    5    0    0 -0.44767672368E+02 -0.19834656558E+02  0.13329102188E+03  0.14200019227E+03  0.00000000000E+00 0.  1.
         14    1    5    5    0    0 -0.19719289941E+02  0.43999731769E+02  0.29293928138E+03  0.29688086730E+03  0.00000000000E+00 0. -1.
         13    1    3    3    0    0 -0.84751587409E+02 -0.32636931828E+01 -0.40700858816E+03  0.41575169765E+03  0.00000000000E+00 0. -1.
        -14    1    3    3    0    0 -0.12395465483E+03 -0.57455080339E+02 -0.31325645783E+03  0.34175349462E+03  0.00000000000E+00 0.  1.
          5    1    4    4  501    0  0.70728501594E+01 -0.24085515707E+02 -0.14496136916E+02  0.29287329372E+02  0.41800000000E+01 0. -1.
         -5    1    4    4    0  501  0.26612035439E+03  0.60639214019E+02 -0.38358576944E+03  0.47080003422E+03  0.41800000000E+01 0. -1.
</event>
<event>
11    1  0.8299058E-009  0.1256463E+04  0.7561462E-02  0.8467257E-01
         22   -1    0    0    0    0  0.00000000000E+00  0.00000000000E+00  0.13479894375E+04  0.13479894375E+04  0.00000000000E+00 0. -1.
         22   -1    0    0    0    0 -0.00000000000E+00 -0.00000000000E+00 -0.16077789408E+04  0.16077789408E+04  0.00000000000E+00 0. -1.
         24    2    1    2    0    0  0.88808859131E+02  0.87242629971E+02 -0.67574011513E+01  0.14795058750E+03  0.79658169243E+02 0.  0.
         25    2    1    2    0    0 -0.10322666930E+04  0.71600282432E+03 -0.75208731436E+03  0.14695297601E+04  0.12509123684E+03 0.  0.
        -24    2    1    2    0    0  0.94345783383E+03 -0.80324545429E+03  0.49905521228E+03  0.13382880307E+04  0.81503399370E+02 0.  0.
        -13    1    3    3    0    0  0.62723960562E+02  0.11439128518E+02 -0.19730569848E+02  0.66741623267E+02  0.00000000000E+00 0.  1.
         14    1    3    3    0    0  0.26084898569E+02  0.75803501453E+02  0.12973168697E+02  0.81208964233E+02  0.00000000000E+00 0. -1.
         13    1    5    5    0    0  0.43956156653E+03 -0.32587756757E+03  0.23809870777E+03  0.59674245237E+03  0.00000000000E+00 0. -1.
        -14    1    5    5    0    0  0.50389626730E+03 -0.47736788673E+03  0.26095650451E+03  0.74154557832E+03  0.00000000000E+00 0.  1.
          5    1    4    4  501    0 -0.23166877349E+03  0.21374584909E+03 -0.22581219202E+03  0.38777097246E+03  0.41800000000E+01 0.  1.
         -5    1    4    4    0  501 -0.80059791947E+03  0.50225697523E+03 -0.52627512234E+03  0.10817587876E+04  0.41800000000E+01 0.  1.
</event>
<event>
11    1  0.8299058E-009  0.2606241E+03  0.7561462E-02  0.1018387E+00
         22   -1    0    0    0    0  0.00000000000E+00  0.00000000000E+00  0.11501519429E+04  0.11501519429E+04  0.00000000000E+00 0.  1.
         22   -1    0    0    0    0 -0.00000000000E+00 -0.00000000000E+00 -0.13373665051E+03  0.13373665051E+03  0.00000000000E+00 0. -1.
        -24    2    1    2    0    0  0.10379621388E+02 -0.23564311415E+03  0.59165745222E+02  0.25632883539E+03  0.81046114384E+02 0.  0.
         25    2    1    2    0    0 -0.95817177343E+02  0.19092832730E+03  0.64224431123E+03  0.68830181365E+03  0.12508826372E+03 0.  0.
         24    2    1    2    0    0  0.85437555955E+02  0.44714786848E+02  0.31500523591E+03  0.33925794434E+03  0.81047307276E+02 0.  0.
        -11    1    5    5    0    0  0.74163803110E+02 -0.56133891684E+01  0.18862748013E+03  0.20276120460E+03  0.00000000000E+00 0.  1.
         12    1    5    5    0    0  0.11273752845E+02  0.50328176016E+02  0.12637775577E+03  0.13649673974E+03  0.00000000000E+00 0. -1.
         13    1    3    3    0    0  0.24929436798E+02 -0.22621016666E+03  0.41050893537E+02  0.23125244254E+03  0.00000000000E+00 0. -1.
        -14    1    3    3    0    0 -0.14549815410E+02 -0.94329474912E+01  0.18114851685E+02  0.25076392850E+02  0.00000000000E+00 0.  1.
          5    1    4    4  501    0 -0.10131587279E+03  0.20625583169E+03  0.61142059477E+03  0.65319138872E+03  0.41800000000E+01 0. -1.
         -5    1    4    4    0  501  0.54986954484E+01 -0.15327504386E+02  0.30823716464E+02  0.35110424933E+02  0.41800000000E+01 0. -1.
</event>
<event>
11    1  0.8299058E-009  0.1286142E+03  0.7561462E-02  0.1120983E+00
         22   -1    0    0    0    0  0.00000000000E+00  0.00000000000E+00  0.85370869712E+03  0.85370869712E+03  0.00000000000E+00 0. -1.
         22   -1    0    0    0    0 -0.00000000000E+00 -0.00000000000E+00 -0.25984146854E+03  0.25984146854E+03  0.00000000000E+00 0.  1.
         24    2    1    2    0    0 -0.31423534400E+02 -0.62851434817E+01 -0.13496967490E+03  0.16072935225E+03  0.81179861958E+02 0.  0.
         25    2    1    2    0    0  0.47956209621E+02  0.30557116206E+02 -0.66228436907E+02  0.15253531576E+03  0.12508909348E+03 0.  0.
        -24    2    1    2    0    0 -0.16532675221E+02 -0.24271972725E+02  0.79506534039E+03  0.80028549766E+03  0.86403265305E+02 0.  0.
        -11    1    3    3    0    0  0.16495317073E+02  0.10109354829E+02 -0.92890077661E+02  0.94883407761E+02  0.00000000000E+00 0.  1.
         12    1    3    3    0    0 -0.47918851472E+02 -0.16394498311E+02 -0.42079597244E+02  0.65845944488E+02  0.00000000000E+00 0. -1.
         13    1    5    5    0    0  0.15149365181E+02 -0.48827073242E+02  0.45884882177E+03  0.46168801976E+03  0.00000000000E+00 0. -1.
        -14    1    5    5    0    0 -0.31682040402E+02  0.24555100518E+02  0.33621651863E+03  0.33859747790E+03  0.00000000000E+00 0.  1.
          5    1    4    4  501    0  0.23701129074E+02  0.84687815022E+01  0.36546261217E+02  0.44570902935E+02  0.41800000000E+01 0.  1.
         -5    1    4    4    0  501  0.24255080547E+02  0.22088334704E+02 -0.10277469812E+03  0.10796441283E+03  0.41800000000E+01 0.  1.
</event>
<event>
11    1  0.8299058E-009  0.1414632E+03  0.7561462E-02  0.1105935E+00
         22   -1    0    0    0    0  0.00000000000E+00  0.00000000000E+00  0.11266348057E+04  0.11266348057E+04  0.00000000000E+00 0. -1.
         22   -1    0    0    0    0 -0.00000000000E+00 -0.00000000000E+00 -0.16308205926E+03  0.16308205926E+03  0.00000000000E+00 0. -1.
        -24    2    1    2    0    0  0.52718532871E+02 -0.39650809443E+02 -0.12510932082E+03  0.16027343758E+03  0.75390995748E+02 0.  0.
         25    2    1    2    0    0 -0.69988155311E+02  0.18650051428E+02  0.26883571836E+03  0.30523398535E+03  0.12509586742E+03 0.  0.
         24    2    1    2    0    0  0.17269622441E+02  0.21000758016E+02  0.81982634891E+03  0.82420944205E+03  0.80415734113E+02 0.  0.
        -13    1    5    5    0    0  0.14414419678E+02 -0.89063971101E+01  0.35796046802E+02  0.39603741879E+02  0.00000000000E+00 0.  1.
         14    1    5    5    0    0  0.28552027627E+01  0.29907155126E+02  0.78403030211E+03  0.78460570017E+03  0.00000000000E+00 0. -1.
         13    1    3    3    0    0  0.35360120342E+02 -0.62291569747E+02 -0.90860268981E+02  0.11569860091E+03  0.00000000000E+00 0. -1.
        -14    1    3    3    0    0  0.17358412529E+02  0.22640760304E+02 -0.34249051836E+02  0.44574836671E+02  0.00000000000E+00 0.  1.
          5    1    4    4  501    0  0.11228057640E+02  0.53627922784E+02  0.85358984473E+02  0.10151675729E+03  0.41800000000E+01 0. -1.
         -5    1    4    4    0  501 -0.81216212952E+02 -0.34977871356E+02  0.18347673388E+03  0.20371722806E+03  0.41800000000E+01 0. -1.
</event>
<event>
11    1  0.8299058E-009  0.1550861E+03  0.7561462E-02  0.1091792E+00
         22   -1    0    0    0    0  0.00000000000E+00  0.00000000000E+00  0.90823046666E+02  0.90823046666E+02  0.00000000000E+00 0. -1.
         22   -1    0    0    0    0 -0.00000000000E+00 -0.00000000000E+00 -0.13619525689E+04  0.13619525689E+04  0.00000000000E+00 0.  1.
         24    2    1    2    0    0 -0.60160159431E+02 -0.68926709996E+02 -0.71520808800E+03  0.72535614430E+03  0.79049293476E+02 0.  0.
         25    2    1    2    0    0  0.47961673220E+02  0.79666223562E+02 -0.60988772840E+03  0.62948911764E+03  0.12508588531E+03 0.  0.
        -24    2    1    2    0    0  0.12198486212E+02 -0.10739513566E+02  0.53966294158E+02  0.97930353631E+02  0.80086534696E+02 0.  0.
        -11    1    3    3    0    0 -0.17505441748E+02 -0.64037972057E+02 -0.57231058660E+03  0.57614816661E+03  0.00000000000E+00 0.  1.
         12    1    3    3    0    0 -0.42654717684E+02 -0.48887379389E+01 -0.14289750140E+03  0.14920797769E+03  0.00000000000E+00 0. -1.
         11    1    5    5    0    0 -0.12944394062E+01 -0.16873336066E+02  0.72357457830E+02  0.74310071639E+02  0.00000000000E+00 0. -1.
        -12    1    5    5    0    0  0.13492925618E+02  0.61338224994E+01 -0.18391163672E+02  0.23620281992E+02  0.00000000000E+00 0.  1.
          5    1    4    4  501    0  0.57361880320E+02  0.97602666437E+02 -0.59007566174E+03  0.60085224872E+03  0.41800000000E+01 0. -1.
         -5    1    4    4    0  501 -0.94002071002E+01 -0.17936442875E+02 -0.19812066657E+02  0.28636868924E+02  0.41800000000E+01 0. -1.
</event>
<event>
11    1  0.8299058E-009  0.2613218E+03  0.7561462E-02  0.1018035E+00
         22   -1    0    0    0    0  0.00000000000E+00  0.00000000000E+00  0.11978972504E+04  0.11978972504E+04  0.00000000000E+00 0. -1.
         22   -1    0    0    0    0 -0.00000000000E+00 -0.00000000000E+00 -0.14276362045E+03  0.14276362045E+03  0.00000000000E+00 0. -1.
        -24    2    1    2    0    0  0.19571998969E+03  0.97004063047E+02  0.65096270486E+02  0.24231096642E+03  0.82225162831E+02 0.  0.
         25    2    1    2    0    0 -0.18759298700E+03 -0.21504686437E+03  0.51214176917E+03  0.59947430467E+03  0.12507584732E+03 0.  0.
         24    2    1    2    0    0 -0.81270026934E+01  0.11804280132E+03  0.47789559025E+03  0.49887559972E+03  0.80576160902E+02 0.  0.
        -11    1    5    5    0    0 -0.36086750544E+02  0.21308110455E+02  0.12127925121E+03  0.12831580538E+03  0.00000000000E+00 0.  1.
         12    1    5    5    0    0  0.27959747850E+02  0.96734690865E+02  0.35661633904E+03  0.37055979435E+03  0.00000000000E+00 0. -1.
         11    1    3    3    0    0  0.12909960588E+03  0.39903486291E+02  0.74096507978E+02  0.15410804311E+03  0.00000000000E+00 0. -1.
        -12    1    3    3    0    0  0.66620383808E+02  0.57100576756E+02 -0.90002374928E+01  0.88202923305E+02  0.00000000000E+00 0.  1.
          5    1    4    4  501    0  0.61483920460E+01 -0.49758555978E+01 -0.37540179287E+01  0.97019026119E+01  0.41800000000E+01 0.  1.
         -5    1    4    4    0  501 -0.19374137905E+03 -0.21007100877E+03  0.51589578710E+03  0.58977240206E+03  0.41800000000E+01 0.  1.
</event>
<event>
11    1  0.8299058E-009  0.1368873E+03  0.7561462E-02  0.1111085E+00
         22   -1    0    0    0    0  0.00000000000E+00  0.00000000000E+00  0.62042682949E+03  0.62042682949E+03  0.00000000000E+00 0.  1.
         22   -1    0    0    0    0 -0.00000000000E+00 -0.00000000000E+00 -0.90589515819E+03  0.90589515819E+03  0.00000000000E+00 0. -1.
         24    2    1    2    0    0 -0.25878305073E+02  0.24628130433E+02 -0.48815791167E+03  0.49576570849E+03  0.78798854750E+02 0.  0.
         25    2    1    2    0    0  0.50092083710E+02 -0.74320643044E+02 -0.39560685053E+03  0.42448221256E+03  0.12509034238E+03 0.  0.
        -24    2    1    2    0    0 -0.24213778637E+02  0.49692512610E+02  0.59829643349E+03  0.60607406663E+03  0.79444943380E+02 0.  0.
        -11    1    3    3    0    0  0.26491509863E+02  0.63871188056E+01 -0.99218059197E+02  0.10289226721E+03  0.00000000000E+00 0.  1.
         12    1    3    3    0    0 -0.52369814936E+02  0.18241011628E+02 -0.38893985247E+03  0.39287344128E+03  0.00000000000E+00 0. -1.
         11    1    5    5    0    0  0.40495620543E+01  0.63250132862E+01  0.23295094778E+01  0.78632919511E+01  0.00000000000E+00 0. -1.
        -12    1    5    5    0    0 -0.28263340691E+02  0.43367499324E+02  0.59596692402E+03  0.59821077468E+03  0.00000000000E+00 0.  1.
          5    1    4    4  501    0  0.89959276361E+02 -0.35716178173E+02 -0.22328882652E+03  0.24340026548E+03  0.41800000000E+01 0. -1.
         -5    1    4    4    0  501 -0.39867192651E+02 -0.38604464871E+02 -0.17231802401E+03  0.18108194707E+03  0.41800000000E+01 0. -1.
</event>
<event>
11    1  0.8299058E-009  0.1515027E+03  0.7561462E-02  0.1095353E+00
         22   -1    0    0    0    0  0.00000000000E+00  0.00000000000E+00  0.12346089611E+03  0.12346089611E+03  0.00000000000E+00 0. -1.
         22   -1    0    0    0    0 -0.00000000000E+00 -0.00000000000E+00 -0.80424815713E+03  0.80424815713E+03  0.00000000000E+00 0. -1.
        -24    2    1    2    0    0 -0.49965394160E+02  0.81361592148E+02 -0.46792915498E+03  0.48433960911E+03  0.80690232289E+02 0.  0.
         25    2    1    2    0    0 -0.47604951703E+02 -0.84518249172E+02 -0.26476721436E+03  0.30847885500E+03  0.12509180753E+03 0.  0.
         24    2    1    2    0    0  0.97570345862E+02  0.31566570243E+01  0.51909108312E+02  0.13489058913E+03  0.77272107742E+02 0.  0.
        -11    1    5    5    0    0  0.97516341963E+02 -0.15928519707E+00  0.15990034629E+02  0.98818740778E+02  0.00000000000E+00 0.  1.
         12    1    5    5    0    0  0.54003899393E-01  0.33159422213E+01  0.35919073683E+02  0.36071848352E+02  0.00000000000E+00 0. -1.
         13    1    3    3    0    0 -0.45520090093E+02  0.97378367244E+02 -0.42267362706E+03  0.43612798583E+03  0.00000000000E+00 0. -1.
        -14    1    3    3    0    0 -0.44453040665E+01 -0.16016775096E+02 -0.45255527913E+02  0.48211623281E+02  0.00000000000E+00 0.  1.
          5    1    4    4  501    0 -0.67372357644E+02 -0.38122302362E+02 -0.61350176311E+02  0.98861828049E+02  0.41800000000E+01 0.  1.
         -5    1    4    4    0  501  0.19767405941E+02 -0.46395946810E+02 -0.20341703805E+03  0.20961702695E+03  0.41800000000E+01 0.  1.
</event>
<event>
11    1  0.1021256E-008  0.1671781E+03  0.7561462E-02  0.1080514E+00
         22   -1    0    0    0    0  0.00000000000E+00  0.00000000000E+00  0.16085757367E+04  0.16085757367E+04  0.00000000000E+00 0.  1.
         22   -1    0    0    0    0 -0.00000000000E+00 -0.00000000000E+00 -0.29377235687E+03  0.29377235687E+03  0.00000000000E+00 0.  1.
        -24    2    1    2    0    0  0.27647655127E+02  0.41931804579E+02 -0.22850813369E+03  0.24764859851E+03  0.81186157167E+02 0.  0.
         25    2    1    2    0    0 -0.43662724972E+02 -0.14897883736E+03  0.13705036962E+03  0.24193473767E+03  0.12509390851E+03 0.  0.
         24    2    1    2    0    0  0.16015069844E+02  0.10704703278E+03  0.14062611439E+04  0.14127647574E+04  0.81352966880E+02 0.  0.
        -11    1    5    5    0    0  0.96862306645E+01  0.60808037249E+02  0.11867922062E+04  0.11883884807E+04  0.00000000000E+00 0.  1.
         12    1    5    5    0    0  0.63288391797E+01  0.46238995530E+02  0.21946893773E+03  0.22437627669E+03  0.00000000000E+00 0. -1.
         11    1    3    3    0    0  0.22091578376E+01  0.10573533760E+01  0.69239808828E+01  0.73443778347E+01  0.00000000000E+00 0. -1.
        -12    1    3    3    0    0  0.25438497290E+02  0.40874451203E+02 -0.23543211457E+03  0.24030422068E+03  0.00000000000E+00 0.  1.
          5    1    4    4  501    0  0.17744296735E+02 -0.12203294754E+03  0.52893208467E+02  0.13424628208E+03  0.41800000000E+01 0. -1.
         -5    1    4    4    0  501 -0.61407021707E+02 -0.26945889821E+02  0.84157161151E+02  0.10768845558E+03  0.41800000000E+01 0. -1.
</event>
<event>
11    1  0.8299058E-009  0.1413773E+03  0.7561462E-02  0.1106030E+00
         22   -1    0    0    0    0  0.00000000000E+00  0.00000000000E+00  0.14619062881E+04  0.14619062881E+04  0.00000000000E+00 0. -1.
         22   -1    0    0    0    0 -0.00000000000E+00 -0.00000000000E+00 -0.38278520931E+03  0.38278520931E+03  0.00000000000E+00 0.  1.
         24    2    1    2    0    0 -0.31565615332E+02 -0.47030384193E+02 -0.28147973129E+03  0.29788891493E+03  0.79364484502E+02 0.  0.
         25    2    1    2    0    0  0.38340318049E+02 -0.19415182991E+02 -0.43166987550E+02  0.13913158808E+03  0.12508909093E+03 0.  0.
        -24    2    1    2    0    0 -0.67747027164E+01  0.66445567184E+02  0.14037677976E+04  0.14076709944E+04  0.80701231632E+02 0.  0.
        -13    1    3    3    0    0 -0.12262374381E+02 -0.19162616961E+02 -0.25181918990E+03  0.25284476684E+03  0.00000000000E+00 0.  1.
         14    1    3    3    0    0 -0.19303240951E+02 -0.27867767232E+02 -0.29660541392E+02  0.45044148092E+02  0.00000000000E+00 0. -1.
         11    1    5    5    0    0  0.36293620370E+01  0.38029679086E+02  0.20547580614E+03  0.20899697526E+03  0.00000000000E+00 0. -1.
        -12    1    5    5    0    0 -0.10404064753E+02  0.28415888098E+02  0.11982919915E+04  0.11986740191E+04  0.00000000000E+00 0.  1.
          5    1    4    4  501    0 -0.28633816677E+02  0.26768583598E+02 -0.42084496929E+02  0.57663071433E+02  0.41800000000E+01 0. -1.
         -5    1    4    4    0  501  0.66974134725E+02 -0.46183766588E+02 -0.10824906209E+01  0.81468516646E+02  0.41800000000E+01 0. -1.
</event>
<event>
11    1  0.8299058E-009  0.1393136E+03  0.7561462E-02  0.1108327E+00
         22   -1    0    0    0    0  0.00000000000E+00  0.00000000000E+00  0.64192125560E+03  0.64192125560E+03  0.00000000000E+00 0.  1.
         22   -1    0    0    0    0 -0.00000000000E+00 -0.00000000000E+00 -0.31726999605E+03  0.31726999605E+03  0.00000000000E+00 0. -1.
        -24    2    1    2    0    0 -0.62618412055E+02 -0.15270440502E+02 -0.24402023984E+03  0.26427989493E+03  0.78381971994E+02 0.  0.
         25    2    1    2    0    0  0.44603189491E+02 -0.40149437660E+02  0.23557192187E+02  0.14072307585E+03  0.12508645376E+03 0.  0.
         24    2    1    2    0    0  0.18015222564E+02  0.55419878162E+02  0.54511430719E+03  0.55418828087E+03  0.81111846255E+02 0.  0.
        -11    1    5    5    0    0 -0.29844460333E+02  0.33431519550E+02  0.19155056065E+03  0.19672309370E+03  0.00000000000E+00 0.  1.
         12    1    5    5    0    0  0.47859682897E+02  0.21988358612E+02  0.35356374655E+03  0.35746518716E+03  0.00000000000E+00 0. -1.
         11    1    3    3    0    0 -0.37717066326E+02  0.87993839950E+01 -0.21679441276E+03  0.22022675508E+03  0.00000000000E+00 0. -1.
        -12    1    3    3    0    0 -0.24901345729E+02 -0.24069824497E+02 -0.27225827078E+02  0.44053139848E+02  0.00000000000E+00 0.  1.
          5    1    4    4  501    0 -0.47803561300E+01  0.37197487017E+02 -0.15638639749E+02  0.40847818771E+02  0.41800000000E+01 0. -1.
         -5    1    4    4    0  501  0.49383545621E+02 -0.77346924677E+02  0.39195831936E+02  0.99875257078E+02  0.41800000000E+01 0. -1.
</event>
<event>
11    1  0.8299058E-009  0.1879285E+03  0.7561462E-02  0.1063404E+00
         22   -1    0    0    0    0  0.00000000000E+00  0.00000000000E+00  0.45284904094E+03  0.45284904094E+03  0.00000000000E+00 0.  1.
         22   -1    0    0    0    0 -0.00000000000E+00 -0.00000000000E+00 -0.45990267886E+03  0.45990267886E+03  0.00000000000E+00 0.  1.
        -24    2    1    2    0    0  0.51068015623E+01  0.62883090868E+02 -0.36360148683E+03  0.37626310163E+03  0.73399713089E+02 0.  0.
         25    2    1    2    0    0 -0.13914478795E+03 -0.84630012113E+02  0.86592995487E+02  0.22286653338E+03  0.12509050272E+03 0.  0.
         24    2    1    2    0    0  0.13403798638E+03  0.21746921245E+02  0.26995485343E+03  0.31362208479E+03  0.83929010471E+02 0.  0.
        -13    1    5    5    0    0  0.13456197557E+03  0.53519767596E+01  0.26364366895E+03  0.29604653874E+03  0.00000000000E+00 0.  1.
         14    1    5    5    0    0 -0.52398918326E+00  0.16394944486E+02  0.63111844853E+01  0.17575546050E+02  0.00000000000E+00 0. -1.
         13    1    3    3    0    0  0.53107857815E+01  0.27149216160E+02 -0.30212081581E+02  0.40964060555E+02  0.00000000000E+00 0. -1.
        -14    1    3    3    0    0 -0.20398421929E+00  0.35733874708E+02 -0.33338940525E+03  0.33529904107E+03  0.00000000000E+00 0.  1.
          5    1    4    4  501    0 -0.12155690482E+03 -0.10343290837E+03  0.10486485023E+03  0.19101978132E+03  0.41800000000E+01 0.  1.
         -5    1    4    4    0  501 -0.17587883131E+02  0.18802896257E+02 -0.18271854747E+02  0.31846752057E+02  0.41800000000E+01 0.  1.
</event>
<event>
11    1  0.8299058E-009  0.1493749E+03  0.7561462E-02  0.1097519E+00
         22   -1    0    0    0    0  0.00000000000E+00  0.00000000000E+00  0.34577256016E+03  0.34577256016E+03  0.00000000000E+00 0. -1.
         22   -1    0    0    0    0 -0.00000000000E+00 -0.00000000000E+00 -0.17381531430E+04  0.17381531430E+04  0.00000000000E+00 0. -1.
        -24    2    1    2    0    0  0.53176413880E+02 -0.11416004794E+02 -0.15494155738E+04  0.15524445102E+04  0.80232665560E+02 0.  0.
         25    2    1    2    0    0 -0.13061042428E+03  0.24768980665E+02 -0.12950441016E+03  0.22381047586E+03  0.12508857469E+03 0.  0.
         24    2    1    2    0    0  0.77434010404E+02 -0.13352975872E+02  0.28653940115E+03  0.30767071711E+03  0.79888133173E+02 0.  0.
        -13    1    5    5    0    0  0.13667929098E+02 -0.40410271037E+01  0.28857246646E+00  0.14255716746E+02  0.00000000000E+00 0.  1.
         14    1    5    5    0    0  0.63766081307E+02 -0.93119487678E+01  0.28625082868E+03  0.29341500036E+03  0.00000000000E+00 0. -1.
         11    1    3    3    0    0  0.48891778046E+02 -0.33039272314E+02 -0.62822196148E+03  0.63098718875E+03  0.00000000000E+00 0. -1.
        -12    1    3    3    0    0  0.42846358342E+01  0.21623267520E+02 -0.92119361233E+03  0.92145732142E+03  0.00000000000E+00 0.  1.
          5    1    4    4  501    0  0.21569925666E+02  0.14907874343E+02 -0.52741048343E+01  0.27070186414E+02  0.41800000000E+01 0. -1.
         -5    1    4    4    0  501 -0.15218034995E+03  0.98611063220E+01 -0.12423030532E+03  0.19674028944E+03  0.41800000000E+01 0. -1.
</event>
<event>
11    1  0.8299058E-009  0.1513622E+03  0.7561462E-02  0.1095495E+00
         22   -1    0    0    0    0  0.00000000000E+00  0.00000000000E+00  0.12650584136E+04  0.12650584136E+04  0.00000000000E+00 0.  1.
         22   -1    0    0    0    0 -0.00000000000E+00 -0.00000000000E+00 -0.10412892858E+04  0.10412892858E+04  0.00000000000E+00 0.  1.
        -24    2    1    2    0    0  0.80760235259E+02  0.25007251115E+02 -0.99365443953E+03  0.10005635496E+04  0.81429070251E+02 0.  0.
         25    2    1    2    0    0 -0.10347651965E+03 -0.92347397793E+02  0.16921702509E+03  0.25202758903E+03  0.12509225417E+03 0.  0.
         24    2    1    2    0    0  0.22716284390E+02  0.67340146678E+02  0.10482065423E+04  0.10537565608E+04  0.81333935902E+02 0.  0.
        -13    1    5    5    0    0  0.60824656965E+01  0.16169681189E+02  0.78076583800E+03  0.78095694425E+03  0.00000000000E+00 0.  1.
         14    1    5    5    0    0  0.16633818694E+02  0.51170465489E+02  0.26744070428E+03  0.27279961651E+03  0.00000000000E+00 0. -1.
         11    1    3    3    0    0  0.81297999913E+02  0.11396158280E+02 -0.49792135159E+03  0.50464334889E+03  0.00000000000E+00 0. -1.
        -12    1    3    3    0    0 -0.53776465484E+00  0.13611092836E+02 -0.49573308794E+03  0.49592020076E+03  0.00000000000E+00 0.  1.
          5    1    4    4  501    0 -0.10481266402E+03 -0.44537663599E+02  0.16922209080E+03  0.20401687781E+03  0.41800000000E+01 0. -1.
         -5    1    4    4    0  501  0.13361443704E+01 -0.47809734194E+02 -0.50657157891E-02  0.48010711213E+02  0.41800000000E+01 0. -1.
</event>
<event>
11    1  0.8299058E-009  0.1356172E+03  0.7561462E-02  0.1112554E+00
         22   -1    0    0    0    0  0.00000000000E+00  0.00000000000E+00  0.20180372272E+04  0.20180372272E+04  0.00000000000E+00 0. -1.
         22   -1    0    0    0    0 -0.00000000000E+00 -0.00000000000E+00 -0.58368711211E+03  0.58368711211E+03  0.00000000000E+00 0.  1.
         24    2    1    2    0    0  0.32835490094E+02 -0.32017236155E+02 -0.48144829892E+03  0.49010654602E+03  0.79427256631E+02 0.  0.
         25    2    1    2    0    0 -0.78225037497E+02  0.61947310709E+01 -0.40233901389E+02  0.15304823481E+03  0.12508982442E+03 0.  0.
        -24    2    1    2    0    0  0.45389547403E+02  0.25822505084E+02  0.19560323154E+04  0.19585695585E+04  0.84883942784E+02 0.  0.
        -13    1    3    3    0    0  0.50988464332E+01 -0.35185112903E+02 -0.43087794458E+03  0.43234221807E+03  0.00000000000E+00 0.  1.
         14    1    3    3    0    0  0.27736643661E+02  0.31678767476E+01 -0.50570354345E+02  0.57764327948E+02  0.00000000000E+00 0. -1.
         11    1    5    5    0    0  0.47839336650E+02 -0.72201880808E+01  0.16571861888E+04  0.16578922757E+04  0.00000000000E+00 0. -1.
        -12    1    5    5    0    0 -0.24497892467E+01  0.33042693165E+02  0.29884612654E+03  0.30067728279E+03  0.00000000000E+00 0.  1.
          5    1    4    4  501    0 -0.40196585640E+02  0.19076325834E+02 -0.82983073097E+02  0.94251443093E+02  0.41800000000E+01 0.  1.
         -5    1    4    4    0  501 -0.38028451857E+02 -0.12881594763E+02  0.42749171708E+02  0.58796791715E+02  0.41800000000E+01 0.  1.
</event>
<event>
11    1  0.8299058E-009  0.2028679E+03  0.7561462E-02  0.1052514E+00
         22   -1    0    0    0    0  0.00000000000E+00  0.00000000000E+00  0.28587998549E+03  0.28587998549E+03  0.00000000000E+00 0.  1.
         22   -1    0    0    0    0 -0.00000000000E+00 -0.00000000000E+00 -0.19426340251E+04  0.19426340251E+04  0.00000000000E+00 0.  1.
        -24    2    1    2    0    0  0.70108512860E+02  0.13491907990E+03 -0.11001728696E+04  0.11135373686E+04  0.80416209046E+02 0.  0.
         25    2    1    2    0    0 -0.11840511430E+03 -0.13511772072E+03 -0.81373235329E+03  0.84266505899E+03  0.12508992493E+03 0.  0.
         24    2    1    2    0    0  0.48296601441E+02  0.19864081112E+00  0.25715118332E+03  0.27231158291E+03  0.75460360021E+02 0.  0.
        -11    1    5    5    0    0  0.62554842688E+02 -0.15934850517E+02  0.22099611528E+03  0.23023099438E+03  0.00000000000E+00 0.  1.
         12    1    5    5    0    0 -0.14258241247E+02  0.16133491329E+02  0.36155068041E+02  0.42080588529E+02  0.00000000000E+00 0. -1.
         11    1    3    3    0    0 -0.99176913400E+01  0.28619538450E+02 -0.37784156841E+03  0.37905367615E+03  0.00000000000E+00 0. -1.
        -12    1    3    3    0    0  0.80026204201E+02  0.10629954145E+03 -0.72233130118E+03  0.73448369249E+03  0.00000000000E+00 0.  1.
          5    1    4    4  501    0 -0.74027034409E+02 -0.12048149226E+03 -0.75166114193E+03  0.76485798452E+03  0.41800000000E+01 0.  1.
         -5    1    4    4    0  501 -0.44378079893E+02 -0.14636228455E+02 -0.62071211357E+02  0.77807074471E+02  0.41800000000E+01 0.  1.
</event>
<event>
11    1  0.8299058E-009  0.1557700E+03  0.7561462E-02  0.1091125E+00
         22   -1    0    0    0    0  0.00000000000E+00  0.00000000000E+00  0.24472597141E+03  0.24472597141E+03  0.00000000000E+00 0.  1.
         22   -1    0    0    0    0 -0.00000000000E+00 -0.00000000000E+00 -0.80172005168E+03  0.80172005168E+03  0.00000000000E+00 0. -1.
        -24    2    1    2    0    0  0.42168370252E+02  0.82981744756E+02 -0.73557974405E+03  0.74584785152E+03  0.80915488928E+02 0.  0.
         25    2    1    2    0    0 -0.37944952079E+02 -0.77826214530E+02  0.78732811082E+02  0.17129937058E+03  0.12509148558E+03 0.  0.
         24    2    1    2    0    0 -0.42234181732E+01 -0.51555302258E+01  0.99852852698E+02  0.12929880098E+03  0.81872895328E+02 0.  0.
        -11    1    5    5    0    0  0.46074155287E+01  0.37301295176E+02  0.57416959437E+02  0.68624500950E+02  0.00000000000E+00 0.  1.
         12    1    5    5    0    0 -0.88308337020E+01 -0.42456825401E+02  0.42435893261E+02  0.60674300028E+02  0.00000000000E+00 0. -1.
         11    1    3    3    0    0  0.26146638140E+02  0.72225475346E+02 -0.70818587760E+03  0.71233938765E+03  0.00000000000E+00 0. -1.
        -12    1    3    3    0    0  0.16021732112E+02  0.10756269410E+02 -0.27393866456E+02  0.33508463870E+02  0.00000000000E+00 0.  1.
          5    1    4    4  501    0  0.10654791564E+02 -0.98013574410E+02  0.43575968802E+02  0.10787271578E+03  0.41800000000E+01 0. -1.
         -5    1    4    4    0  501 -0.48599743642E+02  0.20187359880E+02  0.35156842280E+02  0.63426654808E+02  0.41800000000E+01 0. -1.
</event>
<event>
11    1  0.8299058E-009  0.1322280E+03  0.7561462E-02  0.1116561E+00
         22   -1    0    0    0    0  0.00000000000E+00  0.00000000000E+00  0.50553072522E+02  0.50553072522E+02  0.00000000000E+00 0.  1.
         22   -1    0    0    0    0 -0.00000000000E+00 -0.00000000000E+00 -0.11716182657E+04  0.11716182657E+04  0.00000000000E+00 0.  1.
         24    2    1    2    0    0  0.31974359532E+02 -0.30689954126E+02 -0.87845866157E+03  0.88318683279E+03  0.79781755803E+02 0.  0.
         25    2    1    2    0    0 -0.25942242010E+02  0.19121254404E+02 -0.21937161500E+03  0.25457786274E+03  0.12508940978E+03 0.  0.
        -24    2    1    2    0    0 -0.60321175215E+01  0.11568699722E+02 -0.23234916597E+02  0.84406642689E+02  0.80089941476E+02 0.  0.
        -11    1    3    3    0    0 -0.21187773032E+02 -0.16791754764E+02 -0.50328118230E+03  0.50400677893E+03  0.00000000000E+00 0.  1.
         12    1    3    3    0    0  0.53162132564E+02 -0.13898199362E+02 -0.37517747928E+03  0.37918005386E+03  0.00000000000E+00 0. -1.
         11    1    5    5    0    0  0.11737178468E+02  0.38130555436E+02 -0.32140011792E+02  0.51231640362E+02  0.00000000000E+00 0. -1.
        -12    1    5    5    0    0 -0.17769295990E+02 -0.26561855714E+02  0.89050951948E+01  0.33175002326E+02  0.00000000000E+00 0.  1.
          5    1    4    4  501    0  0.24145430141E+02  0.21179500491E+02 -0.19679058801E+03  0.19943816326E+03  0.41800000000E+01 0.  1.
         -5    1    4    4    0  501 -0.50087672151E+02 -0.20582460874E+01 -0.22581026994E+02  0.55139699478E+02  0.41800000000E+01 0.  1.
</event>
<event>
11    1  0.8299058E-009  0.1646850E+03  0.7561462E-02  0.1082752E+00
         22   -1    0    0    0    0  0.00000000000E+00  0.00000000000E+00  0.17381595181E+04  0.17381595181E+04  0.00000000000E+00 0. -1.
         22   -1    0    0    0    0 -0.00000000000E+00 -0.00000000000E+00 -0.12037734810E+03  0.12037734810E+03  0.00000000000E+00 0.  1.
        -24    2    1    2    0    0 -0.50210494161E+02 -0.96619276628E+02 -0.53442720217E+02  0.14437159381E+03  0.78298495620E+02 0.  0.
         25    2    1    2    0    0  0.16860040825E+02  0.97492220944E+02  0.29567053966E+03  0.33594261394E+03  0.12508947884E+03 0.  0.
         24    2    1    2    0    0  0.33350453337E+02 -0.87294431646E+00  0.13755543506E+04  0.13782226585E+04  0.78961447264E+02 0.  0.
        -13    1    5    5    0    0  0.35083357018E+02  0.26723165197E+02  0.42824799669E+03  0.43051285250E+03  0.00000000000E+00 0.  1.
         14    1    5    5    0    0 -0.17329036815E+01 -0.27596109513E+02  0.94730635389E+03  0.94770980597E+03  0.00000000000E+00 0. -1.
         11    1    3    3    0    0 -0.42554836084E+02 -0.36455215118E+02  0.96456784476E+01  0.56858912196E+02  0.00000000000E+00 0. -1.
        -12    1    3    3    0    0 -0.76556580770E+01 -0.60164061510E+02 -0.63088398664E+02  0.87512681618E+02  0.00000000000E+00 0.  1.
          5    1    4    4  501    0 -0.18170817737E+02  0.11497970093E+03  0.24887479502E+03  0.27478472709E+03  0.41800000000E+01 0.  1.
         -5    1    4    4    0  501  0.35030858561E+02 -0.17487479988E+02  0.46795744642E+02  0.61157886854E+02  0.41800000000E+01 0.  1.
</event>
<event>
11    1  0.8299058E-009  0.1534782E+03  0.7561462E-02  0.1093377E+00
         22   -1    0    0    0    0  0.00000000000E+00  0.00000000000E+00  0.13004949277E+04  0.13004949277E+04  0.00000000000E+00 0. -1.
         22   -1    0    0    0    0 -0.00000000000E+00 -0.00000000000E+00 -0.69031885873E+03  0.69031885873E+03  0.00000000000E+00 0. -1.
         24    2    1    2    0    0  0.15170404038E+02  0.66683058098E+02 -0.60292840464E+03  0.61212482839E+03  0.80606283931E+02 0.  0.
         25    2    1    2    0    0 -0.10157159084E+03 -0.82977605673E+02  0.23038146624E+02  0.18270276757E+03  0.12508986358E+03 0.  0.
        -24    2    1    2    0    0  0.86401186805E+02  0.16294547574E+02  0.11900663270E+04  0.11959861904E+04  0.79965166008E+02 0.  0.
        -13    1    3    3    0    0  0.22624568382E+01  0.16876684600E+02 -0.45831307809E+03  0.45862928247E+03  0.00000000000E+00 0.  1.
         14    1    3    3    0    0  0.12907947200E+02  0.49806373498E+02 -0.14461532656E+03  0.15349554592E+03  0.00000000000E+00 0. -1.
         13    1    5    5    0    0  0.10142691946E+03  0.10419975774E+02  0.10685619431E+04  0.10734154006E+04  0.00000000000E+00 0. -1.
        -14    1    5    5    0    0 -0.15025732659E+02  0.58745717999E+01  0.12150438382E+03  0.12257078984E+03  0.00000000000E+00 0.  1.
          5    1    4    4  501    0 -0.84000280270E+02 -0.20466062687E+02 -0.37030418637E+02  0.94146859277E+02  0.41800000000E+01 0.  1.
         -5    1    4    4    0  501 -0.17571310573E+02 -0.62511542986E+02  0.60068565261E+02  0.88555908297E+02  0.41800000000E+01 0.  1.
</event>
<event>
11    1  0.8299058E-009  0.2134246E+03  0.7561462E-02  0.1045416E+00
         22   -1    0    0    0    0  0.00000000000E+00  0.00000000000E+00  0.14268117953E+04  0.14268117953E+04  0.00000000000E+00 0. -1.
         22   -1    0    0    0    0 -0.00000000000E+00 -0.00000000000E+00 -0.60769679561E+03  0.60769679561E+03  0.00000000000E+00 0. -1.
        -24    2    1    2    0    0 -0.12546234829E+02  0.13591412624E+02 -0.34744663855E+03  0.35837234804E+03  0.85845434890E+02 0.  0.
         25    2    1    2    0    0  0.46790064336E+02  0.15620086404E+03 -0.20545624086E+03  0.29059886788E+03  0.12508962809E+03 0.  0.
         24    2    1    2    0    0 -0.34243829507E+02 -0.16979227667E+03  0.13720178791E+04  0.13855373749E+04  0.85315296632E+02 0.  0.
        -11    1    5    5    0    0 -0.15956907884E+02 -0.13623220403E+01  0.45333576805E+02  0.48079226455E+02  0.00000000000E+00 0.  1.
         12    1    5    5    0    0 -0.18286921623E+02 -0.16842995463E+03  0.13266843023E+04  0.13374581485E+04  0.00000000000E+00 0. -1.
         11    1    3    3    0    0  0.19271329129E+02  0.12011201874E+02 -0.30211087396E+03  0.30296308895E+03  0.00000000000E+00 0. -1.
        -12    1    3    3    0    0 -0.31817563957E+02  0.15802107508E+01 -0.45335764586E+02  0.55409259089E+02  0.00000000000E+00 0.  1.
          5    1    4    4  501    0  0.62217517347E+02  0.40567369301E+02 -0.30782079297E+02  0.80509252404E+02  0.41800000000E+01 0.  1.
         -5    1    4    4    0  501 -0.15427453011E+02  0.11563349474E+03 -0.17467416156E+03  0.21008961547E+03  0.41800000000E+01 0.  1.
</event>
<event>
11    1  0.8299058E-009  0.1843324E+03  0.7561462E-02  0.1066191E+00
         22   -1    0    0    0    0  0.00000000000E+00  0.00000000000E+00  0.37138162292E+03  0.37138162292E+03  0.00000000000E+00 0.  1.
         22   -1    0    0    0    0 -0.00000000000E+00 -0.00000000000E+00 -0.35125623287E+03  0.35125623287E+03  0.00000000000E+00 0.  1.
        -24    2    1    2    0    0 -0.27086484509E+02 -0.46235358726E-01 -0.25079292848E+03  0.26449923469E+03  0.79555467415E+02 0.  0.
         25    2    1    2    0    0 -0.95024510754E+02 -0.72152149494E+02  0.43302879096E+02  0.17820906321E+03  0.12509092913E+03 0.  0.
         24    2    1    2    0    0  0.12211099526E+03  0.72198384852E+02  0.22761543943E+03  0.27992955790E+03  0.80175227958E+02 0.  0.
        -13    1    5    5    0    0  0.50778308027E+02  0.53249633620E+02  0.53974014062E+02  0.91253242357E+02  0.00000000000E+00 0.  1.
         14    1    5    5    0    0  0.71332687236E+02  0.18948751232E+02  0.17364142537E+03  0.18867631554E+03  0.00000000000E+00 0. -1.
         11    1    3    3    0    0 -0.15364728135E+02 -0.76465350224E+01 -0.44090222707E+01  0.17719589326E+02  0.00000000000E+00 0. -1.
        -12    1    3    3    0    0 -0.11721756374E+02  0.76002996636E+01 -0.24638390621E+03  0.24677964536E+03  0.00000000000E+00 0.  1.
          5    1    4    4  501    0 -0.28707001481E+02  0.33958621305E+02 -0.28986033379E+01  0.44756610644E+02  0.41800000000E+01 0.  1.
         -5    1    4    4    0  501 -0.66317509273E+02 -0.10611077080E+03  0.46201482434E+02  0.13345245256E+03  0.41800000000E+01 0.  1.
</event>
<event>
11    1  0.8299058E-009  0.9424947E+03  0.7561462E-02  0.8735719E-01
         22   -1    0    0    0    0  0.00000000000E+00  0.00000000000E+00  0.14160665386E+04  0.14160665386E+04  0.00000000000E+00 0. -1.
         22   -1    0    0    0    0 -0.00000000000E+00 -0.00000000000E+00 -0.22665876781E+04  0.22665876781E+04  0.00000000000E+00 0.  1.
         24    2    1    2    0    0  0.74345852455E+03  0.59302327278E+03 -0.14690099778E+04  0.17517315905E+04  0.78524330466E+02 0.  0.
         25    2    1    2    0    0 -0.68753050096E+03 -0.57604611424E+03 -0.33993864074E+03  0.96733302750E+03  0.12509033199E+03 0.  0.
        -24    2    1    2    0    0 -0.55928023597E+02 -0.16977158545E+02  0.95842747910E+03  0.96358959874E+03  0.80656769019E+02 0.  0.
        -13    1    3    3    0    0  0.46933076449E+03  0.32542067836E+03 -0.88685848531E+03  0.10548402521E+04  0.00000000000E+00 0.  1.
         14    1    3    3    0    0  0.27412776007E+03  0.26760259442E+03 -0.58215149250E+03  0.69689133844E+03  0.00000000000E+00 0. -1.
         11    1    5    5    0    0 -0.74681839670E+02 -0.59786349326E+00  0.72780667946E+03  0.73162852410E+03  0.00000000000E+00 0. -1.
        -12    1    5    5    0    0  0.18753816073E+02 -0.16379295052E+02  0.23062079964E+03  0.23196107464E+03  0.00000000000E+00 0.  1.
          5    1    4    4  501    0 -0.38722895886E+03 -0.24932569564E+03 -0.14743377453E+03  0.48359462296E+03  0.41800000000E+01 0. -1.
         -5    1    4    4    0  501 -0.30030154210E+03 -0.32672041859E+03 -0.19250486621E+03  0.48373840454E+03  0.41800000000E+01 0. -1.
</event>
<event>
11    1  0.8299058E-009  0.1768482E+03  0.7561462E-02  0.1072221E+00
         22   -1    0    0    0    0  0.00000000000E+00  0.00000000000E+00  0.16155844833E+04  0.16155844833E+04  0.00000000000E+00 0.  1.
         22   -1    0    0    0    0 -0.00000000000E+00 -0.00000000000E+00 -0.18689745828E+03  0.18689745828E+03  0.00000000000E+00 0. -1.
         24    2    1    2    0    0 -0.60367745408E+02  0.55239638922E+02 -0.13463030123E+03  0.17810900272E+03  0.83077171645E+02 0.  0.
         25    2    1    2    0    0  0.15084599844E+03 -0.11941953930E+03  0.49641457515E+03  0.54689190466E+03  0.12509110021E+03 0.  0.
        -24    2    1    2    0    0 -0.90478253030E+02  0.64179900377E+02  0.10669027511E+04  0.10774810342E+04  0.10187504541E+03 0.  0.
        -11    1    3    3    0    0 -0.20445045586E+02 -0.17063566036E+01  0.58692286190E+01  0.21339151494E+02  0.00000000000E+00 0.  1.
         12    1    3    3    0    0 -0.39922699822E+02  0.56945995525E+02 -0.14049952985E+03  0.15676985123E+03  0.00000000000E+00 0. -1.
         13    1    5    5    0    0 -0.25860113955E+02 -0.26401635889E+02  0.35752398761E+03  0.35942898268E+03  0.00000000000E+00 0. -1.
        -14    1    5    5    0    0 -0.64618139075E+02  0.90581536266E+02  0.70937876353E+03  0.71805205157E+03  0.00000000000E+00 0.  1.
          5    1    4    4  501    0  0.87182943068E+01 -0.76508330375E+02  0.12489819479E+03  0.14678748154E+03  0.41800000000E+01 0.  1.
         -5    1    4    4    0  501  0.14212770413E+03 -0.42911208923E+02  0.37151638035E+03  0.40010442312E+03  0.41800000000E+01 0.  1.
</event>
<event>
11    1  0.8299058E-009  0.1412009E+03  0.7561462E-02  0.1106225E+00
         22   -1    0    0    0    0  0.00000000000E+00  0.00000000000E+00  0.55402118670E+03  0.55402118670E+03  0.00000000000E+00 0.  1.
         22   -1    0    0    0    0 -0.00000000000E+00 -0.00000000000E+00 -0.11195474147E+04  0.11195474147E+04  0.00000000000E+00 0. -1.
         24    2    1    2    0    0 -0.26060039861E+02  0.40852891304E+02 -0.10823974168E+04  0.10864944053E+04  0.80856914141E+02 0.  0.
         25    2    1    2    0    0  0.59745732741E+02 -0.84164958258E+02  0.21283103749E+03  0.26757779060E+03  0.12509009042E+03 0.  0.
        -24    2    1    2    0    0 -0.33685692880E+02  0.43312066954E+02  0.30404015126E+03  0.31949640550E+03  0.81405641712E+02 0.  0.
        -11    1    3    3    0    0  0.23373860967E+02  0.33503851852E+02 -0.34605372785E+03  0.34845663722E+03  0.00000000000E+00 0.  1.
         12    1    3    3    0    0 -0.49433900828E+02  0.73490394519E+01 -0.73634368894E+03  0.73803776812E+03  0.00000000000E+00 0. -1.
         13    1    5    5    0    0 -0.12973526389E+02 -0.79622627932E+01  0.59877569536E+01  0.16357360701E+02  0.00000000000E+00 0. -1.
        -14    1    5    5    0    0 -0.20712166491E+02  0.51274329747E+02  0.29805239430E+03  0.30313904480E+03  0.00000000000E+00 0.  1.
          5    1    4    4  501    0 -0.31022654056E+02 -0.53078003349E+02  0.53814304149E+02  0.81811559301E+02  0.41800000000E+01 0. -1.
         -5    1    4    4    0  501  0.90768386798E+02 -0.31086954909E+02  0.15901673334E+03  0.18576623130E+03  0.41800000000E+01 0. -1.
</event>
<event>
11    1  0.8299058E-009  0.2914513E+03  0.7561462E-02  0.1003876E+00
         22   -1    0    0    0    0  0.00000000000E+00  0.00000000000E+00  0.39609716037E+03  0.39609716037E+03  0.00000000000E+00 0. -1.
         22   -1    0    0    0    0 -0.00000000000E+00 -0.00000000000E+00 -0.23933103578E+04  0.23933103578E+04  0.00000000000E+00 0.  1.
         24    2    1    2    0    0  0.85791842911E+02 -0.22159579518E+03 -0.11013804557E+04  0.11296124710E+04  0.80749549930E+02 0.  0.
         25    2    1    2    0    0 -0.91880475082E+02  0.28727507170E+03 -0.12495823106E+04  0.12915383320E+04  0.12508526500E+03 0.  0.
        -24    2    1    2    0    0  0.60886321713E+01 -0.65679276520E+02  0.35374956887E+03  0.36825671512E+03  0.78252232880E+02 0.  0.
        -13    1    3    3    0    0  0.41505765116E+02 -0.18562677820E+03 -0.92052485119E+03  0.93997129263E+03  0.00000000000E+00 0.  1.
         14    1    3    3    0    0  0.44286077795E+02 -0.35969016975E+02 -0.18085560448E+03  0.18964117839E+03  0.00000000000E+00 0. -1.
         13    1    5    5    0    0  0.39501246504E+02 -0.51294961157E+02  0.25259411425E+03  0.26075909968E+03  0.00000000000E+00 0. -1.
        -14    1    5    5    0    0 -0.33412614332E+02 -0.14384315363E+02  0.10115545462E+03  0.10749761544E+03  0.00000000000E+00 0.  1.
          5    1    4    4  501    0 -0.10464785320E+03  0.14148067069E+03 -0.57938812038E+03  0.60553779387E+03  0.41800000000E+01 0.  1.
         -5    1    4    4    0  501  0.12767378120E+02  0.14579440101E+03 -0.67019419020E+03  0.68600053811E+03  0.41800000000E+01 0.  1.
</event>
<event>
11    1  0.8299058E-009  0.4470137E+03  0.7561462E-02  0.9520397E-01
         22   -1    0    0    0    0  0.00000000000E+00  0.00000000000E+00  0.52393425062E+03  0.52393425062E+03  0.00000000000E+00 0.  1.
         22   -1    0    0    0    0 -0.00000000000E+00 -0.00000000000E+00 -0.41376918130E+03  0.41376918130E+03  0.00000000000E+00 0.  1.
         24    2    1    2    0    0 -0.25892405539E+03 -0.24373201109E+02 -0.16585397691E+03  0.31900370008E+03  0.81363994558E+02 0.  0.
         25    2    1    2    0    0 -0.94528712465E+02 -0.21404541095E+02 -0.13300228356E+01  0.15825070081E+03  0.12509070104E+03 0.  0.
        -24    2    1    2    0    0  0.35345276786E+03  0.45777742203E+02  0.27734906907E+03  0.46044903104E+03  0.89812823590E+02 0.  0.
        -11    1    3    3    0    0 -0.12741301916E+03 -0.40680588445E+02 -0.49378778593E+02  0.14257367044E+03  0.00000000000E+00 0.  1.
         12    1    3    3    0    0 -0.13151103623E+03  0.16307387337E+02 -0.11647519832E+03  0.17643002963E+03  0.00000000000E+00 0. -1.
         11    1    5    5    0    0  0.67282702014E+02 -0.26454848901E+02  0.58989405751E+02  0.93309008201E+02  0.00000000000E+00 0. -1.
        -12    1    5    5    0    0  0.28617006584E+03  0.72232591105E+02  0.21835966332E+03  0.36714002284E+03  0.00000000000E+00 0.  1.
          5    1    4    4  501    0 -0.44768131294E+02 -0.69948024857E+02 -0.21231571451E+02  0.85820532434E+02  0.41800000000E+01 0.  1.
         -5    1    4    4    0  501 -0.49760581171E+02  0.48543483762E+02  0.19901548615E+02  0.72430168380E+02  0.41800000000E+01 0.  1.
</event>
<event>
11    1  0.8299058E-009  0.1674217E+03  0.7561462E-02  0.1080297E+00
         22   -1    0    0    0    0  0.00000000000E+00  0.00000000000E+00  0.93170405440E+03  0.93170405440E+03  0.00000000000E+00 0.  1.
         22   -1    0    0    0    0 -0.00000000000E+00 -0.00000000000E+00 -0.10747517276E+03  0.10747517276E+03  0.00000000000E+00 0.  1.
         24    2    1    2    0    0 -0.83987243429E+02  0.71407962608E+02 -0.15701368831E+02  0.13792544950E+03  0.81387606270E+02 0.  0.
         25    2    1    2    0    0  0.34944351513E+02  0.63696275490E+02  0.24551559484E+03  0.28496224457E+03  0.12508896956E+03 0.  0.
        -24    2    1    2    0    0  0.49042891916E+02 -0.13510423810E+03  0.59441465563E+03  0.61629153309E+03  0.76342062681E+02 0.  0.
        -11    1    3    3    0    0 -0.70318364170E+02  0.41462233174E+02 -0.45558091774E+02  0.93484377548E+02  0.00000000000E+00 0.  1.
         12    1    3    3    0    0 -0.13668879258E+02  0.29945729434E+02  0.29856722943E+02  0.44441071954E+02  0.00000000000E+00 0. -1.
         13    1    5    5    0    0  0.77240264178E+01 -0.10870238641E+03  0.33487646709E+03  0.35216206157E+03  0.00000000000E+00 0. -1.
        -14    1    5    5    0    0  0.41318865498E+02 -0.26401851689E+02  0.25953818854E+03  0.26412947153E+03  0.00000000000E+00 0.  1.
          5    1    4    4  501    0 -0.44268751658E+01 -0.30187015812E+02  0.17991143034E+02  0.35665203981E+02  0.41800000000E+01 0.  1.
         -5    1    4    4    0  501  0.39371226679E+02  0.93883291302E+02  0.22752445181E+03  0.24929704059E+03  0.41800000000E+01 0.  1.
</event>
<event>
11    1  0.8299058E-009  0.1549468E+03  0.7561462E-02  0.1091929E+00
         22   -1    0    0    0    0  0.00000000000E+00  0.00000000000E+00  0.34296607025E+03  0.34296607025E+03  0.00000000000E+00 0. -1.
         22   -1    0    0    0    0 -0.00000000000E+00 -0.00000000000E+00 -0.63504476471E+03  0.63504476471E+03  0.00000000000E+00 0.  1.
        -24    2    1    2    0    0  0.87312239662E+02 -0.11285351023E+02 -0.37605142393E+03  0.39455051210E+03  0.80651390647E+02 0.  0.
         25    2    1    2    0    0 -0.14676359865E+03 -0.54774623218E+02 -0.19498202494E+03  0.27965404641E+03  0.12509429400E+03 0.  0.
         24    2    1    2    0    0  0.59451358983E+02  0.66059974241E+02  0.27895475440E+03  0.30380627645E+03  0.81142555553E+02 0.  0.
        -11    1    5    5    0    0  0.23950785836E+02  0.36593768414E+01  0.11380897267E+02  0.26768563720E+02  0.00000000000E+00 0.  1.
         12    1    5    5    0    0  0.35500573148E+02  0.62400597400E+02  0.26757385714E+03  0.27703771273E+03  0.00000000000E+00 0. -1.
         13    1    3    3    0    0  0.44598579093E+02 -0.46879594852E+01 -0.56712968857E+02  0.72300560564E+02  0.00000000000E+00 0. -1.
        -14    1    3    3    0    0  0.42713660569E+02 -0.65973915373E+01 -0.31933845508E+03  0.32224995153E+03  0.00000000000E+00 0.  1.
          5    1    4    4  501    0 -0.12167997680E+03 -0.85275486424E+02 -0.18745179609E+03  0.23923539370E+03  0.41800000000E+01 0.  1.
         -5    1    4    4    0  501 -0.25083621841E+02  0.30500863205E+02 -0.75302288461E+01  0.40418652716E+02  0.41800000000E+01 0.  1.
</event>
<event>
11    1  0.8299058E-009  0.1904611E+03  0.7561462E-02  0.1061482E+00
         22   -1    0    0    0    0  0.00000000000E+00  0.00000000000E+00  0.16247950201E+03  0.16247950201E+03  0.00000000000E+00 0. -1.
         22   -1    0    0    0    0 -0.00000000000E+00 -0.00000000000E+00 -0.81844501626E+03  0.81844501626E+03  0.00000000000E+00 0. -1.
        -24    2    1    2    0    0 -0.12761303217E+03 -0.45153776047E+02 -0.57773794602E+03  0.59886388550E+03  0.80826169116E+02 0.  0.
         25    2    1    2    0    0  0.19722020387E+03  0.40619207383E+02 -0.12299580805E+03  0.26706945996E+03  0.12510954728E+03 0.  0.
         24    2    1    2    0    0 -0.69607171707E+02  0.45345686641E+01  0.44768239815E+02  0.11499117281E+03  0.79706046582E+02 0.  0.
        -13    1    5    5    0    0 -0.37311169073E+02  0.40953031107E+02  0.13126534616E+02  0.56934875125E+02  0.00000000000E+00 0.  1.
         14    1    5    5    0    0 -0.32296002633E+02 -0.36418462443E+02  0.31641705199E+02  0.58056297683E+02  0.00000000000E+00 0. -1.
         13    1    3    3    0    0 -0.59317451066E+02 -0.58132708931E+01 -0.40024726487E+03  0.40466063208E+03  0.00000000000E+00 0. -1.
        -14    1    3    3    0    0 -0.68295581102E+02 -0.39340505154E+02 -0.17749068116E+03  0.19420325343E+03  0.00000000000E+00 0.  1.
          5    1    4    4  501    0  0.14278439496E+03 -0.28843325117E+02 -0.96683636611E+02  0.17488430129E+03  0.41800000000E+01 0.  1.
         -5    1    4    4    0  501  0.54435808914E+02  0.69462532500E+02 -0.26312171436E+02  0.92185158671E+02  0.41800000000E+01 0.  1.
</event>
<event>
11    1  0.8299058E-009  0.1264307E+03  0.7561462E-02  0.1123734E+00
         22   -1    0    0    0    0  0.00000000000E+00  0.00000000000E+00  0.20397882957E+03  0.20397882957E+03  0.00000000000E+00 0. -1.
         22   -1    0    0    0    0 -0.00000000000E+00 -0.00000000000E+00 -0.38100317531E+03  0.38100317531E+03  0.00000000000E+00 0.  1.
         24    2    1    2    0    0  0.14605427377E+02 -0.11230486153E+02 -0.32063304892E+03  0.33096224547E+03  0.79943814907E+02 0.  0.
         25    2    1    2    0    0 -0.79195783061E+01  0.17602180159E+02  0.52742609690E+02  0.13712071338E+03  0.12509096968E+03 0.  0.
        -24    2    1    2    0    0 -0.66858490709E+01 -0.63716940065E+01  0.90866093481E+02  0.11689904603E+03  0.72961914426E+02 0.  0.
        -11    1    3    3    0    0 -0.32638408701E+02  0.62119390885E-01 -0.15246787486E+03  0.15592216791E+03  0.00000000000E+00 0.  1.
         12    1    3    3    0    0  0.47243836078E+02 -0.11292605543E+02 -0.16816517406E+03  0.17504007757E+03  0.00000000000E+00 0. -1.
         13    1    5    5    0    0  0.13333383624E+02 -0.25416215319E+01  0.95114951571E+02  0.96078577068E+02  0.00000000000E+00 0. -1.
        -14    1    5    5    0    0 -0.20019232695E+02 -0.38300724746E+01 -0.42488580907E+01  0.20820468965E+02  0.00000000000E+00 0.  1.
          5    1    4    4  501    0 -0.56636652094E+01  0.54879597262E+02  0.75185889970E+02  0.93350081681E+02  0.41800000000E+01 0. -1.
         -5    1    4    4    0  501 -0.22559130967E+01 -0.37277417103E+02 -0.22443280279E+02  0.43770631701E+02  0.41800000000E+01 0. -1.
</event>
<event>
11    1  0.8299058E-009  0.2205768E+03  0.7561462E-02  0.1040857E+00
         22   -1    0    0    0    0  0.00000000000E+00  0.00000000000E+00  0.12149048110E+04  0.12149048110E+04  0.00000000000E+00 0. -1.
         22   -1    0    0    0    0 -0.00000000000E+00 -0.00000000000E+00 -0.72937699489E+03  0.72937699489E+03  0.00000000000E+00 0.  1.
         24    2    1    2    0    0 -0.10146252702E+03 -0.15094146077E+03 -0.68882999089E+03  0.71646004522E+03  0.75830541848E+02 0.  0.
         25    2    1    2    0    0  0.91487995999E+02  0.14923269355E+03  0.44766170197E+03  0.49667869422E+03  0.12509306793E+03 0.  0.
        -24    2    1    2    0    0  0.99745310207E+01  0.17087672203E+01  0.72669610505E+03  0.73114306646E+03  0.79878303574E+02 0.  0.
        -11    1    3    3    0    0 -0.11120021232E+03 -0.14352781561E+03 -0.66861605713E+03  0.69282981527E+03  0.00000000000E+00 0.  1.
         12    1    3    3    0    0  0.97376852967E+01 -0.74136451572E+01 -0.20213933766E+02  0.23630229956E+02  0.00000000000E+00 0. -1.
         13    1    5    5    0    0 -0.71907268935E+01  0.25509063572E+02  0.61762827439E+03  0.61819665496E+03  0.00000000000E+00 0. -1.
        -14    1    5    5    0    0  0.17165257914E+02 -0.23800296352E+02  0.10906783066E+03  0.11294641150E+03  0.00000000000E+00 0.  1.
          5    1    4    4  501    0  0.27064247328E+02  0.12991561365E+03  0.37388073615E+03  0.39675536218E+03  0.41800000000E+01 0. -1.
         -5    1    4    4    0  501  0.64423748671E+02  0.19317079895E+02  0.73780965824E+02  0.99923332042E+02  0.41800000000E+01 0. -1.
</event>
<event>
11    1  0.8299058E-009  0.1455860E+03  0.7561462E-02  0.1101476E+00
         22   -1    0    0    0    0  0.00000000000E+00  0.00000000000E+00  0.42607721232E+03  0.42607721232E+03  0.00000000000E+00 0. -1.
         22   -1    0    0    0    0 -0.00000000000E+00 -0.00000000000E+00 -0.15589960263E+04  0.15589960263E+04  0.00000000000E+00 0. -1.
         24    2    1    2    0    0  0.97317656816E+01  0.29511849116E+01 -0.93772809850E+03  0.94175930348E+03  0.86447569195E+02 0.  0.
         25    2    1    2    0    0 -0.70944796491E+02  0.39354173572E+02 -0.60293868601E+03  0.62109939229E+03  0.12508989122E+03 0.  0.
        -24    2    1    2    0    0  0.61213030809E+02 -0.42305358484E+02  0.40774797048E+03  0.42221454290E+03  0.80435901863E+02 0.  0.
        -13    1    3    3    0    0  0.11663354307E+02  0.40262810328E+02 -0.29708750992E+03  0.30003019228E+03  0.00000000000E+00 0.  1.
         14    1    3    3    0    0 -0.19315886254E+01 -0.37311625416E+02 -0.64064058858E+03  0.64172911120E+03  0.00000000000E+00 0. -1.
         13    1    5    5    0    0  0.22895764511E+02 -0.11305604145E+02  0.32425983017E+03  0.32526369330E+03  0.00000000000E+00 0. -1.
        -14    1    5    5    0    0  0.38317266299E+02 -0.30999754339E+02  0.83488140311E+02  0.96950849601E+02  0.00000000000E+00 0.  1.
          5    1    4    4  501    0  0.21749130452E+02  0.10402924015E+02 -0.33814859008E+03  0.33903272243E+03  0.41800000000E+01 0. -1.
         -5    1    4    4    0  501 -0.92693926943E+02  0.28951249557E+02 -0.26479009593E+03  0.28206666986E+03  0.41800000000E+01 0. -1.
</event>
<event>
11    1  0.8299058E-009  0.1429514E+03  0.7561462E-02  0.1104307E+00
         22   -1    0    0    0    0  0.00000000000E+00  0.00000000000E+00  0.25231705752E+04  0.25231705752E+04  0.00000000000E+00 0. -1.
         22   -1    0    0    0    0 -0.00000000000E+00 -0.00000000000E+00 -0.13697874325E+02  0.13697874325E+02  0.00000000000E+00 0. -1.
        -24    2    1    2    0    0  0.58180158961E+02  0.33179465319E+02  0.42903490933E+03  0.44159881137E+03  0.80329004525E+02 0.  0.
         25    2    1    2    0    0 -0.46449236455E+02 -0.63313918673E+02  0.94498244680E+03  0.95645429138E+03  0.12508718112E+03 0.  0.
         24    2    1    2    0    0 -0.11730922507E+02  0.30134453354E+02  0.11354553448E+04  0.11388153468E+04  0.81214865021E+02 0.  0.
        -13    1    5    5    0    0  0.11120762829E+02 -0.22010180913E+02  0.56202018531E+03  0.56256093725E+03  0.00000000000E+00 0.  1.
         14    1    5    5    0    0 -0.22851685335E+02  0.52144634267E+02  0.57343515946E+03  0.57625440953E+03  0.00000000000E+00 0. -1.
         11    1    3    3    0    0  0.64420656265E+02  0.25207869030E+02  0.18753914562E+03  0.19989094215E+03  0.00000000000E+00 0. -1.
        -12    1    3    3    0    0 -0.62404973035E+01  0.79715962887E+01  0.24149576371E+03  0.24170786922E+03  0.00000000000E+00 0.  1.
          5    1    4    4  501    0 -0.68723720323E+02 -0.89388760025E+02  0.74883245778E+03  0.75728516583E+03  0.41800000000E+01 0.  1.
         -5    1    4    4    0  501  0.22274483868E+02  0.26074841353E+02  0.19614998902E+03  0.19916912555E+03  0.41800000000E+01 0.  1.
</event>
<event>
11    1  0.8299058E-009  0.1355174E+03  0.7561462E-02  0.1112670E+00
         22   -1    0    0    0    0  0.00000000000E+00  0.00000000000E+00  0.29060098988E+03  0.29060098988E+03  0.00000000000E+00 0. -1.
         22   -1    0    0    0    0 -0.00000000000E+00 -0.00000000000E+00 -0.44619420485E+03  0.44619420485E+03  0.00000000000E+00 0.  1.
        -24    2    1    2    0    0 -0.14359303910E+02 -0.21748293070E+02 -0.36999006209E+03  0.37935042136E+03  0.79592199899E+02 0.  0.
         25    2    1    2    0    0 -0.19251473857E+00 -0.32321525928E+02  0.88839038974E+01  0.12950247627E+03  0.12508896638E+03 0.  0.
         24    2    1    2    0    0  0.14551818649E+02  0.54069818998E+02  0.20551294322E+03  0.22794229711E+03  0.81159227617E+02 0.  0.
        -13    1    5    5    0    0 -0.33186466917E+01  0.19747647640E+02  0.12686602440E+01  0.20064707872E+02  0.00000000000E+00 0.  1.
         14    1    5    5    0    0  0.17870465341E+02  0.34322171358E+02  0.20424428297E+03  0.20787758923E+03  0.00000000000E+00 0. -1.
         11    1    3    3    0    0 -0.42280441603E+02  0.79130939564E+01 -0.18981810209E+03  0.19463084205E+03  0.00000000000E+00 0. -1.
        -12    1    3    3    0    0  0.27921137692E+02 -0.29661387026E+02 -0.18017196000E+03  0.18471957931E+03  0.00000000000E+00 0.  1.
          5    1    4    4  501    0 -0.60526167245E+02 -0.21045658415E+02 -0.10349612732E+02  0.65045549757E+02  0.41800000000E+01 0.  1.
         -5    1    4    4    0  501  0.60333652507E+02 -0.11275867513E+02  0.19233516629E+02  0.64456926508E+02  0.41800000000E+01 0.  1.
</event>
<event>
11    1  0.8299058E-009  0.1374932E+04  0.7561462E-02  0.8386545E-01
         22   -1    0    0    0    0  0.00000000000E+00  0.00000000000E+00  0.12308837767E+04  0.12308837767E+04  0.00000000000E+00 0.  1.
         22   -1    0    0    0    0 -0.00000000000E+00 -0.00000000000E+00 -0.24477613698E+04  0.24477613698E+04  0.00000000000E+00 0.  1.
        -24    2    1    2    0    0 -0.13444054212E+01  0.13896426027E+04 -0.81984801555E+03  0.16155099896E+04  0.81322733952E+02 0.  0.
         25    2    1    2    0    0  0.58168689392E+03 -0.12794623710E+04 -0.15472276538E+03  0.14194967498E+04  0.12509311459E+03 0.  0.
         24    2    1    2    0    0 -0.58034248850E+03 -0.11018023179E+03 -0.24230681221E+03  0.64363840711E+03  0.81367809493E+02 0.  0.
        -13    1    5    5    0    0 -0.22273542934E+03 -0.41678270796E+02 -0.13620205312E+03  0.26438447196E+03  0.00000000000E+00 0.  1.
         14    1    5    5    0    0 -0.35760705917E+03 -0.68501960995E+02 -0.10610475909E+03  0.37925393515E+03  0.00000000000E+00 0. -1.
         13    1    3    3    0    0  0.27354059731E+02  0.38667954113E+03 -0.25620698024E+03  0.46466259677E+03  0.00000000000E+00 0. -1.
        -14    1    3    3    0    0 -0.28698465152E+02  0.10029630616E+04 -0.56364103531E+03  0.11508473928E+04  0.00000000000E+00 0.  1.
          5    1    4    4  501    0  0.19658197042E+03 -0.31595157154E+03 -0.14357916726E+02  0.37241574729E+03  0.41800000000E+01 0.  1.
         -5    1    4    4    0  501  0.38510492350E+03 -0.96351079941E+03 -0.14036484865E+03  0.10470810025E+04  0.41800000000E+01 0.  1.
</event>
<event>
11    1  0.8299058E-009  0.1455149E+03  0.7561462E-02  0.1101552E+00
         22   -1    0    0    0    0  0.00000000000E+00  0.00000000000E+00  0.32836733399E+03  0.32836733399E+03  0.00000000000E+00 0. -1.
         22   -1    0    0    0    0 -0.00000000000E+00 -0.00000000000E+00 -0.29012231042E+03  0.29012231042E+03  0.00000000000E+00 0. -1.
        -24    2    1    2    0    0 -0.72547551049E+02 -0.18228350663E+02 -0.18858233793E+03  0.21865887791E+03  0.81565843232E+02 0.  0.
         25    2    1    2    0    0  0.71002093869E+02  0.14439528864E+02 -0.14350724563E+02  0.14526535480E+03  0.12508510175E+03 0.  0.
         24    2    1    2    0    0  0.15454571799E+01  0.37888217990E+01  0.24117808606E+03  0.25456541169E+03  0.81362989289E+02 0.  0.
        -11    1    5    5    0    0 -0.37190541698E+02  0.73767042962E+01  0.16159131244E+03  0.16597983135E+03  0.00000000000E+00 0.  1.
         12    1    5    5    0    0  0.38735998878E+02 -0.35878824971E+01  0.79586773621E+02  0.88585580346E+02  0.00000000000E+00 0. -1.
         11    1    3    3    0    0 -0.62859461904E+02 -0.29091092649E+02 -0.19165106871E+03  0.20378355125E+03  0.00000000000E+00 0. -1.
        -12    1    3    3    0    0 -0.96880891446E+01  0.10862741986E+02  0.30687307850E+01  0.14875326664E+02  0.00000000000E+00 0.  1.
          5    1    4    4  501    0 -0.33562712760E+02 -0.12334946807E+02  0.17968290366E+01  0.36045909548E+02  0.41800000000E+01 0.  1.
         -5    1    4    4    0  501  0.10456480663E+03  0.26774475672E+02 -0.16147553599E+02  0.10921944525E+03  0.41800000000E+01 0.  1.
</event>
<event>
11    1  0.8299058E-009  0.1300735E+03  0.7561462E-02  0.1119179E+00
         22   -1    0    0    0    0  0.00000000000E+00  0.00000000000E+00  0.12749799580E+04  0.12749799580E+04  0.00000000000E+00 0. -1.
         22   -1    0    0    0    0 -0.00000000000E+00 -0.00000000000E+00 -0.70003046969E+02  0.70003046969E+02  0.00000000000E+00 0. -1.
         24    2    1    2    0    0 -0.17174304507E+02 -0.22900081218E+02  0.17968955592E+02  0.86221492074E+02  0.79321446504E+02 0.  0.
         25    2    1    2    0    0  0.35559770009E+02  0.40784269199E+02  0.10089928168E+03  0.16957000884E+03  0.12508184919E+03 0.  0.
        -24    2    1    2    0    0 -0.18385465502E+02 -0.17884187981E+02  0.10861086738E+04  0.10891915041E+04  0.77770249896E+02 0.  0.
        -11    1    3    3    0    0 -0.26624291862E+02 -0.42802081823E+02  0.32365476374E+02  0.59903215160E+02  0.00000000000E+00 0.  1.
         12    1    3    3    0    0  0.94499873553E+01  0.19902000605E+02 -0.14396520783E+02  0.26318276915E+02  0.00000000000E+00 0. -1.
         13    1    5    5    0    0 -0.34183685049E+02 -0.17150696944E+02  0.10346670610E+04  0.10353736513E+04  0.00000000000E+00 0. -1.
        -14    1    5    5    0    0  0.15798219547E+02 -0.73349103670E+00  0.51441612810E+02  0.53817852785E+02  0.00000000000E+00 0.  1.
          5    1    4    4  501    0  0.50685156034E+02  0.39221775524E+02 -0.31794825784E+01  0.64303298725E+02  0.41800000000E+01 0.  1.
         -5    1    4    4    0  501 -0.15125386025E+02  0.15624936745E+01  0.10407876425E+03  0.10526671011E+03  0.41800000000E+01 0.  1.
</event>
<event>
11    1  0.8299058E-009  0.1709711E+03  0.7561462E-02  0.1077190E+00
         22   -1    0    0    0    0  0.00000000000E+00  0.00000000000E+00  0.90646317835E+02  0.90646317835E+02  0.00000000000E+00 0. -1.
         22   -1    0    0    0    0 -0.00000000000E+00 -0.00000000000E+00 -0.17763155933E+04  0.17763155933E+04  0.00000000000E+00 0. -1.
         24    2    1    2    0    0 -0.93196195449E+02 -0.61449436759E+02 -0.13921407408E+04  0.13988828902E+04  0.79724113026E+02 0.  0.
         25    2    1    2    0    0  0.11383248831E+03  0.14718450361E+03 -0.26024399832E+03  0.34350625112E+03  0.12509393431E+03 0.  0.
        -24    2    1    2    0    0 -0.20636292863E+02 -0.85735066851E+02 -0.33284536347E+02  0.12457276981E+03  0.81450330547E+02 0.  0.
        -13    1    3    3    0    0 -0.10037184253E+02  0.14253603508E+02 -0.77279953291E+02  0.79221849646E+02  0.00000000000E+00 0.  1.
         14    1    3    3    0    0 -0.83159011196E+02 -0.75703040267E+02 -0.13148607875E+04  0.13196610405E+04  0.00000000000E+00 0. -1.
         11    1    5    5    0    0 -0.19279864767E+02 -0.10184353584E+03 -0.31363621235E+02  0.10829356266E+03  0.00000000000E+00 0. -1.
        -12    1    5    5    0    0 -0.13564280963E+01  0.16108468987E+02 -0.19209151122E+01  0.16279207142E+02  0.00000000000E+00 0.  1.
          5    1    4    4  501    0 -0.24676699133E+02  0.10450898266E+02 -0.50619856451E+02  0.57428242371E+02  0.41800000000E+01 0. -1.
         -5    1    4    4    0  501  0.13850918745E+03  0.13673360534E+03 -0.20962414186E+03  0.28607800875E+03  0.41800000000E+01 0. -1.
</event>
<event>
11    1  0.8299058E-009  0.1731967E+03  0.7561462E-02  0.1075283E+00
         22   -1    0    0    0    0  0.00000000000E+00  0.00000000000E+00  0.37352306542E+03  0.37352306542E+03  0.00000000000E+00 0. -1.
         22   -1    0    0    0    0 -0.00000000000E+00 -0.00000000000E+00 -0.32562444055E+03  0.32562444055E+03  0.00000000000E+00 0. -1.
        -24    2    1    2    0    0 -0.34136086884E+01  0.11452510749E+02 -0.17336590463E+03  0.19130755962E+03  0.80000204686E+02 0.  0.
         25    2    1    2    0    0  0.11467504890E+03 -0.53490007867E+02 -0.63897268632E+02  0.18905336680E+03  0.12508703681E+03 0.  0.
         24    2    1    2    0    0 -0.11126144021E+03  0.42037497118E+02  0.28516179814E+03  0.31878657956E+03  0.78494413450E+02 0.  0.
        -13    1    5    5    0    0 -0.13403814888E+02 -0.21754658211E+02  0.45968512484E+02  0.52593075090E+02  0.00000000000E+00 0.  1.
         14    1    5    5    0    0 -0.97857625325E+02  0.63792155329E+02  0.23919328566E+03  0.26619350447E+03  0.00000000000E+00 0. -1.
         11    1    3    3    0    0  0.13420656340E+02  0.19618491525E+02 -0.17077198495E+03  0.17241829969E+03  0.00000000000E+00 0. -1.
        -12    1    3    3    0    0 -0.16834265028E+02 -0.81659807759E+01 -0.25939196868E+01  0.18889259922E+02  0.00000000000E+00 0.  1.
          5    1    4    4  501    0  0.80782520343E+01 -0.51670635542E+02  0.17007905571E+02  0.55153005223E+02  0.41800000000E+01 0.  1.
         -5    1    4    4    0  501  0.10659679687E+03 -0.18193723255E+01 -0.80905174203E+02  0.13390036158E+03  0.41800000000E+01 0.  1.
</event>
<event>
11    1  0.8299058E-009  0.1320407E+03  0.7561462E-02  0.1116787E+00
         22   -1    0    0    0    0  0.00000000000E+00  0.00000000000E+00  0.12424283070E+04  0.12424283070E+04  0.00000000000E+00 0. -1.
         22   -1    0    0    0    0 -0.00000000000E+00 -0.00000000000E+00 -0.69352083143E+03  0.69352083143E+03  0.00000000000E+00 0.  1.
        -24    2    1    2    0    0  0.41363477286E+02  0.76138104571E+01 -0.65936326746E+03  0.66505830505E+03  0.75985020089E+02 0.  0.
         25    2    1    2    0    0 -0.48551433891E+02 -0.38738903874E+02  0.13535590680E+03  0.19449054432E+03  0.12508959157E+03 0.  0.
         24    2    1    2    0    0  0.71879566046E+01  0.31125093417E+02  0.10729148362E+04  0.10764002891E+04  0.80441893935E+02 0.  0.
        -11    1    5    5    0    0  0.44950051979E+01  0.17524427681E+02  0.46554229201E+02  0.49946039821E+02  0.00000000000E+00 0.  1.
         12    1    5    5    0    0  0.26929514066E+01  0.13600665736E+02  0.10263606070E+04  0.10264542492E+04  0.00000000000E+00 0. -1.
         11    1    3    3    0    0  0.45774778000E+01 -0.83992549994E+01 -0.80263302080E+01  0.12486903706E+02  0.00000000000E+00 0. -1.
        -12    1    3    3    0    0  0.36785999486E+02  0.16013065456E+02 -0.65133693726E+03  0.65257140135E+03  0.00000000000E+00 0.  1.
          5    1    4    4  501    0 -0.48299572692E+02 -0.80510902901E+02  0.11284468971E+03  0.14685452190E+03  0.41800000000E+01 0.  1.
         -5    1    4    4    0  501 -0.25186119916E+00  0.41771999027E+02  0.22511217092E+02  0.47636022417E+02  0.41800000000E+01 0.  1.
</event>
<event>
11    1  0.8299058E-009  0.1509460E+03  0.7561462E-02  0.1095916E+00
         22   -1    0    0    0    0  0.00000000000E+00  0.00000000000E+00  0.54469328774E+03  0.54469328774E+03  0.00000000000E+00 0.  1.
         22   -1    0    0    0    0 -0.00000000000E+00 -0.00000000000E+00 -0.32118589493E+04  0.32118589493E+04  0.00000000000E+00 0.  1.
        -24    2    1    2    0    0 -0.62972922766E+02  0.55616602282E+02 -0.31332168110E+04  0.31353543710E+04  0.79628207164E+02 0.  0.
         25    2    1    2    0    0  0.93032847992E+02 -0.10245922562E+03  0.48464848095E+02  0.19273943013E+03  0.12508654087E+03 0.  0.
         24    2    1    2    0    0 -0.30059925226E+02  0.46842623339E+02  0.41758630142E+03  0.42845843585E+03  0.78105580182E+02 0.  0.
        -11    1    5    5    0    0 -0.29193009531E+02  0.67962434401E+02  0.34593204491E+03  0.35375147207E+03  0.00000000000E+00 0.  1.
         12    1    5    5    0    0 -0.86691569501E+00 -0.21119811062E+02  0.71654256511E+02  0.74706963787E+02  0.00000000000E+00 0. -1.
         13    1    3    3    0    0  0.14923902957E+02 -0.61226107727E+01 -0.37353960737E+03  0.37388774721E+03  0.00000000000E+00 0. -1.
        -14    1    3    3    0    0 -0.77896825724E+02  0.61739213055E+02 -0.27596772037E+04  0.27614666238E+04  0.00000000000E+00 0.  1.
          5    1    4    4  501    0  0.90098764891E+01 -0.65034271049E+02 -0.29490120547E+02  0.72095588597E+02  0.41800000000E+01 0. -1.
         -5    1    4    4    0  501  0.84022971503E+02 -0.37424954571E+02  0.77954968642E+02  0.12064384154E+03  0.41800000000E+01 0. -1.
</event>
<event>
11    1  0.8299058E-009  0.1414224E+03  0.7561462E-02  0.1105980E+00
         22   -1    0    0    0    0  0.00000000000E+00  0.00000000000E+00  0.11046015405E+04  0.11046015405E+04  0.00000000000E+00 0. -1.
         22   -1    0    0    0    0 -0.00000000000E+00 -0.00000000000E+00 -0.52611762822E+03  0.52611762822E+03  0.00000000000E+00 0.  1.
         24    2    1    2    0    0 -0.16429021116E+02 -0.64233677000E+02 -0.44838250581E+03  0.46041534347E+03  0.80867416079E+02 0.  0.
         25    2    1    2    0    0  0.32641457121E+02  0.55638457156E+02  0.60486402924E+00  0.14074323616E+03  0.12508872862E+03 0.  0.
        -24    2    1    2    0    0 -0.16212436005E+02  0.85952198438E+01  0.10262615541E+04  0.10295605891E+04  0.80283923604E+02 0.  0.
        -11    1    3    3    0    0 -0.30959269814E+02 -0.34244450118E+02 -0.39356778380E+03  0.39626602074E+03  0.00000000000E+00 0.  1.
         12    1    3    3    0    0  0.14530248699E+02 -0.29989226882E+02 -0.54814722017E+02  0.64149322725E+02  0.00000000000E+00 0. -1.
         11    1    5    5    0    0 -0.58145457238E+00  0.38292197093E+02  0.78997481103E+03  0.79090254299E+03  0.00000000000E+00 0. -1.
        -12    1    5    5    0    0 -0.15630981433E+02 -0.29696977249E+02  0.23628674305E+03  0.23865804613E+03  0.00000000000E+00 0.  1.
          5    1    4    4  501    0 -0.32281423182E+02 -0.16007982646E+00 -0.35121923453E+02  0.47886718568E+02  0.41800000000E+01 0. -1.
         -5    1    4    4    0  501  0.64922880302E+02  0.55798536983E+02  0.35726787482E+02  0.92856517596E+02  0.41800000000E+01 0. -1.
</event>
<event>
11    1  0.8299058E-009  0.1746040E+03  0.7561462E-02  0.1074093E+00
         22   -1    0    0    0    0  0.00000000000E+00  0.00000000000E+00  0.57950991805E+03  0.57950991805E+03  0.00000000000E+00 0. -1.
         22   -1    0    0    0    0 -0.00000000000E+00 -0.00000000000E+00 -0.13310540893E+04  0.13310540893E+04  0.00000000000E+00 0. -1.
         24    2    1    2    0    0  0.10232222386E+03 -0.65808567676E+02 -0.12944250808E+04  0.13025724448E+04  0.79737563579E+02 0.  0.
         25    2    1    2    0    0 -0.10002875965E+03  0.98722645516E+02  0.37653264422E+03  0.42092221893E+03  0.12508704463E+03 0.  0.
        -24    2    1    2    0    0 -0.22934642037E+01 -0.32914077840E+02  0.16634826532E+03  0.18706934363E+03  0.78959467150E+02 0.  0.
        -13    1    3    3    0    0  0.74157620996E+02 -0.98573933653E+01 -0.48598126228E+03  0.49170550967E+03  0.00000000000E+00 0.  1.
         14    1    3    3    0    0  0.28164602861E+02 -0.55951174311E+02 -0.80844381855E+03  0.81086693514E+03  0.00000000000E+00 0. -1.
         11    1    5    5    0    0  0.79696633571E+01 -0.12897433697E+02  0.16372162955E+03  0.16442211321E+03  0.00000000000E+00 0. -1.
        -12    1    5    5    0    0 -0.10263127561E+02 -0.20016644143E+02  0.26266357675E+01  0.22647230416E+02  0.00000000000E+00 0.  1.
          5    1    4    4  501    0 -0.63129966893E+02  0.42592748923E+02  0.33097908779E+03  0.33965300519E+03  0.41800000000E+01 0. -1.
         -5    1    4    4    0  501 -0.36898792761E+02  0.56129896592E+02  0.45553556426E+02  0.81269213739E+02  0.41800000000E+01 0. -1.
</event>
<event>
11    1  0.8299058E-009  0.1611530E+03  0.7561462E-02  0.1085998E+00
         22   -1    0    0    0    0  0.00000000000E+00  0.00000000000E+00  0.52935726978E+03  0.52935726978E+03  0.00000000000E+00 0.  1.
         22   -1    0    0    0    0 -0.00000000000E+00 -0.00000000000E+00 -0.28049587509E+03  0.28049587509E+03  0.00000000000E+00 0. -1.
         24    2    1    2    0    0 -0.65451913579E+02 -0.70547044506E+02 -0.14099913749E+03  0.19499241640E+03  0.94236124723E+02 0.  0.
         25    2    1    2    0    0  0.10772156317E+03  0.55071671657E+02 -0.32299060188E+02  0.17700179675E+03  0.12509829165E+03 0.  0.
        -24    2    1    2    0    0 -0.42269649589E+02  0.15475372849E+02  0.42215959237E+03  0.43785893172E+03  0.10712381720E+03 0.  0.
        -13    1    3    3    0    0 -0.49805695963E+02  0.11448465908E+02 -0.49744404400E+02  0.71317462736E+02  0.00000000000E+00 0.  1.
         14    1    3    3    0    0 -0.15646217617E+02 -0.81995510414E+02 -0.91254733086E+02  0.12367495367E+03  0.00000000000E+00 0. -1.
         11    1    5    5    0    0 -0.42245557766E+02  0.19004281675E+02  0.60576031807E+02  0.76258150399E+02  0.00000000000E+00 0. -1.
        -12    1    5    5    0    0 -0.24091823054E-01 -0.35289088256E+01  0.36158356057E+03  0.36160078132E+03  0.00000000000E+00 0.  1.
          5    1    4    4  501    0  0.41911511309E+02 -0.24856830358E+02 -0.52153246002E+02  0.71497344455E+02  0.41800000000E+01 0. -1.
         -5    1    4    4    0  501  0.65810051859E+02  0.79928502015E+02  0.19854185814E+02  0.10550445230E+03  0.41800000000E+01 0. -1.
</event>
<event>
11    1  0.8299058E-009  0.1436901E+03  0.7561462E-02  0.1103506E+00
         22   -1    0    0    0    0  0.00000000000E+00  0.00000000000E+00  0.16236435459E+04  0.16236435459E+04  0.00000000000E+00 0.  1.
         22   -1    0    0    0    0 -0.00000000000E+00 -0.00000000000E+00 -0.10099292094E+04  0.10099292094E+04  0.00000000000E+00 0.  1.
         24    2    1    2    0    0 -0.41596513763E+02  0.57037313141E+02 -0.97211379476E+03  0.97794303577E+03  0.79898849876E+02 0.  0.
         25    2    1    2    0    0  0.38169208028E+02 -0.67190388861E+02  0.12611313432E+03  0.19371015916E+03  0.12509063242E+03 0.  0.
        -24    2    1    2    0    0  0.34273057350E+01  0.10153075720E+02  0.14597149970E+04  0.14619195604E+04  0.79536765357E+02 0.  0.
        -11    1    3    3    0    0 -0.34508624612E+02 -0.12242772520E+02 -0.29782750370E+03  0.30006991287E+03  0.00000000000E+00 0.  1.
         12    1    3    3    0    0 -0.70878891515E+01  0.69280085661E+02 -0.67428629106E+03  0.67787312290E+03  0.00000000000E+00 0. -1.
         11    1    5    5    0    0 -0.36176085583E+02  0.24908921501E+01  0.47665535826E+03  0.47803268117E+03  0.00000000000E+00 0. -1.
        -12    1    5    5    0    0  0.39603391318E+02  0.76621835695E+01  0.98305963878E+03  0.98388687920E+03  0.00000000000E+00 0.  1.
          5    1    4    4  501    0  0.52944306180E+02 -0.77157482063E+02  0.33770633590E+02  0.99570601526E+02  0.41800000000E+01 0. -1.
         -5    1    4    4    0  501 -0.14775098151E+02  0.99670932021E+01  0.92342500725E+02  0.94139557639E+02  0.41800000000E+01 0. -1.
</event>
<event>
11    1  0.8299058E-009  0.1850072E+03  0.7561462E-02  0.1065663E+00
         22   -1    0    0    0    0  0.00000000000E+00  0.00000000000E+00  0.31114995040E+04  0.31114995040E+04  0.00000000000E+00 0.  1.
         22   -1    0    0    0    0 -0.00000000000E+00 -0.00000000000E+00 -0.85847990034E+03  0.85847990034E+03  0.00000000000E+00 0. -1.
        -24    2    1    2    0    0 -0.13016071941E+03  0.44814626157E+02 -0.83698649106E+03  0.85209581537E+03  0.81060031885E+02 0.  0.
         25    2    1    2    0    0  0.70224931625E+02  0.81674557317E+01  0.39198597085E+03  0.41749192677E+03  0.12509300228E+03 0.  0.
         24    2    1    2    0    0  0.59935787782E+02 -0.52982081889E+02  0.26980201239E+04  0.27003916622E+04  0.80019627616E+02 0.  0.
        -13    1    5    5    0    0  0.68253486354E+02 -0.12150640841E+02  0.19265877579E+04  0.19278346831E+04  0.00000000000E+00 0.  1.
         14    1    5    5    0    0 -0.83176985721E+01 -0.40831441048E+02  0.77143236595E+03  0.77255697908E+03  0.00000000000E+00 0. -1.
         13    1    3    3    0    0 -0.81131794866E+02 -0.14771410156E+02 -0.44905978240E+03  0.45656899902E+03  0.00000000000E+00 0. -1.
        -14    1    3    3    0    0 -0.49028924540E+02  0.59586036313E+02 -0.38792670866E+03  0.39552681636E+03  0.00000000000E+00 0.  1.
          5    1    4    4  501    0  0.61608420042E+02 -0.26469651114E+02  0.36847009881E+03  0.37454495854E+03  0.41800000000E+01 0. -1.
         -5    1    4    4    0  501  0.86165115832E+01  0.34637106846E+02  0.23515872047E+02  0.42946968236E+02  0.41800000000E+01 0. -1.
</event>
<event>
11    1  0.8299058E-009  0.1588097E+03  0.7561462E-02  0.1088202E+00
         22   -1    0    0    0    0  0.00000000000E+00  0.00000000000E+00  0.51367884124E+03  0.51367884124E+03  0.00000000000E+00 0. -1.
         22   -1    0    0    0    0 -0.00000000000E+00 -0.00000000000E+00 -0.72720075389E+03  0.72720075389E+03  0.00000000000E+00 0.  1.
         24    2    1    2    0    0  0.65850010947E+02  0.75005179543E+02 -0.63935794177E+03  0.65371452485E+03  0.92747514251E+02 0.  0.
         25    2    1    2    0    0 -0.35171746676E+02 -0.72726575269E+02 -0.40347860917E+01  0.14895736151E+03  0.12508321044E+03 0.  0.
        -24    2    1    2    0    0 -0.30678264271E+02 -0.22786042735E+01  0.42987081520E+03  0.43820770877E+03  0.79314124389E+02 0.  0.
        -11    1    3    3    0    0  0.89111027745E+02  0.63953461241E+02 -0.54350185895E+03  0.55445927817E+03  0.00000000000E+00 0.  1.
         12    1    3    3    0    0 -0.23261016798E+02  0.11051718302E+02 -0.95856082819E+02  0.99255246679E+02  0.00000000000E+00 0. -1.
         13    1    5    5    0    0 -0.12039403743E+02  0.38093881937E+02  0.23066071271E+03  0.23409497105E+03  0.00000000000E+00 0. -1.
        -14    1    5    5    0    0 -0.18638860528E+02 -0.40372486210E+02  0.19921010250E+03  0.20411273772E+03  0.00000000000E+00 0.  1.
          5    1    4    4  501    0  0.35815668185E+02  0.83575320913E+01  0.14072118385E+02  0.39599335172E+02  0.41800000000E+01 0. -1.
         -5    1    4    4    0  501 -0.70987414862E+02 -0.81084107360E+02 -0.18106904476E+02  0.10935802634E+03  0.41800000000E+01 0. -1.
</event>
<event>
11    1  0.8299058E-009  0.1410403E+03  0.7561462E-02  0.1106402E+00
         22   -1    0    0    0    0  0.00000000000E+00  0.00000000000E+00  0.71044824331E+03  0.71044824331E+03  0.00000000000E+00 0.  1.
         22   -1    0    0    0    0 -0.00000000000E+00 -0.00000000000E+00 -0.18123143645E+03  0.18123143645E+03  0.00000000000E+00 0. -1.
         24    2    1    2    0    0 -0.47508338735E+02  0.44546504575E+02 -0.12765536108E+03  0.17559135612E+03  0.10146427850E+03 0.  0.
         25    2    1    2    0    0  0.51758627360E+02 -0.40304041578E+02  0.16187877086E+03  0.21483870707E+03  0.12509021676E+03 0.  0.
        -24    2    1    2    0    0 -0.42502886254E+01 -0.42424629966E+01  0.49499339708E+03  0.50124961657E+03  0.78718812948E+02 0.  0.
        -11    1    3    3    0    0  0.23415002050E+02 -0.93921905396E+00 -0.98016163513E+00  0.23454320929E+02  0.00000000000E+00 0.  1.
         12    1    3    3    0    0 -0.70923340784E+02  0.45485723629E+02 -0.12667519945E+03  0.15213703519E+03  0.00000000000E+00 0. -1.
         13    1    5    5    0    0 -0.31842343235E+02 -0.84955794761E+01  0.10041543773E+03  0.10568523940E+03  0.00000000000E+00 0. -1.
        -14    1    5    5    0    0  0.27592054609E+02  0.42531164795E+01  0.39457795935E+03  0.39556437717E+03  0.00000000000E+00 0.  1.
          5    1    4    4  501    0  0.48931340329E+02 -0.36181181662E+02  0.18291418007E+03  0.19281707301E+03  0.41800000000E+01 0.  1.
         -5    1    4    4    0  501  0.28272870313E+01 -0.41228599167E+01 -0.21035409217E+02  0.22021634062E+02  0.41800000000E+01 0.  1.
</event>
<event>
11    1  0.8299058E-009  0.1316864E+03  0.7561462E-02  0.1117214E+00
         22   -1    0    0    0    0  0.00000000000E+00  0.00000000000E+00  0.37850265891E+03  0.37850265891E+03  0.00000000000E+00 0. -1.
         22   -1    0    0    0    0 -0.00000000000E+00 -0.00000000000E+00 -0.94442012910E+02  0.94442012910E+02  0.00000000000E+00 0.  1.
         24    2    1    2    0    0 -0.27465492597E+02 -0.90350037334E+01 -0.17093996071E+02  0.86851504863E+02  0.80093661542E+02 0.  0.
         25    2    1    2    0    0  0.21640502615E+02  0.48122735006E+02  0.10781911684E+03  0.17336909640E+03  0.12509105745E+03 0.  0.
        -24    2    1    2    0    0  0.58249899824E+01 -0.39087731273E+02  0.19333552524E+03  0.21272407056E+03  0.79442580718E+02 0.  0.
        -11    1    3    3    0    0 -0.55387190292E+02 -0.35682311813E+01 -0.43387645524E+01  0.55671339126E+02  0.00000000000E+00 0.  1.
         12    1    3    3    0    0  0.27921697695E+02 -0.54667725521E+01 -0.12755231518E+02  0.31180165737E+02  0.00000000000E+00 0. -1.
         13    1    5    5    0    0 -0.50120465259E+00 -0.53247799667E+02  0.18937236613E+03  0.19671673144E+03  0.00000000000E+00 0. -1.
        -14    1    5    5    0    0  0.63261946350E+01  0.14160068395E+02  0.39631591102E+01  0.16007339118E+02  0.00000000000E+00 0.  1.
          5    1    4    4  501    0  0.48084231602E+02  0.74820067569E+02  0.10153075450E+03  0.13504111355E+03  0.41800000000E+01 0. -1.
         -5    1    4    4    0  501 -0.26443728987E+02 -0.26697332563E+02  0.62883623394E+01  0.38327982854E+02  0.41800000000E+01 0. -1.
</event>
<event>
11    1  0.8299058E-009  0.1647067E+03  0.7561462E-02  0.1082732E+00
         22   -1    0    0    0    0  0.00000000000E+00  0.00000000000E+00  0.62548740215E+03  0.62548740215E+03  0.00000000000E+00 0. -1.
         22   -1    0    0    0    0 -0.00000000000E+00 -0.00000000000E+00 -0.87369378588E+03  0.87369378588E+03  0.00000000000E+00 0. -1.
         24    2    1    2    0    0 -0.42185029502E+02 -0.33530643372E+02 -0.83100637271E+03  0.83664340173E+03  0.80602167530E+02 0.  0.
         25    2    1    2    0    0  0.13392536254E+03  0.42863355759E+02  0.29966876179E+03  0.35386736472E+03  0.12508986779E+03 0.  0.
        -24    2    1    2    0    0 -0.91740333042E+02 -0.93327123872E+01  0.28313122720E+03  0.30867042158E+03  0.81306513360E+02 0.  0.
        -13    1    3    3    0    0 -0.10677222413E+02  0.15430431024E+02 -0.48959558650E+02  0.52432238778E+02  0.00000000000E+00 0.  1.
         14    1    3    3    0    0 -0.31507807089E+02 -0.48961074396E+02 -0.78204681406E+03  0.78421116295E+03  0.00000000000E+00 0. -1.
         11    1    5    5    0    0 -0.10045789755E+03 -0.16744647225E+02  0.27811644670E+03  0.29617719412E+03  0.00000000000E+00 0. -1.
        -12    1    5    5    0    0  0.87175645032E+01  0.74119348376E+01  0.50147804961E+01  0.12493227458E+02  0.00000000000E+00 0.  1.
          5    1    4    4  501    0  0.85801926140E+02  0.11818676093E+02  0.28008231685E+03  0.29319827463E+03  0.41800000000E+01 0.  1.
         -5    1    4    4    0  501  0.48123436404E+02  0.31044679667E+02  0.19586444934E+02  0.60669090088E+02  0.41800000000E+01 0.  1.
</event>
<event>
11    1  0.8299058E-009  0.1548641E+03  0.7561462E-02  0.1092010E+00
         22   -1    0    0    0    0  0.00000000000E+00  0.00000000000E+00  0.90179325365E+02  0.90179325365E+02  0.00000000000E+00 0.  1.
         22   -1    0    0    0    0 -0.00000000000E+00 -0.00000000000E+00 -0.19999752403E+04  0.19999752403E+04  0.00000000000E+00 0.  1.
         24    2    1    2    0    0 -0.74780249796E+02  0.29827233233E+02 -0.92548914703E+03  0.93250054239E+03  0.80903341606E+02 0.  0.
         25    2    1    2    0    0  0.14238354433E+03 -0.85437507275E+02 -0.10079736992E+04  0.10291896293E+04  0.12509066032E+03 0.  0.
        -24    2    1    2    0    0 -0.67603294537E+02  0.55610274041E+02  0.23666931323E+02  0.12846439401E+03  0.90995982769E+02 0.  0.
        -13    1    3    3    0    0 -0.26385551548E+02  0.97079325869E+01 -0.70394345833E+02  0.75801089774E+02  0.00000000000E+00 0.  1.
         14    1    3    3    0    0 -0.48394698248E+02  0.20119300646E+02 -0.85509480120E+03  0.85669945262E+03  0.00000000000E+00 0. -1.
         13    1    5    5    0    0 -0.86167260818E+02  0.33799528689E+02  0.20516213378E+01  0.92581931966E+02  0.00000000000E+00 0. -1.
        -14    1    5    5    0    0  0.18563966281E+02  0.21810745352E+02  0.21615309985E+02  0.35882462048E+02  0.00000000000E+00 0.  1.
          5    1    4    4  501    0 -0.31023449207E+01 -0.25546759221E+02 -0.41072887328E+03  0.41155551411E+03  0.41800000000E+01 0.  1.
         -5    1    4    4    0  501  0.14548588925E+03 -0.59890748053E+02 -0.59724482594E+03  0.61763411514E+03  0.41800000000E+01 0.  1.
</event>
<event>
11    1  0.8299058E-009  0.2067851E+03  0.7561462E-02  0.1049827E+00
         22   -1    0    0    0    0  0.00000000000E+00  0.00000000000E+00  0.19297168172E+03  0.19297168172E+03  0.00000000000E+00 0.  1.
         22   -1    0    0    0    0 -0.00000000000E+00 -0.00000000000E+00 -0.71958105572E+03  0.71958105572E+03  0.00000000000E+00 0.  1.
        -24    2    1    2    0    0  0.98587679260E+02 -0.12730762071E+03 -0.45930459530E+03  0.49301209346E+03  0.78571319490E+02 0.  0.
         25    2    1    2    0    0 -0.13594290537E+03  0.11600308727E+03 -0.17545755489E+03  0.27994782028E+03  0.12509292041E+03 0.  0.
         24    2    1    2    0    0  0.37355226113E+02  0.11304533433E+02  0.10815277619E+03  0.13959282369E+03  0.79157615141E+02 0.  0.
        -11    1    5    5    0    0  0.61087054429E+02  0.10531535342E+02  0.61904999004E+02  0.87605766689E+02  0.00000000000E+00 0.  1.
         12    1    5    5    0    0 -0.23731828316E+02  0.77299809006E+00  0.46247777186E+02  0.51987057004E+02  0.00000000000E+00 0. -1.
         11    1    3    3    0    0  0.27935439078E+02  0.46494583693E+01 -0.54461335632E+02  0.61384389697E+02  0.00000000000E+00 0. -1.
        -12    1    3    3    0    0  0.70652240182E+02 -0.13195707908E+03 -0.40484325967E+03  0.43162770377E+03  0.00000000000E+00 0.  1.
          5    1    4    4  501    0 -0.95974869406E+00  0.25443536955E+02 -0.95169440868E+02  0.98605220782E+02  0.41800000000E+01 0.  1.
         -5    1    4    4    0  501 -0.13498315668E+03  0.90559550319E+02 -0.80288114022E+02  0.18134259950E+03  0.41800000000E+01 0.  1.
</event>
<event>
11    1  0.8299058E-009  0.1623019E+03  0.7561462E-02  0.1084932E+00
         22   -1    0    0    0    0  0.00000000000E+00  0.00000000000E+00  0.11269554298E+03  0.11269554298E+03  0.00000000000E+00 0.  1.
         22   -1    0    0    0    0 -0.00000000000E+00 -0.00000000000E+00 -0.11219881875E+04  0.11219881875E+04  0.00000000000E+00 0. -1.
        -24    2    1    2    0    0 -0.93442284797E+01  0.72981142254E+02 -0.73715561196E+03  0.74519578745E+03  0.80652362991E+02 0.  0.
         25    2    1    2    0    0  0.78586552628E+02 -0.13845273124E+03 -0.29660321927E+03  0.35911829111E+03  0.12508985684E+03 0.  0.
         24    2    1    2    0    0 -0.69242324148E+02  0.65471588983E+02  0.24466186751E+02  0.13036965188E+03  0.85537263338E+02 0.  0.
        -11    1    5    5    0    0 -0.37702699088E+02  0.80041278632E+02  0.33277040116E+02  0.94527568479E+02  0.00000000000E+00 0.  1.
         12    1    5    5    0    0 -0.31539625059E+02 -0.14569689649E+02 -0.88108533648E+01  0.35842083399E+02  0.00000000000E+00 0. -1.
         11    1    3    3    0    0 -0.26196942803E+02  0.84044272264E+02 -0.63467155663E+03  0.64074776965E+03  0.00000000000E+00 0. -1.
        -12    1    3    3    0    0  0.16852714324E+02 -0.11063130011E+02 -0.10248405533E+03  0.10444801781E+03  0.00000000000E+00 0.  1.
          5    1    4    4  501    0 -0.33758727384E+02 -0.40726179105E+02 -0.67776831980E+02  0.86078131324E+02  0.41800000000E+01 0.  1.
         -5    1    4    4    0  501  0.11234528001E+03 -0.97726552131E+02 -0.22882638729E+03  0.27304015978E+03  0.41800000000E+01 0.  1.
</event>
<event>
11    1  0.8299058E-009  0.2398957E+03  0.7561462E-02  0.1029424E+00
         22   -1    0    0    0    0  0.00000000000E+00  0.00000000000E+00  0.30917144366E+03  0.30917144366E+03  0.00000000000E+00 0.  1.
         22   -1    0    0    0    0 -0.00000000000E+00 -0.00000000000E+00 -0.94156401634E+03  0.94156401634E+03  0.00000000000E+00 0.  1.
        -24    2    1    2    0    0  0.30901430767E+02 -0.12854919841E+03 -0.48099173473E+03  0.50525243165E+03  0.80294308496E+02 0.  0.
         25    2    1    2    0    0  0.13743063579E+03  0.23586485901E+03 -0.34395929688E+03  0.45659319087E+03  0.12509969090E+03 0.  0.
         24    2    1    2    0    0 -0.16833206656E+03 -0.10731566060E+03  0.19255845892E+03  0.28888983748E+03  0.80785162358E+02 0.  0.
        -11    1    5    5    0    0 -0.15155882075E+03 -0.99207146411E+02  0.19907531183E+03  0.26915258465E+03  0.00000000000E+00 0.  1.
         12    1    5    5    0    0 -0.16773245812E+02 -0.81085141890E+01 -0.65168529097E+01  0.19737252830E+02  0.00000000000E+00 0. -1.
         11    1    3    3    0    0  0.38863986500E+02 -0.62671243909E+02 -0.14393993363E+03  0.16173063641E+03  0.00000000000E+00 0. -1.
        -12    1    3    3    0    0 -0.79625557328E+01 -0.65877954503E+02 -0.33705180110E+03  0.34352179524E+03  0.00000000000E+00 0.  1.
          5    1    4    4  501    0  0.30099785888E+02  0.64721510068E+01 -0.10077692983E+03  0.10545780121E+03  0.41800000000E+01 0. -1.
         -5    1    4    4    0  501  0.10733084990E+03  0.22939270800E+03 -0.24318236705E+03  0.35113538966E+03  0.41800000000E+01 0. -1.
</event>
<event>
11    1  0.8299058E-009  0.1471435E+03  0.7561462E-02  0.1099834E+00
         22   -1    0    0    0    0  0.00000000000E+00  0.00000000000E+00  0.21538428415E+03  0.21538428415E+03  0.00000000000E+00 0. -1.
         22   -1    0    0    0    0 -0.00000000000E+00 -0.00000000000E+00 -0.38070177508E+03  0.38070177508E+03  0.00000000000E+00 0.  1.
        -24    2    1    2    0    0  0.54019382228E+02 -0.56224900651E+02 -0.19065203235E+03  0.22105443902E+03  0.80234247428E+02 0.  0.
         25    2    1    2    0    0 -0.52815536742E+00  0.94403859033E+02 -0.11962738251E+03  0.19715684648E+03  0.12509094260E+03 0.  0.
         24    2    1    2    0    0 -0.53491226861E+02 -0.38178958382E+02  0.14496192393E+03  0.17787477373E+03  0.79413673417E+02 0.  0.
        -13    1    5    5    0    0 -0.73027526230E+02 -0.27964692566E+02  0.12825301526E+03  0.15021278089E+03  0.00000000000E+00 0.  1.
         14    1    5    5    0    0  0.19536299369E+02 -0.10214265816E+02  0.16708908664E+02  0.27661992841E+02  0.00000000000E+00 0. -1.
         13    1    3    3    0    0 -0.20704425257E+02 -0.51741827122E+01 -0.38745547739E+02  0.44234182049E+02  0.00000000000E+00 0. -1.
        -14    1    3    3    0    0  0.74723807486E+02 -0.51050717939E+02 -0.15190648461E+03  0.17682025697E+03  0.00000000000E+00 0.  1.
          5    1    4    4  501    0 -0.91095447369E+00 -0.14692182512E+02  0.16601220674E+02  0.22577931545E+02  0.41800000000E+01 0. -1.
         -5    1    4    4    0  501  0.38279910627E+00  0.10909604155E+03 -0.13622860318E+03  0.17457891494E+03  0.41800000000E+01 0. -1.
</event>
<event>
11    1  0.8299058E-009  0.1250955E+03  0.7561462E-02  0.1125446E+00
         22   -1    0    0    0    0  0.00000000000E+00  0.00000000000E+00  0.10788096850E+04  0.10788096850E+04  0.00000000000E+00 0.  1.
         22   -1    0    0    0    0 -0.00000000000E+00 -0.00000000000E+00 -0.56472928067E+02  0.56472928067E+02  0.00000000000E+00 0. -1.
        -24    2    1    2    0    0  0.10429003106E+00 -0.13131843225E+01 -0.77585230860E+01  0.84200800355E+02  0.83832241831E+02 0.  0.
         25    2    1    2    0    0  0.15657671133E+02 -0.76680486780E+01  0.55142529251E+03  0.56570427186E+03  0.12509000100E+03 0.  0.
         24    2    1    2    0    0 -0.15761961164E+02  0.89812330005E+01  0.47866998754E+03  0.48537754088E+03  0.78340910463E+02 0.  0.
        -13    1    5    5    0    0 -0.44225383794E+02  0.20704595608E+02  0.25926933180E+03  0.26382788189E+03  0.00000000000E+00 0.  1.
         14    1    5    5    0    0  0.28463422630E+02 -0.11723362607E+02  0.21940065574E+03  0.22154965899E+03  0.00000000000E+00 0. -1.
         11    1    3    3    0    0 -0.40099430669E+01 -0.36635415071E+02 -0.25146936056E+02  0.44616159335E+02  0.00000000000E+00 0. -1.
        -12    1    3    3    0    0  0.41142330979E+01  0.35322230749E+02  0.17388412970E+02  0.39584641020E+02  0.00000000000E+00 0.  1.
          5    1    4    4  501    0  0.63050880713E+02  0.24223522914E+02  0.25707701074E+03  0.26583501363E+03  0.41800000000E+01 0.  1.
         -5    1    4    4    0  501 -0.47393209580E+02 -0.31891571592E+02  0.29434828177E+03  0.29986925823E+03  0.41800000000E+01 0.  1.
</event>
<event>
11    1  0.8299058E-009  0.1292570E+03  0.7561462E-02  0.1120185E+00
         22   -1    0    0    0    0  0.00000000000E+00  0.00000000000E+00  0.33680848307E+03  0.33680848307E+03  0.00000000000E+00 0.  1.
         22   -1    0    0    0    0 -0.00000000000E+00 -0.00000000000E+00 -0.43446082227E+03  0.43446082227E+03  0.00000000000E+00 0. -1.
         24    2    1    2    0    0 -0.30970066885E+02 -0.95814572531E+01 -0.36222098408E+03  0.37251461563E+03  0.80697882153E+02 0.  0.
         25    2    1    2    0    0  0.41344217114E+02 -0.19037287287E+02  0.13540444331E+02  0.13379624461E+03  0.12508528627E+03 0.  0.
        -24    2    1    2    0    0 -0.10374150228E+02  0.28618744540E+02  0.25102820055E+03  0.26495844510E+03  0.79127521302E+02 0.  0.
        -11    1    3    3    0    0  0.67028875513E+01  0.25369910106E+01  0.91813805046E+00  0.72255105282E+01  0.00000000000E+00 0.  1.
         12    1    3    3    0    0 -0.37672954437E+02 -0.12118448264E+02 -0.36313912213E+03  0.36528910510E+03  0.00000000000E+00 0. -1.
         13    1    5    5    0    0 -0.24112633475E+02  0.98308082450E+01  0.20190400283E+02  0.32950207093E+02  0.00000000000E+00 0. -1.
        -14    1    5    5    0    0  0.13738483247E+02  0.18787936295E+02  0.23083780027E+03  0.23200823801E+03  0.00000000000E+00 0.  1.
          5    1    4    4  501    0  0.72899621626E+02  0.25129106345E+02 -0.17702804198E+01  0.77242689697E+02  0.41800000000E+01 0.  1.
         -5    1    4    4    0  501 -0.31555404512E+02 -0.44166393632E+02  0.15310724751E+02  0.56553554908E+02  0.41800000000E+01 0.  1.
</event>
<event>
11    1  0.8299058E-009  0.1303566E+03  0.7561462E-02  0.1118832E+00
         22   -1    0    0    0    0  0.00000000000E+00  0.00000000000E+00  0.23341181154E+03  0.23341181154E+03  0.00000000000E+00 0.  1.
         22   -1    0    0    0    0 -0.00000000000E+00 -0.00000000000E+00 -0.77828896788E+03  0.77828896788E+03  0.00000000000E+00 0. -1.
         24    2    1    2    0    0  0.18281890436E+02 -0.21456053229E+02 -0.66589968496E+03  0.67134909073E+03  0.80576804686E+02 0.  0.
         25    2    1    2    0    0  0.85415891558E+01  0.46172531525E+02 -0.54466652973E+02  0.14428939302E+03  0.12509177127E+03 0.  0.
        -24    2    1    2    0    0 -0.26823479592E+02 -0.24716478297E+02  0.17548918159E+03  0.19606229566E+03  0.79457961014E+02 0.  0.
        -11    1    3    3    0    0 -0.85395507919E+01 -0.30864168998E+02 -0.10608094725E+03  0.11080924251E+03  0.00000000000E+00 0.  1.
         12    1    3    3    0    0  0.26821441228E+02  0.94081157689E+01 -0.55981873771E+03  0.56053984822E+03  0.00000000000E+00 0. -1.
         13    1    5    5    0    0 -0.18919010404E+02 -0.53094484686E+02  0.13205255427E+03  0.14357865562E+03  0.00000000000E+00 0. -1.
        -14    1    5    5    0    0 -0.79044691881E+01  0.28378006389E+02  0.43436627316E+02  0.52483640044E+02  0.00000000000E+00 0.  1.
          5    1    4    4  501    0 -0.37048798740E+02 -0.24336361644E+02 -0.75933078278E+00  0.44530000779E+02  0.41800000000E+01 0.  1.
         -5    1    4    4    0  501  0.45590387896E+02  0.70508893169E+02 -0.53707322190E+02  0.99759392246E+02  0.41800000000E+01 0.  1.
</event>
<event>
11    1  0.8299058E-009  0.1656499E+03  0.7561462E-02  0.1081881E+00
         22   -1    0    0    0    0  0.00000000000E+00  0.00000000000E+00  0.14286405047E+03  0.14286405047E+03  0.00000000000E+00 0. -1.
         22   -1    0    0    0    0 -0.00000000000E+00 -0.00000000000E+00 -0.33118446917E+03  0.33118446917E+03  0.00000000000E+00 0. -1.
         24    2    1    2    0    0  0.12700581079E+02  0.92920245161E+02 -0.10965939548E+03  0.16598618833E+03  0.82041178548E+02 0.  0.
         25    2    1    2    0    0  0.14057058015E+02 -0.14145936592E+03 -0.91228025403E+02  0.21018514103E+03  0.12508752059E+03 0.  0.
        -24    2    1    2    0    0 -0.26757639094E+02  0.48539120758E+02  0.12567002180E+02  0.97877190274E+02  0.79686870551E+02 0.  0.
        -11    1    3    3    0    0  0.14675598329E+02 -0.55966139598E+01  0.33407119862E+01  0.16057883755E+02  0.00000000000E+00 0.  1.
         12    1    3    3    0    0 -0.19750172493E+01  0.98516859121E+02 -0.11300010747E+03  0.14992830457E+03  0.00000000000E+00 0. -1.
         11    1    5    5    0    0 -0.86237068001E+01  0.67148822471E+02 -0.26743649889E+01  0.67753117318E+02  0.00000000000E+00 0. -1.
        -12    1    5    5    0    0 -0.18133932294E+02 -0.18609701713E+02  0.15241367169E+02  0.30124072956E+02  0.00000000000E+00 0.  1.
          5    1    4    4  501    0  0.30118433328E+02 -0.13892031542E+03 -0.28224612610E+02  0.14498301701E+03  0.41800000000E+01 0. -1.
         -5    1    4    4    0  501 -0.16061375313E+02 -0.25390504974E+01 -0.63003412792E+02  0.65202124029E+02  0.41800000000E+01 0. -1.
</event>
<event>
11    1  0.8299058E-009  0.1334613E+03  0.7561462E-02  0.1115088E+00
         22   -1    0    0    0    0  0.00000000000E+00  0.00000000000E+00  0.20561079545E+04  0.20561079545E+04  0.00000000000E+00 0.  1.
         22   -1    0    0    0    0 -0.00000000000E+00 -0.00000000000E+00 -0.79922650992E+03  0.79922650992E+03  0.00000000000E+00 0.  1.
        -24    2    1    2    0    0 -0.91465735320E+01  0.44785225674E+02 -0.73165726767E+03  0.73745161590E+03  0.80144570677E+02 0.  0.
         25    2    1    2    0    0  0.22262267700E+01 -0.70435362501E+02  0.17060485556E+02  0.14458116729E+03  0.12508619984E+03 0.  0.
         24    2    1    2    0    0  0.69203467620E+01  0.25650136827E+02  0.19714782267E+04  0.19733016813E+04  0.80543815117E+02 0.  0.
        -11    1    5    5    0    0 -0.19512010485E+01  0.58870940063E+00  0.17784628370E+04  0.17784640048E+04  0.00000000000E+00 0.  1.
         12    1    5    5    0    0  0.88715478104E+01  0.25061427426E+02  0.19301538974E+03  0.19483767649E+03  0.00000000000E+00 0. -1.
         11    1    3    3    0    0 -0.26266274572E+02 -0.73286247254E+01 -0.42884456779E+03  0.42971070413E+03  0.00000000000E+00 0. -1.
        -12    1    3    3    0    0  0.17119701040E+02  0.52113850399E+02 -0.30281269988E+03  0.30774091177E+03  0.00000000000E+00 0.  1.
          5    1    4    4  501    0  0.27703150101E+02  0.62754809419E+01 -0.37308420039E+02  0.47076924202E+02  0.41800000000E+01 0.  1.
         -5    1    4    4    0  501 -0.25476923331E+02 -0.76710843443E+02  0.54368905594E+02  0.97504243085E+02  0.41800000000E+01 0.  1.
</event>
<event>
11    1  0.8299058E-009  0.1312109E+03  0.7561462E-02  0.1117790E+00
         22   -1    0    0    0    0  0.00000000000E+00  0.00000000000E+00  0.15468741597E+04  0.15468741597E+04  0.00000000000E+00 0.  1.
         22   -1    0    0    0    0 -0.00000000000E+00 -0.00000000000E+00 -0.21835681264E+03  0.21835681264E+03  0.00000000000E+00 0.  1.
         24    2    1    2    0    0  0.32970712756E+01 -0.43725583555E+02 -0.13364483574E+03  0.16152742774E+03  0.79418955275E+02 0.  0.
         25    2    1    2    0    0 -0.47534190542E+01  0.21671734285E+02 -0.11604997910E+02  0.12756978180E+03  0.12508842549E+03 0.  0.
        -24    2    1    2    0    0  0.14563477786E+01  0.22053849270E+02  0.14737671807E+04  0.14761337628E+04  0.80577227048E+02 0.  0.
        -11    1    3    3    0    0 -0.27262148496E+02 -0.44845742590E+02 -0.11311025089E+03  0.12469279941E+03  0.00000000000E+00 0.  1.
         12    1    3    3    0    0  0.30559219771E+02  0.11201590350E+01 -0.20534584852E+02  0.36834628332E+02  0.00000000000E+00 0. -1.
         13    1    5    5    0    0 -0.32208421104E+02  0.12607775958E+02  0.32514462306E+03  0.32697914966E+03  0.00000000000E+00 0. -1.
        -14    1    5    5    0    0  0.33664768883E+02  0.94460733121E+01  0.11486225576E+04  0.11491546131E+04  0.00000000000E+00 0.  1.
          5    1    4    4  501    0 -0.48743495380E+02  0.34467142652E+02  0.28733749502E+02  0.66385337424E+02  0.41800000000E+01 0. -1.
         -5    1    4    4    0  501  0.43990076326E+02 -0.12795408366E+02 -0.40338747412E+02  0.61184444373E+02  0.41800000000E+01 0. -1.
</event>
<event>
11    1  0.8299058E-009  0.1881740E+03  0.7561462E-02  0.1063216E+00
         22   -1    0    0    0    0  0.00000000000E+00  0.00000000000E+00  0.59966325605E+03  0.59966325605E+03  0.00000000000E+00 0. -1.
         22   -1    0    0    0    0 -0.00000000000E+00 -0.00000000000E+00 -0.35510583391E+04  0.35510583391E+04  0.00000000000E+00 0.  1.
         24    2    1    2    0    0 -0.23627249227E+02  0.17980418675E+02 -0.33821576840E+04  0.33832592438E+04  0.81061512181E+02 0.  0.
         25    2    1    2    0    0  0.38788462832E+02 -0.15620660940E+03 -0.89736147180E+02  0.22274914441E+03  0.12513814589E+03 0.  0.
        -24    2    1    2    0    0 -0.15161213605E+02  0.13822619073E+03  0.52049874815E+03  0.54471320695E+03  0.80356635014E+02 0.  0.
        -13    1    3    3    0    0  0.28966076671E+02  0.34560922827E+01 -0.16020447239E+04  0.16023102931E+04  0.00000000000E+00 0.  1.
         14    1    3    3    0    0 -0.52593325898E+02  0.14524326393E+02 -0.17801129601E+04  0.17809489507E+04  0.00000000000E+00 0. -1.
         13    1    5    5    0    0 -0.13105548685E+02  0.28754136990E+02  0.26315187472E+03  0.26504238335E+03  0.00000000000E+00 0. -1.
        -14    1    5    5    0    0 -0.20556649199E+01  0.10947205374E+03  0.25734687343E+03  0.27967082360E+03  0.00000000000E+00 0.  1.
          5    1    4    4  501    0  0.52524146815E+02 -0.23416557446E+02 -0.65045020296E+02  0.86922081352E+02  0.41800000000E+01 0.  1.
         -5    1    4    4    0  501 -0.13735683983E+02 -0.13279005196E+03 -0.24691126884E+02  0.13582706306E+03  0.41800000000E+01 0.  1.
</event>
<event>
11    1  0.8299058E-009  0.1333851E+03  0.7561462E-02  0.1115178E+00
         22   -1    0    0    0    0  0.00000000000E+00  0.00000000000E+00  0.71458410226E+03  0.71458410226E+03  0.00000000000E+00 0.  1.
         22   -1    0    0    0    0 -0.00000000000E+00 -0.00000000000E+00 -0.46250428020E+03  0.46250428020E+03  0.00000000000E+00 0.  1.
         24    2    1    2    0    0  0.18834339482E+01  0.50402619629E+01 -0.29007003568E+03  0.30095671904E+03  0.80033552806E+02 0.  0.
         25    2    1    2    0    0  0.16511863471E+01 -0.51097651476E+02 -0.13518001733E+03  0.19114076894E+03  0.12508980799E+03 0.  0.
        -24    2    1    2    0    0 -0.35346202953E+01  0.46057389513E+02  0.67732987507E+03  0.68499089448E+03  0.91120739583E+02 0.  0.
        -13    1    3    3    0    0 -0.40453992599E+01  0.34408427597E+02 -0.24089448606E+03  0.24337308512E+03  0.00000000000E+00 0.  1.
         14    1    3    3    0    0  0.59288332080E+01 -0.29368165634E+02 -0.49175549617E+02  0.57583633926E+02  0.00000000000E+00 0. -1.
         13    1    5    5    0    0 -0.58944879262E+01  0.95148414473E+01  0.60695584255E+01  0.12732507026E+02  0.00000000000E+00 0. -1.
        -14    1    5    5    0    0  0.23598676309E+01  0.36542548066E+02  0.67126031665E+03  0.67225838745E+03  0.00000000000E+00 0.  1.
          5    1    4    4  501    0 -0.48911508256E+02  0.88187172399E+01 -0.83125868779E+02  0.96940640982E+02  0.41800000000E+01 0. -1.
         -5    1    4    4    0  501  0.50562694603E+02 -0.59916368716E+02 -0.52054148552E+02  0.94200127957E+02  0.41800000000E+01 0. -1.
</event>
<event>
11    1  0.8299058E-009  0.1481579E+03  0.7561462E-02  0.1098776E+00
         22   -1    0    0    0    0  0.00000000000E+00  0.00000000000E+00  0.19230429101E+04  0.19230429101E+04  0.00000000000E+00 0. -1.
         22   -1    0    0    0    0 -0.00000000000E+00 -0.00000000000E+00 -0.69458154293E+02  0.69458154293E+02  0.00000000000E+00 0.  1.
         24    2    1    2    0    0  0.47830383936E+01  0.79892281031E+02 -0.23602547647E+01  0.11365224260E+03  0.80657345741E+02 0.  0.
         25    2    1    2    0    0  0.46135260267E+02 -0.73560980416E+02  0.62521081167E+03  0.64348821886E+03  0.12509535842E+03 0.  0.
        -24    2    1    2    0    0 -0.50918298661E+02 -0.63313006148E+01  0.12307341989E+04  0.12353606029E+04  0.93682401892E+02 0.  0.
        -11    1    3    3    0    0 -0.30577234073E+02  0.58291179490E+02 -0.19737630301E+02  0.68719741704E+02  0.00000000000E+00 0.  1.
         12    1    3    3    0    0  0.35360272467E+02  0.21601101540E+02  0.17377375537E+02  0.44932500901E+02  0.00000000000E+00 0. -1.
         13    1    5    5    0    0 -0.46500362854E+02 -0.20618176654E+02  0.12010088949E+04  0.12020855871E+04  0.00000000000E+00 0. -1.
        -14    1    5    5    0    0 -0.44179358073E+01  0.14286876039E+02  0.29725303931E+02  0.33275015816E+02  0.00000000000E+00 0.  1.
          5    1    4    4  501    0  0.20296421838E+02 -0.68824761154E+01  0.48990051859E+03  0.49038689188E+03  0.41800000000E+01 0.  1.
         -5    1    4    4    0  501  0.25838838429E+02 -0.66678504300E+02  0.13531029308E+03  0.15310132697E+03  0.41800000000E+01 0.  1.
</event>
<event>
11    1  0.8299058E-009  0.1370861E+03  0.7561462E-02  0.1110857E+00
         22   -1    0    0    0    0  0.00000000000E+00  0.00000000000E+00  0.11863662777E+04  0.11863662777E+04  0.00000000000E+00 0. -1.
         22   -1    0    0    0    0 -0.00000000000E+00 -0.00000000000E+00 -0.26886656114E+03  0.26886656114E+03  0.00000000000E+00 0.  1.
        -24    2    1    2    0    0  0.51267723464E+02 -0.11960856767E+02 -0.20701984113E+03  0.22845460303E+03  0.81011415610E+02 0.  0.
         25    2    1    2    0    0 -0.99144562692E+02  0.46154574508E+01  0.80852298135E+02  0.17898285580E+03  0.12508725674E+03 0.  0.
         24    2    1    2    0    0  0.47876839228E+02  0.73453993165E+01  0.10436672596E+04  0.10477953800E+04  0.79294785928E+02 0.  0.
        -11    1    5    5    0    0 -0.21095303333E+02  0.89130111800E+01  0.19839680157E+03  0.19971415689E+03  0.00000000000E+00 0.  1.
         12    1    5    5    0    0  0.68972142561E+02 -0.15676118635E+01  0.84527045800E+03  0.84808122313E+03  0.00000000000E+00 0. -1.
         13    1    3    3    0    0  0.50210944332E+02  0.24435585953E+02 -0.90147669490E+02  0.10604168570E+03  0.00000000000E+00 0. -1.
        -14    1    3    3    0    0  0.10567791324E+01 -0.36396442721E+02 -0.11687217164E+03  0.12241291733E+03  0.00000000000E+00 0.  1.
          5    1    4    4  501    0 -0.27282867751E+02 -0.56947589769E+02  0.19865680661E+02  0.66328730738E+02  0.41800000000E+01 0. -1.
         -5    1    4    4    0  501 -0.71861694942E+02  0.61563047220E+02  0.60986617474E+02  0.11265412506E+03  0.41800000000E+01 0. -1.
</event>
<event>
11    1  0.8299058E-009  0.1920917E+03  0.7561462E-02  0.1060261E+00
         22   -1    0    0    0    0  0.00000000000E+00  0.00000000000E+00  0.90671134399E+03  0.90671134399E+03  0.00000000000E+00 0.  1.
         22   -1    0    0    0    0 -0.00000000000E+00 -0.00000000000E+00 -0.15996939667E+04  0.15996939667E+04  0.00000000000E+00 0.  1.
        -24    2    1    2    0    0 -0.13508655323E+03  0.21021436396E+02 -0.97515096600E+03  0.98790628756E+03  0.79681546536E+02 0.  0.
         25    2    1    2    0    0  0.17219940349E+03 -0.10492139301E+02 -0.59741230921E+03  0.63428008829E+03  0.12508814354E+03 0.  0.
         24    2    1    2    0    0 -0.37112850257E+02 -0.10529297094E+02  0.87958065245E+03  0.88421893488E+03  0.81809357003E+02 0.  0.
        -11    1    5    5    0    0  0.26795035124E+01 -0.11561593883E+02  0.70729672064E+03  0.70739628302E+03  0.00000000000E+00 0.  1.
         12    1    5    5    0    0 -0.39792353770E+02  0.10322967890E+01  0.17228393181E+03  0.17682265187E+03  0.00000000000E+00 0. -1.
         11    1    3    3    0    0 -0.55192409266E+02  0.48546363158E+02 -0.42711584306E+03  0.43339461788E+03  0.00000000000E+00 0. -1.
        -12    1    3    3    0    0 -0.79894143968E+02 -0.27524926762E+02 -0.54803512294E+03  0.55451166968E+03  0.00000000000E+00 0.  1.
          5    1    4    4  501    0  0.61973985987E+01 -0.28141985734E+02 -0.26238095022E+02  0.39195524500E+02  0.41800000000E+01 0. -1.
         -5    1    4    4    0  501  0.16600200489E+03  0.17649846432E+02 -0.57117421419E+03  0.59508456379E+03  0.41800000000E+01 0. -1.
</event>
<event>
11    1  0.8299058E-009  0.1304536E+03  0.7561462E-02  0.1118713E+00
         22   -1    0    0    0    0  0.00000000000E+00  0.00000000000E+00  0.10778205954E+04  0.10778205954E+04  0.00000000000E+00 0.  1.
         22   -1    0    0    0    0 -0.00000000000E+00 -0.00000000000E+00 -0.16337866570E+03  0.16337866570E+03  0.00000000000E+00 0.  1.
         24    2    1    2    0    0  0.56451352160E+01  0.35014012249E+02 -0.12764208794E+03  0.15515281447E+03  0.80759176685E+02 0.  0.
         25    2    1    2    0    0  0.15943568773E+02 -0.69255222592E+02  0.23760114681E+03  0.27776197973E+03  0.12508768596E+03 0.  0.
        -24    2    1    2    0    0 -0.21588703989E+02  0.34241210343E+02  0.80448287087E+03  0.80828446692E+03  0.67026541951E+02 0.  0.
        -11    1    3    3    0    0 -0.35810285073E+02  0.33817904346E+01 -0.55546341441E+02  0.66175592714E+02  0.00000000000E+00 0.  1.
         12    1    3    3    0    0  0.41455420288E+02  0.31632221814E+02 -0.72095746501E+02  0.88977221758E+02  0.00000000000E+00 0. -1.
         11    1    5    5    0    0  0.12110493611E+02  0.47113481290E+01  0.32488737594E+02  0.34991126406E+02  0.00000000000E+00 0. -1.
        -12    1    5    5    0    0 -0.33699197600E+02  0.29529862214E+02  0.77199413327E+03  0.77329334052E+03  0.00000000000E+00 0.  1.
          5    1    4    4  501    0 -0.48170392536E+02 -0.42955356243E+02  0.64878531352E+02  0.91609200288E+02  0.41800000000E+01 0.  1.
         -5    1    4    4    0  501  0.64113961309E+02 -0.26299866349E+02  0.17272261546E+03  0.18615277945E+03  0.41800000000E+01 0.  1.
</event>
<event>
11    1  0.8299058E-009  0.2882929E+03  0.7561462E-02  0.1005271E+00
         22   -1    0    0    0    0  0.00000000000E+00  0.00000000000E+00  0.13300895146E+04  0.13300895146E+04  0.00000000000E+00 0.  1.
         22   -1    0    0    0    0 -0.00000000000E+00 -0.00000000000E+00 -0.25226695534E+03  0.25226695534E+03  0.00000000000E+00 0.  1.
         24    2    1    2    0    0  0.24864966750E+03 -0.54474777397E+02 -0.12138632753E+03  0.29108383168E+03  0.72117945303E+02 0.  0.
         25    2    1    2    0    0 -0.27994620856E+03  0.12593729522E+03  0.63780170926E+03  0.71879653964E+03  0.12508942017E+03 0.  0.
        -24    2    1    2    0    0  0.31296541063E+02 -0.71462517823E+02  0.56140717753E+03  0.57247609862E+03  0.80402111780E+02 0.  0.
        -11    1    3    3    0    0  0.20579711653E+03 -0.72133000834E+02 -0.96397606484E+02  0.23842844108E+03  0.00000000000E+00 0.  1.
         12    1    3    3    0    0  0.42852550970E+02  0.17658223437E+02 -0.24988721045E+02  0.52655390598E+02  0.00000000000E+00 0. -1.
         11    1    5    5    0    0 -0.25468859006E+02 -0.29515631073E+02  0.26054585120E+03  0.26344634337E+03  0.00000000000E+00 0. -1.
        -12    1    5    5    0    0  0.56765400068E+02 -0.41946886750E+02  0.30086132633E+03  0.30902975526E+03  0.00000000000E+00 0.  1.
          5    1    4    4  501    0 -0.21362493415E+03  0.32923160875E+02  0.39038782182E+03  0.44625068161E+03  0.41800000000E+01 0.  1.
         -5    1    4    4    0  501 -0.66321274415E+02  0.93014134345E+02  0.24741388744E+03  0.27254585802E+03  0.41800000000E+01 0.  1.
</event>
<event>
11    1  0.8299058E-009  0.1911122E+03  0.7561462E-02  0.1060993E+00
         22   -1    0    0    0    0  0.00000000000E+00  0.00000000000E+00  0.90786304489E+03  0.90786304489E+03  0.00000000000E+00 0.  1.
         22   -1    0    0    0    0 -0.00000000000E+00 -0.00000000000E+00 -0.16466368320E+03  0.16466368320E+03  0.00000000000E+00 0. -1.
        -24    2    1    2    0    0  0.11103933887E+03  0.10490426683E+03 -0.25430493308E+02  0.17511672266E+03  0.81758893027E+02 0.  0.
         25    2    1    2    0    0 -0.13195474367E+03 -0.41179643332E+02  0.83500502947E+02  0.20427477110E+03  0.12509208893E+03 0.  0.
         24    2    1    2    0    0  0.20915404799E+02 -0.63724623500E+02  0.68512935204E+03  0.69313523434E+03  0.80845174559E+02 0.  0.
        -11    1    5    5    0    0  0.51644231716E+02 -0.38990222551E+02  0.38062558588E+03  0.38608703779E+03  0.00000000000E+00 0.  1.
         12    1    5    5    0    0 -0.30728826917E+02 -0.24734400949E+02  0.30450376616E+03  0.30704819655E+03  0.00000000000E+00 0. -1.
         13    1    3    3    0    0  0.11170675043E+03  0.11615497241E+03 -0.27972965021E+02  0.16356302296E+03  0.00000000000E+00 0. -1.
        -14    1    3    3    0    0 -0.66741156253E+00 -0.11250705582E+02  0.25424717133E+01  0.11553699697E+02  0.00000000000E+00 0.  1.
          5    1    4    4  501    0 -0.11474945743E+03 -0.70757757432E+02  0.98160533524E+02  0.16681445069E+03  0.41800000000E+01 0.  1.
         -5    1    4    4    0  501 -0.17205286235E+02  0.29578114101E+02 -0.14660030576E+02  0.37460320403E+02  0.41800000000E+01 0.  1.
</event>
<event>
11    1  0.8299058E-009  0.1527698E+03  0.7561462E-02  0.1094082E+00
         22   -1    0    0    0    0  0.00000000000E+00  0.00000000000E+00  0.13830998470E+04  0.13830998470E+04  0.00000000000E+00 0.  1.
         22   -1    0    0    0    0 -0.00000000000E+00 -0.00000000000E+00 -0.40923756216E+03  0.40923756216E+03  0.00000000000E+00 0.  1.
        -24    2    1    2    0    0  0.71275461107E+01  0.41375550360E+01 -0.30835347609E+03  0.31851156723E+03  0.79371474495E+02 0.  0.
         25    2    1    2    0    0 -0.23419413585E+01 -0.91601975553E+02 -0.28557397579E+02  0.15766784408E+03  0.12508883837E+03 0.  0.
         24    2    1    2    0    0 -0.47856047521E+01  0.87464420517E+02  0.13107731585E+04  0.13161579978E+04  0.80452938745E+02 0.  0.
        -13    1    5    5    0    0 -0.27712413184E+02  0.79063640309E+02  0.71617825996E+03  0.72106195094E+03  0.00000000000E+00 0.  1.
         14    1    5    5    0    0  0.22926808432E+02  0.84007802075E+01  0.59459489854E+03  0.59509604689E+03  0.00000000000E+00 0. -1.
         11    1    3    3    0    0  0.14082113123E+02 -0.24094609251E+02 -0.41091457857E+02  0.49672568020E+02  0.00000000000E+00 0. -1.
        -12    1    3    3    0    0 -0.69545670126E+01  0.28232164287E+02 -0.26726201824E+03  0.26883899921E+03  0.00000000000E+00 0.  1.
          5    1    4    4  501    0  0.54774223541E+02 -0.47755015819E+02  0.13709787006E+02  0.74068804231E+02  0.41800000000E+01 0.  1.
         -5    1    4    4    0  501 -0.57116164900E+02 -0.43846959734E+02 -0.42267184584E+02  0.83599039848E+02  0.41800000000E+01 0.  1.
</event>
<event>
11    1  0.8299058E-009  0.2653784E+03  0.7561462E-02  0.1016011E+00
         22   -1    0    0    0    0  0.00000000000E+00  0.00000000000E+00  0.89845312331E+03  0.89845312331E+03  0.00000000000E+00 0.  1.
         22   -1    0    0    0    0 -0.00000000000E+00 -0.00000000000E+00 -0.10686183048E+04  0.10686183048E+04  0.00000000000E+00 0. -1.
        -24    2    1    2    0    0  0.22132830171E+03  0.67509464363E+02 -0.98396332560E+03  0.10140202535E+04  0.80681494244E+02 0.  0.
         25    2    1    2    0    0 -0.31090230448E+03 -0.97207241133E+02  0.46093028620E+03  0.57811216724E+03  0.12508980180E+03 0.  0.
         24    2    1    2    0    0  0.89574002772E+02  0.29697776769E+02  0.35286785791E+03  0.37493900734E+03  0.84605402681E+02 0.  0.
        -13    1    5    5    0    0  0.65328620678E+02  0.58801085572E+02  0.22427238516E+03  0.24088067396E+03  0.00000000000E+00 0.  1.
         14    1    5    5    0    0  0.24245382094E+02 -0.29103308802E+02  0.12859547275E+03  0.13405833338E+03  0.00000000000E+00 0. -1.
         11    1    3    3    0    0  0.16370217521E+03  0.10954920592E+02 -0.63766213104E+03  0.65843101827E+03  0.00000000000E+00 0. -1.
        -12    1    3    3    0    0  0.57626126499E+02  0.56554543771E+02 -0.34630119456E+03  0.35558923526E+03  0.00000000000E+00 0.  1.
          5    1    4    4  501    0 -0.94496470424E+02 -0.86676873012E+02  0.13084035269E+03  0.18324610099E+03  0.41800000000E+01 0. -1.
         -5    1    4    4    0  501 -0.21640583406E+03 -0.10530368120E+02  0.33008993352E+03  0.39486606625E+03  0.41800000000E+01 0. -1.
</event>
<event>
11    1  0.8299058E-009  0.1377516E+03  0.7561462E-02  0.1110095E+00
         22   -1    0    0    0    0  0.00000000000E+00  0.00000000000E+00  0.13304954380E+03  0.13304954380E+03  0.00000000000E+00 0.  1.
         22   -1    0    0    0    0 -0.00000000000E+00 -0.00000000000E+00 -0.47143731836E+03  0.47143731836E+03  0.00000000000E+00 0.  1.
         24    2    1    2    0    0  0.52879070717E+02  0.28568930495E+02 -0.27384811009E+03  0.29038146759E+03  0.75605749852E+02 0.  0.
         25    2    1    2    0    0 -0.52749991677E+02 -0.51658884871E+01 -0.14166925402E+03  0.19628268658E+03  0.12508983768E+03 0.  0.
        -24    2    1    2    0    0 -0.12907904029E+00 -0.23403042008E+02  0.77129589557E+02  0.11782270798E+03  0.85938919557E+02 0.  0.
        -13    1    3    3    0    0  0.65824672989E+02  0.13811557160E+02 -0.25282358266E+03  0.26161691580E+03  0.00000000000E+00 0.  1.
         14    1    3    3    0    0 -0.12945602272E+02  0.14757373335E+02 -0.21024527434E+02  0.28764551792E+02  0.00000000000E+00 0. -1.
         11    1    5    5    0    0  0.57517452833E+01 -0.42274177130E+02  0.49079824720E+01  0.42945045323E+02  0.00000000000E+00 0. -1.
        -12    1    5    5    0    0 -0.58808243236E+01  0.18871135122E+02  0.72221607085E+02  0.74877662660E+02  0.00000000000E+00 0.  1.
          5    1    4    4  501    0 -0.76178613323E+02  0.18781491451E+02 -0.38045204734E+02  0.87297397167E+02  0.41800000000E+01 0.  1.
         -5    1    4    4    0  501  0.23428621646E+02 -0.23947379938E+02 -0.10362404929E+03  0.10898528942E+03  0.41800000000E+01 0.  1.
</event>
<event>
11    1  0.8518529E-009  0.1766721E+03  0.7561462E-02  0.1072367E+00
         22   -1    0    0    0    0  0.00000000000E+00  0.00000000000E+00  0.12370960654E+04  0.12370960654E+04  0.00000000000E+00 0. -1.
         22   -1    0    0    0    0 -0.00000000000E+00 -0.00000000000E+00 -0.96557358470E+03  0.96557358470E+03  0.00000000000E+00 0.  1.
         24    2    1    2    0    0  0.66740718966E+01 -0.12448681829E+03 -0.91018482852E+03  0.92216342839E+03  0.80046582868E+02 0.  0.
         25    2    1    2    0    0 -0.91984616178E+02  0.12243295683E+03  0.16627962211E+03  0.25835775737E+03  0.12509524184E+03 0.  0.
        -24    2    1    2    0    0  0.85310544281E+02  0.20538614543E+01  0.10154276871E+04  0.10221484643E+04  0.80074890436E+02 0.  0.
        -11    1    3    3    0    0 -0.11657024164E+02 -0.85442094810E+02 -0.35571181990E+03  0.36601521362E+03  0.00000000000E+00 0.  1.
         12    1    3    3    0    0  0.18331096061E+02 -0.39044723478E+02 -0.55447300862E+03  0.55614821478E+03  0.00000000000E+00 0. -1.
         13    1    5    5    0    0  0.94628088656E+02  0.18581472756E+02  0.90255295658E+03  0.90769024767E+03  0.00000000000E+00 0. -1.
        -14    1    5    5    0    0 -0.93175443754E+01 -0.16527611302E+02  0.11287473050E+03  0.11445821663E+03  0.00000000000E+00 0.  1.
          5    1    4    4  501    0 -0.65769649382E+02  0.12735860406E+03  0.17829421939E+03  0.22880594808E+03  0.41800000000E+01 0.  1.
         -5    1    4    4    0  501 -0.26214966795E+02 -0.49256472260E+01 -0.12014597276E+02  0.29551809291E+02  0.41800000000E+01 0.  1.
</event>
<event>
11    1  0.8299058E-009  0.1461966E+03  0.7561462E-02  0.1100830E+00
         22   -1    0    0    0    0  0.00000000000E+00  0.00000000000E+00  0.73870260165E+02  0.73870260165E+02  0.00000000000E+00 0. -1.
         22   -1    0    0    0    0 -0.00000000000E+00 -0.00000000000E+00 -0.85905404139E+03  0.85905404139E+03  0.00000000000E+00 0. -1.
        -24    2    1    2    0    0 -0.13050041691E+02  0.30062022503E+02 -0.60167449043E+03  0.60795735343E+03  0.80783181257E+02 0.  0.
         25    2    1    2    0    0  0.37606439953E+01 -0.96596839401E+02 -0.14363520408E+03  0.21359689159E+03  0.12508984140E+03 0.  0.
         24    2    1    2    0    0  0.92893976955E+01  0.66534816898E+02 -0.39874086715E+02  0.11137005653E+03  0.79373622384E+02 0.  0.
        -13    1    5    5    0    0 -0.33637392088E+02  0.27775028764E+02 -0.29368551841E+02  0.52587433922E+02  0.00000000000E+00 0.  1.
         14    1    5    5    0    0  0.42926789784E+02  0.38759788135E+02 -0.10505534874E+02  0.58782622605E+02  0.00000000000E+00 0. -1.
         13    1    3    3    0    0  0.35279045498E+00  0.57014956161E+02 -0.40439565198E+03  0.40839524119E+03  0.00000000000E+00 0. -1.
        -14    1    3    3    0    0 -0.13402832146E+02 -0.26952933658E+02 -0.19727883845E+03  0.19956211224E+03  0.00000000000E+00 0.  1.
          5    1    4    4  501    0 -0.31751019268E+01 -0.27615732121E+02 -0.14133573278E+03  0.14410403080E+03  0.41800000000E+01 0. -1.
         -5    1    4    4    0  501  0.69357459221E+01 -0.68981107280E+02 -0.22994713023E+01  0.69492860794E+02  0.41800000000E+01 0. -1.
</event>
<event>
11    1  0.8299058E-009  0.1320093E+03  0.7561462E-02  0.1116825E+00
         22   -1    0    0    0    0  0.00000000000E+00  0.00000000000E+00  0.31323191596E+04  0.31323191596E+04  0.00000000000E+00 0. -1.
         22   -1    0    0    0    0 -0.00000000000E+00 -0.00000000000E+00 -0.27844453291E+03  0.27844453291E+03  0.00000000000E+00 0.  1.
        -24    2    1    2    0    0  0.11846502030E+02 -0.12570136646E+00 -0.26721010509E+03  0.28062205228E+03  0.84894879432E+02 0.  0.
         25    2    1    2    0    0 -0.39365427013E+02  0.29216532719E+02  0.13284218012E+04  0.13351987670E+04  0.12509205830E+03 0.  0.
         24    2    1    2    0    0  0.27518924983E+02 -0.29090831352E+02  0.17926629306E+04  0.17949428732E+04  0.81092339427E+02 0.  0.
        -11    1    5    5    0    0  0.21200388642E+02 -0.17520072460E+02  0.16875736682E+03  0.17098379535E+03  0.00000000000E+00 0.  1.
         12    1    5    5    0    0  0.63185363418E+01 -0.11570758892E+02  0.16239055638E+04  0.16239590778E+04  0.00000000000E+00 0. -1.
         13    1    3    3    0    0 -0.14118102562E+02 -0.34998749584E+02 -0.80361510967E+02  0.88781787194E+02  0.00000000000E+00 0. -1.
        -14    1    3    3    0    0  0.25964604592E+02  0.34873048218E+02 -0.18684859412E+03  0.19184026509E+03  0.00000000000E+00 0.  1.
          5    1    4    4  501    0  0.40243002476E+02  0.27397814398E+02  0.33001557801E+03  0.33361338944E+03  0.41800000000E+01 0. -1.
         -5    1    4    4    0  501 -0.79608429489E+02  0.18187183207E+01  0.99840622316E+03  0.10015853776E+04  0.41800000000E+01 0. -1.
</event>
<event>
11    1  0.8299058E-009  0.1780445E+03  0.7561462E-02  0.1071236E+00
         22   -1    0    0    0    0  0.00000000000E+00  0.00000000000E+00  0.25040923156E+03  0.25040923156E+03  0.00000000000E+00 0.  1.
         22   -1    0    0    0    0 -0.00000000000E+00 -0.00000000000E+00 -0.26455791795E+03  0.26455791795E+03  0.00000000000E+00 0.  1.
         24    2    1    2    0    0 -0.12098388735E+03  0.10733436340E+02 -0.10821989220E+03  0.19163411697E+03  0.10129058231E+03 0.  0.
         25    2    1    2    0    0  0.13817423149E+03 -0.39890285924E+01 -0.53924111563E+01  0.18650678714E+03  0.12509065895E+03 0.  0.
        -24    2    1    2    0    0 -0.17190344139E+02 -0.67444077480E+01  0.99463616970E+02  0.13682624540E+03  0.92127169515E+02 0.  0.
        -13    1    3    3    0    0 -0.79351839637E+02  0.16820416605E+02 -0.12274248729E+03  0.14712361828E+03  0.00000000000E+00 0.  1.
         14    1    3    3    0    0 -0.41632047713E+02 -0.60869802645E+01  0.14522595091E+02  0.44510498691E+02  0.00000000000E+00 0. -1.
         11    1    5    5    0    0  0.30569537902E+02  0.11255272282E+02  0.10436944394E+02  0.34206835720E+02  0.00000000000E+00 0. -1.
        -12    1    5    5    0    0 -0.47759882041E+02 -0.17999680030E+02  0.89026672576E+02  0.10261940968E+03  0.00000000000E+00 0.  1.
          5    1    4    4  501    0 -0.20574904781E+02  0.40014229733E+01 -0.16665561512E+02  0.27102609340E+02  0.41800000000E+01 0.  1.
         -5    1    4    4    0  501  0.15874913627E+03 -0.79904515657E+01  0.11273150355E+02  0.15940417780E+03  0.41800000000E+01 0.  1.
</event>
<event>
11    1  0.8299058E-009  0.1314403E+03  0.7561462E-02  0.1117512E+00
         22   -1    0    0    0    0  0.00000000000E+00  0.00000000000E+00  0.14441025053E+03  0.14441025053E+03  0.00000000000E+00 0. -1.
         22   -1    0    0    0    0 -0.00000000000E+00 -0.00000000000E+00 -0.85548997878E+03  0.85548997878E+03  0.00000000000E+00 0.  1.
         24    2    1    2    0    0  0.29173416859E+02  0.18449906213E+02 -0.53823751251E+03  0.54520779874E+03  0.79752345714E+02 0.  0.
         25    2    1    2    0    0 -0.10901512158E+02  0.19210615356E+02 -0.28437882163E+03  0.31145562554E+03  0.12508158051E+03 0.  0.
        -24    2    1    2    0    0 -0.18271904700E+02 -0.37660521570E+02  0.11153660588E+03  0.14323680503E+03  0.79524779012E+02 0.  0.
        -11    1    3    3    0    0 -0.18038683741E+02  0.32430263476E+02 -0.20137189608E+03  0.20476268369E+03  0.00000000000E+00 0.  1.
         12    1    3    3    0    0  0.47212100600E+02 -0.13980357262E+02 -0.33686561643E+03  0.34044511505E+03  0.00000000000E+00 0. -1.
         11    1    5    5    0    0 -0.36580610432E+02 -0.92805319231E+01  0.10105871490E+03  0.10787554491E+03  0.00000000000E+00 0. -1.
        -12    1    5    5    0    0  0.18308705732E+02 -0.28379989647E+02  0.10477890985E+02  0.35361260122E+02  0.00000000000E+00 0.  1.
          5    1    4    4  501    0 -0.40470009240E+02 -0.30847081154E+02 -0.56112126526E+02  0.75864400129E+02  0.41800000000E+01 0.  1.
         -5    1    4    4    0  501  0.29568497082E+02  0.50057696511E+02 -0.22826669510E+03  0.23559122541E+03  0.41800000000E+01 0.  1.
</event>
<event>
11    1  0.8299058E-009  0.1284618E+03  0.7561462E-02  0.1121173E+00
         22   -1    0    0    0    0  0.00000000000E+00  0.00000000000E+00  0.12142928353E+04  0.12142928353E+04  0.00000000000E+00 0.  1.
         22   -1    0    0    0    0 -0.00000000000E+00 -0.00000000000E+00 -0.79863627996E+02  0.79863627996E+02  0.00000000000E+00 0. -1.
        -24    2    1    2    0    0  0.22600680965E+02  0.18934651793E+02  0.10591274206E+02  0.98397179706E+02  0.93276567616E+02 0.  0.
         25    2    1    2    0    0  0.11665243026E+02 -0.44368387580E+02  0.96782872720E+02  0.16467961621E+03  0.12509124603E+03 0.  0.
         24    2    1    2    0    0 -0.34265923991E+02  0.25433735786E+02  0.10270550603E+04  0.10310796673E+04  0.80387529936E+02 0.  0.
        -13    1    5    5    0    0 -0.52115199035E+02  0.29827264470E+02  0.94865332235E+03  0.95055183219E+03  0.00000000000E+00 0.  1.
         14    1    5    5    0    0  0.17849275044E+02 -0.43935286839E+01  0.78401737976E+02  0.80527835135E+02  0.00000000000E+00 0. -1.
         13    1    3    3    0    0  0.12190062357E+02  0.55743398567E+02  0.17158899174E+02  0.59584829654E+02  0.00000000000E+00 0. -1.
        -14    1    3    3    0    0  0.10410618608E+02 -0.36808746773E+02 -0.65676249681E+01  0.38812350052E+02  0.00000000000E+00 0.  1.
          5    1    4    4  501    0  0.48949601087E+02 -0.66198456060E+02  0.87643647148E+02  0.12032115490E+03  0.41800000000E+01 0.  1.
         -5    1    4    4    0  501 -0.37284358061E+02  0.21830068480E+02  0.91392255718E+01  0.44358461311E+02  0.41800000000E+01 0.  1.
</event>
<event>
11    1  0.8299058E-009  0.2785368E+03  0.7561462E-02  0.1009708E+00
         22   -1    0    0    0    0  0.00000000000E+00  0.00000000000E+00  0.49978493797E+03  0.49978493797E+03  0.00000000000E+00 0. -1.
         22   -1    0    0    0    0 -0.00000000000E+00 -0.00000000000E+00 -0.16252227334E+04  0.16252227334E+04  0.00000000000E+00 0. -1.
         24    2    1    2    0    0  0.89399605620E+02  0.12232566226E+00 -0.12298524727E+04  0.12357169207E+04  0.80417032315E+02 0.  0.
         25    2    1    2    0    0 -0.21215497393E+03  0.21109453422E+03 -0.27903289204E+03  0.42787522913E+03  0.12508885452E+03 0.  0.
        -24    2    1    2    0    0  0.12275536831E+03 -0.21121685988E+03  0.38344756925E+03  0.46141552159E+03  0.78681655093E+02 0.  0.
        -11    1    3    3    0    0 -0.23457286222E+01  0.21448215500E+02 -0.39057285407E+03  0.39116835599E+03  0.00000000000E+00 0.  1.
         12    1    3    3    0    0  0.91745334242E+02 -0.21325889838E+02 -0.83927961862E+03  0.84454856471E+03  0.00000000000E+00 0. -1.
         13    1    5    5    0    0  0.12377000520E+03 -0.17322071997E+03  0.35498239755E+03  0.41392865882E+03  0.00000000000E+00 0. -1.
        -14    1    5    5    0    0 -0.10146368947E+01 -0.37996139908E+02  0.28465171700E+02  0.47486862771E+02  0.00000000000E+00 0.  1.
          5    1    4    4  501    0 -0.52339949205E+02  0.47491804405E+02 -0.50809112878E+01  0.70980489066E+02  0.41800000000E+01 0. -1.
         -5    1    4    4    0  501 -0.15981502472E+03  0.16360272982E+03 -0.27395198075E+03  0.35689474007E+03  0.41800000000E+01 0. -1.
</event>
<event>
11    1  0.8299058E-009  0.1319512E+03  0.7561462E-02  0.1116895E+00
         22   -1    0    0    0    0  0.00000000000E+00  0.00000000000E+00  0.26810324587E+03  0.26810324587E+03  0.00000000000E+00 0.  1.
         22   -1    0    0    0    0 -0.00000000000E+00 -0.00000000000E+00 -0.14975600115E+03  0.14975600115E+03  0.00000000000E+00 0. -1.
        -24    2    1    2    0    0 -0.38674068715E+02  0.20084667236E+02 -0.84889217016E+02  0.12531813849E+03  0.81236563322E+02 0.  0.
         25    2    1    2    0    0  0.27169593354E+02 -0.14070757744E+02  0.11810785803E+03  0.17473534513E+03  0.12508717633E+03 0.  0.
         24    2    1    2    0    0  0.11504475361E+02 -0.60139094927E+01  0.85128603705E+02  0.11780576340E+03  0.80391533514E+02 0.  0.
        -13    1    5    5    0    0  0.45697448719E+01  0.24643505013E+02 -0.20368625536E+01  0.25146246570E+02  0.00000000000E+00 0.  1.
         14    1    5    5    0    0  0.69347304886E+01 -0.30657414505E+02  0.87165466258E+02  0.92659516830E+02  0.00000000000E+00 0. -1.
         11    1    3    3    0    0  0.15862309757E+02 -0.58102988715E+01 -0.55804874599E+02  0.58305715610E+02  0.00000000000E+00 0. -1.
        -12    1    3    3    0    0 -0.54536378472E+02  0.25894966108E+02 -0.29084342417E+02  0.67012422881E+02  0.00000000000E+00 0.  1.
          5    1    4    4  501    0 -0.48059080435E+02  0.10082937176E+02  0.51850603121E+02  0.71535293935E+02  0.41800000000E+01 0.  1.
         -5    1    4    4    0  501  0.75228673790E+02 -0.24153694920E+02  0.66257254913E+02  0.10320005120E+03  0.41800000000E+01 0.  1.
</event>
<event>
11    1  0.8299058E-009  0.1754070E+03  0.7561462E-02  0.1073420E+00
         22   -1    0    0    0    0  0.00000000000E+00  0.00000000000E+00  0.25076749101E+03  0.25076749101E+03  0.00000000000E+00 0.  1.
         22   -1    0    0    0    0 -0.00000000000E+00 -0.00000000000E+00 -0.24626850416E+03  0.24626850416E+03  0.00000000000E+00 0.  1.
         24    2    1    2    0    0  0.22922437685E+02  0.39778821634E+02 -0.48346804844E+02  0.10555388047E+03  0.81831628018E+02 0.  0.
         25    2    1    2    0    0  0.84691609108E+02  0.34998267412E+02 -0.91962607860E+02  0.18028426342E+03  0.12509095498E+03 0.  0.
        -24    2    1    2    0    0 -0.10761404679E+03 -0.74777089046E+02  0.14480839956E+03  0.21119785128E+03  0.80390694061E+02 0.  0.
        -13    1    3    3    0    0  0.14534198179E+02  0.63661458650E+02 -0.46519012331E+02  0.80175075569E+02  0.00000000000E+00 0.  1.
         14    1    3    3    0    0  0.83882395064E+01 -0.23882637016E+02 -0.18277925128E+01  0.25378804904E+02  0.00000000000E+00 0. -1.
         13    1    5    5    0    0 -0.47561354368E+01 -0.10481098478E+02 -0.94975617021E+01  0.14922396855E+02  0.00000000000E+00 0. -1.
        -14    1    5    5    0    0 -0.10285791136E+03 -0.64295990568E+02  0.15430596126E+03  0.19627545443E+03  0.00000000000E+00 0.  1.
          5    1    4    4  501    0 -0.14845962421E+02 -0.11712704682E+02  0.16750176376E+02  0.25605289683E+02  0.41800000000E+01 0.  1.
         -5    1    4    4    0  501  0.99537571529E+02  0.46710972093E+02 -0.10871278424E+03  0.15467897374E+03  0.41800000000E+01 0.  1.
</event>
<event>
11    1  0.8299058E-009  0.1458516E+03  0.7561462E-02  0.1101195E+00
         22   -1    0    0    0    0  0.00000000000E+00  0.00000000000E+00  0.11802955966E+03  0.11802955966E+03  0.00000000000E+00 0. -1.
         22   -1    0    0    0    0 -0.00000000000E+00 -0.00000000000E+00 -0.12782790044E+04  0.12782790044E+04  0.00000000000E+00 0.  1.
        -24    2    1    2    0    0 -0.25842084558E+02  0.69007602480E+02 -0.10772020056E+04  0.10827449568E+04  0.80886452667E+02 0.  0.
         25    2    1    2    0    0 -0.30920709587E+02 -0.42323157553E+00 -0.13163164981E+03  0.18420142050E+03  0.12508797973E+03 0.  0.
         24    2    1    2    0    0  0.56762794146E+02 -0.68584370904E+02  0.48584210677E+02  0.12936218669E+03  0.80301426423E+02 0.  0.
        -11    1    5    5    0    0 -0.12353877177E+02  0.55997724548E+01 -0.52741739977E+01  0.14553097410E+02  0.00000000000E+00 0.  1.
         12    1    5    5    0    0  0.69116671323E+02 -0.74184143359E+02  0.53858384675E+02  0.11480908928E+03  0.00000000000E+00 0. -1.
         11    1    3    3    0    0 -0.49461716028E+01  0.10315665658E+02 -0.15751037513E+02  0.19467222560E+02  0.00000000000E+00 0. -1.
        -12    1    3    3    0    0 -0.20895912956E+02  0.58691936822E+02 -0.10614509681E+04  0.10632777343E+04  0.00000000000E+00 0.  1.
          5    1    4    4  501    0  0.48385267142E+02  0.58957980072E+01 -0.44415492764E+02  0.66076492855E+02  0.41800000000E+01 0. -1.
         -5    1    4    4    0  501 -0.79305976729E+02 -0.63190295827E+01 -0.87216157050E+02  0.11812492764E+03  0.41800000000E+01 0. -1.
</event>
<event>
11    1  0.8299058E-009  0.1398416E+03  0.7561462E-02  0.1107735E+00
         22   -1    0    0    0    0  0.00000000000E+00  0.00000000000E+00  0.74802238390E+03  0.74802238390E+03  0.00000000000E+00 0. -1.
         22   -1    0    0    0    0 -0.00000000000E+00 -0.00000000000E+00 -0.35523644989E+03  0.35523644989E+03  0.00000000000E+00 0. -1.
         24    2    1    2    0    0  0.59718901823E+02  0.20980255348E+02 -0.30299206591E+03  0.31966649204E+03  0.79849582213E+02 0.  0.
         25    2    1    2    0    0 -0.53824307731E+02 -0.28915533318E+01  0.73200269956E+02  0.15463161924E+03  0.12508893222E+03 0.  0.
        -24    2    1    2    0    0 -0.58945940921E+01 -0.18088702017E+02  0.62257772996E+03  0.62896072250E+03  0.87330482815E+02 0.  0.
        -11    1    3    3    0    0 -0.11486560484E+02  0.42548618059E+01 -0.57031747837E+01  0.13511888223E+02  0.00000000000E+00 0.  1.
         12    1    3    3    0    0  0.71205462307E+02  0.16725393543E+02 -0.29728889113E+03  0.30615460382E+03  0.00000000000E+00 0. -1.
         13    1    5    5    0    0  0.40767184707E+02 -0.92124153401E+01  0.27775172186E+03  0.28087871215E+03  0.00000000000E+00 0. -1.
        -14    1    5    5    0    0 -0.46661778799E+02 -0.88762866766E+01  0.34482600810E+03  0.34808201035E+03  0.00000000000E+00 0.  1.
          5    1    4    4  501    0 -0.41897750092E+02  0.15801412328E+02 -0.26641492871E+02  0.52271862763E+02  0.41800000000E+01 0.  1.
         -5    1    4    4    0  501 -0.11926557639E+02 -0.18692965660E+02  0.99841762828E+02  0.10235975648E+03  0.41800000000E+01 0.  1.
</event>
<event>
11    1  0.8299058E-009  0.1925261E+03  0.7561462E-02  0.1059938E+00
         22   -1    0    0    0    0  0.00000000000E+00  0.00000000000E+00  0.67656977028E+03  0.67656977028E+03  0.00000000000E+00 0. -1.
         22   -1    0    0    0    0 -0.00000000000E+00 -0.00000000000E+00 -0.17843772449E+03  0.17843772449E+03  0.00000000000E+00 0. -1.
        -24    2    1    2    0    0 -0.51874955396E+02  0.28823822787E+02 -0.93814842905E+02  0.13761405047E+03  0.81330058274E+02 0.  0.
         25    2    1    2    0    0  0.31809347113E+02 -0.16779349736E+03  0.19124403303E+03  0.28528333201E+03  0.12508320045E+03 0.  0.
         24    2    1    2    0    0  0.20065608283E+02  0.13896967457E+03  0.40070285567E+03  0.43211011229E+03  0.80256909482E+02 0.  0.
        -13    1    5    5    0    0 -0.61396792386E+01  0.32583175070E+02  0.27254107756E+02  0.42920220740E+02  0.00000000000E+00 0.  1.
         14    1    5    5    0    0  0.26205287521E+02  0.10638649950E+03  0.37344874791E+03  0.38918989155E+03  0.00000000000E+00 0. -1.
         13    1    3    3    0    0 -0.62246436298E+02  0.35176452796E+01 -0.90737843288E+02  0.11009245598E+03  0.00000000000E+00 0. -1.
        -14    1    3    3    0    0  0.10371480903E+02  0.25306177507E+02 -0.30769996169E+01  0.27521594481E+02  0.00000000000E+00 0.  1.
          5    1    4    4  501    0 -0.20195478756E+02 -0.14310812485E+03  0.94820281923E+02  0.17290503470E+03  0.41800000000E+01 0. -1.
         -5    1    4    4    0  501  0.52004825869E+02 -0.24685372513E+02  0.96423751105E+02  0.11237829731E+03  0.41800000000E+01 0. -1.
</event>
<event>
11    1  0.8299058E-009  0.1437974E+03  0.7561462E-02  0.1103391E+00
         22   -1    0    0    0    0  0.00000000000E+00  0.00000000000E+00  0.15766368720E+04  0.15766368720E+04  0.00000000000E+00 0.  1.
         22   -1    0    0    0    0 -0.00000000000E+00 -0.00000000000E+00 -0.31831523241E+03  0.31831523241E+03  0.00000000000E+00 0. -1.
         24    2    1    2    0    0 -0.46842509793E+02  0.10530310349E+02 -0.29819967329E+03  0.31235871846E+03  0.79622959571E+02 0.  0.
         25    2    1    2    0    0 -0.14982973109E+02 -0.56817719304E+02  0.45731095725E+03  0.47773818685E+03  0.12509085036E+03 0.  0.
        -24    2    1    2    0    0  0.61825482901E+02  0.46287408955E+02  0.10992103557E+04  0.11048551991E+04  0.80477888153E+02 0.  0.
        -11    1    3    3    0    0  0.62833117598E+01 -0.28526494147E+01  0.20129456421E+01  0.71881545275E+01  0.00000000000E+00 0.  1.
         12    1    3    3    0    0 -0.53125821552E+02  0.13382959763E+02 -0.30021261893E+03  0.30517056394E+03  0.00000000000E+00 0. -1.
         11    1    5    5    0    0  0.27938705311E+02  0.36956324669E+02  0.21446171100E+03  0.21940867501E+03  0.00000000000E+00 0. -1.
        -12    1    5    5    0    0  0.33886777590E+02  0.93310842860E+01  0.88474864467E+03  0.88544652411E+03  0.00000000000E+00 0.  1.
          5    1    4    4  501    0 -0.12081521559E+02 -0.96152034024E+02  0.35485562141E+03  0.36787383877E+03  0.41800000000E+01 0.  1.
         -5    1    4    4    0  501 -0.29014515500E+01  0.39334314720E+02  0.10245533584E+03  0.10986434808E+03  0.41800000000E+01 0.  1.
</event>
<event>
11    1  0.8299058E-009  0.1414833E+03  0.7561462E-02  0.1105913E+00
         22   -1    0    0    0    0  0.00000000000E+00  0.00000000000E+00  0.78613243579E+03  0.78613243579E+03  0.00000000000E+00 0. -1.
         22   -1    0    0    0    0 -0.00000000000E+00 -0.00000000000E+00 -0.84981286423E+02  0.84981286423E+02  0.00000000000E+00 0.  1.
         24    2    1    2    0    0 -0.15833986499E+01  0.16097353109E+02  0.10298744988E+02  0.82305142655E+02  0.80040242570E+02 0.  0.
         25    2    1    2    0    0 -0.18566943394E+02 -0.77630423786E+02  0.79225507305E+02  0.16821213175E+03  0.12508967254E+03 0.  0.
        -24    2    1    2    0    0  0.20150342044E+02  0.61533070676E+02  0.61162689707E+03  0.62059644780E+03  0.82825930317E+02 0.  0.
        -13    1    3    3    0    0 -0.60427641840E+01 -0.57746254238E+01 -0.32757264358E+02  0.33806799109E+02  0.00000000000E+00 0.  1.
         14    1    3    3    0    0  0.44593655341E+01  0.21871978533E+02  0.43056009346E+02  0.48498343546E+02  0.00000000000E+00 0. -1.
         11    1    5    5    0    0  0.20987002839E+02  0.75582920941E+02  0.35406723581E+03  0.36265250544E+03  0.00000000000E+00 0. -1.
        -12    1    5    5    0    0 -0.83666079558E+00 -0.14049850265E+02  0.25755966126E+03  0.25794394236E+03  0.00000000000E+00 0.  1.
          5    1    4    4  501    0 -0.55140552585E+02 -0.77370543989E+02  0.88865244219E+02  0.13015830994E+03  0.41800000000E+01 0.  1.
         -5    1    4    4    0  501  0.36573609191E+02 -0.25987979673E+00 -0.96397369139E+01  0.38053821813E+02  0.41800000000E+01 0.  1.
</event>
<event>
11    1  0.8299058E-009  0.1364477E+03  0.7561462E-02  0.1111591E+00
         22   -1    0    0    0    0  0.00000000000E+00  0.00000000000E+00  0.10565766651E+04  0.10565766651E+04  0.00000000000E+00 0.  1.
         22   -1    0    0    0    0 -0.00000000000E+00 -0.00000000000E+00 -0.28754869740E+03  0.28754869740E+03  0.00000000000E+00 0.  1.
        -24    2    1    2    0    0  0.52979535324E+02 -0.16850330085E+02 -0.26225936625E+03  0.27954511883E+03  0.79213215342E+02 0.  0.
         25    2    1    2    0    0 -0.22032985262E+02 -0.94527649691E+01  0.27694971267E+03  0.30483107892E+03  0.12508411619E+03 0.  0.
         24    2    1    2    0    0 -0.30946550062E+02  0.26303095054E+02  0.75433762130E+03  0.75974916477E+03  0.80895022611E+02 0.  0.
        -11    1    5    5    0    0 -0.17930640223E+02  0.12433728735E+01  0.67986588335E+03  0.68010342829E+03  0.00000000000E+00 0.  1.
         12    1    5    5    0    0 -0.13015909839E+02  0.25059722181E+02  0.74471737952E+02  0.79645736473E+02  0.00000000000E+00 0. -1.
         13    1    3    3    0    0  0.14748097612E+02  0.26699448681E+02 -0.42755240383E+02  0.52520258218E+02  0.00000000000E+00 0. -1.
        -14    1    3    3    0    0  0.38231437713E+02 -0.43549778766E+02 -0.21950412587E+03  0.22702486061E+03  0.00000000000E+00 0.  1.
          5    1    4    4  501    0  0.24217798047E+01 -0.20697062851E+02 -0.47827996567E+01  0.21784880092E+02  0.41800000000E+01 0.  1.
         -5    1    4    4    0  501 -0.24454765067E+02  0.11244297882E+02  0.28173251233E+03  0.28304619883E+03  0.41800000000E+01 0.  1.
</event>
<event>
11    1  0.8299058E-009  0.1669862E+03  0.7561462E-02  0.1080685E+00
         22   -1    0    0    0    0  0.00000000000E+00  0.00000000000E+00  0.25210766778E+03  0.25210766778E+03  0.00000000000E+00 0.  1.
         22   -1    0    0    0    0 -0.00000000000E+00 -0.00000000000E+00 -0.56448392880E+03  0.56448392880E+03  0.00000000000E+00 0.  1.
        -24    2    1    2    0    0 -0.44105303593E+02 -0.14849069975E+01 -0.42528230704E+03  0.43605153603E+03  0.85606183423E+02 0.  0.
         25    2    1    2    0    0  0.14440817242E+03  0.20576993051E+02 -0.22000001492E+02  0.19341346120E+03  0.12509050324E+03 0.  0.
         24    2    1    2    0    0 -0.10030286883E+03 -0.19092086053E+02  0.13490604751E+03  0.18712659935E+03  0.79947165576E+02 0.  0.
        -13    1    5    5    0    0 -0.67942328225E+02  0.10114553422E+02  0.12468216549E+03  0.14235205143E+03  0.00000000000E+00 0.  1.
         14    1    5    5    0    0 -0.32360540604E+02 -0.29206639475E+02  0.10223882021E+02  0.44774547917E+02  0.00000000000E+00 0. -1.
         11    1    3    3    0    0 -0.54680665677E+02 -0.31983025285E+02 -0.25618602747E+03  0.26390181844E+03  0.00000000000E+00 0. -1.
        -12    1    3    3    0    0  0.10575362084E+02  0.30498118287E+02 -0.16909627956E+03  0.17214971759E+03  0.00000000000E+00 0.  1.
          5    1    4    4  501    0  0.28468427689E+02 -0.32798893829E+02  0.32661646401E+02  0.54502058283E+02  0.41800000000E+01 0.  1.
         -5    1    4    4    0  501  0.11593974473E+03  0.53375886880E+02 -0.54661647893E+02  0.13891140291E+03  0.41800000000E+01 0.  1.
</event>
<event>
11    1  0.8299058E-009  0.1643585E+03  0.7561462E-02  0.1083048E+00
         22   -1    0    0    0    0  0.00000000000E+00  0.00000000000E+00  0.28924210746E+03  0.28924210746E+03  0.00000000000E+00 0.  1.
         22   -1    0    0    0    0 -0.00000000000E+00 -0.00000000000E+00 -0.81518848948E+03  0.81518848948E+03  0.00000000000E+00 0.  1.
         24    2    1    2    0    0  0.84513423620E+02  0.30321838992E+02 -0.71832398107E+03  0.72844073842E+03  0.81084122408E+02 0.  0.
         25    2    1    2    0    0  0.19957096979E+02 -0.93771345087E+02  0.36503362717E+02  0.16177683534E+03  0.12509155880E+03 0.  0.
        -24    2    1    2    0    0 -0.10447052060E+03  0.63449506095E+02  0.15587423634E+03  0.21421302319E+03  0.81550672906E+02 0.  0.
        -11    1    3    3    0    0  0.48178630909E+02  0.55037800502E+02 -0.35414181987E+03  0.36161688088E+03  0.00000000000E+00 0.  1.
         12    1    3    3    0    0  0.36334792711E+02 -0.24715961510E+02 -0.36418216120E+03  0.36682385753E+03  0.00000000000E+00 0. -1.
         13    1    5    5    0    0 -0.59669287352E+02  0.92629900907E+01  0.24415215388E+02  0.65133168055E+02  0.00000000000E+00 0. -1.
        -14    1    5    5    0    0 -0.44801233247E+02  0.54186516004E+02  0.13145902095E+03  0.14907985513E+03  0.00000000000E+00 0.  1.
          5    1    4    4  501    0 -0.38102700478E+02 -0.15294098243E+02 -0.23127959605E+02  0.47308563076E+02  0.41800000000E+01 0. -1.
         -5    1    4    4    0  501  0.58059797457E+02 -0.78477246844E+02  0.59631322322E+02  0.11446827226E+03  0.41800000000E+01 0. -1.
</event>
<event>
11    1  0.8299058E-009  0.2346617E+03  0.7561462E-02  0.1032403E+00
         22   -1    0    0    0    0  0.00000000000E+00  0.00000000000E+00  0.12935259345E+04  0.12935259345E+04  0.00000000000E+00 0.  1.
         22   -1    0    0    0    0 -0.00000000000E+00 -0.00000000000E+00 -0.23648648588E+03  0.23648648588E+03  0.00000000000E+00 0. -1.
        -24    2    1    2    0    0 -0.13099093860E+03  0.14358897385E+03 -0.91651804587E+02  0.22887195726E+03  0.78777535682E+02 0.  0.
         25    2    1    2    0    0  0.81931351732E+02 -0.20739102790E+03  0.15044939053E+03  0.29665938469E+03  0.12509191247E+03 0.  0.
         24    2    1    2    0    0  0.49059586866E+02  0.63802054042E+02  0.99824186266E+03  0.10044810784E+04  0.77574966244E+02 0.  0.
        -13    1    5    5    0    0  0.17630308180E+02  0.72699992230E+02  0.55209086952E+03  0.55713593031E+03  0.00000000000E+00 0.  1.
         14    1    5    5    0    0  0.31429278686E+02 -0.88979381883E+01  0.44615099313E+03  0.44734514811E+03  0.00000000000E+00 0. -1.
         13    1    3    3    0    0 -0.12101655351E+03  0.10637082037E+03 -0.42904120684E+02  0.16673488304E+03  0.00000000000E+00 0. -1.
        -14    1    3    3    0    0 -0.99743850832E+01  0.37218153487E+02 -0.48747683903E+02  0.62137074220E+02  0.00000000000E+00 0.  1.
          5    1    4    4  501    0  0.31582224974E+02 -0.20048021384E+03  0.10595742506E+03  0.22898515542E+03  0.41800000000E+01 0.  1.
         -5    1    4    4    0  501  0.50349126757E+02 -0.69108140543E+01  0.44491965472E+02  0.67674229273E+02  0.41800000000E+01 0.  1.
</event>
<event>
11    1  0.8299058E-009  0.1299565E+03  0.7561462E-02  0.1119322E+00
         22   -1    0    0    0    0  0.00000000000E+00  0.00000000000E+00  0.89263840929E+03  0.89263840929E+03  0.00000000000E+00 0.  1.
         22   -1    0    0    0    0 -0.00000000000E+00 -0.00000000000E+00 -0.47235729298E+03  0.47235729298E+03  0.00000000000E+00 0. -1.
        -24    2    1    2    0    0 -0.29234976234E+02 -0.18214726509E+02 -0.43679644811E+03  0.44862369495E+03  0.96361934871E+02 0.  0.
         25    2    1    2    0    0  0.52852797834E+02  0.25599358630E+02  0.14840405258E+03  0.20278146472E+03  0.12509122356E+03 0.  0.
         24    2    1    2    0    0 -0.23617821599E+02 -0.73846321206E+01  0.70867351184E+03  0.71359054260E+03  0.79881047864E+02 0.  0.
        -11    1    5    5    0    0 -0.49905238697E+02  0.99512090821E+01  0.49507044481E+03  0.49767891731E+03  0.00000000000E+00 0.  1.
         12    1    5    5    0    0  0.26287417097E+02 -0.17335841203E+02  0.21360306703E+03  0.21591162528E+03  0.00000000000E+00 0. -1.
         11    1    3    3    0    0 -0.40284067381E+02  0.12611003140E+02 -0.38524770558E+03  0.38755340037E+03  0.00000000000E+00 0. -1.
        -12    1    3    3    0    0  0.11049091147E+02 -0.30825729650E+02 -0.51548742536E+02  0.61070294585E+02  0.00000000000E+00 0.  1.
          5    1    4    4  501    0  0.77235425374E+02 -0.59544760077E+01  0.40172311979E+02  0.87361626398E+02  0.41800000000E+01 0. -1.
         -5    1    4    4    0  501 -0.24382627540E+02  0.31553834638E+02  0.10823174060E+03  0.11541983833E+03  0.41800000000E+01 0. -1.
</event>
<event>
11    1  0.8299058E-009  0.1698281E+03  0.7561462E-02  0.1078181E+00
         22   -1    0    0    0    0  0.00000000000E+00  0.00000000000E+00  0.23845867127E+03  0.23845867127E+03  0.00000000000E+00 0. -1.
         22   -1    0    0    0    0 -0.00000000000E+00 -0.00000000000E+00 -0.15332680497E+04  0.15332680497E+04  0.00000000000E+00 0.  1.
         24    2    1    2    0    0 -0.11983334139E+03  0.19398549085E+02 -0.12951913858E+04  0.13032980363E+04  0.79553202507E+02 0.  0.
         25    2    1    2    0    0  0.49603923996E+02 -0.88088154124E+02 -0.18403433808E+03  0.24440895489E+03  0.12508807884E+03 0.  0.
        -24    2    1    2    0    0  0.70229417398E+02  0.68689605039E+02  0.18441634546E+03  0.22401972982E+03  0.80777583335E+02 0.  0.
        -11    1    3    3    0    0 -0.11707658178E+03  0.38241936624E+02 -0.10120313778E+04  0.10194983479E+04  0.00000000000E+00 0.  1.
         12    1    3    3    0    0 -0.27567596092E+01 -0.18843387539E+02 -0.28316000804E+03  0.28379968839E+03  0.00000000000E+00 0. -1.
         11    1    5    5    0    0  0.80100932720E+02  0.46383185006E+02  0.17481010221E+03  0.19780326365E+03  0.00000000000E+00 0. -1.
        -12    1    5    5    0    0 -0.98715153218E+01  0.22306420033E+02  0.96062432437E+01  0.26216466175E+02  0.00000000000E+00 0.  1.
          5    1    4    4  501    0 -0.10987088094E+02 -0.97366210748E+02 -0.97592623006E+02  0.13835710161E+03  0.41800000000E+01 0.  1.
         -5    1    4    4    0  501  0.60591012090E+02  0.92780566242E+01 -0.86441715070E+02  0.10605185328E+03  0.41800000000E+01 0.  1.
</event>
<event>
11    1  0.8299058E-009  0.1410906E+03  0.7561462E-02  0.1106347E+00
         22   -1    0    0    0    0  0.00000000000E+00  0.00000000000E+00  0.30596491627E+03  0.30596491627E+03  0.00000000000E+00 0.  1.
         22   -1    0    0    0    0 -0.00000000000E+00 -0.00000000000E+00 -0.80580856263E+03  0.80580856263E+03  0.00000000000E+00 0.  1.
         24    2    1    2    0    0 -0.47734332074E+02 -0.48009171656E+02 -0.70950562439E+03  0.71723330074E+03  0.80261632342E+02 0.  0.
         25    2    1    2    0    0  0.44937017577E+02 -0.23910833527E+00 -0.31435536568E+02  0.13658400525E+03  0.12509038656E+03 0.  0.
        -24    2    1    2    0    0  0.27973144977E+01  0.48248279991E+02  0.24109751460E+03  0.25795617291E+03  0.77959310579E+02 0.  0.
        -11    1    3    3    0    0 -0.22351060124E+01 -0.19588003508E+02 -0.51746311188E+03  0.51783854409E+03  0.00000000000E+00 0.  1.
         12    1    3    3    0    0 -0.45499226062E+02 -0.28421168148E+02 -0.19204251251E+03  0.19939475666E+03  0.00000000000E+00 0. -1.
         11    1    5    5    0    0  0.31012624560E+02  0.49990699433E+02  0.12055235781E+03  0.13414068692E+03  0.00000000000E+00 0. -1.
        -12    1    5    5    0    0 -0.28215310062E+02 -0.17424194420E+01  0.12054515678E+03  0.12381548599E+03  0.00000000000E+00 0.  1.
          5    1    4    4  501    0  0.57176164578E+01 -0.35136373961E+02 -0.64933651210E+02  0.74169450399E+02  0.41800000000E+01 0. -1.
         -5    1    4    4    0  501  0.39219401119E+02  0.34897265625E+02  0.33498114643E+02  0.62414554848E+02  0.41800000000E+01 0. -1.
</event>
<event>
11    1  0.8299058E-009  0.1595870E+03  0.7561462E-02  0.1087466E+00
         22   -1    0    0    0    0  0.00000000000E+00  0.00000000000E+00  0.20247898448E+03  0.20247898448E+03  0.00000000000E+00 0. -1.
         22   -1    0    0    0    0 -0.00000000000E+00 -0.00000000000E+00 -0.88605623037E+03  0.88605623037E+03  0.00000000000E+00 0. -1.
         24    2    1    2    0    0 -0.53676976348E+02 -0.10741930990E+02 -0.59827841436E+03  0.60609354683E+03  0.80098186898E+02 0.  0.
         25    2    1    2    0    0  0.14760413772E+03 -0.11788474776E+01 -0.22374262437E+03  0.29579859795E+03  0.12509067687E+03 0.  0.
        -24    2    1    2    0    0 -0.93927161370E+02  0.11920778468E+02  0.13844379284E+03  0.18664307008E+03  0.81881226359E+02 0.  0.
        -11    1    3    3    0    0 -0.30503159275E+02  0.21280296930E+02 -0.10800912776E+03  0.11423338147E+03  0.00000000000E+00 0.  1.
         12    1    3    3    0    0 -0.23173817073E+02 -0.32022227920E+02 -0.49026928660E+03  0.49186016535E+03  0.00000000000E+00 0. -1.
         13    1    5    5    0    0 -0.94750555851E+02 -0.87387913676E+01  0.78892113594E+02  0.12360420663E+03  0.00000000000E+00 0. -1.
        -14    1    5    5    0    0  0.82339448089E+00  0.20659569835E+02  0.59551679244E+02  0.63038863450E+02  0.00000000000E+00 0.  1.
          5    1    4    4  501    0  0.15224648205E+03 -0.22170285177E+02 -0.13607628253E+03  0.20543792228E+03  0.41800000000E+01 0.  1.
         -5    1    4    4    0  501 -0.46423443325E+01  0.20991437699E+02 -0.87666341840E+02  0.90360675679E+02  0.41800000000E+01 0.  1.
</event>
<event>
11    1  0.8299058E-009  0.1875373E+03  0.7561462E-02  0.1063704E+00
         22   -1    0    0    0    0  0.00000000000E+00  0.00000000000E+00  0.85935544682E+03  0.85935544682E+03  0.00000000000E+00 0.  1.
         22   -1    0    0    0    0 -0.00000000000E+00 -0.00000000000E+00 -0.19785257864E+03  0.19785257864E+03  0.00000000000E+00 0.  1.
         24    2    1    2    0    0 -0.77944640077E+01 -0.76098603826E+02 -0.13865795640E+03  0.17736774256E+03  0.79884516990E+02 0.  0.
         25    2    1    2    0    0 -0.10991075149E+03 -0.29059931953E+02  0.24539645830E+03  0.29797933687E+03  0.12508960994E+03 0.  0.
        -24    2    1    2    0    0  0.11770521550E+03  0.10515853578E+03  0.55476436628E+03  0.58186094604E+03  0.76719117780E+02 0.  0.
        -11    1    3    3    0    0 -0.20776333257E+02 -0.86850132969E+02 -0.94100593936E+02  0.12972865296E+03  0.00000000000E+00 0.  1.
         12    1    3    3    0    0  0.12981869249E+02  0.10751529143E+02 -0.44557362461E+02  0.47639089597E+02  0.00000000000E+00 0. -1.
         11    1    5    5    0    0  0.23142409886E+01  0.44966125101E+02  0.15851819439E+03  0.16478873162E+03  0.00000000000E+00 0. -1.
        -12    1    5    5    0    0  0.11539097451E+03  0.60192410678E+02  0.39624617189E+03  0.41707221442E+03  0.00000000000E+00 0.  1.
          5    1    4    4  501    0 -0.58843515729E+02 -0.34252705027E+02  0.23595870514E+03  0.24562123295E+03  0.41800000000E+01 0. -1.
         -5    1    4    4    0  501 -0.51067235766E+02  0.51927730732E+01  0.94377531563E+01  0.52358103915E+02  0.41800000000E+01 0. -1.
</event>
<event>
11    1  0.8299058E-009  0.1428706E+03  0.7561462E-02  0.1104395E+00
         22   -1    0    0    0    0  0.00000000000E+00  0.00000000000E+00  0.14478917727E+04  0.14478917727E+04  0.00000000000E+00 0. -1.
         22   -1    0    0    0    0 -0.00000000000E+00 -0.00000000000E+00 -0.25207545646E+03  0.25207545646E+03  0.00000000000E+00 0.  1.
         24    2    1    2    0    0  0.29739448438E+02 -0.60493009015E+02 -0.20699722650E+03  0.23210406459E+03  0.80502211685E+02 0.  0.
         25    2    1    2    0    0 -0.33874849569E+02  0.88503671014E+02  0.16650181935E+03  0.22880451632E+03  0.12509294795E+03 0.  0.
        -24    2    1    2    0    0  0.41354011314E+01 -0.28010661999E+02  0.12363117234E+04  0.12390586483E+04  0.77446482558E+02 0.  0.
        -13    1    3    3    0    0  0.32431809718E+02  0.64781575796E+01 -0.10474728041E+03  0.10984435152E+03  0.00000000000E+00 0.  1.
         14    1    3    3    0    0 -0.26923612807E+01 -0.66971166595E+02 -0.10224994610E+03  0.12225971307E+03  0.00000000000E+00 0. -1.
         11    1    5    5    0    0 -0.11281871259E+01  0.64540335562E+01  0.10147065130E+04  0.10147276654E+04  0.00000000000E+00 0. -1.
        -12    1    5    5    0    0  0.52635882573E+01 -0.34464695555E+02  0.22160521042E+03  0.22433098289E+03  0.00000000000E+00 0.  1.
          5    1    4    4  501    0  0.19353310816E+02 -0.21899929628E+02  0.12814643847E+02  0.32184546823E+02  0.41800000000E+01 0.  1.
         -5    1    4    4    0  501 -0.53228160385E+02  0.11040360064E+03  0.15368717550E+03  0.19661996950E+03  0.41800000000E+01 0.  1.
</event>
<event>
11    1  0.8299058E-009  0.1450308E+03  0.7561462E-02  0.1102067E+00
         22   -1    0    0    0    0  0.00000000000E+00  0.00000000000E+00  0.10524672693E+03  0.10524672693E+03  0.00000000000E+00 0.  1.
         22   -1    0    0    0    0 -0.00000000000E+00 -0.00000000000E+00 -0.43006928351E+03  0.43006928351E+03  0.00000000000E+00 0.  1.
         24    2    1    2    0    0  0.37923995697E+02 -0.24999904849E+02 -0.24624660511E+03  0.26302403455E+03  0.80504829228E+02 0.  0.
         25    2    1    2    0    0  0.36939655829E+02  0.56564330668E+02 -0.66636076620E+02  0.15701222591E+03  0.12509360775E+03 0.  0.
        -24    2    1    2    0    0 -0.74863651526E+02 -0.31564425819E+02 -0.11939874851E+02  0.11527974998E+03  0.80907236061E+02 0.  0.
        -13    1    3    3    0    0  0.97919505020E+01 -0.19528754301E+02 -0.22801103357E+03  0.22905520289E+03  0.00000000000E+00 0.  1.
         14    1    3    3    0    0  0.28132045195E+02 -0.54711505481E+01 -0.18235571544E+02  0.33968831665E+02  0.00000000000E+00 0. -1.
         13    1    5    5    0    0 -0.50558810952E+02  0.22260298393E+02 -0.12129007335E+01  0.55255636614E+02  0.00000000000E+00 0. -1.
        -14    1    5    5    0    0 -0.24304840575E+02 -0.53824724212E+02 -0.10726974117E+02  0.60024113368E+02  0.00000000000E+00 0.  1.
          5    1    4    4  501    0  0.50642682505E+02  0.33576707752E+02 -0.98116178339E+02  0.11548304398E+03  0.41800000000E+01 0. -1.
         -5    1    4    4    0  501 -0.13703026675E+02  0.22987622917E+02  0.31480101719E+02  0.41529181929E+02  0.41800000000E+01 0. -1.
</event>
<event>
11    1  0.8299058E-009  0.1300076E+03  0.7561462E-02  0.1119260E+00
         22   -1    0    0    0    0  0.00000000000E+00  0.00000000000E+00  0.43478827490E+03  0.43478827490E+03  0.00000000000E+00 0.  1.
         22   -1    0    0    0    0 -0.00000000000E+00 -0.00000000000E+00 -0.22912205406E+03  0.22912205406E+03  0.00000000000E+00 0.  1.
         24    2    1    2    0    0 -0.17636338665E+01 -0.29143290684E+02 -0.16018458077E+03  0.18087566303E+03  0.78768418572E+02 0.  0.
         25    2    1    2    0    0 -0.33710632498E+02  0.23990621191E+02  0.28470778746E+02  0.13480220112E+03  0.12509632903E+03 0.  0.
        -24    2    1    2    0    0  0.35474266365E+02  0.51526694936E+01  0.33738002287E+03  0.34823246480E+03  0.78457607222E+02 0.  0.
        -13    1    3    3    0    0 -0.24499064564E+01  0.18413993845E+02 -0.11066962077E+03  0.11221783358E+03  0.00000000000E+00 0.  1.
         14    1    3    3    0    0  0.68627258988E+00 -0.47557284529E+02 -0.49514960002E+02  0.68657829458E+02  0.00000000000E+00 0. -1.
         13    1    5    5    0    0  0.38751752486E+02 -0.13769584834E+02  0.78313082703E+02  0.88454726893E+02  0.00000000000E+00 0. -1.
        -14    1    5    5    0    0 -0.32774861212E+01  0.18922254327E+02  0.25906694017E+03  0.25977773791E+03  0.00000000000E+00 0.  1.
          5    1    4    4  501    0 -0.12313637210E+02  0.74263037521E+02  0.61805829205E+01  0.75645861806E+02  0.41800000000E+01 0. -1.
         -5    1    4    4    0  501 -0.21396995288E+02 -0.50272416330E+02  0.22290195826E+02  0.59156339313E+02  0.41800000000E+01 0. -1.
</event>
<event>
11    1  0.8299058E-009  0.1676072E+03  0.7561462E-02  0.1080133E+00
         22   -1    0    0    0    0  0.00000000000E+00  0.00000000000E+00  0.16451765657E+03  0.16451765657E+03  0.00000000000E+00 0. -1.
         22   -1    0    0    0    0 -0.00000000000E+00 -0.00000000000E+00 -0.16963969629E+04  0.16963969629E+04  0.00000000000E+00 0.  1.
         24    2    1    2    0    0 -0.16479498382E+02  0.28975496131E+02 -0.15400279777E+04  0.15424520159E+04  0.79755224524E+02 0.  0.
         25    2    1    2    0    0  0.34870408656E+02 -0.12869900626E+03 -0.26095896490E+02  0.18468102730E+03  0.12508679554E+03 0.  0.
        -24    2    1    2    0    0 -0.18390910274E+02  0.99723510131E+02  0.34244567851E+02  0.13378157634E+03  0.80260922543E+02 0.  0.
        -11    1    3    3    0    0 -0.64882695139E+01  0.10105271159E+02 -0.14451994144E+04  0.14452493078E+04  0.00000000000E+00 0.  1.
         12    1    3    3    0    0 -0.99912288678E+01  0.18870224972E+02 -0.94828563300E+02  0.97202708102E+02  0.00000000000E+00 0. -1.
         13    1    5    5    0    0 -0.37078779941E+02  0.10172144666E+03  0.37754035976E+02  0.11466235592E+03  0.00000000000E+00 0. -1.
        -14    1    5    5    0    0  0.18687869667E+02 -0.19979365273E+01 -0.35094681247E+01  0.19119220423E+02  0.00000000000E+00 0.  1.
          5    1    4    4  501    0  0.38931316832E+02 -0.87618587076E+02  0.42145404754E+02  0.10481589466E+03  0.41800000000E+01 0. -1.
         -5    1    4    4    0  501 -0.40609081757E+01 -0.41080419186E+02 -0.68241301244E+02  0.79865132637E+02  0.41800000000E+01 0. -1.
</event>
<event>
11    1  0.8299058E-009  0.1273285E+03  0.7561462E-02  0.1122596E+00
         22   -1    0    0    0    0  0.00000000000E+00  0.00000000000E+00  0.12522129758E+03  0.12522129758E+03  0.00000000000E+00 0. -1.
         22   -1    0    0    0    0 -0.00000000000E+00 -0.00000000000E+00 -0.64885031794E+03  0.64885031794E+03  0.00000000000E+00 0.  1.
         24    2    1    2    0    0 -0.20230700224E+02  0.23851060051E+02 -0.28960863749E+03  0.30263343475E+03  0.82071180203E+02 0.  0.
         25    2    1    2    0    0  0.84369519358E+01 -0.68344944608E+01 -0.32433482455E+03  0.34778010064E+03  0.12506009560E+03 0.  0.
        -24    2    1    2    0    0  0.11793748288E+02 -0.17016565590E+02  0.90314441694E+02  0.12365808013E+03  0.81889965199E+02 0.  0.
        -13    1    3    3    0    0 -0.26985444414E+02 -0.15927610592E+02 -0.21964614758E+03  0.22187008166E+03  0.00000000000E+00 0.  1.
         14    1    3    3    0    0  0.67547441901E+01  0.39778670643E+02 -0.69962489918E+02  0.80763353092E+02  0.00000000000E+00 0. -1.
         11    1    5    5    0    0 -0.10839751025E+02  0.13359073997E+02  0.83394391940E+02  0.85150394406E+02  0.00000000000E+00 0. -1.
        -12    1    5    5    0    0  0.22633499313E+02 -0.30375639586E+02  0.69200497536E+01  0.38507685727E+02  0.00000000000E+00 0.  1.
          5    1    4    4  501    0  0.21135397541E+02 -0.43371777594E+02 -0.29527269510E+03  0.29921773509E+03  0.41800000000E+01 0.  1.
         -5    1    4    4    0  501 -0.12698445605E+02  0.36537283133E+02 -0.29062129453E+02  0.48562365551E+02  0.41800000000E+01 0.  1.
</event>
<event>
11    1  0.8299058E-009  0.1894898E+03  0.7561462E-02  0.1062215E+00
         22   -1    0    0    0    0  0.00000000000E+00  0.00000000000E+00  0.19679154709E+03  0.19679154709E+03  0.00000000000E+00 0. -1.
         22   -1    0    0    0    0 -0.00000000000E+00 -0.00000000000E+00 -0.21627255999E+04  0.21627255999E+04  0.00000000000E+00 0.  1.
        -24    2    1    2    0    0  0.53028099718E+02  0.10429762820E+03 -0.16054306318E+04  0.16116751440E+04  0.79995509333E+02 0.  0.
         25    2    1    2    0    0 -0.43756041400E+02 -0.23932167744E+03 -0.47967585340E+03  0.55220176738E+03  0.12509360938E+03 0.  0.
         24    2    1    2    0    0 -0.92720583187E+01  0.13502404924E+03  0.11917243244E+03  0.19564023560E+03  0.75865461144E+02 0.  0.
        -11    1    5    5    0    0 -0.41081500007E+01  0.13693765293E+03  0.85433670829E+02  0.16145497762E+03  0.00000000000E+00 0.  1.
         12    1    5    5    0    0 -0.51639083179E+01 -0.19136036947E+01  0.33738761610E+02  0.34185257980E+02  0.00000000000E+00 0. -1.
         11    1    3    3    0    0 -0.67022413239E+01 -0.10395054503E+02 -0.15323548578E+03  0.15373383264E+03  0.00000000000E+00 0. -1.
        -12    1    3    3    0    0  0.59730341042E+02  0.11469268271E+03 -0.14521951460E+04  0.14579413113E+04  0.00000000000E+00 0.  1.
          5    1    4    4  501    0 -0.37295225125E+02 -0.92492066561E+02 -0.85262167212E+02  0.13127385784E+03  0.41800000000E+01 0. -1.
         -5    1    4    4    0  501 -0.64608162744E+01 -0.14682961088E+03 -0.39441368619E+03  0.42092790954E+03  0.41800000000E+01 0. -1.
</event>
<event>
11    1  0.8299058E-009  0.1834607E+03  0.7561462E-02  0.1066877E+00
         22   -1    0    0    0    0  0.00000000000E+00  0.00000000000E+00  0.11256286461E+04  0.11256286461E+04  0.00000000000E+00 0. -1.
         22   -1    0    0    0    0 -0.00000000000E+00 -0.00000000000E+00 -0.14369469912E+03  0.14369469912E+03  0.00000000000E+00 0. -1.
        -24    2    1    2    0    0 -0.24728019440E+02 -0.45988626570E+01 -0.10131181118E+03  0.13000418297E+03  0.77487934693E+02 0.  0.
         25    2    1    2    0    0  0.13790437394E+03 -0.53990877139E+02  0.48571316180E+03  0.52296978645E+03  0.12508993099E+03 0.  0.
         24    2    1    2    0    0 -0.11317635450E+03  0.58589739796E+02  0.59753259636E+03  0.61634937580E+03  0.81238565401E+02 0.  0.
        -13    1    5    5    0    0  0.46061992120E+01  0.96672805593E+01  0.85128603225E+01  0.13679991793E+02  0.00000000000E+00 0.  1.
         14    1    5    5    0    0 -0.11778255371E+03  0.48922459237E+02  0.58901973604E+03  0.60266938401E+03  0.00000000000E+00 0. -1.
         13    1    3    3    0    0 -0.26779761245E+02 -0.21076123681E+02 -0.10712229052E+03  0.11241238245E+03  0.00000000000E+00 0. -1.
        -14    1    3    3    0    0  0.20517418049E+01  0.16477261024E+02  0.58104793459E+01  0.17591800519E+02  0.00000000000E+00 0.  1.
          5    1    4    4  501    0  0.20333200416E+02  0.25007263298E+02  0.21468284977E+03  0.21712899539E+03  0.41800000000E+01 0.  1.
         -5    1    4    4    0  501  0.11757117353E+03 -0.78998140436E+02  0.27103031203E+03  0.30584079106E+03  0.41800000000E+01 0.  1.
</event>
<event>
11    1  0.8299058E-009  0.1346666E+03  0.7561462E-02  0.1113665E+00
         22   -1    0    0    0    0  0.00000000000E+00  0.00000000000E+00  0.22752587524E+03  0.22752587524E+03  0.00000000000E+00 0. -1.
         22   -1    0    0    0    0 -0.00000000000E+00 -0.00000000000E+00 -0.50763834387E+03  0.50763834387E+03  0.00000000000E+00 0.  1.
        -24    2    1    2    0    0 -0.46771814241E+02 -0.31829348981E+02 -0.26442669869E+03  0.28243205957E+03  0.81521035494E+02 0.  0.
         25    2    1    2    0    0  0.35327759671E+02  0.11095871160E+02 -0.20620740764E+03  0.24400797472E+03  0.12508887959E+03 0.  0.
         24    2    1    2    0    0  0.11444054570E+02  0.20733477820E+02  0.19052163771E+03  0.20872418482E+03  0.81892902054E+02 0.  0.
        -13    1    5    5    0    0  0.42798213620E+02  0.18909421806E+02  0.70148529972E+02  0.84321228522E+02  0.00000000000E+00 0.  1.
         14    1    5    5    0    0 -0.31354159051E+02  0.18240560139E+01  0.12037310773E+03  0.12440295630E+03  0.00000000000E+00 0. -1.
         13    1    3    3    0    0  0.19671076221E+02 -0.88313475653E+01 -0.25601234991E+02  0.33471886301E+02  0.00000000000E+00 0. -1.
        -14    1    3    3    0    0 -0.66442890462E+02 -0.22998001415E+02 -0.23882546370E+03  0.24896017327E+03  0.00000000000E+00 0.  1.
          5    1    4    4  501    0  0.20190707015E+02 -0.40128409030E+02 -0.18426987359E+02  0.48733767801E+02  0.41800000000E+01 0.  1.
         -5    1    4    4    0  501  0.15137052656E+02  0.51224280190E+02 -0.18778042028E+03  0.19527420692E+03  0.41800000000E+01 0.  1.
</event>
<event>
11    1  0.8299058E-009  0.1436992E+03  0.7561462E-02  0.1103497E+00
         22   -1    0    0    0    0  0.00000000000E+00  0.00000000000E+00  0.16845121950E+04  0.16845121950E+04  0.00000000000E+00 0. -1.
         22   -1    0    0    0    0 -0.00000000000E+00 -0.00000000000E+00 -0.96764033957E+03  0.96764033957E+03  0.00000000000E+00 0.  1.
        -24    2    1    2    0    0  0.94394822509E+01  0.67727890145E+02 -0.95088822586E+03  0.95682414708E+03  0.81534406388E+02 0.  0.
         25    2    1    2    0    0  0.62847382406E+02 -0.60259942483E+02  0.50470631677E+03  0.52721570935E+03  0.12508750481E+03 0.  0.
         24    2    1    2    0    0 -0.72286864657E+02 -0.74679476623E+01  0.11630537645E+04  0.11681126782E+04  0.80697017306E+02 0.  0.
        -11    1    5    5    0    0 -0.57928800358E+01 -0.94479929296E+01  0.18068401130E+02  0.21196441892E+02  0.00000000000E+00 0.  1.
         12    1    5    5    0    0 -0.66493984621E+02  0.19800452673E+01  0.11449853634E+04  0.11469162363E+04  0.00000000000E+00 0. -1.
         11    1    3    3    0    0  0.29978212095E+02  0.72529886076E+02 -0.85748224124E+03  0.86106624113E+03  0.00000000000E+00 0. -1.
        -12    1    3    3    0    0 -0.20538729844E+02 -0.48019959309E+01 -0.93405984621E+02  0.95757905948E+02  0.00000000000E+00 0.  1.
          5    1    4    4  501    0  0.43278604074E+02  0.34419082109E+02  0.19643201708E+03  0.20410957968E+03  0.41800000000E+01 0. -1.
         -5    1    4    4    0  501  0.19568778332E+02 -0.94679024591E+02  0.30827429969E+03  0.32310612967E+03  0.41800000000E+01 0. -1.
</event>
<event>
11    1  0.1865981E-008  0.1688963E+03  0.7561462E-02  0.1078996E+00
         22   -1    0    0    0    0  0.00000000000E+00  0.00000000000E+00  0.10857879516E+04  0.10857879516E+04  0.00000000000E+00 0. -1.
         22   -1    0    0    0    0 -0.00000000000E+00 -0.00000000000E+00 -0.13289497586E+04  0.13289497586E+04  0.00000000000E+00 0. -1.
         24    2    1    2    0    0 -0.91792457790E+02  0.67794984774E+02 -0.11258590491E+04  0.11345849487E+04  0.81868138711E+02 0.  0.
         25    2    1    2    0    0  0.13628308888E+03  0.94503477442E+01 -0.15167355223E+03  0.23940499826E+03  0.12508995706E+03 0.  0.
        -24    2    1    2    0    0 -0.44490631089E+02 -0.77245332518E+02  0.10343707944E+04  0.10407477633E+04  0.72709757321E+02 0.  0.
        -11    1    3    3    0    0 -0.23521316703E+01  0.81775130494E+01 -0.83613351723E+01  0.11929634065E+02  0.00000000000E+00 0.  1.
         12    1    3    3    0    0 -0.89440326120E+02  0.59617471725E+02 -0.11174977139E+04  0.11226553146E+04  0.00000000000E+00 0. -1.
         11    1    5    5    0    0 -0.26220205988E+02 -0.83682006518E+02  0.64995957755E+03  0.65584878583E+03  0.00000000000E+00 0. -1.
        -12    1    5    5    0    0 -0.18270425101E+02  0.64366739999E+01  0.38441121683E+03  0.38489897743E+03  0.00000000000E+00 0.  1.
          5    1    4    4  501    0  0.33117502651E+02  0.52451783661E+02 -0.17222096890E+02  0.64513809470E+02  0.41800000000E+01 0.  1.
         -5    1    4    4    0  501  0.10316558623E+03 -0.43001435917E+02 -0.13445145534E+03  0.17489118879E+03  0.41800000000E+01 0.  1.
</event>
<event>
11    1  0.8299058E-009  0.1813233E+03  0.7561462E-02  0.1068577E+00
         22   -1    0    0    0    0  0.00000000000E+00  0.00000000000E+00  0.25206330697E+04  0.25206330697E+04  0.00000000000E+00 0. -1.
         22   -1    0    0    0    0 -0.00000000000E+00 -0.00000000000E+00 -0.56201303308E+03  0.56201303308E+03  0.00000000000E+00 0. -1.
        -24    2    1    2    0    0 -0.20864200980E+02 -0.75603167984E+01 -0.53449306368E+03  0.54096548123E+03  0.80426012454E+02 0.  0.
         25    2    1    2    0    0 -0.34664176434E+02 -0.11335344841E+03  0.32417903331E+03  0.36713686995E+03  0.12508727451E+03 0.  0.
         24    2    1    2    0    0  0.55528377415E+02  0.12091376521E+03  0.21689340670E+04  0.21745437516E+04  0.81621083896E+02 0.  0.
        -11    1    5    5    0    0 -0.16668473559E+02  0.79562670717E+01  0.14446787524E+03  0.14564376805E+03  0.00000000000E+00 0.  1.
         12    1    5    5    0    0  0.72196850973E+02  0.11295749814E+03  0.20244661918E+04  0.20288999836E+04  0.00000000000E+00 0. -1.
         13    1    3    3    0    0 -0.22311142635E+02 -0.11052354126E+02 -0.53622846035E+03  0.53680620648E+03  0.00000000000E+00 0. -1.
        -14    1    3    3    0    0  0.14469416547E+01  0.34920373277E+01  0.17353966696E+01  0.41592747506E+01  0.00000000000E+00 0.  1.
          5    1    4    4  501    0  0.42719629662E+02 -0.51985703336E+02  0.86114618075E+02  0.10936489362E+03  0.41800000000E+01 0. -1.
         -5    1    4    4    0  501 -0.77383806096E+02 -0.61367745075E+02  0.23806441524E+03  0.25777197633E+03  0.41800000000E+01 0. -1.
</event>
<event>
11    1  0.8299058E-009  0.1631091E+03  0.7561462E-02  0.1084189E+00
         22   -1    0    0    0    0  0.00000000000E+00  0.00000000000E+00  0.11982137022E+04  0.11982137022E+04  0.00000000000E+00 0.  1.
         22   -1    0    0    0    0 -0.00000000000E+00 -0.00000000000E+00 -0.27535566867E+03  0.27535566867E+03  0.00000000000E+00 0. -1.
        -24    2    1    2    0    0  0.40058624339E+02  0.27399920372E+02 -0.24328482013E+03  0.26100617361E+03  0.81125026563E+02 0.  0.
         25    2    1    2    0    0 -0.11669763181E+03 -0.78302158250E+02  0.49887880886E+03  0.53317635375E+03  0.12508953996E+03 0.  0.
         24    2    1    2    0    0  0.76639007471E+02  0.50902237877E+02  0.66726404475E+03  0.67938684347E+03  0.88660038172E+02 0.  0.
        -11    1    5    5    0    0  0.62891196220E+02  0.66582130640E+01  0.54468571888E+03  0.54834493406E+03  0.00000000000E+00 0.  1.
         12    1    5    5    0    0  0.13747811251E+02  0.44244024813E+02  0.12257832588E+03  0.13104190941E+03  0.00000000000E+00 0. -1.
         13    1    3    3    0    0  0.43804589540E+02  0.28728885658E+02 -0.24877368361E+03  0.25422929924E+03  0.00000000000E+00 0. -1.
        -14    1    3    3    0    0 -0.37459652010E+01 -0.13289652855E+01  0.54888634734E+01  0.67768743715E+01  0.00000000000E+00 0.  1.
          5    1    4    4  501    0 -0.48728307721E+02  0.20815823483E+02  0.26404714323E+03  0.26934385593E+03  0.41800000000E+01 0. -1.
         -5    1    4    4    0  501 -0.67969324090E+02 -0.99117981733E+02  0.23483166563E+03  0.26383249781E+03  0.41800000000E+01 0. -1.
</event>
<event>
11    1  0.8299058E-009  0.2468716E+03  0.7561462E-02  0.1025579E+00
         22   -1    0    0    0    0  0.00000000000E+00  0.00000000000E+00  0.31851042746E+03  0.31851042746E+03  0.00000000000E+00 0. -1.
         22   -1    0    0    0    0 -0.00000000000E+00 -0.00000000000E+00 -0.15676111068E+04  0.15676111068E+04  0.00000000000E+00 0. -1.
         24    2    1    2    0    0  0.20492187919E+03  0.59448430165E+02 -0.14088371234E+04  0.14271856329E+04  0.80682700060E+02 0.  0.
         25    2    1    2    0    0 -0.21043717728E+03 -0.14516799469E+02 -0.31197237099E+02  0.24721454636E+03  0.12508885354E+03 0.  0.
        -24    2    1    2    0    0  0.55152980933E+01 -0.44931630696E+02  0.19093368107E+03  0.21172135508E+03  0.79504664521E+02 0.  0.
        -13    1    3    3    0    0  0.54985778140E+02  0.50915223086E+02 -0.58399759251E+03  0.58878602548E+03  0.00000000000E+00 0.  1.
         14    1    3    3    0    0  0.14993610105E+03  0.85332070787E+01 -0.82483953085E+03  0.83839960739E+03  0.00000000000E+00 0. -1.
         13    1    5    5    0    0  0.29756595312E+02 -0.13815354949E+02  0.15476698956E+03  0.15820600512E+03  0.00000000000E+00 0. -1.
        -14    1    5    5    0    0 -0.24241297218E+02 -0.31116275747E+02  0.36166691506E+02  0.53515349963E+02  0.00000000000E+00 0.  1.
          5    1    4    4  501    0 -0.13551288663E+03  0.50657677289E+02 -0.30032952585E+02  0.14781540296E+03  0.41800000000E+01 0.  1.
         -5    1    4    4    0  501 -0.74924290652E+02 -0.65174476758E+02 -0.11642845141E+01  0.99399143401E+02  0.41800000000E+01 0.  1.
</event>
<event>
11    1  0.8299058E-009  0.1302525E+03  0.7561462E-02  0.1118959E+00
         22   -1    0    0    0    0  0.00000000000E+00  0.00000000000E+00  0.95609220187E+03  0.95609220187E+03  0.00000000000E+00 0.  1.
         22   -1    0    0    0    0 -0.00000000000E+00 -0.00000000000E+00 -0.74022356852E+03  0.74022356852E+03  0.00000000000E+00 0.  1.
        -24    2    1    2    0    0  0.35421480251E+02 -0.72379820937E+01 -0.55628334841E+03  0.56320904054E+03  0.80288168350E+02 0.  0.
         25    2    1    2    0    0 -0.28020071877E+02  0.40403905185E+02 -0.15313654443E+03  0.20375385740E+03  0.12508890111E+03 0.  0.
         24    2    1    2    0    0 -0.74014083737E+01 -0.33165923091E+02  0.92528852618E+03  0.92935287246E+03  0.79894590332E+02 0.  0.
        -13    1    5    5    0    0  0.42580809535E+01 -0.45619312813E+02  0.87596519858E+03  0.87716263149E+03  0.00000000000E+00 0.  1.
         14    1    5    5    0    0 -0.11659489327E+02  0.12453389722E+02  0.49323327597E+02  0.52190240967E+02  0.00000000000E+00 0. -1.
         11    1    3    3    0    0  0.18262549909E+01 -0.46476542635E+00  0.26358068027E+01  0.32401684670E+01  0.00000000000E+00 0. -1.
        -12    1    3    3    0    0  0.33595225260E+02 -0.67732166674E+01 -0.55891915521E+03  0.55996887207E+03  0.00000000000E+00 0.  1.
          5    1    4    4  501    0  0.46296589086E+02  0.31569935328E+02 -0.44063042288E+02  0.71407696177E+02  0.41800000000E+01 0.  1.
         -5    1    4    4    0  501 -0.74316660963E+02  0.88339698565E+01 -0.10907350214E+03  0.13234616122E+03  0.41800000000E+01 0.  1.
</event>
<event>
11    1  0.8299058E-009  0.1527927E+03  0.7561462E-02  0.1094059E+00
         22   -1    0    0    0    0  0.00000000000E+00  0.00000000000E+00  0.41125714229E+04  0.41125714229E+04  0.00000000000E+00 0. -1.
         22   -1    0    0    0    0 -0.00000000000E+00 -0.00000000000E+00 -0.89627881994E+02  0.89627881994E+02  0.00000000000E+00 0. -1.
         24    2    1    2    0    0 -0.83120889807E+02  0.17386425724E+02 -0.39586225875E+02  0.12357722937E+03  0.80578484828E+02 0.  0.
         25    2    1    2    0    0 -0.13793910259E+02  0.78699136405E+01  0.57194325413E+03  0.58567897832E+03  0.12509425327E+03 0.  0.
        -24    2    1    2    0    0  0.96914800066E+02 -0.25256339364E+02  0.34905865127E+04  0.34929430972E+04  0.80168053906E+02 0.  0.
        -11    1    3    3    0    0 -0.26560775078E+02 -0.15198022369E+02  0.18871405391E+02  0.35952532569E+02  0.00000000000E+00 0.  1.
         12    1    3    3    0    0 -0.56560114728E+02  0.32584448093E+02 -0.58457631266E+02  0.87624696797E+02  0.00000000000E+00 0. -1.
         13    1    5    5    0    0  0.55941777090E+02 -0.47205932444E+02  0.26994896278E+04  0.27004818335E+04  0.00000000000E+00 0. -1.
        -14    1    5    5    0    0  0.40973022975E+02  0.21949593080E+02  0.79109688491E+03  0.79246126376E+03  0.00000000000E+00 0.  1.
          5    1    4    4  501    0 -0.15098647836E+02  0.48584860076E+01  0.29559505281E+01  0.16666856221E+02  0.41800000000E+01 0.  1.
         -5    1    4    4    0  501  0.13047375773E+01  0.30114276329E+01  0.56898730360E+03  0.56901212210E+03  0.41800000000E+01 0.  1.
</event>
<event>
11    1  0.8299058E-009  0.1413808E+03  0.7561462E-02  0.1106026E+00
         22   -1    0    0    0    0  0.00000000000E+00  0.00000000000E+00  0.29682121437E+03  0.29682121437E+03  0.00000000000E+00 0.  1.
         22   -1    0    0    0    0 -0.00000000000E+00 -0.00000000000E+00 -0.20488276198E+04  0.20488276198E+04  0.00000000000E+00 0. -1.
         24    2    1    2    0    0 -0.65263834889E+02 -0.12434460843E+02 -0.19677298265E+04  0.19704714420E+04  0.79893988722E+02 0.  0.
         25    2    1    2    0    0  0.44550206136E+02 -0.18192237099E+02 -0.83219472496E+01  0.13428585434E+03  0.12509099693E+03 0.  0.
        -24    2    1    2    0    0  0.20713628752E+02  0.30626697942E+02  0.22404536833E+03  0.24089153788E+03  0.80407443124E+02 0.  0.
        -11    1    3    3    0    0  0.13779277757E+02  0.14799027631E+02 -0.35266152283E+03  0.35324075274E+03  0.00000000000E+00 0.  1.
         12    1    3    3    0    0 -0.79043112646E+02 -0.27233488473E+02 -0.16150683037E+04  0.16172306892E+04  0.00000000000E+00 0. -1.
         13    1    5    5    0    0  0.20860979882E+02 -0.22961826612E+02  0.11886056336E+03  0.12284241728E+03  0.00000000000E+00 0. -1.
        -14    1    5    5    0    0 -0.14735112973E+00  0.53588524554E+02  0.10518480497E+03  0.11804912059E+03  0.00000000000E+00 0.  1.
          5    1    4    4  501    0  0.17926102983E+01 -0.59093853747E+01 -0.63131654556E+02  0.63570531649E+02  0.41800000000E+01 0. -1.
         -5    1    4    4    0  501  0.42757595838E+02 -0.12282851724E+02  0.54809707306E+02  0.70715322691E+02  0.41800000000E+01 0. -1.
</event>
<event>
11    1  0.8299058E-009  0.1327828E+03  0.7561462E-02  0.1115896E+00
         22   -1    0    0    0    0  0.00000000000E+00  0.00000000000E+00  0.12225773194E+04  0.12225773194E+04  0.00000000000E+00 0. -1.
         22   -1    0    0    0    0 -0.00000000000E+00 -0.00000000000E+00 -0.76457023786E+02  0.76457023786E+02  0.00000000000E+00 0. -1.
        -24    2    1    2    0    0 -0.55164441800E+01  0.46363482942E+02 -0.18262525736E+02  0.96558878407E+02  0.82523290325E+02 0.  0.
         25    2    1    2    0    0 -0.25794305870E+02 -0.32339271161E+02  0.23950324452E+03  0.27335249301E+03  0.12509439086E+03 0.  0.
         24    2    1    2    0    0  0.31310750050E+02 -0.14024211781E+02  0.92487957687E+03  0.92912297181E+03  0.81793786104E+02 0.  0.
        -13    1    5    5    0    0  0.27959797981E+02 -0.15143924040E+01  0.92559512462E+02  0.96702156308E+02  0.00000000000E+00 0.  1.
         14    1    5    5    0    0  0.33509520684E+01 -0.12509819377E+02  0.83232006441E+03  0.83242081550E+03  0.00000000000E+00 0. -1.
         13    1    3    3    0    0 -0.10415274169E+02  0.68056689363E+02 -0.17707103572E+01  0.68871810766E+02  0.00000000000E+00 0. -1.
        -14    1    3    3    0    0  0.48988299888E+01 -0.21693206421E+02 -0.16491815379E+02  0.27687067641E+02  0.00000000000E+00 0.  1.
          5    1    4    4  501    0 -0.40889086391E+02 -0.56504801212E+02  0.61647492112E+02  0.93180446606E+02  0.41800000000E+01 0. -1.
         -5    1    4    4    0  501  0.15094780521E+02  0.24165530051E+02  0.17785575241E+03  0.18017204641E+03  0.41800000000E+01 0. -1.
</event>
<event>
11    1  0.8299058E-009  0.2397883E+03  0.7561462E-02  0.1029484E+00
         22   -1    0    0    0    0  0.00000000000E+00  0.00000000000E+00  0.46258722096E+03  0.46258722096E+03  0.00000000000E+00 0. -1.
         22   -1    0    0    0    0 -0.00000000000E+00 -0.00000000000E+00 -0.12617347135E+04  0.12617347135E+04  0.00000000000E+00 0. -1.
        -24    2    1    2    0    0  0.20525331545E+02 -0.37521130269E+02 -0.97512732582E+03  0.97937742520E+03  0.80484252985E+02 0.  0.
         25    2    1    2    0    0 -0.22292840883E+03  0.31322468542E+02 -0.18928941135E+03  0.31961429934E+03  0.12507856170E+03 0.  0.
         24    2    1    2    0    0  0.20240307728E+03  0.61986617270E+01  0.36526924461E+03  0.42533020995E+03  0.80490604029E+02 0.  0.
        -11    1    5    5    0    0  0.68995219142E+02  0.22237719672E+02  0.19751137274E+03  0.21039391341E+03  0.00000000000E+00 0.  1.
         12    1    5    5    0    0  0.13340785814E+03 -0.16039057945E+02  0.16775787187E+03  0.21493629653E+03  0.00000000000E+00 0. -1.
         11    1    3    3    0    0  0.33351733885E+02 -0.28299044981E+02 -0.93812229873E+03  0.93914142784E+03  0.00000000000E+00 0. -1.
        -12    1    3    3    0    0 -0.12826402340E+02 -0.92220852877E+01 -0.37005027085E+02  0.40235997360E+02  0.00000000000E+00 0.  1.
          5    1    4    4  501    0 -0.70105075567E+02  0.19397179974E+02  0.38996898031E+01  0.72963361983E+02  0.41800000000E+01 0. -1.
         -5    1    4    4    0  501 -0.15282333326E+03  0.11925288568E+02 -0.19318910115E+03  0.24665093736E+03  0.41800000000E+01 0. -1.
</event>
<event>
11    1  0.8299058E-009  0.1372113E+03  0.7561462E-02  0.1110713E+00
         22   -1    0    0    0    0  0.00000000000E+00  0.00000000000E+00  0.19164814222E+03  0.19164814222E+03  0.00000000000E+00 0.  1.
         22   -1    0    0    0    0 -0.00000000000E+00 -0.00000000000E+00 -0.29910096728E+03  0.29910096728E+03  0.00000000000E+00 0.  1.
        -24    2    1    2    0    0 -0.40173639056E+02  0.37699478787E+02 -0.18259859486E+03  0.20993462236E+03  0.87721872102E+02 0.  0.
         25    2    1    2    0    0  0.66094324160E+02 -0.17544505986E+02 -0.28859131038E+02  0.14544782953E+03  0.12508378110E+03 0.  0.
         24    2    1    2    0    0 -0.25920685104E+02 -0.20154972801E+02  0.10400490083E+03  0.13536665761E+03  0.80181093472E+02 0.  0.
        -13    1    5    5    0    0  0.16067448890E+02  0.18997250271E+02  0.13826278569E+02  0.28464441163E+02  0.00000000000E+00 0.  1.
         14    1    5    5    0    0 -0.41988133994E+02 -0.39152223072E+02  0.90178622262E+02  0.10690221644E+03  0.00000000000E+00 0. -1.
         13    1    3    3    0    0 -0.13620145783E+02  0.58506717386E+02 -0.69257047413E+02  0.91679239562E+02  0.00000000000E+00 0. -1.
        -14    1    3    3    0    0 -0.26553493273E+02 -0.20807238598E+02 -0.11334154745E+03  0.11825538280E+03  0.00000000000E+00 0.  1.
          5    1    4    4  501    0  0.94672598668E+02 -0.36799047249E+02 -0.39618928383E+02  0.10910638250E+03  0.41800000000E+01 0.  1.
         -5    1    4    4    0  501 -0.28578274508E+02  0.19254541263E+02  0.10759797345E+02  0.36341447027E+02  0.41800000000E+01 0.  1.
</event>
<event>
11    1  0.8299058E-009  0.1718171E+03  0.7561462E-02  0.1076461E+00
         22   -1    0    0    0    0  0.00000000000E+00  0.00000000000E+00  0.35204881198E+03  0.35204881198E+03  0.00000000000E+00 0.  1.
         22   -1    0    0    0    0 -0.00000000000E+00 -0.00000000000E+00 -0.54697991031E+03  0.54697991031E+03  0.00000000000E+00 0. -1.
         24    2    1    2    0    0 -0.86344790430E+01 -0.12138862880E+03 -0.49165487946E+03  0.51301860128E+03  0.81570897544E+02 0.  0.
         25    2    1    2    0    0 -0.10386298975E+02  0.60281731568E+02  0.12894711272E+03  0.18978110502E+03  0.12509095721E+03 0.  0.
        -24    2    1    2    0    0  0.19020778018E+02  0.61106897237E+02  0.16777666841E+03  0.19622901600E+03  0.79126312744E+02 0.  0.
        -13    1    3    3    0    0 -0.40645749446E+02 -0.39907543733E+02 -0.15391768141E+03  0.16411990021E+03  0.00000000000E+00 0.  1.
         14    1    3    3    0    0  0.32011270403E+02 -0.81481085072E+02 -0.33773719805E+03  0.34889870107E+03  0.00000000000E+00 0. -1.
         13    1    5    5    0    0 -0.25313702761E+02  0.61604558210E+01  0.21399423065E+02  0.33714537976E+02  0.00000000000E+00 0. -1.
        -14    1    5    5    0    0  0.44334480780E+02  0.54946441416E+02  0.14637724535E+03  0.16251447802E+03  0.00000000000E+00 0.  1.
          5    1    4    4  501    0 -0.57040373027E+02  0.26726566411E+01  0.26076956439E+02  0.62914444333E+02  0.41800000000E+01 0. -1.
         -5    1    4    4    0  501  0.46654074052E+02  0.57609074926E+02  0.10287015628E+03  0.12686666068E+03  0.41800000000E+01 0. -1.
</event>
<event>
11    1  0.8299058E-009  0.1341979E+03  0.7561462E-02  0.1114216E+00
         22   -1    0    0    0    0  0.00000000000E+00  0.00000000000E+00  0.15954454215E+04  0.15954454215E+04  0.00000000000E+00 0.  1.
         22   -1    0    0    0    0 -0.00000000000E+00 -0.00000000000E+00 -0.68311260892E+03  0.68311260892E+03  0.00000000000E+00 0.  1.
        -24    2    1    2    0    0  0.30313735803E+02  0.39088379782E+02 -0.65491592508E+03  0.66219691629E+03  0.84516643443E+02 0.  0.
         25    2    1    2    0    0 -0.11485123277E+02 -0.95158131452E+00  0.14785555489E+03  0.19401424033E+03  0.12508975487E+03 0.  0.
         24    2    1    2    0    0 -0.18828612527E+02 -0.38136798468E+02  0.14193931827E+04  0.14223468738E+04  0.81146103199E+02 0.  0.
        -11    1    5    5    0    0  0.29841883551E+01 -0.21131293468E+02  0.12830063974E+04  0.12831838733E+04  0.00000000000E+00 0.  1.
         12    1    5    5    0    0 -0.21812800882E+02 -0.17005505000E+02  0.13638678537E+03  0.13916300050E+03  0.00000000000E+00 0. -1.
         13    1    3    3    0    0  0.18682972797E+02 -0.18595116278E+02 -0.78979788486E+02  0.83262469404E+02  0.00000000000E+00 0. -1.
        -14    1    3    3    0    0  0.11630763006E+02  0.57683496061E+02 -0.57593613659E+03  0.57893444689E+03  0.00000000000E+00 0.  1.
          5    1    4    4  501    0  0.92572917953E+01  0.57959124806E+02  0.96602477321E+02  0.11311263689E+03  0.41800000000E+01 0. -1.
         -5    1    4    4    0  501 -0.20742415072E+02 -0.58910706120E+02  0.51253077567E+02  0.80901603437E+02  0.41800000000E+01 0. -1.
</event>
<event>
11    1  0.8299058E-009  0.1499879E+03  0.7561462E-02  0.1096891E+00
         22   -1    0    0    0    0  0.00000000000E+00  0.00000000000E+00  0.15711245765E+03  0.15711245765E+03  0.00000000000E+00 0. -1.
         22   -1    0    0    0    0 -0.00000000000E+00 -0.00000000000E+00 -0.29094014388E+04  0.29094014388E+04  0.00000000000E+00 0. -1.
         24    2    1    2    0    0  0.27817718829E+02 -0.78518788645E+02 -0.23496184988E+04  0.23524575633E+04  0.80065421897E+02 0.  0.
         25    2    1    2    0    0 -0.60469065542E+02  0.61039176047E+02 -0.53039198342E+03  0.55167523492E+03  0.12509044670E+03 0.  0.
        -24    2    1    2    0    0  0.32651346713E+02  0.17479612598E+02  0.12772150107E+03  0.16238109818E+03  0.93183646156E+02 0.  0.
        -13    1    3    3    0    0 -0.19050113175E+02  0.22322378430E+01 -0.23611015469E+03  0.23688793731E+03  0.00000000000E+00 0.  1.
         14    1    3    3    0    0  0.46867832004E+02 -0.80751026488E+02 -0.21135083441E+04  0.21155696260E+04  0.00000000000E+00 0. -1.
         11    1    5    5    0    0  0.20934255032E+02  0.16076615353E+02  0.14167141283E+03  0.14410929813E+03  0.00000000000E+00 0. -1.
        -12    1    5    5    0    0  0.11717091682E+02  0.14029972447E+01 -0.13949911760E+02  0.18271800044E+02  0.00000000000E+00 0.  1.
          5    1    4    4  501    0 -0.34896143804E+01  0.49448049551E+02 -0.61166527472E+02  0.78842269729E+02  0.41800000000E+01 0. -1.
         -5    1    4    4    0  501 -0.56979451162E+02  0.11591126496E+02 -0.46922545594E+03  0.47283296519E+03  0.41800000000E+01 0. -1.
</event>
<event>
11    1  0.8299058E-009  0.1285504E+03  0.7561462E-02  0.1121063E+00
         22   -1    0    0    0    0  0.00000000000E+00  0.00000000000E+00  0.45420127106E+03  0.45420127106E+03  0.00000000000E+00 0. -1.
         22   -1    0    0    0    0 -0.00000000000E+00 -0.00000000000E+00 -0.29454864090E+03  0.29454864090E+03  0.00000000000E+00 0. -1.
         24    2    1    2    0    0  0.79469367627E+00  0.30477043327E+02 -0.16976107877E+03  0.19037965953E+03  0.80598444108E+02 0.  0.
         25    2    1    2    0    0  0.18712312041E+02 -0.51549138222E+02 -0.67296611755E+02  0.15226268385E+03  0.12509047393E+03 0.  0.
        -24    2    1    2    0    0 -0.19507005717E+02  0.21072094896E+02  0.39671032068E+03  0.40610756857E+03  0.81973912069E+02 0.  0.
        -13    1    3    3    0    0 -0.38702541299E+02  0.65565635557E+01 -0.65697160589E+02  0.76530988091E+02  0.00000000000E+00 0.  1.
         14    1    3    3    0    0  0.39497234975E+02  0.23920479771E+02 -0.10406391818E+03  0.11384867144E+03  0.00000000000E+00 0. -1.
         11    1    5    5    0    0 -0.31201166943E+02  0.30575736173E+01  0.51934521853E+02  0.60663466231E+02  0.00000000000E+00 0. -1.
        -12    1    5    5    0    0  0.11694161226E+02  0.18014521278E+02  0.34477579883E+03  0.34544410234E+03  0.00000000000E+00 0.  1.
          5    1    4    4  501    0 -0.81110515607E+01  0.69551300352E+01 -0.84689219030E+02  0.85462852814E+02  0.41800000000E+01 0. -1.
         -5    1    4    4    0  501  0.26823363602E+02 -0.58504268257E+02  0.17392607275E+02  0.66799831041E+02  0.41800000000E+01 0. -1.
</event>
<event>
11    1  0.8299058E-009  0.1380419E+03  0.7561462E-02  0.1109765E+00
         22   -1    0    0    0    0  0.00000000000E+00  0.00000000000E+00  0.19696111149E+04  0.19696111149E+04  0.00000000000E+00 0.  1.
         22   -1    0    0    0    0 -0.00000000000E+00 -0.00000000000E+00 -0.37938301471E+03  0.37938301471E+03  0.00000000000E+00 0. -1.
        -24    2    1    2    0    0  0.18766830441E+02  0.23084580185E+02 -0.32447594190E+03  0.33530642451E+03  0.79124393679E+02 0.  0.
         25    2    1    2    0    0  0.37492660944E+02 -0.39877648246E+02  0.48655678262E+02  0.14493969145E+03  0.12507682710E+03 0.  0.
         24    2    1    2    0    0 -0.56259491385E+02  0.16793068061E+02  0.18660483639E+04  0.18687480137E+04  0.81458608572E+02 0.  0.
        -11    1    5    5    0    0 -0.30439574288E+01  0.16562849348E+02  0.13211269093E+04  0.13212342351E+04  0.00000000000E+00 0.  1.
         12    1    5    5    0    0 -0.53215533956E+02  0.23021871301E+00  0.54492145461E+03  0.54751377859E+03  0.00000000000E+00 0. -1.
         11    1    3    3    0    0 -0.12773780219E+02  0.30040905290E+02 -0.27006854657E+03  0.27203427229E+03  0.00000000000E+00 0. -1.
        -12    1    3    3    0    0  0.31540610660E+02 -0.69563251048E+01 -0.54407395329E+02  0.63272152218E+02  0.00000000000E+00 0.  1.
          5    1    4    4  501    0 -0.26595486759E+02  0.56478405003E+01 -0.24971178205E+02  0.37151718119E+02  0.41800000000E+01 0.  1.
         -5    1    4    4    0  501  0.64088147703E+02 -0.45525488746E+02  0.73626856467E+02  0.10778797333E+03  0.41800000000E+01 0.  1.
</event>
<event>
11    1  0.8299058E-009  0.1454832E+03  0.7561462E-02  0.1101585E+00
         22   -1    0    0    0    0  0.00000000000E+00  0.00000000000E+00  0.11727377959E+04  0.11727377959E+04  0.00000000000E+00 0.  1.
         22   -1    0    0    0    0 -0.00000000000E+00 -0.00000000000E+00 -0.29176512377E+03  0.29176512377E+03  0.00000000000E+00 0. -1.
        -24    2    1    2    0    0 -0.19497664418E+01  0.19957712877E+02 -0.26501091579E+03  0.27712239762E+03  0.78510673674E+02 0.  0.
         25    2    1    2    0    0  0.41071590634E+02 -0.79552317944E+02  0.32621213794E+03  0.36066191137E+03  0.12508880256E+03 0.  0.
         24    2    1    2    0    0 -0.39121824193E+02  0.59594605067E+02  0.81977145003E+03  0.82671861072E+03  0.79727015167E+02 0.  0.
        -11    1    5    5    0    0 -0.49813289419E+02  0.29751223802E+02  0.71256800672E+03  0.71492633420E+03  0.00000000000E+00 0.  1.
         12    1    5    5    0    0  0.10691465226E+02  0.29843381265E+02  0.10720344330E+03  0.11179227652E+03  0.00000000000E+00 0. -1.
         11    1    3    3    0    0 -0.85799758226E+01 -0.27841956687E+02 -0.14254055808E+03  0.14548746074E+03  0.00000000000E+00 0. -1.
        -12    1    3    3    0    0  0.66302093807E+01  0.47799669564E+02 -0.12247035772E+03  0.13163493688E+03  0.00000000000E+00 0.  1.
          5    1    4    4  501    0  0.28793698470E+02 -0.16988988085E+02  0.27947631235E+03  0.28149988340E+03  0.41800000000E+01 0.  1.
         -5    1    4    4    0  501  0.12277892164E+02 -0.62563329859E+02  0.46735825590E+02  0.79162027972E+02  0.41800000000E+01 0.  1.
</event>
<event>
11    1  0.8299058E-009  0.1322708E+03  0.7561462E-02  0.1116510E+00
         22   -1    0    0    0    0  0.00000000000E+00  0.00000000000E+00  0.14519539832E+04  0.14519539832E+04  0.00000000000E+00 0. -1.
         22   -1    0    0    0    0 -0.00000000000E+00 -0.00000000000E+00 -0.12691702931E+04  0.12691702931E+04  0.00000000000E+00 0. -1.
         24    2    1    2    0    0 -0.43408184556E+02 -0.45944086576E+01 -0.12160862166E+04  0.12194252781E+04  0.78910985011E+02 0.  0.
         25    2    1    2    0    0  0.13177328806E+02 -0.11609009860E+02  0.29776123544E+02  0.12977511806E+03  0.12508618081E+03 0.  0.
        -24    2    1    2    0    0  0.30230855749E+02  0.16203418518E+02  0.13690937832E+04  0.13719238801E+04  0.81122685636E+02 0.  0.
        -13    1    3    3    0    0 -0.70243452523E+01 -0.13022594412E+02 -0.38475516938E+02  0.41222503503E+02  0.00000000000E+00 0.  1.
         14    1    3    3    0    0 -0.36383839303E+02  0.84281857541E+01 -0.11776106997E+04  0.11782027746E+04  0.00000000000E+00 0. -1.
         13    1    5    5    0    0  0.37558332725E+02  0.28097250875E+02  0.13212497203E+04  0.13220820350E+04  0.00000000000E+00 0. -1.
        -14    1    5    5    0    0 -0.73274769753E+01 -0.11893832357E+02  0.47844062981E+02  0.49841845166E+02  0.00000000000E+00 0.  1.
          5    1    4    4  501    0 -0.41940647870E+02 -0.31951170144E+02  0.44434363011E+02  0.69078073464E+02  0.41800000000E+01 0.  1.
         -5    1    4    4    0  501  0.55117976676E+02  0.20342160284E+02 -0.14658239467E+02  0.60697044591E+02  0.41800000000E+01 0.  1.
</event>
<event>
11    1  0.8299058E-009  0.1326234E+03  0.7561462E-02  0.1116087E+00
         22   -1    0    0    0    0  0.00000000000E+00  0.00000000000E+00  0.42990497107E+03  0.42990497107E+03  0.00000000000E+00 0. -1.
         22   -1    0    0    0    0 -0.00000000000E+00 -0.00000000000E+00 -0.91662358468E+03  0.91662358468E+03  0.00000000000E+00 0.  1.
         24    2    1    2    0    0 -0.31969560748E+02  0.31019113386E+02 -0.70392568429E+03  0.70997086295E+03  0.81012462156E+02 0.  0.
         25    2    1    2    0    0  0.53787130783E+02  0.89962447687E-02 -0.18210626347E+03  0.22738280755E+03  0.12508874632E+03 0.  0.
        -24    2    1    2    0    0 -0.21817570035E+02 -0.31028109630E+02  0.39931333416E+03  0.40917488524E+03  0.80834385802E+02 0.  0.
        -11    1    3    3    0    0 -0.30412809578E+02  0.31203420010E+02 -0.15407020341E+03  0.16011314745E+03  0.00000000000E+00 0.  1.
         12    1    3    3    0    0 -0.15567511697E+01 -0.18430662450E+00 -0.54985548089E+03  0.54985771551E+03  0.00000000000E+00 0. -1.
         11    1    5    5    0    0 -0.48444528274E+02 -0.33818661207E+02  0.32152795529E+03  0.32691099737E+03  0.00000000000E+00 0. -1.
        -12    1    5    5    0    0  0.26626958238E+02  0.27905515770E+01  0.77785378870E+02  0.82263887879E+02  0.00000000000E+00 0.  1.
          5    1    4    4  501    0 -0.33646540327E+02 -0.28032257438E+02 -0.52564645776E+02  0.68544959834E+02  0.41800000000E+01 0. -1.
         -5    1    4    4    0  501  0.87433671111E+02  0.28041253683E+02 -0.12954161770E+03  0.15883784772E+03  0.41800000000E+01 0. -1.
</event>
<event>
11    1  0.8299058E-009  0.1360627E+03  0.7561462E-02  0.1112036E+00
         22   -1    0    0    0    0  0.00000000000E+00  0.00000000000E+00  0.10690575145E+04  0.10690575145E+04  0.00000000000E+00 0. -1.
         22   -1    0    0    0    0 -0.00000000000E+00 -0.00000000000E+00 -0.93455448190E+02  0.93455448190E+02  0.00000000000E+00 0. -1.
         24    2    1    2    0    0  0.91485144007E+01  0.54601848499E+02 -0.27658690490E+02  0.10280868771E+03  0.82094859359E+02 0.  0.
         25    2    1    2    0    0 -0.52066539291E+02 -0.32879739173E+02  0.16245191950E+03  0.21408081453E+03  0.12509183522E+03 0.  0.
        -24    2    1    2    0    0  0.42918024890E+02 -0.21722109326E+02  0.84080883732E+03  0.84562346047E+03  0.76195335099E+02 0.  0.
        -13    1    3    3    0    0 -0.30440677072E+02  0.45606671384E+02 -0.21762087731E+01  0.54875670200E+02  0.00000000000E+00 0.  1.
         14    1    3    3    0    0  0.39589191473E+02  0.89951771152E+01 -0.25482481717E+02  0.47933017506E+02  0.00000000000E+00 0. -1.
         13    1    5    5    0    0  0.14024674864E+02 -0.41006033604E+02  0.66529420756E+03  0.66670425896E+03  0.00000000000E+00 0. -1.
        -14    1    5    5    0    0  0.28893350026E+02  0.19283924278E+02  0.17551462976E+03  0.17891920151E+03  0.00000000000E+00 0.  1.
          5    1    4    4  501    0 -0.89155148449E+02 -0.24420390703E+02  0.14502162238E+03  0.17202830969E+03  0.41800000000E+01 0.  1.
         -5    1    4    4    0  501  0.37088609159E+02 -0.84593484701E+01  0.17430297123E+02  0.42052504844E+02  0.41800000000E+01 0.  1.
</event>
<event>
11    1  0.8299058E-009  0.1641377E+03  0.7561462E-02  0.1083249E+00
         22   -1    0    0    0    0  0.00000000000E+00  0.00000000000E+00  0.13871458691E+03  0.13871458691E+03  0.00000000000E+00 0.  1.
         22   -1    0    0    0    0 -0.00000000000E+00 -0.00000000000E+00 -0.10067638506E+04  0.10067638506E+04  0.00000000000E+00 0. -1.
         24    2    1    2    0    0  0.80277996472E+01 -0.10209806175E+02 -0.74363794256E+03  0.74810170981E+03  0.80561112865E+02 0.  0.
         25    2    1    2    0    0 -0.16615406281E+02 -0.97199954514E+02 -0.19002235067E+03  0.24796917103E+03  0.12512518988E+03 0.  0.
        -24    2    1    2    0    0  0.85876066337E+01  0.10740976069E+03  0.65611029557E+02  0.14940755665E+03  0.80045031745E+02 0.  0.
        -13    1    3    3    0    0 -0.29150023619E+02  0.27803126955E+00 -0.12907529286E+03  0.13232623476E+03  0.00000000000E+00 0.  1.
         14    1    3    3    0    0  0.37177823266E+02 -0.10487837444E+02 -0.61456264970E+03  0.61577547505E+03  0.00000000000E+00 0. -1.
         13    1    5    5    0    0 -0.15251252796E+02  0.97728109422E+01 -0.12592947827E+02  0.22061071609E+02  0.00000000000E+00 0. -1.
        -14    1    5    5    0    0  0.23838859430E+02  0.97636949747E+02  0.78203977384E+02  0.12734648505E+03  0.00000000000E+00 0.  1.
          5    1    4    4  501    0 -0.14142875281E+02 -0.71337531593E+01  0.16104071777E+02  0.22972263344E+02  0.41800000000E+01 0. -1.
         -5    1    4    4    0  501 -0.24725309999E+01 -0.90066201355E+02 -0.20612642245E+03  0.22499690769E+03  0.41800000000E+01 0. -1.
</event>
<event>
11    1  0.8299058E-009  0.1393834E+03  0.7561462E-02  0.1108249E+00
         22   -1    0    0    0    0  0.00000000000E+00  0.00000000000E+00  0.71255138812E+03  0.71255138812E+03  0.00000000000E+00 0. -1.
         22   -1    0    0    0    0 -0.00000000000E+00 -0.00000000000E+00 -0.92304078840E+03  0.92304078840E+03  0.00000000000E+00 0. -1.
        -24    2    1    2    0    0  0.35582102771E+02  0.50641661558E+02 -0.89114412556E+03  0.89692408100E+03  0.80649182447E+02 0.  0.
         25    2    1    2    0    0 -0.14126920499E+02 -0.36048026638E+02  0.14149831235E+03  0.19279201534E+03  0.12509180098E+03 0.  0.
         24    2    1    2    0    0 -0.21455182273E+02 -0.14593634920E+02  0.53915641293E+03  0.54587608019E+03  0.81349605383E+02 0.  0.
        -11    1    5    5    0    0 -0.33027358265E+02 -0.30012235008E+02  0.15660942066E+03  0.16284364060E+03  0.00000000000E+00 0.  1.
         12    1    5    5    0    0  0.11572175993E+02  0.15418600088E+02  0.38254699226E+03  0.38303243959E+03  0.00000000000E+00 0. -1.
         11    1    3    3    0    0  0.20541156011E+02  0.66153825814E+02 -0.45475865412E+03  0.46000402309E+03  0.00000000000E+00 0. -1.
        -12    1    3    3    0    0  0.15040946760E+02 -0.15512164256E+02 -0.43638547144E+03  0.43692005791E+03  0.00000000000E+00 0.  1.
          5    1    4    4  501    0  0.41550686181E+02 -0.40714337220E+02  0.24871721247E+02  0.63404981628E+02  0.41800000000E+01 0. -1.
         -5    1    4    4    0  501 -0.55677606680E+02  0.46663105820E+01  0.11662659110E+03  0.12938703371E+03  0.41800000000E+01 0. -1.
</event>
<event>
11    1  0.8299058E-009  0.2127916E+03  0.7561462E-02  0.1045829E+00
         22   -1    0    0    0    0  0.00000000000E+00  0.00000000000E+00  0.33170829585E+03  0.33170829585E+03  0.00000000000E+00 0. -1.
         22   -1    0    0    0    0 -0.00000000000E+00 -0.00000000000E+00 -0.24596931468E+03  0.24596931468E+03  0.00000000000E+00 0.  1.
         24    2    1    2    0    0 -0.84817335367E+02  0.12688930869E+02 -0.62892523749E+02  0.13178893318E+03  0.77832281341E+02 0.  0.
         25    2    1    2    0    0 -0.67222688744E+01  0.15355033966E+03  0.13044871974E+02  0.19859616707E+03  0.12508946071E+03 0.  0.
        -24    2    1    2    0    0  0.91539604241E+02 -0.16623927053E+03  0.13558663294E+03  0.24729251028E+03  0.82187933413E+02 0.  0.
        -13    1    3    3    0    0 -0.47856339698E+00  0.28598175433E+02 -0.72594131790E+01  0.29509045066E+02  0.00000000000E+00 0.  1.
         14    1    3    3    0    0 -0.84338771970E+02 -0.15909244564E+02 -0.55633110570E+02  0.10227988811E+03  0.00000000000E+00 0. -1.
         13    1    5    5    0    0  0.65065029501E+02 -0.10795313712E+03  0.13297781941E+03  0.18322237399E+03  0.00000000000E+00 0. -1.
        -14    1    5    5    0    0  0.26474574740E+02 -0.58286133416E+02  0.26088135313E+01  0.64070136290E+02  0.00000000000E+00 0.  1.
          5    1    4    4  501    0  0.54328672365E+02  0.48582961078E+02 -0.13468401740E+02  0.74234621259E+02  0.41800000000E+01 0. -1.
         -5    1    4    4    0  501 -0.61050941239E+02  0.10496737859E+03  0.26513273714E+02  0.12436154581E+03  0.41800000000E+01 0. -1.
</event>
<event>
11    1  0.8299058E-009  0.1389123E+03  0.7561462E-02  0.1108779E+00
         22   -1    0    0    0    0  0.00000000000E+00  0.00000000000E+00  0.11710963874E+03  0.11710963874E+03  0.00000000000E+00 0.  1.
         22   -1    0    0    0    0 -0.00000000000E+00 -0.00000000000E+00 -0.12035408070E+04  0.12035408070E+04  0.00000000000E+00 0. -1.
         24    2    1    2    0    0 -0.66424129182E+01  0.59916774296E+02 -0.10605363249E+04  0.10653683165E+04  0.81475221582E+02 0.  0.
         25    2    1    2    0    0 -0.27325849232E+01 -0.62898037079E+02 -0.72056401472E+02  0.15749764174E+03  0.12509896911E+03 0.  0.
        -24    2    1    2    0    0  0.93749978414E+01  0.29812627829E+01  0.46161558125E+02  0.97784487556E+02  0.85639582237E+02 0.  0.
        -13    1    3    3    0    0  0.16852957304E+02  0.62650306401E+02 -0.48175677065E+03  0.48610561520E+03  0.00000000000E+00 0.  1.
         14    1    3    3    0    0 -0.23495370222E+02 -0.27335321047E+01 -0.57877955429E+03  0.57926270127E+03  0.00000000000E+00 0. -1.
         11    1    5    5    0    0 -0.67737198373E+01 -0.38590113362E+02  0.10178722697E+02  0.40480693243E+02  0.00000000000E+00 0. -1.
        -12    1    5    5    0    0  0.16148717679E+02  0.41571376145E+02  0.35982835428E+02  0.57303794313E+02  0.00000000000E+00 0.  1.
          5    1    4    4  501    0 -0.28199808873E+02 -0.30479913119E+02 -0.99431585359E+02  0.10783490572E+03  0.41800000000E+01 0. -1.
         -5    1    4    4    0  501  0.25467223950E+02 -0.32418123960E+02  0.27375183887E+02  0.49662736026E+02  0.41800000000E+01 0. -1.
</event>
<event>
11    1  0.8299058E-009  0.1543818E+03  0.7561462E-02  0.1092484E+00
         22   -1    0    0    0    0  0.00000000000E+00  0.00000000000E+00  0.84086041293E+03  0.84086041293E+03  0.00000000000E+00 0. -1.
         22   -1    0    0    0    0 -0.00000000000E+00 -0.00000000000E+00 -0.25391055682E+03  0.25391055682E+03  0.00000000000E+00 0. -1.
        -24    2    1    2    0    0 -0.16695770650E+02 -0.59303282251E+01 -0.22103913097E+03  0.23540285036E+03  0.79008145068E+02 0.  0.
         25    2    1    2    0    0  0.15550384718E+02 -0.86150492007E+02  0.29766914867E+03  0.33454196971E+03  0.12509070984E+03 0.  0.
         24    2    1    2    0    0  0.11453859316E+01  0.92080820232E+02  0.51031983841E+03  0.52482614968E+03  0.80845287722E+02 0.  0.
        -11    1    5    5    0    0 -0.19834447818E+02 -0.58560591474E+01  0.12512498518E+03  0.12682255583E+03  0.00000000000E+00 0.  1.
         12    1    5    5    0    0  0.20979833749E+02  0.97936879380E+02  0.38519485323E+03  0.39800359385E+03  0.00000000000E+00 0. -1.
         11    1    3    3    0    0 -0.29505038929E+02  0.30077172279E+02 -0.10130809674E+03  0.10972016260E+03  0.00000000000E+00 0. -1.
        -12    1    3    3    0    0  0.12809268279E+02 -0.36007500504E+02 -0.11973103422E+03  0.12568268776E+03  0.00000000000E+00 0.  1.
          5    1    4    4  501    0  0.41026396579E+02 -0.74075695268E+02  0.85290147304E+02  0.12025911804E+03  0.41800000000E+01 0.  1.
         -5    1    4    4    0  501 -0.25476011861E+02 -0.12074796739E+02  0.21237900136E+03  0.21428285166E+03  0.41800000000E+01 0.  1.
</event>
<event>
11    1  0.8299058E-009  0.1309522E+03  0.7561462E-02  0.1118105E+00
         22   -1    0    0    0    0  0.00000000000E+00  0.00000000000E+00  0.16907824205E+04  0.16907824205E+04  0.00000000000E+00 0.  1.
         22   -1    0    0    0    0 -0.00000000000E+00 -0.00000000000E+00 -0.30915550494E+03  0.30915550494E+03  0.00000000000E+00 0.  1.
        -24    2    1    2    0    0 -0.34491632275E+02  0.17626311582E+02 -0.27719822336E+03  0.29086769836E+03  0.79150510796E+02 0.  0.
         25    2    1    2    0    0  0.22298578240E+02 -0.41917572220E+02  0.16202736316E+03  0.21012813208E+03  0.12508659410E+03 0.  0.
         24    2    1    2    0    0  0.12193054035E+02  0.24291260638E+02  0.14967977758E+04  0.14989420950E+04  0.75399514063E+02 0.  0.
        -13    1    5    5    0    0  0.18540239886E+01  0.13610177976E+02  0.14446918370E+04  0.14447571347E+04  0.00000000000E+00 0.  1.
         14    1    5    5    0    0  0.10339030046E+02  0.10681082661E+02  0.52105938774E+02  0.54184960317E+02  0.00000000000E+00 0. -1.
         13    1    3    3    0    0  0.20603071744E+02  0.25048063122E+02 -0.95700545016E+02  0.10104695121E+03  0.00000000000E+00 0. -1.
        -14    1    3    3    0    0 -0.55094704019E+02 -0.74217515402E+01 -0.18149767835E+03  0.18982074716E+03  0.00000000000E+00 0.  1.
          5    1    4    4  501    0 -0.40207244510E+02  0.14390333506E+02  0.26116521198E+02  0.50231954859E+02  0.41800000000E+01 0.  1.
         -5    1    4    4    0  501  0.62505822751E+02 -0.56307905725E+02  0.13591084197E+03  0.15989617722E+03  0.41800000000E+01 0.  1.
</event>
<event>
11    1  0.8299058E-009  0.1565104E+03  0.7561462E-02  0.1090406E+00
         22   -1    0    0    0    0  0.00000000000E+00  0.00000000000E+00  0.50154662005E+03  0.50154662005E+03  0.00000000000E+00 0. -1.
         22   -1    0    0    0    0 -0.00000000000E+00 -0.00000000000E+00 -0.35371107164E+03  0.35371107164E+03  0.00000000000E+00 0.  1.
         24    2    1    2    0    0 -0.83029280722E+00 -0.38460234512E+02 -0.28424904839E+03  0.29830747099E+03  0.81914264422E+02 0.  0.
         25    2    1    2    0    0  0.54103310864E+02  0.10951398514E+03  0.94635955968E+02  0.19880687385E+03  0.12509087793E+03 0.  0.
        -24    2    1    2    0    0 -0.53273018057E+02 -0.71053750626E+02  0.33744864083E+03  0.35814334684E+03  0.80674790098E+02 0.  0.
        -11    1    3    3    0    0  0.22898940457E+02 -0.52015702721E+02 -0.23705067982E+03  0.24376837286E+03  0.00000000000E+00 0.  1.
         12    1    3    3    0    0 -0.23729233264E+02  0.13555468209E+02 -0.47198368566E+02  0.54539098131E+02  0.00000000000E+00 0. -1.
         11    1    5    5    0    0 -0.21752887371E+02 -0.54704623578E+02  0.30301674402E+03  0.30868257338E+03  0.00000000000E+00 0. -1.
        -12    1    5    5    0    0 -0.31520130686E+02 -0.16349127047E+02  0.34431896808E+02  0.49460773462E+02  0.00000000000E+00 0.  1.
          5    1    4    4  501    0  0.85858446821E+02  0.33331678892E+02  0.49925782737E+02  0.10484622020E+03  0.41800000000E+01 0. -1.
         -5    1    4    4    0  501 -0.31755135956E+02  0.76182306245E+02  0.44710173232E+02  0.93960653653E+02  0.41800000000E+01 0. -1.
</event>
<event>
11    1  0.8299058E-009  0.1421549E+03  0.7561462E-02  0.1105176E+00
         22   -1    0    0    0    0  0.00000000000E+00  0.00000000000E+00  0.79419742946E+02  0.79419742946E+02  0.00000000000E+00 0. -1.
         22   -1    0    0    0    0 -0.00000000000E+00 -0.00000000000E+00 -0.16730717622E+04  0.16730717622E+04  0.00000000000E+00 0.  1.
         24    2    1    2    0    0  0.42876184979E+02  0.53109251261E+02 -0.12802235637E+04  0.12844908985E+04  0.79281368406E+02 0.  0.
         25    2    1    2    0    0 -0.51995559891E+02 -0.38595311767E+02 -0.35044744639E+03  0.37769444065E+03  0.12508613622E+03 0.  0.
        -24    2    1    2    0    0  0.91193749117E+01 -0.14513939494E+02  0.37018990847E+02  0.90306166026E+02  0.80566621504E+02 0.  0.
        -13    1    3    3    0    0  0.10347930104E+02 -0.74780130754E+01 -0.71296869573E+03  0.71308299757E+03  0.00000000000E+00 0.  1.
         14    1    3    3    0    0  0.32528254875E+02  0.60587264336E+02 -0.56725486800E+03  0.57140790092E+03  0.00000000000E+00 0. -1.
         11    1    5    5    0    0 -0.13075447230E+02 -0.41639345985E+02  0.33622773457E+02  0.55093496434E+02  0.00000000000E+00 0. -1.
        -12    1    5    5    0    0  0.22194822142E+02  0.27125406491E+02  0.33962173893E+01  0.35212669592E+02  0.00000000000E+00 0.  1.
          5    1    4    4  501    0 -0.79708611394E+02 -0.31107749473E+02 -0.13221179160E+03  0.15753915401E+03  0.41800000000E+01 0. -1.
         -5    1    4    4    0  501  0.27713051503E+02 -0.74875622936E+01 -0.21823565479E+03  0.22015528664E+03  0.41800000000E+01 0. -1.
</event>
<event>
11    1  0.8299058E-009  0.1466813E+03  0.7561462E-02  0.1100319E+00
         22   -1    0    0    0    0  0.00000000000E+00  0.00000000000E+00  0.18648225993E+04  0.18648225993E+04  0.00000000000E+00 0. -1.
         22   -1    0    0    0    0 -0.00000000000E+00 -0.00000000000E+00 -0.11823634749E+03  0.11823634749E+03  0.00000000000E+00 0.  1.
        -24    2    1    2    0    0  0.11270380084E+02 -0.10916551836E+02 -0.31683255277E+02  0.87549799615E+02  0.80093359128E+02 0.  0.
         25    2    1    2    0    0 -0.73399633362E+02 -0.33745074309E+02  0.40663728214E+02  0.15436126749E+03  0.12509047082E+03 0.  0.
         24    2    1    2    0    0  0.62129253278E+02  0.44661626145E+02  0.17376057788E+04  0.17411478797E+04  0.80420092099E+02 0.  0.
        -11    1    5    5    0    0  0.55447189232E+01  0.12185757816E+02  0.37983041499E+02  0.40273416083E+02  0.00000000000E+00 0.  1.
         12    1    5    5    0    0  0.56584534355E+02  0.32475868330E+02  0.16996227373E+04  0.17008744636E+04  0.00000000000E+00 0. -1.
         13    1    3    3    0    0 -0.15689288055E+02  0.20521146580E+02  0.11000757542E+02  0.28076464933E+02  0.00000000000E+00 0. -1.
        -14    1    3    3    0    0  0.26959668139E+02 -0.31437698416E+02 -0.42684012819E+02  0.59473334682E+02  0.00000000000E+00 0.  1.
          5    1    4    4  501    0 -0.64203717322E+02  0.50444283843E+01  0.76854242919E+02  0.10035741443E+03  0.41800000000E+01 0.  1.
         -5    1    4    4    0  501 -0.91959160403E+01 -0.38789502693E+02 -0.36190514704E+02  0.54003853063E+02  0.41800000000E+01 0.  1.
</event>
<event>
11    1  0.8299058E-009  0.2193463E+03  0.7561462E-02  0.1041628E+00
         22   -1    0    0    0    0  0.00000000000E+00  0.00000000000E+00  0.18172991121E+03  0.18172991121E+03  0.00000000000E+00 0.  1.
         22   -1    0    0    0    0 -0.00000000000E+00 -0.00000000000E+00 -0.53018570790E+03  0.53018570790E+03  0.00000000000E+00 0.  1.
         24    2    1    2    0    0 -0.16290658118E+02 -0.23683665689E+02 -0.96880259869E+02  0.12919864639E+03  0.80499713752E+02 0.  0.
         25    2    1    2    0    0 -0.72128320043E+02  0.17804631867E+03 -0.30405832969E+03  0.38079033519E+03  0.12508727106E+03 0.  0.
        -24    2    1    2    0    0  0.88418978161E+02 -0.15436265298E+03  0.52482792868E+02  0.20192663753E+03  0.79838456038E+02 0.  0.
        -13    1    3    3    0    0 -0.20804743526E+02  0.24302859055E+02 -0.17861056128E+02  0.36639918633E+02  0.00000000000E+00 0.  1.
         14    1    3    3    0    0  0.45140854078E+01 -0.47986524744E+02 -0.79019203742E+02  0.92558727757E+02  0.00000000000E+00 0. -1.
         13    1    5    5    0    0  0.19119166006E+02 -0.18729530474E+02  0.41288269193E+02  0.49204257880E+02  0.00000000000E+00 0. -1.
        -14    1    5    5    0    0  0.69299812155E+02 -0.13563312250E+03  0.11194523675E+02  0.15272237965E+03  0.00000000000E+00 0.  1.
          5    1    4    4  501    0  0.20207478173E+02  0.11538319210E+03 -0.16627804405E+03  0.20343913961E+03  0.41800000000E+01 0.  1.
         -5    1    4    4    0  501 -0.92335798216E+02  0.62663126569E+02 -0.13778028564E+03  0.17735119558E+03  0.41800000000E+01 0.  1.
</event>
<event>
11    1  0.8299058E-009  0.1591097E+03  0.7561462E-02  0.1087918E+00
         22   -1    0    0    0    0  0.00000000000E+00  0.00000000000E+00  0.15642624931E+03  0.15642624931E+03  0.00000000000E+00 0. -1.
         22   -1    0    0    0    0 -0.00000000000E+00 -0.00000000000E+00 -0.14843996459E+04  0.14843996459E+04  0.00000000000E+00 0. -1.
        -24    2    1    2    0    0 -0.16074917282E+02  0.20580131039E+02 -0.93048845849E+03  0.93493114653E+03  0.87209704776E+02 0.  0.
         25    2    1    2    0    0 -0.22499666338E+02 -0.11031505301E+03 -0.50993296720E+03  0.53698741480E+03  0.12509279238E+03 0.  0.
         24    2    1    2    0    0  0.38574583619E+02  0.89734921969E+02  0.11244802910E+03  0.16890733389E+03  0.79654086337E+02 0.  0.
        -13    1    5    5    0    0 -0.11379729008E+02  0.55190702291E+02  0.23170142493E+02  0.60929199525E+02  0.00000000000E+00 0.  1.
         14    1    5    5    0    0  0.49954312628E+02  0.34544219678E+02  0.89277886606E+02  0.10797813436E+03  0.00000000000E+00 0. -1.
         11    1    3    3    0    0  0.89469201358E+01  0.23419163024E+02 -0.85471778539E+03  0.85508537424E+03  0.00000000000E+00 0. -1.
        -12    1    3    3    0    0 -0.25021837418E+02 -0.28390319851E+01 -0.75770673096E+02  0.79845772285E+02  0.00000000000E+00 0.  1.
          5    1    4    4  501    0 -0.17999083603E+02 -0.20324242324E+01 -0.30107443555E+03  0.30164778451E+03  0.41800000000E+01 0. -1.
         -5    1    4    4    0  501 -0.45005827347E+01 -0.10828262878E+03 -0.20885853166E+03  0.23533963029E+03  0.41800000000E+01 0. -1.
</event>
<event>
11    1  0.8299058E-009  0.1538683E+03  0.7561462E-02  0.1092990E+00
         22   -1    0    0    0    0  0.00000000000E+00  0.00000000000E+00  0.25007758073E+03  0.25007758073E+03  0.00000000000E+00 0.  1.
         22   -1    0    0    0    0 -0.00000000000E+00 -0.00000000000E+00 -0.60112992113E+03  0.60112992113E+03  0.00000000000E+00 0.  1.
         24    2    1    2    0    0  0.11615580748E+02  0.86672255358E+02 -0.38637223497E+03  0.40497000460E+03  0.84084476003E+02 0.  0.
         25    2    1    2    0    0 -0.56494185463E+01 -0.96977347559E+02 -0.16715392966E+03  0.23026728250E+03  0.12508422490E+03 0.  0.
        -24    2    1    2    0    0 -0.59661622014E+01  0.10305092201E+02  0.20247382424E+03  0.21597021476E+03  0.74200364866E+02 0.  0.
        -13    1    3    3    0    0  0.21544866257E+02  0.61757806446E+02 -0.11519118742E+03  0.13246591100E+03  0.00000000000E+00 0.  1.
         14    1    3    3    0    0 -0.99292855094E+01  0.24914448912E+02 -0.27118104756E+03  0.27250409360E+03  0.00000000000E+00 0. -1.
         13    1    5    5    0    0  0.38921754349E+01 -0.21920747083E+02  0.18533461529E+02  0.28968213244E+02  0.00000000000E+00 0. -1.
        -14    1    5    5    0    0 -0.98583376364E+01  0.32225839284E+02  0.18394036271E+03  0.18700200152E+03  0.00000000000E+00 0.  1.
          5    1    4    4  501    0 -0.64540092161E+02 -0.61831537244E+02 -0.10011593575E+03  0.13427298866E+03  0.41800000000E+01 0. -1.
         -5    1    4    4    0  501  0.58890673614E+02 -0.35145810314E+02 -0.67037993910E+02  0.95994293835E+02  0.41800000000E+01 0. -1.
</event>
<event>
11    1  0.8299058E-009  0.1441842E+03  0.7561462E-02  0.1102974E+00
         22   -1    0    0    0    0  0.00000000000E+00  0.00000000000E+00  0.81958452803E+03  0.81958452803E+03  0.00000000000E+00 0. -1.
         22   -1    0    0    0    0 -0.00000000000E+00 -0.00000000000E+00 -0.20117454331E+03  0.20117454331E+03  0.00000000000E+00 0. -1.
        -24    2    1    2    0    0  0.27625638327E+02 -0.31010344377E+02 -0.14611854139E+03  0.17203793856E+03  0.80756466084E+02 0.  0.
         25    2    1    2    0    0 -0.96381142972E+02  0.26292874688E+02  0.13264969976E+03  0.20790489923E+03  0.12509142376E+03 0.  0.
         24    2    1    2    0    0  0.68755504645E+02  0.47174696898E+01  0.63187882636E+03  0.64081623355E+03  0.81394226107E+02 0.  0.
        -13    1    5    5    0    0 -0.98298024349E+01  0.23017475047E+02  0.18861934509E+03  0.19027266360E+03  0.00000000000E+00 0.  1.
         14    1    5    5    0    0  0.78585307080E+02 -0.18300005358E+02  0.44325948127E+03  0.45054356995E+03  0.00000000000E+00 0. -1.
         13    1    3    3    0    0 -0.53701461314E+01  0.25110495916E+02 -0.39376471578E+02  0.47009381921E+02  0.00000000000E+00 0. -1.
        -14    1    3    3    0    0  0.32995784459E+02 -0.56120840294E+02 -0.10674206981E+03  0.12502855664E+03  0.00000000000E+00 0.  1.
          5    1    4    4  501    0 -0.80609660592E+02  0.68272675358E+02  0.57637997679E+02  0.12041049272E+03  0.41800000000E+01 0. -1.
         -5    1    4    4    0  501 -0.15771482380E+02 -0.41979800670E+02  0.75011702082E+02  0.87494406507E+02  0.41800000000E+01 0. -1.
</event>
<event>
11    1  0.8299058E-009  0.1560745E+03  0.7561462E-02  0.1090829E+00
         22   -1    0    0    0    0  0.00000000000E+00  0.00000000000E+00  0.47776979219E+03  0.47776979219E+03  0.00000000000E+00 0. -1.
         22   -1    0    0    0    0 -0.00000000000E+00 -0.00000000000E+00 -0.13322596221E+04  0.13322596221E+04  0.00000000000E+00 0. -1.
         24    2    1    2    0    0  0.20011896365E+02 -0.20141933860E+02 -0.12178609633E+04  0.12206819392E+04  0.77928796434E+02 0.  0.
         25    2    1    2    0    0 -0.91130552730E+02  0.76975031068E+02 -0.31816919921E+02  0.17575558085E+03  0.12509106586E+03 0.  0.
        -24    2    1    2    0    0  0.71118656365E+02 -0.56833097208E+02  0.39518805335E+03  0.41359189418E+03  0.81220645176E+02 0.  0.
        -11    1    3    3    0    0  0.62888196468E+01  0.30118409963E+02 -0.42787045958E+03  0.42897528839E+03  0.00000000000E+00 0.  1.
         12    1    3    3    0    0  0.13723076719E+02 -0.50260343823E+02 -0.78999050372E+03  0.79170665083E+03  0.00000000000E+00 0. -1.
         13    1    5    5    0    0  0.53999421182E+02 -0.64910131699E+02  0.38015697426E+03  0.38942083633E+03  0.00000000000E+00 0. -1.
        -14    1    5    5    0    0  0.17119235183E+02  0.80770344906E+01  0.15031079088E+02  0.24171057858E+02  0.00000000000E+00 0.  1.
          5    1    4    4  501    0 -0.50613837230E+02  0.10091915268E+03  0.89766473233E+01  0.11333352767E+03  0.41800000000E+01 0.  1.
         -5    1    4    4    0  501 -0.40516715500E+02 -0.23944121611E+02 -0.40793567244E+02  0.62422053180E+02  0.41800000000E+01 0.  1.
</event>
<event>
11    1  0.8299058E-009  0.1618096E+03  0.7561462E-02  0.1085387E+00
         22   -1    0    0    0    0  0.00000000000E+00  0.00000000000E+00  0.29118085145E+04  0.29118085145E+04  0.00000000000E+00 0.  1.
         22   -1    0    0    0    0 -0.00000000000E+00 -0.00000000000E+00 -0.70638632575E+03  0.70638632575E+03  0.00000000000E+00 0. -1.
         24    2    1    2    0    0 -0.75488089947E+02 -0.70640874768E+02 -0.63405723842E+03  0.64746982194E+03  0.80622601186E+02 0.  0.
         25    2    1    2    0    0  0.22043303816E+02  0.10753818323E+03  0.42397422300E+02  0.17174216934E+03  0.12508982060E+03 0.  0.
        -24    2    1    2    0    0  0.53444786131E+02 -0.36897308463E+02  0.27970820049E+04  0.27989828490E+04  0.80121721720E+02 0.  0.
        -13    1    3    3    0    0 -0.30377159715E+02  0.17664088444E+01 -0.61759294611E+02  0.68848402330E+02  0.00000000000E+00 0.  1.
         14    1    3    3    0    0 -0.45110930232E+02 -0.72407283612E+02 -0.57229794381E+03  0.57862141961E+03  0.00000000000E+00 0. -1.
         11    1    5    5    0    0  0.26477545191E+02 -0.58525887306E+02  0.13995913790E+04  0.14010647266E+04  0.00000000000E+00 0. -1.
        -12    1    5    5    0    0  0.26967240940E+02  0.21628578843E+02  0.13974906259E+04  0.13979181224E+04  0.00000000000E+00 0.  1.
          5    1    4    4  501    0  0.49414671244E+02  0.10531311201E+03  0.67279628568E+02  0.13444955230E+03  0.41800000000E+01 0. -1.
         -5    1    4    4    0  501 -0.27371367427E+02  0.22250712250E+01 -0.24882206268E+02  0.37292617038E+02  0.41800000000E+01 0. -1.
</event>
<event>
11    1  0.8299058E-009  0.1569881E+03  0.7561462E-02  0.1089945E+00
         22   -1    0    0    0    0  0.00000000000E+00  0.00000000000E+00  0.54992496466E+03  0.54992496466E+03  0.00000000000E+00 0. -1.
         22   -1    0    0    0    0 -0.00000000000E+00 -0.00000000000E+00 -0.33341218853E+03  0.33341218853E+03  0.00000000000E+00 0. -1.
        -24    2    1    2    0    0 -0.15304629926E+02 -0.14190479030E+02 -0.20850371379E+03  0.22468291843E+03  0.81074125208E+02 0.  0.
         25    2    1    2    0    0  0.50082354442E+02  0.10098175690E+03 -0.43070068853E+02  0.17380529954E+03  0.12509074252E+03 0.  0.
         24    2    1    2    0    0 -0.34777724516E+02 -0.86791277872E+02  0.46808655878E+03  0.48484893523E+03  0.85036741739E+02 0.  0.
        -13    1    5    5    0    0  0.24156925226E+02 -0.41598931881E+02  0.12783137334E+03  0.13658289856E+03  0.00000000000E+00 0.  1.
         14    1    5    5    0    0 -0.58934649742E+02 -0.45192345991E+02  0.34025518544E+03  0.34826603666E+03  0.00000000000E+00 0. -1.
         11    1    3    3    0    0  0.19348094896E+02 -0.24504573665E+02 -0.16586928838E+03  0.16878223761E+03  0.00000000000E+00 0. -1.
        -12    1    3    3    0    0 -0.34652724822E+02  0.10314094635E+02 -0.42634425413E+02  0.55900680819E+02  0.00000000000E+00 0.  1.
          5    1    4    4  501    0 -0.38713571823E+02  0.83310582273E+01 -0.69440463277E+01  0.40420778739E+02  0.41800000000E+01 0.  1.
         -5    1    4    4    0  501  0.88795926264E+02  0.92650698674E+02 -0.36126022525E+02  0.13338452080E+03  0.41800000000E+01 0.  1.
</event>
<event>
11    1  0.8299058E-009  0.1522857E+03  0.7561462E-02  0.1094566E+00
         22   -1    0    0    0    0  0.00000000000E+00  0.00000000000E+00  0.35236030267E+02  0.35236030267E+02  0.00000000000E+00 0. -1.
         22   -1    0    0    0    0 -0.00000000000E+00 -0.00000000000E+00 -0.25641840012E+04  0.25641840012E+04  0.00000000000E+00 0.  1.
        -24    2    1    2    0    0 -0.71714594679E+02 -0.26952048857E+02 -0.16013453775E+04  0.16051956795E+04  0.80478290334E+02 0.  0.
         25    2    1    2    0    0  0.13156577472E+03  0.61299969301E+02 -0.83072547691E+03  0.85253776102E+03  0.12509427108E+03 0.  0.
         24    2    1    2    0    0 -0.59851180036E+02 -0.34347920444E+02 -0.96877116477E+02  0.14168659097E+03  0.76993317716E+02 0.  0.
        -13    1    5    5    0    0 -0.57877876765E+01  0.11669218885E+02 -0.60552329978E+02  0.61937499315E+02  0.00000000000E+00 0.  1.
         14    1    5    5    0    0 -0.54063392359E+02 -0.46017139329E+02 -0.36324786499E+02  0.79749091654E+02  0.00000000000E+00 0. -1.
         11    1    3    3    0    0 -0.99797283901E+01  0.26834789748E+02 -0.49237112308E+03  0.49320282213E+03  0.00000000000E+00 0. -1.
        -12    1    3    3    0    0 -0.61734866289E+02 -0.53786838605E+02 -0.11089742544E+04  0.11119928573E+04  0.00000000000E+00 0.  1.
          5    1    4    4  501    0  0.63772901437E+02  0.92997720431E+02 -0.57886287918E+03  0.58975864916E+03  0.41800000000E+01 0. -1.
         -5    1    4    4    0  501  0.67792873279E+02 -0.31697751130E+02 -0.25186259773E+03  0.26277911186E+03  0.41800000000E+01 0. -1.
</event>
<event>
11    1  0.8299058E-009  0.1553760E+03  0.7561462E-02  0.1091509E+00
         22   -1    0    0    0    0  0.00000000000E+00  0.00000000000E+00  0.82262948531E+03  0.82262948531E+03  0.00000000000E+00 0. -1.
         22   -1    0    0    0    0 -0.00000000000E+00 -0.00000000000E+00 -0.12053190041E+04  0.12053190041E+04  0.00000000000E+00 0. -1.
         24    2    1    2    0    0 -0.55502654488E+02  0.74545205151E+02 -0.94266302155E+03  0.95058834561E+03  0.79794099672E+02 0.  0.
         25    2    1    2    0    0  0.86535578960E+02 -0.42744907192E+02 -0.23157769559E+03  0.28034007820E+03  0.12508715695E+03 0.  0.
        -24    2    1    2    0    0 -0.31032924473E+02 -0.31800297959E+02  0.79155119838E+03  0.79702006557E+03  0.81935242147E+02 0.  0.
        -13    1    3    3    0    0  0.76353704904E+01  0.41155678164E+02 -0.19063754498E+03  0.19517879568E+03  0.00000000000E+00 0.  1.
         14    1    3    3    0    0 -0.63138024978E+02  0.33389526987E+02 -0.75202547657E+03  0.75540954992E+03  0.00000000000E+00 0. -1.
         13    1    5    5    0    0 -0.50239794687E+02 -0.41876545257E+01  0.62946739446E+03  0.63148299590E+03  0.00000000000E+00 0. -1.
        -14    1    5    5    0    0  0.19206870214E+02 -0.27612643433E+02  0.16208380392E+03  0.16553706967E+03  0.00000000000E+00 0.  1.
          5    1    4    4  501    0  0.11130314080E+03 -0.31344951209E+02 -0.12535262156E+03  0.17059204920E+03  0.41800000000E+01 0.  1.
         -5    1    4    4    0  501 -0.24767561843E+02 -0.11399955984E+02 -0.10622507403E+03  0.10974802900E+03  0.41800000000E+01 0.  1.
</event>
<event>
11    1  0.8299058E-009  0.1423271E+03  0.7561462E-02  0.1104987E+00
         22   -1    0    0    0    0  0.00000000000E+00  0.00000000000E+00  0.94557758769E+03  0.94557758769E+03  0.00000000000E+00 0. -1.
         22   -1    0    0    0    0 -0.00000000000E+00 -0.00000000000E+00 -0.65354438883E+03  0.65354438883E+03  0.00000000000E+00 0. -1.
        -24    2    1    2    0    0 -0.54378499526E+02 -0.40753141644E+02 -0.61493932166E+03  0.62392559190E+03  0.80715148087E+02 0.  0.
         25    2    1    2    0    0  0.32960986000E+02  0.65258939589E+02  0.13401921849E+03  0.19736640764E+03  0.12508873708E+03 0.  0.
         24    2    1    2    0    0  0.21417513526E+02 -0.24505797945E+02  0.77295330203E+03  0.77782997699E+03  0.80643796803E+02 0.  0.
        -13    1    5    5    0    0  0.58552450524E+01 -0.35112945932E+01  0.30405444790E+01  0.74738206476E+01  0.00000000000E+00 0.  1.
         14    1    5    5    0    0  0.15562268474E+02 -0.20994503352E+02  0.76991275755E+03  0.77035615634E+03  0.00000000000E+00 0. -1.
         11    1    3    3    0    0 -0.26948849790E+02 -0.60937309939E+02 -0.48676585235E+03  0.49130498803E+03  0.00000000000E+00 0. -1.
        -12    1    3    3    0    0 -0.27429649736E+02  0.20184168295E+02 -0.12817346931E+03  0.13262060386E+03  0.00000000000E+00 0.  1.
          5    1    4    4  501    0  0.37767241588E+02  0.45769529503E+02  0.15620987052E+03  0.16715325428E+03  0.41800000000E+01 0.  1.
         -5    1    4    4    0  501 -0.48062555883E+01  0.19489410086E+02 -0.22190652030E+02  0.30213153357E+02  0.41800000000E+01 0.  1.
</event>
<event>
11    1  0.8299058E-009  0.1406747E+03  0.7561462E-02  0.1106807E+00
         22   -1    0    0    0    0  0.00000000000E+00  0.00000000000E+00  0.12146899702E+03  0.12146899702E+03  0.00000000000E+00 0. -1.
         22   -1    0    0    0    0 -0.00000000000E+00 -0.00000000000E+00 -0.13231207898E+04  0.13231207898E+04  0.00000000000E+00 0.  1.
        -24    2    1    2    0    0 -0.73573928574E+02  0.16997695008E+02 -0.96086754586E+03  0.96714865646E+03  0.80050224264E+02 0.  0.
         25    2    1    2    0    0  0.20216863032E+02 -0.94936121302E+01 -0.32611476479E+03  0.34999871760E+03  0.12509761103E+03 0.  0.
         24    2    1    2    0    0  0.53357065542E+02 -0.75040828780E+01  0.85330517888E+02  0.12744241274E+03  0.77826625126E+02 0.  0.
        -11    1    5    5    0    0  0.20355582404E+02  0.13542971097E+02 -0.84123917116E+01  0.25855949711E+02  0.00000000000E+00 0.  1.
         12    1    5    5    0    0  0.33001483138E+02 -0.21047053975E+02  0.93742909600E+02  0.10158646303E+03  0.00000000000E+00 0. -1.
         11    1    3    3    0    0 -0.29945599346E+02  0.32411629432E+02 -0.19703666827E+03  0.20191756062E+03  0.00000000000E+00 0. -1.
        -12    1    3    3    0    0 -0.43628329228E+02 -0.15413934423E+02 -0.76383087759E+03  0.76523109585E+03  0.00000000000E+00 0.  1.
          5    1    4    4  501    0 -0.33541963986E+02  0.23087541923E+02 -0.23906012246E+03  0.24253930092E+03  0.41800000000E+01 0. -1.
         -5    1    4    4    0  501  0.53758827019E+02 -0.32581154053E+02 -0.87054642335E+02  0.10745941668E+03  0.41800000000E+01 0. -1.
</event>
<event>
11    1  0.8299058E-009  0.1669135E+03  0.7561462E-02  0.1080749E+00
         22   -1    0    0    0    0  0.00000000000E+00  0.00000000000E+00  0.28221486254E+04  0.28221486254E+04  0.00000000000E+00 0. -1.
         22   -1    0    0    0    0 -0.00000000000E+00 -0.00000000000E+00 -0.22655961424E+03  0.22655961424E+03  0.00000000000E+00 0.  1.
         24    2    1    2    0    0  0.15315344579E+02  0.10574102956E+03 -0.16527290707E+03  0.21272695825E+03  0.80758280354E+02 0.  0.
         25    2    1    2    0    0 -0.47213055363E+02 -0.14644455100E+03  0.23151036774E+03  0.30482734522E+03  0.12509029103E+03 0.  0.
        -24    2    1    2    0    0  0.31897710784E+02  0.40703521441E+02  0.25293515505E+04  0.25311539362E+04  0.80291606224E+02 0.  0.
        -13    1    3    3    0    0 -0.17156646700E+02  0.33698817910E+02 -0.10993052929E+03  0.11625266502E+03  0.00000000000E+00 0.  1.
         14    1    3    3    0    0  0.32471991279E+02  0.72042211647E+02 -0.55342377779E+02  0.96474293233E+02  0.00000000000E+00 0. -1.
         13    1    5    5    0    0  0.54972967811E+02  0.15690391400E+02  0.19217214040E+04  0.19225715514E+04  0.00000000000E+00 0. -1.
        -14    1    5    5    0    0 -0.23075257027E+02  0.25013130041E+02  0.60763014645E+03  0.60858238476E+03  0.00000000000E+00 0.  1.
          5    1    4    4  501    0 -0.13494602621E+02 -0.15605779822E+03  0.15424224027E+03  0.21987333119E+03  0.41800000000E+01 0. -1.
         -5    1    4    4    0  501 -0.33718452743E+02  0.96132472203E+01  0.77268127468E+02  0.84954014030E+02  0.41800000000E+01 0. -1.
</event>
<event>
11    1  0.8508615E-009  0.1567645E+03  0.7561462E-02  0.1090161E+00
         22   -1    0    0    0    0  0.00000000000E+00  0.00000000000E+00  0.36745361676E+03  0.36745361676E+03  0.00000000000E+00 0. -1.
         22   -1    0    0    0    0 -0.00000000000E+00 -0.00000000000E+00 -0.16992368036E+04  0.16992368036E+04  0.00000000000E+00 0.  1.
         24    2    1    2    0    0  0.94769474881E+02 -0.16998917952E+02 -0.13348449411E+04  0.13407728090E+04  0.81181846539E+02 0.  0.
         25    2    1    2    0    0 -0.90780621975E+02 -0.60625726326E+02 -0.33284746001E+03  0.37195580861E+03  0.12508833640E+03 0.  0.
        -24    2    1    2    0    0 -0.39888529062E+01  0.77624644278E+02  0.33590921428E+03  0.35396180266E+03  0.80077844351E+02 0.  0.
        -11    1    3    3    0    0  0.32446326097E+02  0.21668677595E+02 -0.21378345214E+03  0.21731465683E+03  0.00000000000E+00 0.  1.
         12    1    3    3    0    0  0.62323148784E+02 -0.38667595546E+02 -0.11210614889E+04  0.11234581522E+04  0.00000000000E+00 0. -1.
         13    1    5    5    0    0 -0.16329548276E+02  0.26207161804E+02  0.25776787581E+03  0.25961076109E+03  0.00000000000E+00 0. -1.
        -14    1    5    5    0    0  0.12340695369E+02  0.51417482474E+02  0.78141338471E+02  0.94351041564E+02  0.00000000000E+00 0.  1.
          5    1    4    4  501    0 -0.11895918324E+03 -0.62863859868E+02 -0.29723761235E+03  0.32629867108E+03  0.41800000000E+01 0.  1.
         -5    1    4    4    0  501  0.28178561266E+02  0.22381335419E+01 -0.35609847669E+02  0.45657137534E+02  0.41800000000E+01 0.  1.
</event>
<event>
11    1  0.8299058E-009  0.1300219E+03  0.7561462E-02  0.1119242E+00
         22   -1    0    0    0    0  0.00000000000E+00  0.00000000000E+00  0.15431993006E+04  0.15431993006E+04  0.00000000000E+00 0.  1.
         22   -1    0    0    0    0 -0.00000000000E+00 -0.00000000000E+00 -0.42488187986E+03  0.42488187986E+03  0.00000000000E+00 0. -1.
         24    2    1    2    0    0 -0.30191015178E+02  0.18813632275E+02 -0.41248928474E+03  0.42156137885E+03  0.79379694889E+02 0.  0.
         25    2    1    2    0    0  0.32382044383E+02 -0.24885656706E+01  0.72805121739E+03  0.73942989653E+03  0.12507280673E+03 0.  0.
        -24    2    1    2    0    0 -0.21910292049E+01 -0.16325066604E+02  0.80275548807E+03  0.80708990504E+03  0.81892812828E+02 0.  0.
        -11    1    3    3    0    0  0.23458394184E+02 -0.90513255402E+01 -0.15813278043E+03  0.16011932737E+03  0.00000000000E+00 0.  1.
         12    1    3    3    0    0 -0.53649409363E+02  0.27864957815E+02 -0.25435650431E+03  0.26144205148E+03  0.00000000000E+00 0. -1.
         13    1    5    5    0    0  0.37549842811E+02  0.38120275829E+01  0.30014480722E+03  0.30250855782E+03  0.00000000000E+00 0. -1.
        -14    1    5    5    0    0 -0.39740872015E+02 -0.20137094187E+02  0.50261068084E+03  0.50458134723E+03  0.00000000000E+00 0.  1.
          5    1    4    4  501    0  0.19159299121E+02  0.58961330687E+02  0.45394767291E+03  0.45818061876E+03  0.41800000000E+01 0. -1.
         -5    1    4    4    0  501  0.13222745262E+02 -0.61449896357E+02  0.27410354447E+03  0.28124927777E+03  0.41800000000E+01 0. -1.
</event>
<event>
11    1  0.8299058E-009  0.1371113E+03  0.7561462E-02  0.1110828E+00
         22   -1    0    0    0    0  0.00000000000E+00  0.00000000000E+00  0.38283852300E+03  0.38283852300E+03  0.00000000000E+00 0. -1.
         22   -1    0    0    0    0 -0.00000000000E+00 -0.00000000000E+00 -0.19624660243E+04  0.19624660243E+04  0.00000000000E+00 0. -1.
        -24    2    1    2    0    0  0.52373941583E+02 -0.16198875648E+02 -0.17979825019E+04  0.18005827854E+04  0.79698534386E+02 0.  0.
         25    2    1    2    0    0 -0.94026783491E+02  0.21608726979E+02 -0.11752998610E+03  0.19690000505E+03  0.12509333021E+03 0.  0.
         24    2    1    2    0    0  0.41652841908E+02 -0.54098513309E+01  0.33588498675E+03  0.34782175685E+03  0.79981400885E+02 0.  0.
        -11    1    5    5    0    0  0.33859214056E+02  0.33484998840E+02  0.22687037776E+03  0.23181427874E+03  0.00000000000E+00 0.  1.
         12    1    5    5    0    0  0.77936278522E+01 -0.38894850171E+02  0.10901460899E+03  0.11600747811E+03  0.00000000000E+00 0. -1.
         11    1    3    3    0    0  0.58266745201E+02 -0.16759417774E+01 -0.68095646968E+03  0.68344680552E+03  0.00000000000E+00 0. -1.
        -12    1    3    3    0    0 -0.58928036185E+01 -0.14522933871E+02 -0.11170260322E+04  0.11171359798E+04  0.00000000000E+00 0.  1.
          5    1    4    4  501    0 -0.92373512995E+01 -0.41893889570E+02 -0.68617715395E+01  0.43646110376E+02  0.41800000000E+01 0. -1.
         -5    1    4    4    0  501 -0.84789432191E+02  0.63502616549E+02 -0.11066821456E+03  0.15325389468E+03  0.41800000000E+01 0. -1.
</event>
<event>
11    1  0.8299058E-009  0.1403788E+03  0.7561462E-02  0.1107136E+00
         22   -1    0    0    0    0  0.00000000000E+00  0.00000000000E+00  0.13636649683E+03  0.13636649683E+03  0.00000000000E+00 0. -1.
         22   -1    0    0    0    0 -0.00000000000E+00 -0.00000000000E+00 -0.32578979136E+03  0.32578979136E+03  0.00000000000E+00 0. -1.
         24    2    1    2    0    0  0.76453691257E+02 -0.23542259878E+01 -0.19985675930E+03  0.22751487345E+03  0.77263083782E+02 0.  0.
         25    2    1    2    0    0 -0.12444632898E+02 -0.12232928813E+02 -0.16140327469E+02  0.12732964712E+03  0.12509122843E+03 0.  0.
        -24    2    1    2    0    0 -0.64009058359E+02  0.14587154801E+02  0.26573792238E+02  0.10731176762E+03  0.80620744224E+02 0.  0.
        -13    1    3    3    0    0  0.22096152243E+02 -0.31556256362E+02 -0.37221982746E+02  0.53567837916E+02  0.00000000000E+00 0.  1.
         14    1    3    3    0    0  0.54357539015E+02  0.29202030374E+02 -0.16263477655E+03  0.17394703553E+03  0.00000000000E+00 0. -1.
         13    1    5    5    0    0 -0.25799504373E+02 -0.12467904544E+01  0.52491116703E+02  0.58502019154E+02  0.00000000000E+00 0. -1.
        -14    1    5    5    0    0 -0.38209553986E+02  0.15833945255E+02 -0.25917324465E+02  0.48809748469E+02  0.00000000000E+00 0.  1.
          5    1    4    4  501    0  0.22171098474E+02  0.68970975729E+01  0.47068440947E+02  0.52650148106E+02  0.41800000000E+01 0. -1.
         -5    1    4    4    0  501 -0.34615731372E+02 -0.19130026386E+02 -0.63208768416E+02  0.74679499011E+02  0.41800000000E+01 0. -1.
</event>
<event>
11    1  0.8299058E-009  0.3900366E+03  0.7561462E-02  0.9679622E-01
         22   -1    0    0    0    0  0.00000000000E+00  0.00000000000E+00  0.23747140688E+04  0.23747140688E+04  0.00000000000E+00 0.  1.
         22   -1    0    0    0    0 -0.00000000000E+00 -0.00000000000E+00 -0.30543103432E+03  0.30543103432E+03  0.00000000000E+00 0. -1.
        -24    2    1    2    0    0  0.61692722803E+01 -0.10751563239E+03 -0.11530101183E+03  0.17659564802E+03  0.79334913146E+02 0.  0.
         25    2    1    2    0    0 -0.32625956976E+03  0.27910244841E+03  0.20964394069E+03  0.49390400620E+03  0.12508837640E+03 0.  0.
         24    2    1    2    0    0  0.32009029748E+03 -0.17158681602E+03  0.19749401056E+04  0.20096454489E+04  0.79916052614E+02 0.  0.
        -11    1    5    5    0    0  0.30359191585E+03 -0.17037650801E+03  0.19399801694E+04  0.19709691179E+04  0.00000000000E+00 0.  1.
         12    1    5    5    0    0  0.16498381623E+02 -0.12103080154E+01  0.34959936196E+02  0.38676331011E+02  0.00000000000E+00 0. -1.
         13    1    3    3    0    0  0.19090097368E+02 -0.55731916735E+02 -0.10760041628E+03  0.12267162648E+03  0.00000000000E+00 0. -1.
        -14    1    3    3    0    0 -0.12920825087E+02 -0.51783715650E+02 -0.77005955546E+01  0.53924021543E+02  0.00000000000E+00 0.  1.
          5    1    4    4  501    0 -0.32882556510E+02  0.90760063539E+02  0.64905678866E+02  0.11639961858E+03  0.41800000000E+01 0. -1.
         -5    1    4    4    0  501 -0.29337701325E+03  0.18834238487E+03  0.14473826182E+03  0.37750438762E+03  0.41800000000E+01 0. -1.
</event>
<event>
11    1  0.8299058E-009  0.1440602E+03  0.7561462E-02  0.1103107E+00
         22   -1    0    0    0    0  0.00000000000E+00  0.00000000000E+00  0.18590571859E+03  0.18590571859E+03  0.00000000000E+00 0.  1.
         22   -1    0    0    0    0 -0.00000000000E+00 -0.00000000000E+00 -0.87627117921E+03  0.87627117921E+03  0.00000000000E+00 0.  1.
         24    2    1    2    0    0 -0.48097827164E+02 -0.49985525507E+02 -0.71402046888E+03  0.72196107705E+03  0.81182590899E+02 0.  0.
         25    2    1    2    0    0  0.39188283870E+02  0.93833216642E+02 -0.97018974801E+02  0.18814605884E+03  0.12508342755E+03 0.  0.
        -24    2    1    2    0    0  0.89095432936E+01 -0.43847691135E+02  0.12067398305E+03  0.15206976191E+03  0.81000014322E+02 0.  0.
        -11    1    3    3    0    0 -0.50632460049E+02 -0.41346720544E+02 -0.70826579507E+03  0.71127606017E+03  0.00000000000E+00 0.  1.
         12    1    3    3    0    0  0.25346328849E+01 -0.86388049628E+01 -0.57546738049E+01  0.10685016876E+02  0.00000000000E+00 0. -1.
         11    1    5    5    0    0  0.29020033137E+02  0.22018796229E+01  0.10433478777E+02  0.30917116239E+02  0.00000000000E+00 0. -1.
        -12    1    5    5    0    0 -0.20110489843E+02 -0.46049570758E+02  0.11024050428E+03  0.12115264567E+03  0.00000000000E+00 0.  1.
          5    1    4    4  501    0  0.77499752281E+01  0.10903737997E+02 -0.98355429315E+02  0.99348963226E+02  0.41800000000E+01 0. -1.
         -5    1    4    4    0  501  0.31438308642E+02  0.82929478645E+02  0.13364545147E+01  0.88797095613E+02  0.41800000000E+01 0. -1.
</event>
<event>
11    1  0.8299058E-009  0.6632855E+03  0.7561462E-02  0.9088229E-01
         22   -1    0    0    0    0  0.00000000000E+00  0.00000000000E+00  0.82530168974E+03  0.82530168974E+03  0.00000000000E+00 0.  1.
         22   -1    0    0    0    0 -0.00000000000E+00 -0.00000000000E+00 -0.79992839333E+03  0.79992839333E+03  0.00000000000E+00 0.  1.
        -24    2    1    2    0    0 -0.57774221113E+03  0.26298316884E+03 -0.31848393102E+03  0.71477679140E+03  0.80793796729E+02 0.  0.
         25    2    1    2    0    0  0.66219058249E+03 -0.21334375241E+03  0.23604511931E+03  0.74523582041E+03  0.12508879022E+03 0.  0.
         24    2    1    2    0    0 -0.84448371360E+02 -0.49639416431E+02  0.10781210811E+03  0.16521747127E+03  0.77960009411E+02 0.  0.
        -13    1    5    5    0    0 -0.91959650006E+02 -0.45551586412E+02  0.64813515627E+02  0.12137675256E+03  0.00000000000E+00 0.  1.
         14    1    5    5    0    0  0.75112786454E+01 -0.40878300190E+01  0.42998592485E+02  0.43840718709E+02  0.00000000000E+00 0. -1.
         11    1    3    3    0    0 -0.24921804889E+03  0.88360482002E+02 -0.16904365260E+03  0.31383589208E+03  0.00000000000E+00 0. -1.
        -12    1    3    3    0    0 -0.32852416224E+03  0.17462268684E+03 -0.14944027842E+03  0.40094089932E+03  0.00000000000E+00 0.  1.
          5    1    4    4  501    0  0.19199671098E+03 -0.11849751963E+03  0.52877840749E+02  0.23177130458E+03  0.41800000000E+01 0.  1.
         -5    1    4    4    0  501  0.47019387151E+03 -0.94846232783E+02  0.18316727856E+03  0.51346451583E+03  0.41800000000E+01 0.  1.
</event>
<event>
11    1  0.8299058E-009  0.1318479E+03  0.7561462E-02  0.1117019E+00
         22   -1    0    0    0    0  0.00000000000E+00  0.00000000000E+00  0.24335857315E+03  0.24335857315E+03  0.00000000000E+00 0. -1.
         22   -1    0    0    0    0 -0.00000000000E+00 -0.00000000000E+00 -0.10536521159E+04  0.10536521159E+04  0.00000000000E+00 0.  1.
         24    2    1    2    0    0 -0.41007450156E+02 -0.46607967666E+01 -0.82143970293E+03  0.82630129355E+03  0.79418563143E+02 0.  0.
         25    2    1    2    0    0  0.45801531630E+02 -0.60206639403E+01 -0.20207651478E+03  0.24210757713E+03  0.12508849822E+03 0.  0.
        -24    2    1    2    0    0 -0.47940814732E+01  0.10681460707E+02  0.21322267498E+03  0.22860181834E+03  0.81595376096E+02 0.  0.
        -13    1    3    3    0    0 -0.44333228582E+02 -0.17143132840E+02 -0.79897281006E+03  0.80038545300E+03  0.00000000000E+00 0.  1.
         14    1    3    3    0    0  0.33257784255E+01  0.12482336073E+02 -0.22466892876E+02  0.25915840551E+02  0.00000000000E+00 0. -1.
         13    1    5    5    0    0  0.71597732464E+01  0.42487760095E+02  0.15794136380E+03  0.16371300043E+03  0.00000000000E+00 0. -1.
        -14    1    5    5    0    0 -0.11953854720E+02 -0.31806299388E+02  0.55281311189E+02  0.64888817913E+02  0.00000000000E+00 0.  1.
          5    1    4    4  501    0  0.83980139156E+02  0.66637409963E+01 -0.17244338007E+03  0.19196682251E+03  0.41800000000E+01 0. -1.
         -5    1    4    4    0  501 -0.38178607527E+02 -0.12684404937E+02 -0.29633134708E+02  0.50140754620E+02  0.41800000000E+01 0. -1.
</event>
<event>
11    1  0.8299058E-009  0.1426049E+03  0.7561462E-02  0.1104684E+00
         22   -1    0    0    0    0  0.00000000000E+00  0.00000000000E+00  0.10836597822E+04  0.10836597822E+04  0.00000000000E+00 0. -1.
         22   -1    0    0    0    0 -0.00000000000E+00 -0.00000000000E+00 -0.42535696201E+03  0.42535696201E+03  0.00000000000E+00 0. -1.
        -24    2    1    2    0    0 -0.27310920467E+02  0.66452591828E+02 -0.30572098777E+03  0.32434924609E+03  0.81088086278E+02 0.  0.
         25    2    1    2    0    0  0.26114467543E+01 -0.55534570664E+02 -0.65408493113E+02  0.15171558411E+03  0.12509372205E+03 0.  0.
         24    2    1    2    0    0  0.24699473713E+02 -0.10918021164E+02  0.10294323011E+04  0.10329519140E+04  0.80805488720E+02 0.  0.
        -11    1    5    5    0    0  0.34046048091E+02  0.41643420361E+01  0.17469089586E+03  0.17802635825E+03  0.00000000000E+00 0.  1.
         12    1    5    5    0    0 -0.93465743787E+01 -0.15082363200E+02  0.85474140519E+03  0.85492555576E+03  0.00000000000E+00 0. -1.
         13    1    3    3    0    0  0.75367860931E+01  0.25399203381E+02 -0.22950561762E+03  0.23102976258E+03  0.00000000000E+00 0. -1.
        -14    1    3    3    0    0 -0.34847706560E+02  0.41053388447E+02 -0.76215370152E+02  0.93319483511E+02  0.00000000000E+00 0.  1.
          5    1    4    4  501    0  0.93973715560E+01 -0.72710927214E+02 -0.92847086287E+02  0.11837754585E+03  0.41800000000E+01 0. -1.
         -5    1    4    4    0  501 -0.67859248017E+01  0.17176356550E+02  0.27438593173E+02  0.33338038261E+02  0.41800000000E+01 0. -1.
</event>
<event>
11    1  0.8299058E-009  0.1532517E+03  0.7561462E-02  0.1093602E+00
         22   -1    0    0    0    0  0.00000000000E+00  0.00000000000E+00  0.25020132630E+03  0.25020132630E+03  0.00000000000E+00 0. -1.
         22   -1    0    0    0    0 -0.00000000000E+00 -0.00000000000E+00 -0.12256412684E+04  0.12256412684E+04  0.00000000000E+00 0. -1.
        -24    2    1    2    0    0 -0.72903497419E+02  0.51071127103E+02 -0.89778577296E+03  0.90574172731E+03  0.80159855933E+02 0.  0.
         25    2    1    2    0    0  0.10233258512E+03  0.18160716223E+01 -0.29177990156E+03  0.33355308247E+03  0.12508753646E+03 0.  0.
         24    2    1    2    0    0 -0.29429087702E+02 -0.52887198725E+02  0.21412573243E+03  0.23654778490E+03  0.80261436935E+02 0.  0.
        -11    1    5    5    0    0 -0.14931020622E+02  0.85463867905E+01  0.47259699849E+01  0.17841269469E+02  0.00000000000E+00 0.  1.
         12    1    5    5    0    0 -0.14498067080E+02 -0.61433585515E+02  0.20939976245E+03  0.21870651543E+03  0.00000000000E+00 0. -1.
         11    1    3    3    0    0 -0.64497655913E+02  0.53025724501E+02 -0.89061743504E+03  0.89452282848E+03  0.00000000000E+00 0. -1.
        -12    1    3    3    0    0 -0.84058415063E+01 -0.19545973988E+01 -0.71683379213E+01  0.11218898831E+02  0.00000000000E+00 0.  1.
          5    1    4    4  501    0  0.23955232188E+02 -0.58031019061E+02 -0.11298355093E+03  0.12932210755E+03  0.41800000000E+01 0.  1.
         -5    1    4    4    0  501  0.78377352933E+02  0.59847090683E+02 -0.17879635063E+03  0.20423097492E+03  0.41800000000E+01 0.  1.
</event>
<event>
11    1  0.8299058E-009  0.2270805E+03  0.7561462E-02  0.1036871E+00
         22   -1    0    0    0    0  0.00000000000E+00  0.00000000000E+00  0.14413975435E+04  0.14413975435E+04  0.00000000000E+00 0. -1.
         22   -1    0    0    0    0 -0.00000000000E+00 -0.00000000000E+00 -0.12905125880E+03  0.12905125880E+03  0.00000000000E+00 0. -1.
         24    2    1    2    0    0  0.14767487952E+03  0.12826356791E+03 -0.31673653612E+01  0.21267644026E+03  0.83437540359E+02 0.  0.
         25    2    1    2    0    0 -0.12067439174E+03 -0.10188477190E+03  0.52608853147E+03  0.56334601232E+03  0.12508705407E+03 0.  0.
        -24    2    1    2    0    0 -0.27000487779E+02 -0.26378796017E+02  0.78942511864E+03  0.79442634977E+03  0.80599876228E+02 0.  0.
        -13    1    3    3    0    0 -0.47116265367E+01 -0.56636636541E+01  0.61369669527E+01  0.95884761034E+01  0.00000000000E+00 0.  1.
         14    1    3    3    0    0  0.15238650606E+03  0.13392723157E+03 -0.93043323139E+01  0.20308796415E+03  0.00000000000E+00 0. -1.
         13    1    5    5    0    0 -0.16341341210E+02  0.25881093083E+02  0.42725503247E+03  0.42835001247E+03  0.00000000000E+00 0. -1.
        -14    1    5    5    0    0 -0.10659146569E+02 -0.52259889099E+02  0.36217008617E+03  0.36607633730E+03  0.00000000000E+00 0.  1.
          5    1    4    4  501    0 -0.17468164673E+02 -0.94110918001E+02  0.21269741071E+03  0.23328022331E+03  0.41800000000E+01 0. -1.
         -5    1    4    4    0  501 -0.10320622707E+03 -0.77738538954E+01  0.31339112075E+03  0.33006578901E+03  0.41800000000E+01 0. -1.
</event>
<event>
11    1  0.8299058E-009  0.1331925E+03  0.7561462E-02  0.1115407E+00
         22   -1    0    0    0    0  0.00000000000E+00  0.00000000000E+00  0.81978212556E+02  0.81978212556E+02  0.00000000000E+00 0.  1.
         22   -1    0    0    0    0 -0.00000000000E+00 -0.00000000000E+00 -0.80448365693E+03  0.80448365693E+03  0.00000000000E+00 0. -1.
         24    2    1    2    0    0  0.36030979277E+02  0.27183201227E+02 -0.42646796386E+03  0.43657179881E+03  0.81748721232E+02 0.  0.
         25    2    1    2    0    0 -0.86122207335E+01 -0.58873065907E+02 -0.32643580541E+03  0.35460971878E+03  0.12509000505E+03 0.  0.
        -24    2    1    2    0    0 -0.27418758544E+02  0.31689864681E+02  0.30398324889E+02  0.95280351901E+02  0.79989070870E+02 0.  0.
        -13    1    3    3    0    0  0.54323412395E+01  0.11475095637E+02 -0.49089746430E+01  0.13611986750E+02  0.00000000000E+00 0.  1.
         14    1    3    3    0    0  0.30598638037E+02  0.15708105590E+02 -0.42155898922E+03  0.42295981206E+03  0.00000000000E+00 0. -1.
         13    1    5    5    0    0  0.22233910268E+02  0.31164048829E+02  0.25936037483E+01  0.38370190065E+02  0.00000000000E+00 0. -1.
        -14    1    5    5    0    0 -0.49652668812E+02  0.52581585179E+00  0.27804721140E+02  0.56910161835E+02  0.00000000000E+00 0.  1.
          5    1    4    4  501    0 -0.55559234850E+02  0.80949988452E+01 -0.12116980192E+03  0.13361119295E+03  0.41800000000E+01 0.  1.
         -5    1    4    4    0  501  0.46947014117E+02 -0.66968064753E+02 -0.20526600348E+03  0.22099852583E+03  0.41800000000E+01 0.  1.
</event>
<event>
11    1  0.8299058E-009  0.1888841E+03  0.7561462E-02  0.1062675E+00
         22   -1    0    0    0    0  0.00000000000E+00  0.00000000000E+00  0.63856810517E+03  0.63856810517E+03  0.00000000000E+00 0.  1.
         22   -1    0    0    0    0 -0.00000000000E+00 -0.00000000000E+00 -0.33832749673E+03  0.33832749673E+03  0.00000000000E+00 0.  1.
         24    2    1    2    0    0  0.27609308548E+02  0.13651106470E+03 -0.27171725193E+03  0.31488245900E+03  0.76962024946E+02 0.  0.
         25    2    1    2    0    0 -0.88104582537E+02 -0.16818210447E+03  0.36319649859E+03  0.42849355374E+03  0.12508953307E+03 0.  0.
        -24    2    1    2    0    0  0.60495273989E+02  0.31671039768E+02  0.20876136178E+03  0.23351958915E+03  0.79292871104E+02 0.  0.
        -13    1    3    3    0    0  0.43444116126E+02  0.13319778096E+03 -0.22118806178E+03  0.26182665784E+03  0.00000000000E+00 0.  1.
         14    1    3    3    0    0 -0.15834807578E+02  0.33132837478E+01 -0.50529190151E+02  0.53055801167E+02  0.00000000000E+00 0. -1.
         11    1    5    5    0    0  0.54046345623E+02 -0.11075832964E+02  0.15504443997E+03  0.16456749350E+03  0.00000000000E+00 0. -1.
        -12    1    5    5    0    0  0.64489283666E+01  0.42746872732E+02  0.53716921812E+02  0.68952095649E+02  0.00000000000E+00 0.  1.
          5    1    4    4  501    0 -0.22397193576E+02 -0.14136663457E+03  0.16793982513E+03  0.22069756890E+03  0.41800000000E+01 0.  1.
         -5    1    4    4    0  501 -0.65707388961E+02 -0.26815469900E+02  0.19525667346E+03  0.20779598485E+03  0.41800000000E+01 0.  1.
</event>
<event>
11    1  0.8299058E-009  0.1451150E+03  0.7561462E-02  0.1101977E+00
         22   -1    0    0    0    0  0.00000000000E+00  0.00000000000E+00  0.16577085752E+04  0.16577085752E+04  0.00000000000E+00 0. -1.
         22   -1    0    0    0    0 -0.00000000000E+00 -0.00000000000E+00 -0.38816881817E+03  0.38816881817E+03  0.00000000000E+00 0. -1.
        -24    2    1    2    0    0 -0.50020107829E+02  0.54193904961E+01 -0.35607541091E+03  0.36853861668E+03  0.80620299859E+02 0.  0.
         25    2    1    2    0    0  0.62388436191E+02  0.66720128756E+02  0.22875104751E+03  0.27625760132E+03  0.12508928011E+03 0.  0.
         24    2    1    2    0    0 -0.12368328362E+02 -0.72139519252E+02  0.13968641204E+04  0.14010811753E+04  0.80262090930E+02 0.  0.
        -13    1    5    5    0    0 -0.33161141155E+02 -0.28187745338E+02  0.30007011661E+03  0.30320996875E+03  0.00000000000E+00 0.  1.
         14    1    5    5    0    0  0.20792812793E+02 -0.43951773914E+02  0.10967940038E+04  0.10978712066E+04  0.00000000000E+00 0. -1.
         11    1    3    3    0    0 -0.72074514272E+02  0.36475723879E+01 -0.29056228172E+03  0.29939018012E+03  0.00000000000E+00 0. -1.
        -12    1    3    3    0    0  0.22054406443E+02  0.17718181083E+01 -0.65513129189E+02  0.69148436563E+02  0.00000000000E+00 0.  1.
          5    1    4    4  501    0 -0.38386857943E+02  0.22934430334E+02  0.64152025572E+02  0.78310240342E+02  0.41800000000E+01 0. -1.
         -5    1    4    4    0  501  0.10077529413E+03  0.43785698422E+02  0.16459902194E+03  0.19794736098E+03  0.41800000000E+01 0. -1.
</event>
<event>
11    1  0.8299058E-009  0.1732375E+03  0.7561462E-02  0.1075248E+00
         22   -1    0    0    0    0  0.00000000000E+00  0.00000000000E+00  0.68517351519E+03  0.68517351519E+03  0.00000000000E+00 0. -1.
         22   -1    0    0    0    0 -0.00000000000E+00 -0.00000000000E+00 -0.16050355874E+04  0.16050355874E+04  0.00000000000E+00 0. -1.
         24    2    1    2    0    0 -0.30615845961E+02 -0.40939047512E+02 -0.14597707817E+04  0.14628680854E+04  0.80243160502E+02 0.  0.
         25    2    1    2    0    0  0.65183074229E+02  0.15273937103E+03 -0.55415437525E+02  0.21516576500E+03  0.12508911657E+03 0.  0.
        -24    2    1    2    0    0 -0.34567228268E+02 -0.11180032352E+03  0.59532414696E+03  0.61217525216E+03  0.81568951142E+02 0.  0.
        -11    1    3    3    0    0  0.14762489944E+02 -0.58869253731E+01 -0.64842135972E+02  0.66761437950E+02  0.00000000000E+00 0.  1.
         12    1    3    3    0    0 -0.45378335905E+02 -0.35052122139E+02 -0.13949286457E+04  0.13961066475E+04  0.00000000000E+00 0. -1.
         13    1    5    5    0    0 -0.82494424722E+01 -0.11492130898E+03  0.45431471886E+03  0.46869694295E+03  0.00000000000E+00 0. -1.
        -14    1    5    5    0    0 -0.26317785796E+02  0.31209854608E+01  0.14100942810E+03  0.14347830920E+03  0.00000000000E+00 0.  1.
          5    1    4    4  501    0  0.61289037110E+02  0.64549363047E+02  0.28239281820E+02  0.93476712487E+02  0.41800000000E+01 0.  1.
         -5    1    4    4    0  501  0.38940371188E+01  0.88190007985E+02 -0.83654719345E+02  0.12168905252E+03  0.41800000000E+01 0.  1.
</event>
<event>
11    1  0.8299058E-009  0.1393124E+03  0.7561462E-02  0.1108329E+00
         22   -1    0    0    0    0  0.00000000000E+00  0.00000000000E+00  0.88000373134E+03  0.88000373134E+03  0.00000000000E+00 0. -1.
         22   -1    0    0    0    0 -0.00000000000E+00 -0.00000000000E+00 -0.50970060072E+03  0.50970060072E+03  0.00000000000E+00 0.  1.
        -24    2    1    2    0    0 -0.60369455218E+02  0.51910673108E+01 -0.45203150956E+03  0.46302855371E+03  0.79947092572E+02 0.  0.
         25    2    1    2    0    0  0.72692667144E+02 -0.49732496475E+02  0.69082990760E+02  0.16785657010E+03  0.12508326607E+03 0.  0.
         24    2    1    2    0    0 -0.12323211927E+02  0.44541429164E+02  0.75325164942E+03  0.75881920827E+03  0.79263756029E+02 0.  0.
        -11    1    5    5    0    0 -0.84851767664E+00  0.30300460732E+02  0.83733462352E+02  0.89051280845E+02  0.00000000000E+00 0.  1.
         12    1    5    5    0    0 -0.11474694250E+02  0.14240968433E+02  0.66951818707E+03  0.66976792742E+03  0.00000000000E+00 0. -1.
         11    1    3    3    0    0  0.61177366875E+01 -0.25986753706E+01 -0.61462268246E+00  0.66751462082E+01  0.00000000000E+00 0. -1.
        -12    1    3    3    0    0 -0.66487191905E+02  0.77897426814E+01 -0.45141688688E+03  0.45635340750E+03  0.00000000000E+00 0.  1.
          5    1    4    4  501    0 -0.33300505023E+01 -0.63004126945E+02  0.64670205374E+02  0.90445105514E+02  0.41800000000E+01 0. -1.
         -5    1    4    4    0  501  0.76022717647E+02  0.13271630470E+02  0.44127853864E+01  0.77411464581E+02  0.41800000000E+01 0. -1.
</event>
<event>
11    1  0.8299058E-009  0.2016362E+03  0.7561462E-02  0.1053373E+00
         22   -1    0    0    0    0  0.00000000000E+00  0.00000000000E+00  0.53964264596E+03  0.53964264596E+03  0.00000000000E+00 0. -1.
         22   -1    0    0    0    0 -0.00000000000E+00 -0.00000000000E+00 -0.49648109783E+03  0.49648109783E+03  0.00000000000E+00 0. -1.
         24    2    1    2    0    0 -0.18918091603E+02 -0.21083023070E+02 -0.27523579454E+03  0.28742591568E+03  0.77823687631E+02 0.  0.
         25    2    1    2    0    0 -0.72914658153E+02  0.14924635723E+03 -0.14448839787E+03  0.25320974279E+03  0.12508898515E+03 0.  0.
        -24    2    1    2    0    0  0.91832749756E+02 -0.12816333416E+03  0.46288574055E+03  0.49548808531E+03  0.79913326382E+02 0.  0.
        -13    1    3    3    0    0  0.41077181911E+01 -0.32776404935E+02 -0.45409594789E+02  0.56153337996E+02  0.00000000000E+00 0.  1.
         14    1    3    3    0    0 -0.23025809794E+02  0.11693381866E+02 -0.22982619975E+03  0.23127257769E+03  0.00000000000E+00 0. -1.
         11    1    5    5    0    0  0.10470744454E+03 -0.11759960591E+03  0.38720119493E+03  0.41799292052E+03  0.00000000000E+00 0. -1.
        -12    1    5    5    0    0 -0.12874694787E+02 -0.10563728257E+02  0.75684545618E+02  0.77495164791E+02  0.00000000000E+00 0.  1.
          5    1    4    4  501    0  0.13867948788E+02  0.90898805831E+02 -0.10907673027E+03  0.14272392369E+03  0.41800000000E+01 0.  1.
         -5    1    4    4    0  501 -0.86782606941E+02  0.58347551402E+02 -0.35411667600E+02  0.11048581911E+03  0.41800000000E+01 0.  1.
</event>
<event>
11    1  0.8299058E-009  0.1752469E+03  0.7561462E-02  0.1073554E+00
         22   -1    0    0    0    0  0.00000000000E+00  0.00000000000E+00  0.69063730715E+02  0.69063730715E+02  0.00000000000E+00 0.  1.
         22   -1    0    0    0    0 -0.00000000000E+00 -0.00000000000E+00 -0.17392436602E+04  0.17392436602E+04  0.00000000000E+00 0.  1.
         24    2    1    2    0    0 -0.11156453621E+03 -0.44010592791E+02 -0.12962170147E+04  0.13041749867E+04  0.79437199444E+02 0.  0.
         25    2    1    2    0    0  0.13074124495E+03  0.44698273123E+02 -0.37780262177E+03  0.42127624489E+03  0.12509054618E+03 0.  0.
        -24    2    1    2    0    0 -0.19176708739E+02 -0.68768033133E+00  0.38397069774E+01  0.82856159355E+02  0.80511991225E+02 0.  0.
        -13    1    3    3    0    0 -0.11535083234E+03 -0.41904253123E+02 -0.12929169054E+04  0.12987285726E+04  0.00000000000E+00 0.  1.
         14    1    3    3    0    0  0.37862961351E+01 -0.21063396688E+01 -0.33001093123E+01  0.54464141135E+01  0.00000000000E+00 0. -1.
         13    1    5    5    0    0 -0.30672799804E+02 -0.46667933767E+01 -0.32262069462E+02  0.44759811597E+02  0.00000000000E+00 0. -1.
        -14    1    5    5    0    0  0.11496091065E+02  0.39791130454E+01  0.36101776439E+02  0.38096347758E+02  0.00000000000E+00 0.  1.
          5    1    4    4  501    0  0.10417064904E+02  0.42956034610E+02 -0.30958680693E+02  0.54126227107E+02  0.41800000000E+01 0. -1.
         -5    1    4    4    0  501  0.12032418004E+03  0.17422385130E+01 -0.34684394108E+03  0.36715001779E+03  0.41800000000E+01 0. -1.
</event>
<event>
11    1  0.8299058E-009  0.1632740E+03  0.7561462E-02  0.1084038E+00
         22   -1    0    0    0    0  0.00000000000E+00  0.00000000000E+00  0.51798234872E+03  0.51798234872E+03  0.00000000000E+00 0. -1.
         22   -1    0    0    0    0 -0.00000000000E+00 -0.00000000000E+00 -0.54434591658E+03  0.54434591658E+03  0.00000000000E+00 0. -1.
         24    2    1    2    0    0  0.85813410952E+02  0.14543804714E+02 -0.47754901271E+03  0.49173858088E+03  0.78602217706E+02 0.  0.
         25    2    1    2    0    0 -0.52916940963E+02  0.92748751169E+02  0.99614492447E+02  0.19228420970E+03  0.12509051407E+03 0.  0.
        -24    2    1    2    0    0 -0.32896469989E+02 -0.10729255588E+03  0.35157095240E+03  0.37830547473E+03  0.83180690951E+02 0.  0.
        -11    1    3    3    0    0  0.32806432595E+02  0.12916790282E+02 -0.51566294154E+02  0.62467497017E+02  0.00000000000E+00 0.  1.
         12    1    3    3    0    0  0.53006978357E+02  0.16270144322E+01 -0.42598271855E+03  0.42927108386E+03  0.00000000000E+00 0. -1.
         11    1    5    5    0    0  0.23673430557E+02 -0.63881373875E+02  0.18320736380E+03  0.19546406164E+03  0.00000000000E+00 0. -1.
        -12    1    5    5    0    0 -0.56569900546E+02 -0.43411182009E+02  0.16836358860E+03  0.18284141308E+03  0.00000000000E+00 0.  1.
          5    1    4    4  501    0  0.39341295483E+02  0.46872177247E+02  0.36004218059E+02  0.71123235642E+02  0.41800000000E+01 0.  1.
         -5    1    4    4    0  501 -0.92258236446E+02  0.45876573923E+02  0.63610274388E+02  0.12116097406E+03  0.41800000000E+01 0.  1.
</event>
<event>
11    1  0.8299058E-009  0.1658607E+03  0.7561462E-02  0.1081691E+00
         22   -1    0    0    0    0  0.00000000000E+00  0.00000000000E+00  0.34876908551E+03  0.34876908551E+03  0.00000000000E+00 0.  1.
         22   -1    0    0    0    0 -0.00000000000E+00 -0.00000000000E+00 -0.93487284813E+03  0.93487284813E+03  0.00000000000E+00 0.  1.
         24    2    1    2    0    0  0.91690606157E+01 -0.66479696413E+02 -0.78559445697E+03  0.79250491086E+03  0.80011006820E+02 0.  0.
         25    2    1    2    0    0 -0.75819735682E+02 -0.26313341918E+02 -0.86810544533E+02  0.17211720491E+03  0.12508891758E+03 0.  0.
        -24    2    1    2    0    0  0.66650675066E+02  0.92793038331E+02  0.28630123888E+03  0.31901981787E+03  0.82172893101E+02 0.  0.
        -11    1    3    3    0    0 -0.33326316998E+02 -0.47099976483E+02 -0.42549000452E+03  0.42938420457E+03  0.00000000000E+00 0.  1.
         12    1    3    3    0    0  0.42495377614E+02 -0.19379719931E+02 -0.36010445245E+03  0.36312070629E+03  0.00000000000E+00 0. -1.
         13    1    5    5    0    0  0.14858311743E+01 -0.97045146103E+01  0.72215578261E+02  0.72879867191E+02  0.00000000000E+00 0. -1.
        -14    1    5    5    0    0  0.65164843892E+02  0.10249755294E+03  0.21408566062E+03  0.24613995068E+03  0.00000000000E+00 0.  1.
          5    1    4    4  501    0 -0.80359161756E+02 -0.59465129992E+02 -0.94392607102E+02  0.13755411022E+03  0.41800000000E+01 0. -1.
         -5    1    4    4    0  501  0.45394260746E+01  0.33151788074E+02  0.75820625686E+01  0.34563094687E+02  0.41800000000E+01 0. -1.
</event>
<event>
11    1  0.8299058E-009  0.1854425E+03  0.7561462E-02  0.1065324E+00
         22   -1    0    0    0    0  0.00000000000E+00  0.00000000000E+00  0.16947809752E+04  0.16947809752E+04  0.00000000000E+00 0.  1.
         22   -1    0    0    0    0 -0.00000000000E+00 -0.00000000000E+00 -0.11507945678E+04  0.11507945678E+04  0.00000000000E+00 0.  1.
        -24    2    1    2    0    0  0.29056954473E+02  0.72306590692E+02 -0.10408905133E+04  0.10465750053E+04  0.76115907271E+02 0.  0.
         25    2    1    2    0    0 -0.12944892796E+03  0.22264974540E+02 -0.23329538307E+02  0.18288020584E+03  0.12509255888E+03 0.  0.
         24    2    1    2    0    0  0.10039197349E+03 -0.94571565232E+02  0.16082064590E+04  0.16161203319E+04  0.80588975539E+02 0.  0.
        -13    1    5    5    0    0  0.88014672931E+02 -0.77310050522E+02  0.89958083532E+03  0.90717644692E+03  0.00000000000E+00 0.  1.
         14    1    5    5    0    0  0.12377300560E+02 -0.17261514710E+02  0.70862562372E+03  0.70894388498E+03  0.00000000000E+00 0. -1.
         13    1    3    3    0    0 -0.10895170877E+02  0.22786584051E+02 -0.65399101683E+03  0.65447855829E+03  0.00000000000E+00 0. -1.
        -14    1    3    3    0    0  0.39952125349E+02  0.49520006641E+02 -0.38689949649E+03  0.39209644701E+03  0.00000000000E+00 0.  1.
          5    1    4    4  501    0 -0.11639345792E+03 -0.32897129596E+02 -0.32481222959E+02  0.12530826160E+03  0.41800000000E+01 0. -1.
         -5    1    4    4    0  501 -0.13055470047E+02  0.55162104136E+02  0.91516846521E+01  0.57571944233E+02  0.41800000000E+01 0. -1.
</event>
<event>
11    1  0.8299058E-009  0.1449489E+03  0.7561462E-02  0.1102155E+00
         22   -1    0    0    0    0  0.00000000000E+00  0.00000000000E+00  0.40882766119E+02  0.40882766119E+02  0.00000000000E+00 0. -1.
         22   -1    0    0    0    0 -0.00000000000E+00 -0.00000000000E+00 -0.14977042155E+04  0.14977042155E+04  0.00000000000E+00 0. -1.
         24    2    1    2    0    0  0.23001279418E+02 -0.62492359729E+02 -0.98285710085E+03  0.98843498443E+03  0.81001752268E+02 0.  0.
         25    2    1    2    0    0 -0.38716124596E+02  0.11235023113E+03 -0.37009402130E+03  0.40833490038E+03  0.12508514512E+03 0.  0.
        -24    2    1    2    0    0  0.15714845179E+02 -0.49857871396E+02 -0.10387032724E+03  0.14181709682E+03  0.81180541821E+02 0.  0.
        -11    1    3    3    0    0 -0.17852834718E+02 -0.47100095381E+02 -0.30132170116E+03  0.30550271731E+03  0.00000000000E+00 0.  1.
         12    1    3    3    0    0  0.40854114136E+02 -0.15392264348E+02 -0.68153539969E+03  0.68293226712E+03  0.00000000000E+00 0. -1.
         11    1    5    5    0    0  0.47203533795E+02 -0.25948312150E+02 -0.41616421673E+02  0.68069193172E+02  0.00000000000E+00 0. -1.
        -12    1    5    5    0    0 -0.31488688617E+02 -0.23909559246E+02 -0.62253905567E+02  0.73747903648E+02  0.00000000000E+00 0.  1.
          5    1    4    4  501    0 -0.21517574336E+02 -0.79538977515E+01 -0.54451929132E+01  0.23945626336E+02  0.41800000000E+01 0. -1.
         -5    1    4    4    0  501 -0.17198550260E+02  0.12030412888E+03 -0.36464882839E+03  0.38438927404E+03  0.41800000000E+01 0. -1.
</event>
<event>
11    1  0.8299058E-009  0.1458272E+03  0.7561462E-02  0.1101220E+00
         22   -1    0    0    0    0  0.00000000000E+00  0.00000000000E+00  0.32654389118E+03  0.32654389118E+03  0.00000000000E+00 0. -1.
         22   -1    0    0    0    0 -0.00000000000E+00 -0.00000000000E+00 -0.57919270705E+03  0.57919270705E+03  0.00000000000E+00 0. -1.
        -24    2    1    2    0    0 -0.72448594239E+02  0.23007372056E+02 -0.50118084664E+03  0.51328575943E+03  0.80634309179E+02 0.  0.
         25    2    1    2    0    0  0.61425391319E+02 -0.10752229194E+02  0.98144735731E+01  0.14011557691E+03  0.12508941550E+03 0.  0.
         24    2    1    2    0    0  0.11023202920E+02 -0.12255142862E+02  0.23871755720E+03  0.25233526189E+03  0.80095647495E+02 0.  0.
        -11    1    5    5    0    0  0.69282280216E+01  0.30573329050E+02  0.51944493008E+02  0.60670908569E+02  0.00000000000E+00 0.  1.
         12    1    5    5    0    0  0.40949748986E+01 -0.42828471912E+02  0.18677306419E+03  0.19166435332E+03  0.00000000000E+00 0. -1.
         13    1    3    3    0    0 -0.69190791697E+02  0.40621101824E+02 -0.47393910090E+03  0.48068254693E+03  0.00000000000E+00 0. -1.
        -14    1    3    3    0    0 -0.32578025418E+01 -0.17613729769E+02 -0.27241745746E+02  0.32603212496E+02  0.00000000000E+00 0.  1.
          5    1    4    4  501    0 -0.19882088127E+02 -0.42320345998E+02  0.22185476969E+02  0.51922797517E+02  0.41800000000E+01 0. -1.
         -5    1    4    4    0  501  0.81307479445E+02  0.31568116804E+02 -0.12371003396E+02  0.88192779395E+02  0.41800000000E+01 0. -1.
</event>
<event>
11    1  0.8299058E-009  0.1336366E+03  0.7561462E-02  0.1114880E+00
         22   -1    0    0    0    0  0.00000000000E+00  0.00000000000E+00  0.72336372741E+03  0.72336372741E+03  0.00000000000E+00 0. -1.
         22   -1    0    0    0    0 -0.00000000000E+00 -0.00000000000E+00 -0.15619757143E+03  0.15619757143E+03  0.00000000000E+00 0. -1.
        -24    2    1    2    0    0 -0.15608806422E+02 -0.40204407622E+02 -0.10109232880E+03  0.13621148526E+03  0.80460428440E+02 0.  0.
         25    2    1    2    0    0  0.53524062081E+02  0.69938456279E+02  0.13769796616E+03  0.20582554022E+03  0.12508880938E+03 0.  0.
         24    2    1    2    0    0 -0.37915255660E+02 -0.29734048656E+02  0.53056051862E+03  0.53752427336E+03  0.71527618911E+02 0.  0.
        -13    1    5    5    0    0 -0.38349725709E+02  0.14205058491E+02  0.20776626616E+03  0.21175293742E+03  0.00000000000E+00 0.  1.
         14    1    5    5    0    0  0.43447004910E+00 -0.43939107148E+02  0.32279425246E+03  0.32577133594E+03  0.00000000000E+00 0. -1.
         13    1    3    3    0    0  0.29443204323E+02 -0.25671098655E+02 -0.68108475684E+02  0.78515425535E+02  0.00000000000E+00 0. -1.
        -14    1    3    3    0    0 -0.45052010744E+02 -0.14533308967E+02 -0.32983853120E+02  0.57696059729E+02  0.00000000000E+00 0.  1.
          5    1    4    4  501    0  0.34787599669E+02  0.60078747181E+01  0.13436896127E+03  0.13899194869E+03  0.41800000000E+01 0.  1.
         -5    1    4    4    0  501  0.18736462413E+02  0.63930581561E+02  0.33290048936E+01  0.66833591524E+02  0.41800000000E+01 0.  1.
</event>
<event>
11    1  0.8299058E-009  0.1365588E+03  0.7561462E-02  0.1111463E+00
         22   -1    0    0    0    0  0.00000000000E+00  0.00000000000E+00  0.25241432547E+03  0.25241432547E+03  0.00000000000E+00 0.  1.
         22   -1    0    0    0    0 -0.00000000000E+00 -0.00000000000E+00 -0.18931866781E+04  0.18931866781E+04  0.00000000000E+00 0.  1.
         24    2    1    2    0    0 -0.22248121416E+02 -0.59815827058E+02 -0.11407040191E+04  0.11452874037E+04  0.80029155797E+02 0.  0.
         25    2    1    2    0    0  0.40864947372E+02  0.15364696386E+02 -0.73522967987E+03  0.74707160890E+03  0.12508912361E+03 0.  0.
        -24    2    1    2    0    0 -0.18616825956E+02  0.44451130672E+02  0.23516134634E+03  0.25324199099E+03  0.80673155158E+02 0.  0.
        -13    1    3    3    0    0  0.18144195381E+02 -0.56439292141E+02 -0.54753922869E+03  0.55073933261E+03  0.00000000000E+00 0.  1.
         14    1    3    3    0    0 -0.40392316797E+02 -0.33765349174E+01 -0.59316479045E+03  0.59454807112E+03  0.00000000000E+00 0. -1.
         13    1    5    5    0    0 -0.12801868112E+02  0.40866244575E+02  0.42076704624E+02  0.60036545910E+02  0.00000000000E+00 0. -1.
        -14    1    5    5    0    0 -0.58149578441E+01  0.35848860965E+01  0.19308464172E+03  0.19320544508E+03  0.00000000000E+00 0.  1.
          5    1    4    4  501    0  0.58798552450E+02  0.59889888487E+02 -0.48996195475E+03  0.49711594022E+03  0.41800000000E+01 0.  1.
         -5    1    4    4    0  501 -0.17933605078E+02 -0.44525192101E+02 -0.24526772511E+03  0.24995566868E+03  0.41800000000E+01 0.  1.
</event>
<event>
11    1  0.8299058E-009  0.1752247E+03  0.7561462E-02  0.1073572E+00
         22   -1    0    0    0    0  0.00000000000E+00  0.00000000000E+00  0.31028453716E+04  0.31028453716E+04  0.00000000000E+00 0. -1.
         22   -1    0    0    0    0 -0.00000000000E+00 -0.00000000000E+00 -0.48436625276E+02  0.48436625276E+02  0.00000000000E+00 0. -1.
        -24    2    1    2    0    0 -0.12552053219E+03  0.20227404471E+02  0.95646390453E+02  0.17827146616E+03  0.80423452728E+02 0.  0.
         25    2    1    2    0    0  0.75752008060E+02 -0.65271731643E+02  0.11156039542E+04  0.11270396119E+04  0.12508932261E+03 0.  0.
         24    2    1    2    0    0  0.49768524128E+02  0.45044327172E+02  0.18431584017E+04  0.18459709188E+04  0.76614892938E+02 0.  0.
        -11    1    5    5    0    0  0.67084747435E+02  0.47040899451E+02  0.13336876430E+04  0.13362020576E+04  0.00000000000E+00 0.  1.
         12    1    5    5    0    0 -0.17316223307E+02 -0.19965722790E+01  0.50947075869E+03  0.50976886120E+03  0.00000000000E+00 0. -1.
         11    1    3    3    0    0 -0.10728427080E+03  0.44327462742E+02  0.91414174495E+02  0.14775449236E+03  0.00000000000E+00 0. -1.
        -12    1    3    3    0    0 -0.18236261388E+02 -0.24100058271E+02  0.42322159580E+01  0.30516973801E+02  0.00000000000E+00 0.  1.
          5    1    4    4  501    0 -0.79114690439E+01  0.31015659829E+02  0.20153263713E+03  0.20410154023E+03  0.41800000000E+01 0.  1.
         -5    1    4    4    0  501  0.83663477104E+02 -0.96287391472E+02  0.91407131703E+03  0.92293807169E+03  0.41800000000E+01 0.  1.
</event>
<event>
11    1  0.8299058E-009  0.1680731E+03  0.7561462E-02  0.1079721E+00
         22   -1    0    0    0    0  0.00000000000E+00  0.00000000000E+00  0.43391468022E+03  0.43391468022E+03  0.00000000000E+00 0. -1.
         22   -1    0    0    0    0 -0.00000000000E+00 -0.00000000000E+00 -0.61439981674E+03  0.61439981674E+03  0.00000000000E+00 0. -1.
        -24    2    1    2    0    0  0.43687904132E+02 -0.10508447106E+02 -0.38701443093E+03  0.39779685259E+03  0.80268958843E+02 0.  0.
         25    2    1    2    0    0  0.70789327996E+02  0.15786245056E+02 -0.18495112590E+03  0.23477118081E+03  0.12510097472E+03 0.  0.
         24    2    1    2    0    0 -0.11447723213E+03 -0.52777979500E+01  0.39148042031E+03  0.41574646356E+03  0.80344947887E+02 0.  0.
        -13    1    5    5    0    0  0.30367834934E+01 -0.18177349253E+02  0.90980789285E+02  0.92828562947E+02  0.00000000000E+00 0.  1.
         14    1    5    5    0    0 -0.11751401562E+03  0.12899551303E+02  0.30049963102E+03  0.32291790061E+03  0.00000000000E+00 0. -1.
         13    1    3    3    0    0  0.53522930338E+02 -0.23696994953E+02 -0.36811546743E+03  0.37274018968E+03  0.00000000000E+00 0. -1.
        -14    1    3    3    0    0 -0.98350262056E+01  0.13188547847E+02 -0.18898963502E+02  0.25056662910E+02  0.00000000000E+00 0.  1.
          5    1    4    4  501    0  0.19138499719E+02 -0.28073078368E+02 -0.15810228269E+03  0.16176583104E+03  0.41800000000E+01 0. -1.
         -5    1    4    4    0  501  0.51650828277E+02  0.43859323424E+02 -0.26848843205E+02  0.73005349765E+02  0.41800000000E+01 0. -1.
</event>
<event>
11    1  0.8299058E-009  0.1471607E+03  0.7561462E-02  0.1099816E+00
         22   -1    0    0    0    0  0.00000000000E+00  0.00000000000E+00  0.30722067322E+03  0.30722067322E+03  0.00000000000E+00 0.  1.
         22   -1    0    0    0    0 -0.00000000000E+00 -0.00000000000E+00 -0.28329950826E+03  0.28329950826E+03  0.00000000000E+00 0.  1.
         24    2    1    2    0    0  0.21759395938E+02 -0.67893956200E+01 -0.18501741202E+03  0.20292919755E+03  0.80182599506E+02 0.  0.
         25    2    1    2    0    0 -0.53490466388E+02 -0.63373753132E+02 -0.98222791446E+00  0.15008826997E+03  0.12509221170E+03 0.  0.
        -24    2    1    2    0    0  0.31731070450E+02  0.70163148752E+02  0.20992080489E+03  0.23750271397E+03  0.80069135995E+02 0.  0.
        -11    1    3    3    0    0  0.78864908574E-01  0.72109353167E+01 -0.17515115255E+03  0.17529954377E+03  0.00000000000E+00 0.  1.
         12    1    3    3    0    0  0.21680531030E+02 -0.14000330937E+02 -0.98662594756E+01  0.27629653782E+02  0.00000000000E+00 0. -1.
         11    1    5    5    0    0 -0.23639663243E+02  0.10466677920E+02  0.80970964173E+02  0.84998129768E+02  0.00000000000E+00 0. -1.
        -12    1    5    5    0    0  0.55370733692E+02  0.59696470832E+02  0.12894984072E+03  0.15250458420E+03  0.00000000000E+00 0.  1.
          5    1    4    4  501    0  0.40779026880E+02 -0.18175257616E+02  0.59302045539E+01  0.45231722814E+02  0.41800000000E+01 0.  1.
         -5    1    4    4    0  501 -0.94269493268E+02 -0.45198495516E+02 -0.69124324684E+01  0.10485654715E+03  0.41800000000E+01 0.  1.
</event>
<event>
11    1  0.8299058E-009  0.1392417E+03  0.7561462E-02  0.1108408E+00
         22   -1    0    0    0    0  0.00000000000E+00  0.00000000000E+00  0.52359851288E+03  0.52359851288E+03  0.00000000000E+00 0. -1.
         22   -1    0    0    0    0 -0.00000000000E+00 -0.00000000000E+00 -0.50934368626E+03  0.50934368626E+03  0.00000000000E+00 0. -1.
         24    2    1    2    0    0  0.13922784795E+02  0.65671042224E+02 -0.33182166174E+03  0.35030003090E+03  0.89988703329E+02 0.  0.
         25    2    1    2    0    0 -0.10455561956E+02 -0.42666501544E+02 -0.13782980821E+03  0.19124376774E+03  0.12508946214E+03 0.  0.
        -24    2    1    2    0    0 -0.34672228389E+01 -0.23004540679E+02  0.48390629657E+03  0.49139840049E+03  0.82254809090E+02 0.  0.
        -11    1    3    3    0    0 -0.34411275210E+02  0.30197047924E+02 -0.87780946338E+02  0.99002485347E+02  0.00000000000E+00 0.  1.
         12    1    3    3    0    0  0.48334060005E+02  0.35473994300E+02 -0.24404071540E+03  0.25129754555E+03  0.00000000000E+00 0. -1.
         13    1    5    5    0    0 -0.23523167404E+02 -0.28607740365E+02  0.45058978395E+03  0.45210938456E+03  0.00000000000E+00 0. -1.
        -14    1    5    5    0    0  0.20055944565E+02  0.56031996859E+01  0.33316512625E+02  0.39289015928E+02  0.00000000000E+00 0.  1.
          5    1    4    4  501    0  0.36732182961E+02  0.20016557515E+02 -0.13475010408E+02  0.44147074029E+02  0.41800000000E+01 0.  1.
         -5    1    4    4    0  501 -0.47187744917E+02 -0.62683059060E+02 -0.12435479781E+03  0.14709669371E+03  0.41800000000E+01 0.  1.
</event>
<event>
11    1  0.8299058E-009  0.1628400E+03  0.7561462E-02  0.1084436E+00
         22   -1    0    0    0    0  0.00000000000E+00  0.00000000000E+00  0.23228827350E+03  0.23228827350E+03  0.00000000000E+00 0. -1.
         22   -1    0    0    0    0 -0.00000000000E+00 -0.00000000000E+00 -0.38555710400E+03  0.38555710400E+03  0.00000000000E+00 0.  1.
         24    2    1    2    0    0  0.53439834348E+02 -0.77147625480E+02 -0.22442041022E+03  0.25649648520E+03  0.81353269040E+02 0.  0.
         25    2    1    2    0    0 -0.12916385983E+03  0.11027815375E+03 -0.23422456455E+02  0.21222812200E+03  0.12509032905E+03 0.  0.
        -24    2    1    2    0    0  0.75724025480E+02 -0.33130528266E+02  0.94574036177E+02  0.14912077030E+03  0.80380320223E+02 0.  0.
        -13    1    3    3    0    0  0.73320969519E+02 -0.72438038368E+02 -0.19660427801E+03  0.22198305365E+03  0.00000000000E+00 0.  1.
         14    1    3    3    0    0 -0.19881135171E+02 -0.47095871124E+01 -0.27816132210E+02  0.34513431554E+02  0.00000000000E+00 0. -1.
         11    1    5    5    0    0  0.44895988090E+02 -0.42010485891E+02  0.99197696758E+02  0.11670781342E+03  0.00000000000E+00 0. -1.
        -12    1    5    5    0    0  0.30828037390E+02  0.88799576247E+01 -0.46236605814E+01  0.32412956883E+02  0.00000000000E+00 0.  1.
          5    1    4    4  501    0 -0.98997388085E+02  0.16332487184E+02 -0.46720113888E+02  0.11075863139E+03  0.41800000000E+01 0. -1.
         -5    1    4    4    0  501 -0.30166471743E+02  0.93945666562E+02  0.23297657433E+02  0.10146949061E+03  0.41800000000E+01 0. -1.
</event>
<event>
11    1  0.8299058E-009  0.1966283E+03  0.7561462E-02  0.1056934E+00
         22   -1    0    0    0    0  0.00000000000E+00  0.00000000000E+00  0.30424975226E+03  0.30424975226E+03  0.00000000000E+00 0. -1.
         22   -1    0    0    0    0 -0.00000000000E+00 -0.00000000000E+00 -0.80950939239E+03  0.80950939239E+03  0.00000000000E+00 0. -1.
         24    2    1    2    0    0 -0.14461574600E+03 -0.33227823195E+02 -0.64451664912E+03  0.66636722284E+03  0.81398786592E+02 0.  0.
         25    2    1    2    0    0  0.15714686309E+03  0.12357636988E+03 -0.31491865689E+02  0.23791805302E+03  0.12508799533E+03 0.  0.
        -24    2    1    2    0    0 -0.12531117086E+02 -0.90348546683E+02  0.17074887468E+03  0.20947386880E+03  0.80026462637E+02 0.  0.
        -13    1    3    3    0    0 -0.34224285434E+01 -0.24406954852E+02 -0.57780820880E+02  0.62817479445E+02  0.00000000000E+00 0.  1.
         14    1    3    3    0    0 -0.14119331746E+03 -0.88208683429E+01 -0.58673582824E+03  0.60354974340E+03  0.00000000000E+00 0. -1.
         13    1    5    5    0    0 -0.56500856214E+01 -0.10149734078E+03  0.12102405910E+03  0.15805206906E+03  0.00000000000E+00 0. -1.
        -14    1    5    5    0    0 -0.68810314649E+01  0.11148794099E+02  0.49724815584E+02  0.51421799742E+02  0.00000000000E+00 0.  1.
          5    1    4    4  501    0  0.48762057163E+02  0.35677040911E+02 -0.70517586456E+02  0.92955859775E+02  0.41800000000E+01 0.  1.
         -5    1    4    4    0  501  0.10838480592E+03  0.87899328966E+02  0.39025720767E+02  0.14496219324E+03  0.41800000000E+01 0.  1.
</event>
<event>
11    1  0.8299058E-009  0.2917690E+03  0.7561462E-02  0.1003736E+00
         22   -1    0    0    0    0  0.00000000000E+00  0.00000000000E+00  0.12781254864E+03  0.12781254864E+03  0.00000000000E+00 0. -1.
         22   -1    0    0    0    0 -0.00000000000E+00 -0.00000000000E+00 -0.22303676929E+04  0.22303676929E+04  0.00000000000E+00 0. -1.
        -24    2    1    2    0    0 -0.64338634810E+02 -0.10313285575E+03 -0.13365025616E+04  0.13442842244E+04  0.78007262566E+02 0.  0.
         25    2    1    2    0    0  0.20371863129E+03  0.29141310277E+03 -0.62194462749E+03  0.72724593654E+03  0.12509458564E+03 0.  0.
         24    2    1    2    0    0 -0.13937999648E+03 -0.18828024702E+03 -0.14410795520E+03  0.28665008059E+03  0.80777045728E+02 0.  0.
        -13    1    5    5    0    0 -0.60223611497E+02 -0.11246172474E+03 -0.35668588786E+02  0.13246422589E+03  0.00000000000E+00 0.  1.
         14    1    5    5    0    0 -0.79156384985E+02 -0.75818522274E+02 -0.10843936641E+03  0.15418585470E+03  0.00000000000E+00 0. -1.
         11    1    3    3    0    0 -0.81095494819E+02 -0.77193855505E+02 -0.95692089772E+03  0.96344848077E+03  0.00000000000E+00 0. -1.
        -12    1    3    3    0    0  0.16756860009E+02 -0.25939000247E+02 -0.37958166385E+03  0.38083574363E+03  0.00000000000E+00 0.  1.
          5    1    4    4  501    0  0.16436449676E+03  0.22229022501E+03 -0.56596660721E+03  0.62989229619E+03  0.41800000000E+01 0.  1.
         -5    1    4    4    0  501  0.39354134534E+02  0.69122877761E+02 -0.55978020280E+02  0.97353640350E+02  0.41800000000E+01 0.  1.
</event>
<event>
11    1  0.8299058E-009  0.1319052E+03  0.7561462E-02  0.1116950E+00
         22   -1    0    0    0    0  0.00000000000E+00  0.00000000000E+00  0.20081838201E+04  0.20081838201E+04  0.00000000000E+00 0.  1.
         22   -1    0    0    0    0 -0.00000000000E+00 -0.00000000000E+00 -0.12805661453E+03  0.12805661453E+03  0.00000000000E+00 0. -1.
         24    2    1    2    0    0 -0.21481931350E+01  0.36231352103E+00 -0.10288906634E+03  0.13559376376E+03  0.88287953843E+02 0.  0.
         25    2    1    2    0    0 -0.39893723017E+02 -0.40659639098E+01  0.57832161295E+03  0.59305211673E+03  0.12508750519E+03 0.  0.
        -24    2    1    2    0    0  0.42041916152E+02  0.37036503888E+01  0.14046946590E+04  0.14075945542E+04  0.79837987124E+02 0.  0.
        -11    1    3    3    0    0  0.16864964480E+02 -0.34229165264E+02 -0.18451167185E+02  0.42385237431E+02  0.00000000000E+00 0.  1.
         12    1    3    3    0    0 -0.19013157615E+02  0.34591478785E+02 -0.84437899155E+02  0.93208526330E+02  0.00000000000E+00 0. -1.
         11    1    5    5    0    0 -0.21040339695E+02 -0.11022409031E+02  0.26582048187E+03  0.26687959453E+03  0.00000000000E+00 0. -1.
        -12    1    5    5    0    0  0.63082255847E+02  0.14726059420E+02  0.11388741771E+04  0.11407149596E+04  0.00000000000E+00 0.  1.
          5    1    4    4  501    0 -0.41071701990E+02  0.56546062334E+02  0.28171467512E+03  0.29028429591E+03  0.41800000000E+01 0. -1.
         -5    1    4    4    0  501  0.11779789729E+01 -0.60612026244E+02  0.29660693783E+03  0.30276782082E+03  0.41800000000E+01 0. -1.
</event>
<event>
11    1  0.8299058E-009  0.1687765E+03  0.7561462E-02  0.1079101E+00
         22   -1    0    0    0    0  0.00000000000E+00  0.00000000000E+00  0.20263311829E+04  0.20263311829E+04  0.00000000000E+00 0.  1.
         22   -1    0    0    0    0 -0.00000000000E+00 -0.00000000000E+00 -0.10027710286E+03  0.10027710286E+03  0.00000000000E+00 0. -1.
         24    2    1    2    0    0 -0.31570105773E+02  0.10753426216E+03 -0.30496906048E+02  0.14049730907E+03  0.79051524088E+02 0.  0.
         25    2    1    2    0    0  0.33373981023E+02 -0.12180922224E+03  0.56467627403E+03  0.59199471969E+03  0.12508854646E+03 0.  0.
        -24    2    1    2    0    0 -0.18038752502E+01  0.14274960085E+02  0.13918747120E+04  0.13941162570E+04  0.77703896590E+02 0.  0.
        -13    1    3    3    0    0 -0.14878482465E+02  0.15331594853E+02  0.23975315682E+02  0.32112969393E+02  0.00000000000E+00 0.  1.
         14    1    3    3    0    0 -0.16691623308E+02  0.92202667305E+02 -0.54472221730E+02  0.10838433968E+03  0.00000000000E+00 0. -1.
         11    1    5    5    0    0  0.33845609702E+02 -0.70780053117E+01  0.45062452493E+03  0.45194920724E+03  0.00000000000E+00 0. -1.
        -12    1    5    5    0    0 -0.35649484953E+02  0.21352965397E+02  0.94125018712E+03  0.94216704976E+03  0.00000000000E+00 0.  1.
          5    1    4    4  501    0 -0.36130517576E+02 -0.49124190162E+01  0.71183188861E+02  0.80087857615E+02  0.41800000000E+01 0.  1.
         -5    1    4    4    0  501  0.69504498599E+02 -0.11689680323E+03  0.49349308517E+03  0.51190686208E+03  0.41800000000E+01 0.  1.
</event>
<event>
11    1  0.8299058E-009  0.1460411E+03  0.7561462E-02  0.1100994E+00
         22   -1    0    0    0    0  0.00000000000E+00  0.00000000000E+00  0.10509781810E+04  0.10509781810E+04  0.00000000000E+00 0. -1.
         22   -1    0    0    0    0 -0.00000000000E+00 -0.00000000000E+00 -0.56431881848E+03  0.56431881848E+03  0.00000000000E+00 0.  1.
        -24    2    1    2    0    0 -0.67636904896E+01 -0.45706440946E+02 -0.53227039583E+03  0.54022295880E+03  0.79964021158E+02 0.  0.
         25    2    1    2    0    0 -0.64985098208E+02  0.13390750654E+02  0.18381291266E+03  0.23202814469E+03  0.12508995914E+03 0.  0.
         24    2    1    2    0    0  0.71748788697E+02  0.32315690292E+02  0.83511684570E+03  0.84304589598E+03  0.84344793836E+02 0.  0.
        -11    1    5    5    0    0  0.12579126045E+02  0.53124205620E+01  0.14732451453E+02  0.20087343033E+02  0.00000000000E+00 0.  1.
         12    1    5    5    0    0  0.59169662652E+02  0.27003269730E+02  0.82038439424E+03  0.82295855295E+03  0.00000000000E+00 0. -1.
         13    1    3    3    0    0  0.28616222652E+02  0.48765907361E+01 -0.22029188908E+03  0.22219627749E+03  0.00000000000E+00 0. -1.
        -14    1    3    3    0    0 -0.35379913142E+02 -0.50583031682E+02 -0.31197850675E+03  0.31802668131E+03  0.00000000000E+00 0.  1.
          5    1    4    4  501    0 -0.65748869722E+01 -0.41546859540E+01 -0.18597829958E+02  0.20587429009E+02  0.41800000000E+01 0. -1.
         -5    1    4    4    0  501 -0.58410211235E+02  0.17545436608E+02  0.20241074262E+03  0.21144071568E+03  0.41800000000E+01 0. -1.
</event>
<event>
11    1  0.8299058E-009  0.1936284E+03  0.7561462E-02  0.1059123E+00
         22   -1    0    0    0    0  0.00000000000E+00  0.00000000000E+00  0.48851799024E+02  0.48851799024E+02  0.00000000000E+00 0. -1.
         22   -1    0    0    0    0 -0.00000000000E+00 -0.00000000000E+00 -0.38028250827E+04  0.38028250827E+04  0.00000000000E+00 0. -1.
        -24    2    1    2    0    0 -0.40157131878E+02 -0.13812426194E+03 -0.23819976641E+04  0.23877481863E+04  0.82083020839E+02 0.  0.
         25    2    1    2    0    0  0.96909795647E+02  0.13422471029E+03 -0.13461501778E+04  0.13620485298E+04  0.12509242580E+03 0.  0.
         24    2    1    2    0    0 -0.56752663769E+02  0.38995516451E+01 -0.25825441786E+02  0.10188016566E+03  0.80476974120E+02 0.  0.
        -11    1    5    5    0    0  0.18546263524E+02  0.91900525354E+01  0.33227230740E+01  0.20963335730E+02  0.00000000000E+00 0.  1.
         12    1    5    5    0    0 -0.75298927293E+02 -0.52905008903E+01 -0.29148164860E+02  0.80916829930E+02  0.00000000000E+00 0. -1.
         13    1    3    3    0    0 -0.36360021567E+02 -0.81943178222E+02 -0.19549139560E+04  0.19569683981E+04  0.00000000000E+00 0. -1.
        -14    1    3    3    0    0 -0.37971103107E+01 -0.56181083717E+02 -0.42708370804E+03  0.43077978817E+03  0.00000000000E+00 0.  1.
          5    1    4    4  501    0  0.11721172252E+03  0.86401267548E+02 -0.11460507582E+04  0.11552720804E+04  0.41800000000E+01 0.  1.
         -5    1    4    4    0  501 -0.20301926877E+02  0.47823442746E+02 -0.20009941962E+03  0.20677644944E+03  0.41800000000E+01 0.  1.
</event>
<event>
11    1  0.8299058E-009  0.1630697E+03  0.7561462E-02  0.1084225E+00
         22   -1    0    0    0    0  0.00000000000E+00  0.00000000000E+00  0.89186936378E+03  0.89186936378E+03  0.00000000000E+00 0.  1.
         22   -1    0    0    0    0 -0.00000000000E+00 -0.00000000000E+00 -0.22398953633E+03  0.22398953633E+03  0.00000000000E+00 0.  1.
         24    2    1    2    0    0  0.15859973858E+02  0.11198026321E+02 -0.14802135182E+03  0.17026681177E+03  0.81875100190E+02 0.  0.
         25    2    1    2    0    0 -0.11381219078E+03 -0.43018403998E+02  0.69494968458E+02  0.18783131481E+03  0.12508898565E+03 0.  0.
        -24    2    1    2    0    0  0.97952216921E+02  0.31820377677E+02  0.74640621081E+03  0.75776077353E+03  0.80448649008E+02 0.  0.
        -13    1    3    3    0    0 -0.18771840831E+02 -0.13522476528E+01 -0.12590028660E+03  0.12729922524E+03  0.00000000000E+00 0.  1.
         14    1    3    3    0    0  0.34631814688E+02  0.12550273974E+02 -0.22121065224E+02  0.42967586529E+02  0.00000000000E+00 0. -1.
         13    1    5    5    0    0  0.72385280656E+01  0.25650732652E+01  0.29612156750E+01  0.82307161101E+01  0.00000000000E+00 0. -1.
        -14    1    5    5    0    0  0.90713688856E+02  0.29255304412E+02  0.74344499514E+03  0.74953005742E+03  0.00000000000E+00 0.  1.
          5    1    4    4  501    0 -0.39102013983E+02 -0.59915510698E+02  0.83300753692E+02  0.10988777860E+03  0.41800000000E+01 0.  1.
         -5    1    4    4    0  501 -0.74710176796E+02  0.16897106699E+02 -0.13805785234E+02  0.77943536214E+02  0.41800000000E+01 0.  1.
</event>
<event>
11    1  0.8299058E-009  0.2139532E+03  0.7561462E-02  0.1045073E+00
         22   -1    0    0    0    0  0.00000000000E+00  0.00000000000E+00  0.22977388691E+03  0.22977388691E+03  0.00000000000E+00 0.  1.
         22   -1    0    0    0    0 -0.00000000000E+00 -0.00000000000E+00 -0.37139182305E+03  0.37139182305E+03  0.00000000000E+00 0. -1.
        -24    2    1    2    0    0 -0.10751340305E+03  0.32235856985E+02 -0.17262027125E+03  0.22011533832E+03  0.77812092912E+02 0.  0.
         25    2    1    2    0    0  0.17373467974E+03 -0.10506425380E+03  0.67800728920E+02  0.24791401430E+03  0.12506871420E+03 0.  0.
         24    2    1    2    0    0 -0.66221276689E+02  0.72828396817E+02 -0.36798393803E+02  0.13313635735E+03  0.81743103637E+02 0.  0.
        -13    1    5    5    0    0 -0.70658603278E+02  0.85915236211E+02 -0.41215723457E+02  0.11862884089E+03  0.00000000000E+00 0.  1.
         14    1    5    5    0    0  0.44373265892E+01 -0.13086839394E+02  0.44173296540E+01  0.14507516460E+02  0.00000000000E+00 0. -1.
         11    1    3    3    0    0 -0.75332113357E+02  0.31590181542E+02 -0.16902250562E+03  0.18772712718E+03  0.00000000000E+00 0. -1.
        -12    1    3    3    0    0 -0.32181289697E+02  0.64567544303E+00 -0.35977656349E+01  0.32388211141E+02  0.00000000000E+00 0.  1.
          5    1    4    4  501    0  0.12301514306E+03 -0.94526921864E+01  0.68694040266E+01  0.12363955647E+03  0.41800000000E+01 0. -1.
         -5    1    4    4    0  501  0.50719536683E+02 -0.95611561615E+02  0.60931324894E+02  0.12427445783E+03  0.41800000000E+01 0. -1.
</event>
<event>
11    1  0.8299058E-009  0.1347041E+03  0.7561462E-02  0.1113621E+00
         22   -1    0    0    0    0  0.00000000000E+00  0.00000000000E+00  0.28467757871E+03  0.28467757871E+03  0.00000000000E+00 0. -1.
         22   -1    0    0    0    0 -0.00000000000E+00 -0.00000000000E+00 -0.16093533120E+04  0.16093533120E+04  0.00000000000E+00 0.  1.
        -24    2    1    2    0    0  0.11109880496E+02 -0.18722058200E+02 -0.14422663703E+04  0.14445518738E+04  0.78255277501E+02 0.  0.
         25    2    1    2    0    0 -0.59834345470E+01  0.67536038910E+02 -0.12535822341E+03  0.18962910539E+03  0.12509034893E+03 0.  0.
         24    2    1    2    0    0 -0.51264459492E+01 -0.48813980709E+02  0.24294886040E+03  0.25984991149E+03  0.78030395147E+02 0.  0.
        -13    1    5    5    0    0 -0.16421682689E+02  0.85661612844E+01  0.13121037871E+02  0.22698291044E+02  0.00000000000E+00 0.  1.
         14    1    5    5    0    0  0.11295236740E+02 -0.57380141994E+02  0.22982782253E+03  0.23715162044E+03  0.00000000000E+00 0. -1.
         11    1    3    3    0    0 -0.12719713513E+02 -0.37814731244E+02 -0.43580201376E+03  0.43762442826E+03  0.00000000000E+00 0. -1.
        -12    1    3    3    0    0  0.23829594009E+02  0.19092673043E+02 -0.10064643565E+04  0.10069274456E+04  0.00000000000E+00 0.  1.
          5    1    4    4  501    0 -0.42479647811E+02  0.53267799348E+02 -0.11600727820E+02  0.69238921219E+02  0.41800000000E+01 0.  1.
         -5    1    4    4    0  501  0.36496213264E+02  0.14268239561E+02 -0.11375749559E+03  0.12039018417E+03  0.41800000000E+01 0.  1.
</event>
<event>
11    1  0.8299058E-009  0.1283512E+03  0.7561462E-02  0.1121312E+00
         22   -1    0    0    0    0  0.00000000000E+00  0.00000000000E+00  0.27644460078E+03  0.27644460078E+03  0.00000000000E+00 0. -1.
         22   -1    0    0    0    0 -0.00000000000E+00 -0.00000000000E+00 -0.48590980768E+03  0.48590980768E+03  0.00000000000E+00 0.  1.
        -24    2    1    2    0    0  0.19064403552E+02  0.20414468142E+02 -0.41712483969E+03  0.42574388322E+03  0.80526518741E+02 0.  0.
         25    2    1    2    0    0 -0.31176924246E+02 -0.30750205969E+02  0.24196021154E+02  0.13472456089E+03  0.12509070347E+03 0.  0.
         24    2    1    2    0    0  0.12112520694E+02  0.10335737827E+02  0.18346361164E+03  0.20188596436E+03  0.82737568118E+02 0.  0.
        -13    1    5    5    0    0  0.52479383229E+01  0.32240564489E+02  0.23392243555E+02  0.40177007277E+02  0.00000000000E+00 0.  1.
         14    1    5    5    0    0  0.68645823712E+01 -0.21904826662E+02  0.16007136808E+03  0.16170895708E+03  0.00000000000E+00 0. -1.
         11    1    3    3    0    0  0.39835142185E+01 -0.28726938962E+01  0.22854173242E+01  0.54169999166E+01  0.00000000000E+00 0. -1.
        -12    1    3    3    0    0  0.15080889333E+02  0.23287162038E+02 -0.41941025701E+03  0.42032688330E+03  0.00000000000E+00 0.  1.
          5    1    4    4  501    0  0.29992854482E+02  0.30681670533E+02 -0.44204929877E+01  0.43335313371E+02  0.41800000000E+01 0. -1.
         -5    1    4    4    0  501 -0.61169778727E+02 -0.61431876502E+02  0.28616514142E+02  0.91389247517E+02  0.41800000000E+01 0. -1.
</event>
<event>
11    1  0.8299058E-009  0.5862907E+03  0.7561462E-02  0.9219008E-01
         22   -1    0    0    0    0  0.00000000000E+00  0.00000000000E+00  0.10860546340E+04  0.10860546340E+04  0.00000000000E+00 0. -1.
         22   -1    0    0    0    0 -0.00000000000E+00 -0.00000000000E+00 -0.49560569412E+03  0.49560569412E+03  0.00000000000E+00 0. -1.
        -24    2    1    2    0    0 -0.14350712370E+03  0.17560276851E+03  0.32070813065E+02  0.24238403332E+03  0.79314914721E+02 0.  0.
         25    2    1    2    0    0  0.60434674619E+03  0.14076891787E+03  0.17451533549E+03  0.65662381534E+03  0.12509338384E+03 0.  0.
         24    2    1    2    0    0 -0.46083962249E+03 -0.31637168637E+03  0.38386279134E+03  0.68265247947E+03  0.78737307254E+02 0.  0.
        -13    1    5    5    0    0 -0.16459151193E+03 -0.91162081920E+02  0.16922732025E+03  0.25305884078E+03  0.00000000000E+00 0.  1.
         14    1    5    5    0    0 -0.29624811056E+03 -0.22520960445E+03  0.21463547108E+03  0.42959363868E+03  0.00000000000E+00 0. -1.
         13    1    3    3    0    0  0.85078599120E+01  0.24876027227E+01 -0.29715025348E+01  0.93488862921E+01  0.00000000000E+00 0. -1.
        -14    1    3    3    0    0 -0.15201498361E+03  0.17311516579E+03  0.35042315599E+02  0.23303514703E+03  0.00000000000E+00 0.  1.
          5    1    4    4  501    0  0.41004064396E+03  0.44395923537E+02  0.80725304104E+02  0.42028368377E+03  0.41800000000E+01 0. -1.
         -5    1    4    4    0  501  0.19430610223E+03  0.96372994329E+02  0.93790031389E+02  0.23634013157E+03  0.41800000000E+01 0. -1.
</event>
<event>
11    1  0.8299058E-009  0.1744760E+03  0.7561462E-02  0.1074201E+00
         22   -1    0    0    0    0  0.00000000000E+00  0.00000000000E+00  0.13852945889E+04  0.13852945889E+04  0.00000000000E+00 0. -1.
         22   -1    0    0    0    0 -0.00000000000E+00 -0.00000000000E+00 -0.35360801251E+03  0.35360801251E+03  0.00000000000E+00 0.  1.
         24    2    1    2    0    0  0.64643427154E+02 -0.11555093089E+02 -0.32183782531E+03  0.33815971834E+03  0.80374849624E+02 0.  0.
         25    2    1    2    0    0 -0.90277689355E+02  0.12285905726E+03  0.53204895117E+03  0.56742291333E+03  0.12509303329E+03 0.  0.
        -24    2    1    2    0    0  0.25634262201E+02 -0.11130396417E+03  0.82147545052E+03  0.83331996973E+03  0.80960288458E+02 0.  0.
        -11    1    3    3    0    0  0.31485641227E+02  0.17142810661E+02 -0.25937355661E+03  0.26183938480E+03  0.00000000000E+00 0.  1.
         12    1    3    3    0    0  0.33157785927E+02 -0.28697903750E+02 -0.62464268701E+02  0.76320333539E+02  0.00000000000E+00 0. -1.
         13    1    5    5    0    0  0.53050426418E+02 -0.60070323435E+02  0.53944131120E+03  0.54536200797E+03  0.00000000000E+00 0. -1.
        -14    1    5    5    0    0 -0.27416164218E+02 -0.51233640737E+02  0.28203413931E+03  0.28795796176E+03  0.00000000000E+00 0.  1.
          5    1    4    4  501    0  0.28288481534E+02  0.29845672706E+02  0.68803130895E+02  0.80264223585E+02  0.41800000000E+01 0. -1.
         -5    1    4    4    0  501 -0.11856617089E+03  0.93013384555E+02  0.46324582028E+03  0.48715868974E+03  0.41800000000E+01 0. -1.
</event>
<event>
11    1  0.8299058E-009  0.1336263E+03  0.7561462E-02  0.1114892E+00
         22   -1    0    0    0    0  0.00000000000E+00  0.00000000000E+00  0.22270544799E+03  0.22270544799E+03  0.00000000000E+00 0.  1.
         22   -1    0    0    0    0 -0.00000000000E+00 -0.00000000000E+00 -0.34851326050E+03  0.34851326050E+03  0.00000000000E+00 0. -1.
        -24    2    1    2    0    0  0.81492566157E+01  0.62944943683E+00 -0.23406568616E+03  0.24775278858E+03  0.80795372512E+02 0.  0.
         25    2    1    2    0    0 -0.42489658995E+02 -0.31647645030E+02 -0.46913526302E+02  0.14371205628E+03  0.12508130002E+03 0.  0.
         24    2    1    2    0    0  0.34340402379E+02  0.31018195593E+02  0.15517139996E+03  0.17975386363E+03  0.78050601750E+02 0.  0.
        -11    1    5    5    0    0  0.45703958695E+02  0.47205946092E+02  0.14057515280E+03  0.15517289316E+03  0.00000000000E+00 0.  1.
         12    1    5    5    0    0 -0.11363556315E+02 -0.16187750499E+02  0.14596247153E+02  0.24580970471E+02  0.00000000000E+00 0. -1.
         11    1    3    3    0    0 -0.18698170022E+02  0.80448935360E+01 -0.20988017910E+03  0.21086496023E+03  0.00000000000E+00 0. -1.
        -12    1    3    3    0    0  0.26847426638E+02 -0.74154440992E+01 -0.24185507063E+02  0.36887828347E+02  0.00000000000E+00 0.  1.
          5    1    4    4  501    0  0.31624415141E+02 -0.27329820721E+02  0.17335350289E+02  0.45442375634E+02  0.41800000000E+01 0. -1.
         -5    1    4    4    0  501 -0.74114074136E+02 -0.43178243086E+01 -0.64248876591E+02  0.98269680649E+02  0.41800000000E+01 0. -1.
</event>
<event>
11    1  0.8299058E-009  0.1659123E+03  0.7561462E-02  0.1081645E+00
         22   -1    0    0    0    0  0.00000000000E+00  0.00000000000E+00  0.20338451225E+04  0.20338451225E+04  0.00000000000E+00 0.  1.
         22   -1    0    0    0    0 -0.00000000000E+00 -0.00000000000E+00 -0.52891502956E+02  0.52891502956E+02  0.00000000000E+00 0. -1.
         24    2    1    2    0    0  0.22963142486E+01  0.21523865399E+02  0.11609190513E+02  0.81293276515E+02  0.77493700785E+02 0.  0.
         25    2    1    2    0    0 -0.35832549149E+02  0.85649564930E+02  0.38839378711E+03  0.41846943521E+03  0.12508842787E+03 0.  0.
        -24    2    1    2    0    0  0.33536234901E+02 -0.10717343033E+03  0.15809506420E+04  0.15869739138E+04  0.80439091639E+02 0.  0.
        -13    1    3    3    0    0  0.34400894256E+02  0.17075922000E+02  0.25426254112E+02  0.46059776768E+02  0.00000000000E+00 0.  1.
         14    1    3    3    0    0 -0.32104580008E+02  0.44479433992E+01 -0.13817063598E+02  0.35233499747E+02  0.00000000000E+00 0. -1.
         11    1    5    5    0    0 -0.22260047821E+02 -0.36043349398E+02  0.32085808684E+03  0.32364261872E+03  0.00000000000E+00 0. -1.
        -12    1    5    5    0    0  0.55796282722E+02 -0.71130080932E+02  0.12600925551E+04  0.12633312950E+04  0.00000000000E+00 0.  1.
          5    1    4    4  501    0  0.39617579742E+02  0.23081729381E+02  0.59369469273E+02  0.75130054822E+02  0.41800000000E+01 0.  1.
         -5    1    4    4    0  501 -0.75450128892E+02  0.62567835549E+02  0.32902431784E+03  0.34333938039E+03  0.41800000000E+01 0.  1.
</event>
<event>
11    1  0.8299058E-009  0.2538686E+03  0.7561462E-02  0.1021858E+00
         22   -1    0    0    0    0  0.00000000000E+00  0.00000000000E+00  0.26294549112E+03  0.26294549112E+03  0.00000000000E+00 0.  1.
         22   -1    0    0    0    0 -0.00000000000E+00 -0.00000000000E+00 -0.66539488085E+03  0.66539488085E+03  0.00000000000E+00 0.  1.
        -24    2    1    2    0    0 -0.13282169197E+03 -0.10227500640E+03 -0.40300288990E+03  0.44372241922E+03  0.79852847485E+02 0.  0.
         25    2    1    2    0    0  0.19696639518E+00 -0.12065508929E+03 -0.92862572999E+02  0.19705271526E+03  0.12509446734E+03 0.  0.
         24    2    1    2    0    0  0.13262472558E+03  0.22293009569E+03  0.93416073170E+02  0.28756523750E+03  0.81731619911E+02 0.  0.
        -13    1    5    5    0    0  0.13579025469E+03  0.21254671120E+03  0.10361161194E+03  0.27267281463E+03  0.00000000000E+00 0.  1.
         14    1    5    5    0    0 -0.31655291146E+01  0.10383384489E+02 -0.10195538770E+02  0.14892422866E+02  0.00000000000E+00 0. -1.
         11    1    3    3    0    0 -0.62075057663E+02 -0.21390660571E+01 -0.15755263278E+03  0.16935383221E+03  0.00000000000E+00 0. -1.
        -12    1    3    3    0    0 -0.70746634309E+02 -0.10013594035E+03 -0.24545025712E+03  0.27436858701E+03  0.00000000000E+00 0.  1.
          5    1    4    4  501    0 -0.77926706404E+01 -0.37438298566E+02  0.29724430808E+02  0.48614463919E+02  0.41800000000E+01 0.  1.
         -5    1    4    4    0  501  0.79896370355E+01 -0.83216790720E+02 -0.12258700381E+03  0.14843825134E+03  0.41800000000E+01 0.  1.
</event>
<event>
11    1  0.8299058E-009  0.1421925E+03  0.7561462E-02  0.1105135E+00
         22   -1    0    0    0    0  0.00000000000E+00  0.00000000000E+00  0.87471554016E+03  0.87471554016E+03  0.00000000000E+00 0. -1.
         22   -1    0    0    0    0 -0.00000000000E+00 -0.00000000000E+00 -0.16221623543E+03  0.16221623543E+03  0.00000000000E+00 0. -1.
         24    2    1    2    0    0 -0.13651448352E+02  0.34174154877E+02 -0.88370196915E+02  0.12606856575E+03  0.82035094091E+02 0.  0.
         25    2    1    2    0    0  0.79489192455E+02 -0.42810051970E+02  0.64313136402E+02  0.16713943679E+03  0.12509268383E+03 0.  0.
        -24    2    1    2    0    0 -0.65837744103E+02  0.86358970928E+01  0.73655636524E+03  0.74372377305E+03  0.78743788069E+02 0.  0.
        -13    1    3    3    0    0  0.23032976080E+02 -0.26927548408E+01  0.39037497591E+00  0.23193130629E+02  0.00000000000E+00 0.  1.
         14    1    3    3    0    0 -0.36684424432E+02  0.36866909718E+02 -0.88760571891E+02  0.10287543512E+03  0.00000000000E+00 0. -1.
         13    1    5    5    0    0 -0.74415719930E+02  0.20704403778E+01  0.72071714217E+03  0.72455171321E+03  0.00000000000E+00 0. -1.
        -14    1    5    5    0    0  0.85779758262E+01  0.65654567149E+01  0.15839223068E+02  0.19172059841E+02  0.00000000000E+00 0.  1.
          5    1    4    4  501    0  0.55523443485E+02  0.28255377198E+02 -0.79071930248E+01  0.62938185695E+02  0.41800000000E+01 0.  1.
         -5    1    4    4    0  501  0.23965748971E+02 -0.71065429169E+02  0.72220329427E+02  0.10420125109E+03  0.41800000000E+01 0.  1.
</event>
<event>
11    1  0.8299058E-009  0.1410662E+03  0.7561462E-02  0.1106374E+00
         22   -1    0    0    0    0  0.00000000000E+00  0.00000000000E+00  0.89045294824E+03  0.89045294824E+03  0.00000000000E+00 0.  1.
         22   -1    0    0    0    0 -0.00000000000E+00 -0.00000000000E+00 -0.16279124411E+04  0.16279124411E+04  0.00000000000E+00 0.  1.
         24    2    1    2    0    0  0.79664652219E+01 -0.26518583260E+02 -0.10898621932E+04  0.10932075858E+04  0.80848782466E+02 0.  0.
         25    2    1    2    0    0 -0.64039957627E+02  0.59434563595E+02 -0.52175386753E+03  0.54361240139E+03  0.12511499167E+03 0.  0.
        -24    2    1    2    0    0  0.56073492405E+02 -0.32915980336E+02  0.87415656786E+03  0.88154540218E+03  0.93514130833E+02 0.  0.
        -11    1    3    3    0    0 -0.33411204899E+00  0.10676209277E+02 -0.87009558803E+03  0.87016114909E+03  0.00000000000E+00 0.  1.
         12    1    3    3    0    0  0.83005772709E+01 -0.37194792537E+02 -0.21976660517E+03  0.22304643669E+03  0.00000000000E+00 0. -1.
         11    1    5    5    0    0 -0.38057686370E+01  0.19746720617E+02  0.55806468518E+02  0.59319295162E+02  0.00000000000E+00 0. -1.
        -12    1    5    5    0    0  0.59879261042E+02 -0.52662700952E+02  0.81835009934E+03  0.82222610702E+03  0.00000000000E+00 0.  1.
          5    1    4    4  501    0 -0.75629226673E+02  0.44637134928E+02 -0.17051839223E+03  0.19184954582E+03  0.41800000000E+01 0. -1.
         -5    1    4    4    0  501  0.11589269046E+02  0.14797428667E+02 -0.35123547530E+03  0.35176285557E+03  0.41800000000E+01 0. -1.
</event>
<event>
11    1  0.8299058E-009  0.4716522E+03  0.7561462E-02  0.9459196E-01
         22   -1    0    0    0    0  0.00000000000E+00  0.00000000000E+00  0.26184420258E+04  0.26184420258E+04  0.00000000000E+00 0. -1.
         22   -1    0    0    0    0 -0.00000000000E+00 -0.00000000000E+00 -0.50400518106E+03  0.50400518106E+03  0.00000000000E+00 0. -1.
        -24    2    1    2    0    0  0.18485654572E+03  0.39713637429E+03 -0.24049436967E+03  0.50575369190E+03  0.77846083735E+02 0.  0.
         25    2    1    2    0    0 -0.48046041101E+02 -0.73471496246E+03  0.18049073368E+04  0.19533182975E+04  0.12508948366E+03 0.  0.
         24    2    1    2    0    0 -0.13681050462E+03  0.33757858817E+03  0.55002387765E+03  0.66337521746E+03  0.69742352948E+02 0.  0.
        -11    1    5    5    0    0 -0.13936130392E+03  0.32963729030E+03  0.51349965581E+03  0.62591070666E+03  0.00000000000E+00 0.  1.
         12    1    5    5    0    0  0.25507993053E+01  0.79412978622E+01  0.36524221840E+02  0.37464510805E+02  0.00000000000E+00 0. -1.
         11    1    3    3    0    0  0.22137331837E+02  0.79686572094E+02 -0.78292193508E+02  0.11388449762E+03  0.00000000000E+00 0. -1.
        -12    1    3    3    0    0  0.16271921388E+03  0.31744980220E+03 -0.16220217616E+03  0.39186919429E+03  0.00000000000E+00 0.  1.
          5    1    4    4  501    0 -0.62873540080E+02 -0.60136515069E+03  0.15751734751E+04  0.16872409655E+04  0.41800000000E+01 0.  1.
         -5    1    4    4    0  501  0.14827498979E+02 -0.13334981177E+03  0.22973386166E+03  0.26607733202E+03  0.41800000000E+01 0.  1.
</event>
<event>
11    1  0.8299058E-009  0.1355671E+03  0.7561462E-02  0.1112612E+00
         22   -1    0    0    0    0  0.00000000000E+00  0.00000000000E+00  0.24996637974E+04  0.24996637974E+04  0.00000000000E+00 0.  1.
         22   -1    0    0    0    0 -0.00000000000E+00 -0.00000000000E+00 -0.15495315793E+03  0.15495315793E+03  0.00000000000E+00 0. -1.
        -24    2    1    2    0    0  0.42312180975E+02  0.30610207668E+02 -0.13447788182E+03  0.16466187062E+03  0.79384667686E+02 0.  0.
         25    2    1    2    0    0 -0.26766511551E+02 -0.57535765666E+02  0.12303571203E+04  0.12383264656E+04  0.12508789492E+03 0.  0.
         24    2    1    2    0    0 -0.15545669423E+02  0.26925557998E+02  0.12488314010E+04  0.12516286191E+04  0.77638125603E+02 0.  0.
        -13    1    5    5    0    0  0.20367335208E+02  0.31583094103E+02  0.92786165188E+03  0.92862240184E+03  0.00000000000E+00 0.  1.
         14    1    5    5    0    0 -0.35913004631E+02 -0.46575361058E+01  0.32096974911E+03  0.32300621726E+03  0.00000000000E+00 0. -1.
         11    1    3    3    0    0  0.57216086935E+02  0.13519430134E+02 -0.12834654405E+03  0.14117114069E+03  0.00000000000E+00 0. -1.
        -12    1    3    3    0    0 -0.14903905960E+02  0.17090777534E+02 -0.61313377761E+01  0.23490729927E+02  0.00000000000E+00 0.  1.
          5    1    4    4  501    0  0.24229767176E+02 -0.41465858670E+02  0.10233467305E+04  0.10244815773E+04  0.41800000000E+01 0. -1.
         -5    1    4    4    0  501 -0.50996278727E+02 -0.16069906996E+02  0.20701038975E+03  0.21384488823E+03  0.41800000000E+01 0. -1.
</event>
<event>
11    1  0.8299058E-009  0.2191089E+03  0.7561462E-02  0.1041777E+00
         22   -1    0    0    0    0  0.00000000000E+00  0.00000000000E+00  0.14172532319E+04  0.14172532319E+04  0.00000000000E+00 0.  1.
         22   -1    0    0    0    0 -0.00000000000E+00 -0.00000000000E+00 -0.82943249941E+03  0.82943249941E+03  0.00000000000E+00 0.  1.
        -24    2    1    2    0    0 -0.15928017454E+01  0.33401168362E+02 -0.75881218120E+03  0.76376874156E+03  0.80178483263E+02 0.  0.
         25    2    1    2    0    0 -0.15837910946E+03  0.53180682480E+02  0.12105269852E+03  0.24127450011E+03  0.12508997275E+03 0.  0.
         24    2    1    2    0    0  0.15997191120E+03 -0.86581850842E+02  0.12255802152E+04  0.12416424896E+04  0.80881264820E+02 0.  0.
        -13    1    5    5    0    0  0.98288326532E+02 -0.89854772466E+02  0.71059212439E+03  0.72296309900E+03  0.00000000000E+00 0.  1.
         14    1    5    5    0    0  0.61683584671E+02  0.32729216246E+01  0.51498809076E+03  0.51867939062E+03  0.00000000000E+00 0. -1.
         13    1    3    3    0    0  0.14227267686E+02  0.36009307493E+02 -0.15564318706E+03  0.16038667978E+03  0.00000000000E+00 0. -1.
        -14    1    3    3    0    0 -0.15820069432E+02 -0.26081391311E+01 -0.60316899414E+03  0.60338206178E+03  0.00000000000E+00 0.  1.
          5    1    4    4  501    0 -0.78360892466E+02 -0.16399346970E+02  0.10778091769E+03  0.13432634391E+03  0.41800000000E+01 0. -1.
         -5    1    4    4    0  501 -0.80018216991E+02  0.69580029450E+02  0.13271780829E+02  0.10694815620E+03  0.41800000000E+01 0. -1.
</event>
<event>
11    1  0.1055542E-008  0.1486396E+03  0.7561462E-02  0.1098277E+00
         22   -1    0    0    0    0  0.00000000000E+00  0.00000000000E+00  0.62793950309E+03  0.62793950309E+03  0.00000000000E+00 0. -1.
         22   -1    0    0    0    0 -0.00000000000E+00 -0.00000000000E+00 -0.13607447463E+04  0.13607447463E+04  0.00000000000E+00 0.  1.
         24    2    1    2    0    0 -0.69028841503E+01  0.62810338702E+01 -0.11014829175E+04  0.11045045479E+04  0.81108430003E+02 0.  0.
         25    2    1    2    0    0 -0.69372967967E+02 -0.31622410831E+02 -0.23128468522E+03  0.27377652023E+03  0.12509353246E+03 0.  0.
        -24    2    1    2    0    0  0.76275852117E+02  0.25341376961E+02  0.59996235956E+03  0.61040318128E+03  0.78594019004E+02 0.  0.
        -11    1    3    3    0    0 -0.28857335799E+02  0.10848943963E+02 -0.10040967519E+04  0.10045699242E+04  0.00000000000E+00 0.  1.
         12    1    3    3    0    0  0.21954451649E+02 -0.45679100924E+01 -0.97386165625E+02  0.99934623654E+02  0.00000000000E+00 0. -1.
         13    1    5    5    0    0  0.88008893408E+02  0.96292339493E+01  0.54275054724E+03  0.54992403475E+03  0.00000000000E+00 0. -1.
        -14    1    5    5    0    0 -0.11733041291E+02  0.15712143011E+02  0.57211812321E+02  0.60479146530E+02  0.00000000000E+00 0.  1.
          5    1    4    4  501    0  0.33080312789E+02 -0.11302877174E+02 -0.99640708104E+02  0.10567783702E+03  0.41800000000E+01 0. -1.
         -5    1    4    4    0  501 -0.10245328076E+03 -0.20319533657E+02 -0.13164397711E+03  0.16809868321E+03  0.41800000000E+01 0. -1.
</event>
<event>
11    1  0.8299058E-009  0.1801905E+03  0.7561462E-02  0.1069489E+00
         22   -1    0    0    0    0  0.00000000000E+00  0.00000000000E+00  0.29888990372E+04  0.29888990372E+04  0.00000000000E+00 0. -1.
         22   -1    0    0    0    0 -0.00000000000E+00 -0.00000000000E+00 -0.46694385879E+03  0.46694385879E+03  0.00000000000E+00 0.  1.
         24    2    1    2    0    0 -0.27622114281E+02 -0.25298241000E+02 -0.42702124010E+03  0.43567681959E+03  0.77872777241E+02 0.  0.
         25    2    1    2    0    0 -0.36023720213E+02  0.13770717823E+03  0.23478848664E+03  0.30171788793E+03  0.12508826919E+03 0.  0.
        -24    2    1    2    0    0  0.63645834494E+02 -0.11240893723E+03  0.27141879318E+04  0.27184481884E+04  0.80360826557E+02 0.  0.
        -13    1    3    3    0    0 -0.40374099401E+02 -0.45993338778E+02 -0.27528868358E+03  0.28200942258E+03  0.00000000000E+00 0.  1.
         14    1    3    3    0    0  0.12751985121E+02  0.20695097778E+02 -0.15173255652E+03  0.15366739701E+03  0.00000000000E+00 0. -1.
         11    1    5    5    0    0  0.78603303516E+02 -0.83340489175E+02  0.23518503245E+04  0.23546388397E+04  0.00000000000E+00 0. -1.
        -12    1    5    5    0    0 -0.14957469023E+02 -0.29068448055E+02  0.36233760728E+03  0.36380934870E+03  0.00000000000E+00 0.  1.
          5    1    4    4  501    0 -0.27112911985E+02  0.40639900014E+01  0.12628109594E+03  0.12929042348E+03  0.41800000000E+01 0.  1.
         -5    1    4    4    0  501 -0.89108082279E+01  0.13364318823E+03  0.10850739070E+03  0.17242746446E+03  0.41800000000E+01 0.  1.
</event>
<event>
11    1  0.8299058E-009  0.2386085E+03  0.7561462E-02  0.1030149E+00
         22   -1    0    0    0    0  0.00000000000E+00  0.00000000000E+00  0.22137711107E+04  0.22137711107E+04  0.00000000000E+00 0. -1.
         22   -1    0    0    0    0 -0.00000000000E+00 -0.00000000000E+00 -0.82204277407E+03  0.82204277407E+03  0.00000000000E+00 0.  1.
         24    2    1    2    0    0  0.10372807125E+03 -0.65851851065E+02 -0.75179715863E+03  0.76593464621E+03  0.79755473067E+02 0.  0.
         25    2    1    2    0    0 -0.28392897797E+03  0.12994075294E+03  0.44030861156E+03  0.55409197201E+03  0.12508387679E+03 0.  0.
        -24    2    1    2    0    0  0.18020090672E+03 -0.64088901871E+02  0.17032168837E+04  0.17157872665E+04  0.79990230502E+02 0.  0.
        -13    1    3    3    0    0  0.72676337853E+02 -0.33413979989E+02 -0.25838081710E+03  0.27047918735E+03  0.00000000000E+00 0.  1.
         14    1    3    3    0    0  0.31051733394E+02 -0.32437871076E+02 -0.49341634153E+03  0.49545545886E+03  0.00000000000E+00 0. -1.
         11    1    5    5    0    0  0.10662153834E+03 -0.78413228476E+02  0.10865471464E+04  0.10945782239E+04  0.00000000000E+00 0. -1.
        -12    1    5    5    0    0  0.73579368379E+02  0.14324326605E+02  0.61666973724E+03  0.62120904260E+03  0.00000000000E+00 0.  1.
          5    1    4    4  501    0 -0.21687514356E+03  0.56143506683E+02  0.36801938404E+03  0.43086269352E+03  0.41800000000E+01 0.  1.
         -5    1    4    4    0  501 -0.67053834405E+02  0.73797246253E+02  0.72289227526E+02  0.12322927850E+03  0.41800000000E+01 0.  1.
</event>
<event>
11    1  0.1566404E-008  0.1928006E+03  0.7561462E-02  0.1059735E+00
         22   -1    0    0    0    0  0.00000000000E+00  0.00000000000E+00  0.82876207927E+03  0.82876207927E+03  0.00000000000E+00 0.  1.
         22   -1    0    0    0    0 -0.00000000000E+00 -0.00000000000E+00 -0.19698695908E+04  0.19698695908E+04  0.00000000000E+00 0.  1.
        -24    2    1    2    0    0  0.26645115632E+02  0.23048829167E+02 -0.12628719612E+04  0.12659511939E+04  0.80905031576E+02 0.  0.
         25    2    1    2    0    0 -0.73631447107E+02  0.11613328294E+03 -0.68299883466E+03  0.70784465356E+03  0.12509242989E+03 0.  0.
         24    2    1    2    0    0  0.46986331476E+02 -0.13918211210E+03  0.80476328429E+03  0.82483582268E+03  0.10550267750E+03 0.  0.
        -11    1    5    5    0    0  0.71829407913E+02 -0.92477783466E+02  0.66823680957E+03  0.67841877771E+03  0.00000000000E+00 0.  1.
         12    1    5    5    0    0 -0.24843076438E+02 -0.46704328637E+02  0.13652647472E+03  0.14641704498E+03  0.00000000000E+00 0. -1.
         13    1    3    3    0    0 -0.25773473435E+02 -0.71677047100E+01 -0.30537475373E+03  0.30654426783E+03  0.00000000000E+00 0. -1.
        -14    1    3    3    0    0  0.52418589067E+02  0.30216533877E+02 -0.95749720748E+03  0.95940692604E+03  0.00000000000E+00 0.  1.
          5    1    4    4  501    0 -0.66178702315E+02  0.65578041818E+02 -0.18464958875E+03  0.20686479458E+03  0.41800000000E+01 0. -1.
         -5    1    4    4    0  501 -0.74527447920E+01  0.50555241119E+02 -0.49834924591E+03  0.50097985899E+03  0.41800000000E+01 0. -1.
</event>
<event>
11    1  0.8299058E-009  0.1380539E+03  0.7561462E-02  0.1109751E+00
         22   -1    0    0    0    0  0.00000000000E+00  0.00000000000E+00  0.15938341493E+04  0.15938341493E+04  0.00000000000E+00 0.  1.
         22   -1    0    0    0    0 -0.00000000000E+00 -0.00000000000E+00 -0.56896752940E+02  0.56896752940E+02  0.00000000000E+00 0.  1.
        -24    2    1    2    0    0  0.40671043662E+02 -0.22115782365E+02  0.45651598461E+02  0.10221711451E+03  0.78873496401E+02 0.  0.
         25    2    1    2    0    0 -0.41275892577E+02  0.78981019883E+02  0.19380945465E+03  0.24728823425E+03  0.12509062826E+03 0.  0.
         24    2    1    2    0    0  0.60484891453E+00 -0.56865237519E+02  0.12974763433E+04  0.13012255535E+04  0.80678737251E+02 0.  0.
        -11    1    5    5    0    0 -0.32020626290E+02 -0.54463322799E+02  0.98997983367E+03  0.99199377272E+03  0.00000000000E+00 0.  1.
         12    1    5    5    0    0  0.32625475205E+02 -0.24019147191E+01  0.30749650962E+03  0.30923178080E+03  0.00000000000E+00 0. -1.
         11    1    3    3    0    0  0.29231911100E+02 -0.13176777740E+02  0.68221643726E+02  0.75381196401E+02  0.00000000000E+00 0. -1.
        -12    1    3    3    0    0  0.11439132562E+02 -0.89390046246E+01 -0.22570045265E+02  0.26835918108E+02  0.00000000000E+00 0.  1.
          5    1    4    4  501    0 -0.69065018621E+02  0.47771928665E+02  0.50790534956E+02  0.98230773215E+02  0.41800000000E+01 0.  1.
         -5    1    4    4    0  501  0.27789126044E+02  0.31209091218E+02  0.14301891969E+03  0.14905746104E+03  0.41800000000E+01 0.  1.
</event>
<event>
11    1  0.8299058E-009  0.1366533E+03  0.7561462E-02  0.1111354E+00
         22   -1    0    0    0    0  0.00000000000E+00  0.00000000000E+00  0.51525813954E+03  0.51525813954E+03  0.00000000000E+00 0.  1.
         22   -1    0    0    0    0 -0.00000000000E+00 -0.00000000000E+00 -0.76080122180E+02  0.76080122180E+02  0.00000000000E+00 0.  1.
        -24    2    1    2    0    0 -0.12303056601E+02  0.18391690861E+02  0.46280990114E+02  0.10135525436E+03  0.87414747299E+02 0.  0.
         25    2    1    2    0    0  0.42649268617E+02 -0.60285957865E+02  0.86295925019E+02  0.16896102790E+03  0.12508990944E+03 0.  0.
         24    2    1    2    0    0 -0.30346212016E+02  0.41894267003E+02  0.30660110222E+03  0.32102197947E+03  0.79842677958E+02 0.  0.
        -13    1    5    5    0    0 -0.51705499037E+02  0.50343784131E+02  0.23238942034E+03  0.24333679935E+03  0.00000000000E+00 0.  1.
         14    1    5    5    0    0  0.21359287021E+02 -0.84495171280E+01  0.74211681879E+02  0.77685180112E+02  0.00000000000E+00 0. -1.
         11    1    3    3    0    0 -0.49466337447E+02  0.10124845848E+02  0.16833164127E+02  0.53223927499E+02  0.00000000000E+00 0. -1.
        -12    1    3    3    0    0  0.37163280846E+02  0.82668450132E+01  0.29447825987E+02  0.48131326858E+02  0.00000000000E+00 0.  1.
          5    1    4    4  501    0  0.69730980113E+02  0.59329868079E+01  0.24293477388E+02  0.74197408065E+02  0.41800000000E+01 0.  1.
         -5    1    4    4    0  501 -0.27081711496E+02 -0.66218944673E+02  0.62002447631E+02  0.94763619830E+02  0.41800000000E+01 0.  1.
</event>
<event>
11    1  0.8299058E-009  0.1684165E+03  0.7561462E-02  0.1079418E+00
         22   -1    0    0    0    0  0.00000000000E+00  0.00000000000E+00  0.78248619717E+02  0.78248619717E+02  0.00000000000E+00 0. -1.
         22   -1    0    0    0    0 -0.00000000000E+00 -0.00000000000E+00 -0.13376907746E+04  0.13376907746E+04  0.00000000000E+00 0.  1.
         24    2    1    2    0    0  0.27427421886E+02  0.23080512975E+02 -0.99328370867E+03  0.99714579916E+03  0.80014031967E+02 0.  0.
         25    2    1    2    0    0 -0.12279903088E+03 -0.60150759779E+02 -0.20147136140E+03  0.27374474389E+03  0.12509100469E+03 0.  0.
        -24    2    1    2    0    0  0.95371608997E+02  0.37070246804E+02 -0.64687084801E+02  0.14504885126E+03  0.79904964244E+02 0.  0.
        -13    1    3    3    0    0  0.52237497395E+02  0.30629109031E+01 -0.74295129517E+03  0.74479175918E+03  0.00000000000E+00 0.  1.
         14    1    3    3    0    0 -0.24810075509E+02  0.20017602071E+02 -0.25033241350E+03  0.25235403997E+03  0.00000000000E+00 0. -1.
         13    1    5    5    0    0  0.58172083137E+02  0.36142945896E+02  0.21851938921E+01  0.68520645552E+02  0.00000000000E+00 0. -1.
        -14    1    5    5    0    0  0.37199525860E+02  0.92730090891E+00 -0.66872278693E+02  0.76528205707E+02  0.00000000000E+00 0.  1.
          5    1    4    4  501    0 -0.14487572169E+02 -0.74380954470E+02 -0.77955245606E+02  0.10879755904E+03  0.41800000000E+01 0.  1.
         -5    1    4    4    0  501 -0.10831145871E+03  0.14230194691E+02 -0.12351611579E+03  0.16494718485E+03  0.41800000000E+01 0.  1.
</event>
<event>
11    1  0.8299058E-009  0.1551359E+03  0.7561462E-02  0.1091743E+00
         22   -1    0    0    0    0  0.00000000000E+00  0.00000000000E+00  0.33824800396E+03  0.33824800396E+03  0.00000000000E+00 0.  1.
         22   -1    0    0    0    0 -0.00000000000E+00 -0.00000000000E+00 -0.84322915641E+03  0.84322915641E+03  0.00000000000E+00 0.  1.
         24    2    1    2    0    0  0.27284858487E+01  0.92067491445E+02 -0.78809677496E+03  0.79788045811E+03  0.83861976595E+02 0.  0.
         25    2    1    2    0    0  0.49364634022E+01 -0.81934670209E+02  0.10251542796E+03  0.18136631608E+03  0.12508664511E+03 0.  0.
        -24    2    1    2    0    0 -0.76649492509E+01 -0.10132821235E+02  0.18060019455E+03  0.20223038618E+03  0.90107010314E+02 0.  0.
        -11    1    3    3    0    0 -0.25095817967E+02  0.31043450934E+02 -0.51970392398E+03  0.52123474992E+03  0.00000000000E+00 0.  1.
         12    1    3    3    0    0  0.27824303816E+02  0.61024040511E+02 -0.26839285098E+03  0.27664570819E+03  0.00000000000E+00 0. -1.
         13    1    5    5    0    0 -0.13575204518E+02 -0.39057718935E+01 -0.60613998402E+01  0.15371460562E+02  0.00000000000E+00 0. -1.
        -14    1    5    5    0    0  0.59102552670E+01 -0.62270493417E+01  0.18666159439E+03  0.18685892562E+03  0.00000000000E+00 0.  1.
          5    1    4    4  501    0 -0.23757405867E+02 -0.50145667501E+01  0.95767161067E+02  0.98885700443E+02  0.41800000000E+01 0.  1.
         -5    1    4    4    0  501  0.28693869269E+02 -0.76920103459E+02  0.67482668938E+01  0.82480615637E+02  0.41800000000E+01 0.  1.
</event>
<event>
11    1  0.8299058E-009  0.1376044E+03  0.7561462E-02  0.1110263E+00
         22   -1    0    0    0    0  0.00000000000E+00  0.00000000000E+00  0.17075680602E+03  0.17075680602E+03  0.00000000000E+00 0.  1.
         22   -1    0    0    0    0 -0.00000000000E+00 -0.00000000000E+00 -0.21918110123E+04  0.21918110123E+04  0.00000000000E+00 0.  1.
        -24    2    1    2    0    0  0.54408996861E+02 -0.23303369053E+02 -0.20311701955E+04  0.20334936194E+04  0.77074970699E+02 0.  0.
         25    2    1    2    0    0 -0.65671703182E+01  0.17252622686E+02 -0.11554062943E+03  0.17128302101E+03  0.12508978984E+03 0.  0.
         24    2    1    2    0    0 -0.47841826543E+02  0.60507463669E+01  0.12565661862E+03  0.15779117794E+03  0.82359080456E+02 0.  0.
        -13    1    5    5    0    0 -0.11463780314E+02  0.41230807845E+02  0.73955217843E+02  0.85444555244E+02  0.00000000000E+00 0.  1.
         14    1    5    5    0    0 -0.36378046229E+02 -0.35180061478E+02  0.51701400777E+02  0.72346622694E+02  0.00000000000E+00 0. -1.
         13    1    3    3    0    0  0.54641089356E+01 -0.25319102772E+02 -0.20025206819E+03  0.20192029186E+03  0.00000000000E+00 0. -1.
        -14    1    3    3    0    0  0.48944887926E+02  0.20157337189E+01 -0.18309181273E+04  0.18315733275E+04  0.00000000000E+00 0.  1.
          5    1    4    4  501    0 -0.36994379357E+02 -0.27624378437E+02 -0.10650486838E+03  0.11615700485E+03  0.41800000000E+01 0. -1.
         -5    1    4    4    0  501  0.30427209039E+02  0.44877001123E+02 -0.90357610544E+01  0.55126016159E+02  0.41800000000E+01 0. -1.
</event>
<event>
11    1  0.8299058E-009  0.1464205E+03  0.7561462E-02  0.1100593E+00
         22   -1    0    0    0    0  0.00000000000E+00  0.00000000000E+00  0.14357273294E+04  0.14357273294E+04  0.00000000000E+00 0. -1.
         22   -1    0    0    0    0 -0.00000000000E+00 -0.00000000000E+00 -0.17516028146E+04  0.17516028146E+04  0.00000000000E+00 0. -1.
         24    2    1    2    0    0  0.68779587942E+02  0.32735158951E+02 -0.16526733433E+04  0.16564001002E+04  0.80807734399E+02 0.  0.
         25    2    1    2    0    0 -0.95965935208E+02  0.32810862399E+02 -0.26715773484E+02  0.16324085639E+03  0.12509129158E+03 0.  0.
        -24    2    1    2    0    0  0.27186347267E+02 -0.65546021350E+02  0.13635136316E+04  0.13676891874E+04  0.79805459398E+02 0.  0.
        -11    1    3    3    0    0 -0.34702451726E+01 -0.16347286275E+02 -0.11063603902E+03  0.11189106086E+03  0.00000000000E+00 0.  1.
         12    1    3    3    0    0  0.72249833114E+02  0.49082445226E+02 -0.15420373043E+04  0.15445090394E+04  0.00000000000E+00 0. -1.
         13    1    5    5    0    0 -0.25966975722E+02 -0.35095085604E+02  0.44550363733E+03  0.44763762100E+03  0.00000000000E+00 0. -1.
        -14    1    5    5    0    0  0.53153322989E+02 -0.30450935746E+02  0.91800999430E+03  0.92005156642E+03  0.00000000000E+00 0.  1.
          5    1    4    4  501    0 -0.10091531566E+03  0.86832428482E+01 -0.62875857980E+02  0.11929017377E+03  0.41800000000E+01 0.  1.
         -5    1    4    4    0  501  0.49493804499E+01  0.24127619551E+02  0.36160084497E+02  0.43950682621E+02  0.41800000000E+01 0.  1.
</event>
<event>
11    1  0.8299058E-009  0.8107255E+03  0.7561462E-02  0.8883364E-01
         22   -1    0    0    0    0  0.00000000000E+00  0.00000000000E+00  0.15079804817E+04  0.15079804817E+04  0.00000000000E+00 0.  1.
         22   -1    0    0    0    0 -0.00000000000E+00 -0.00000000000E+00 -0.17093379231E+04  0.17093379231E+04  0.00000000000E+00 0.  1.
        -24    2    1    2    0    0  0.28937162197E+03  0.75644512766E+03 -0.14754913920E+04  0.16852022217E+04  0.82985018264E+02 0.  0.
         25    2    1    2    0    0 -0.24655003307E+03 -0.66010413527E+03  0.10245854622E+04  0.12497792380E+04  0.12509350912E+03 0.  0.
         24    2    1    2    0    0 -0.42821588906E+02 -0.96340992391E+02  0.24954848848E+03  0.28233694514E+03  0.79526267346E+02 0.  0.
        -13    1    5    5    0    0 -0.33781657877E+02 -0.75886264099E+02  0.24606075215E+03  0.25970332928E+03  0.00000000000E+00 0.  1.
         14    1    5    5    0    0 -0.90399310297E+01 -0.20454728292E+02  0.34877363305E+01  0.22633615867E+02  0.00000000000E+00 0. -1.
         11    1    3    3    0    0  0.12942071155E+03  0.31881912330E+03 -0.71156883684E+03  0.79039582711E+03  0.00000000000E+00 0. -1.
        -12    1    3    3    0    0  0.15995091043E+03  0.43762600435E+03 -0.76392255521E+03  0.89480639459E+03  0.00000000000E+00 0.  1.
          5    1    4    4  501    0 -0.19318394162E+03 -0.34519133293E+03  0.54052196019E+03  0.66981979179E+03  0.41800000000E+01 0. -1.
         -5    1    4    4    0  501 -0.53366091445E+02 -0.31491280234E+03  0.48406350203E+03  0.57995944616E+03  0.41800000000E+01 0. -1.
</event>
<event>
11    1  0.8299058E-009  0.1279725E+03  0.7561462E-02  0.1121785E+00
         22   -1    0    0    0    0  0.00000000000E+00  0.00000000000E+00  0.67971817260E+03  0.67971817260E+03  0.00000000000E+00 0. -1.
         22   -1    0    0    0    0 -0.00000000000E+00 -0.00000000000E+00 -0.93783659226E+03  0.93783659226E+03  0.00000000000E+00 0. -1.
         24    2    1    2    0    0 -0.22448982217E+02  0.14219696540E+02 -0.89029600180E+03  0.89432609631E+03  0.80535949392E+02 0.  0.
         25    2    1    2    0    0  0.37529852206E+02 -0.23655227229E+02  0.57678186018E+02  0.14473100652E+03  0.12510887868E+03 0.  0.
        -24    2    1    2    0    0 -0.15080869989E+02  0.94355306891E+01  0.57449939613E+03  0.57849766203E+03  0.65525010041E+02 0.  0.
        -11    1    3    3    0    0 -0.29349388277E+02 -0.12038868771E+02 -0.14041622966E+03  0.14395498777E+03  0.00000000000E+00 0.  1.
         12    1    3    3    0    0  0.69004060597E+01  0.26258565311E+02 -0.74987977214E+03  0.75037110853E+03  0.00000000000E+00 0. -1.
         11    1    5    5    0    0 -0.89527316358E+01  0.19408135018E+02  0.55720385922E+03  0.55761363670E+03  0.00000000000E+00 0. -1.
        -12    1    5    5    0    0 -0.61281383529E+01 -0.99726043284E+01  0.17295536906E+02  0.20884025321E+02  0.00000000000E+00 0.  1.
          5    1    4    4  501    0  0.30411021966E+02  0.22916772988E+02  0.82758676676E+02  0.91194735081E+02  0.41800000000E+01 0. -1.
         -5    1    4    4    0  501  0.71188302395E+01 -0.46572000218E+02 -0.25080490658E+02  0.53536271442E+02  0.41800000000E+01 0. -1.
</event>
<event>
11    1  0.8299058E-009  0.1963552E+03  0.7561462E-02  0.1057131E+00
         22   -1    0    0    0    0  0.00000000000E+00  0.00000000000E+00  0.21647731278E+03  0.21647731278E+03  0.00000000000E+00 0.  1.
         22   -1    0    0    0    0 -0.00000000000E+00 -0.00000000000E+00 -0.53396363853E+03  0.53396363853E+03  0.00000000000E+00 0. -1.
         24    2    1    2    0    0 -0.12937187134E+02 -0.21626667674E+02 -0.28015819410E+03  0.29394935228E+03  0.85337708087E+02 0.  0.
         25    2    1    2    0    0  0.63240380573E+01 -0.13366826708E+03 -0.15953344601E+03  0.24291158464E+03  0.12509164031E+03 0.  0.
        -24    2    1    2    0    0  0.66131490770E+01  0.15529493475E+03  0.12220531435E+03  0.21358001439E+03  0.80759105924E+02 0.  0.
        -13    1    3    3    0    0 -0.30750355389E+02 -0.47148166413E+02 -0.15265128263E+03  0.16269894911E+03  0.00000000000E+00 0.  1.
         14    1    3    3    0    0  0.17813168254E+02  0.25521498739E+02 -0.12750691147E+03  0.13125040317E+03  0.00000000000E+00 0. -1.
         13    1    5    5    0    0  0.38616636630E+02  0.65389025563E+02  0.32490876126E+02  0.82599190796E+02  0.00000000000E+00 0. -1.
        -14    1    5    5    0    0 -0.32003487553E+02  0.89905909189E+02  0.89714438223E+02  0.13098082359E+03  0.00000000000E+00 0.  1.
          5    1    4    4  501    0  0.24638165085E+02 -0.15319610377E+03 -0.12687956575E+03  0.20047938047E+03  0.41800000000E+01 0.  1.
         -5    1    4    4    0  501 -0.18314127028E+02  0.19527836691E+02 -0.32653880258E+02  0.42432204168E+02  0.41800000000E+01 0.  1.
</event>
<event>
11    1  0.8299058E-009  0.1419916E+03  0.7561462E-02  0.1105355E+00
         22   -1    0    0    0    0  0.00000000000E+00  0.00000000000E+00  0.87340661257E+03  0.87340661257E+03  0.00000000000E+00 0.  1.
         22   -1    0    0    0    0 -0.00000000000E+00 -0.00000000000E+00 -0.36438903427E+03  0.36438903427E+03  0.00000000000E+00 0. -1.
        -24    2    1    2    0    0  0.65776676949E+02 -0.36062220257E+01 -0.28744347004E+03  0.30611886432E+03  0.82130594520E+02 0.  0.
         25    2    1    2    0    0 -0.75607469833E+02  0.59574842101E+02  0.32451986108E+02  0.16114137052E+03  0.12509100121E+03 0.  0.
         24    2    1    2    0    0  0.98307928841E+01 -0.55968620076E+02  0.76400906223E+03  0.77053541201E+03  0.82376228794E+02 0.  0.
        -13    1    5    5    0    0 -0.94136505321E+01 -0.69447958490E+02  0.66914234806E+03  0.67280243587E+03  0.00000000000E+00 0.  1.
         14    1    5    5    0    0  0.19244443416E+02  0.13479338414E+02  0.94866714176E+02  0.97732976139E+02  0.00000000000E+00 0. -1.
         11    1    3    3    0    0  0.65663294138E+02 -0.31807723961E+02 -0.16404459762E+03  0.17953837893E+03  0.00000000000E+00 0. -1.
        -12    1    3    3    0    0  0.11338281090E+00  0.28201501935E+02 -0.12339887241E+03  0.12658048538E+03  0.00000000000E+00 0.  1.
          5    1    4    4  501    0 -0.93430563835E+02  0.37527432444E+01 -0.86692015699E+00  0.93603297436E+02  0.41800000000E+01 0. -1.
         -5    1    4    4    0  501  0.17823094002E+02  0.55822098857E+02  0.33318906265E+02  0.67538073079E+02  0.41800000000E+01 0. -1.
</event>
<event>
11    1  0.1347029E-008  0.1739352E+03  0.7561462E-02  0.1074657E+00
         22   -1    0    0    0    0  0.00000000000E+00  0.00000000000E+00  0.14157071120E+04  0.14157071120E+04  0.00000000000E+00 0. -1.
         22   -1    0    0    0    0 -0.00000000000E+00 -0.00000000000E+00 -0.82250448972E+03  0.82250448972E+03  0.00000000000E+00 0.  1.
        -24    2    1    2    0    0  0.10020100373E+03  0.37815921527E+02 -0.48521490727E+03  0.50341861918E+03  0.80786848157E+02 0.  0.
         25    2    1    2    0    0 -0.17401520241E+03 -0.13215061980E+03 -0.27550798891E+03  0.37322758427E+03  0.12509636573E+03 0.  0.
         24    2    1    2    0    0  0.73814198687E+02  0.94334698277E+02  0.13539255184E+04  0.13615653982E+04  0.79990330684E+02 0.  0.
        -13    1    5    5    0    0  0.60013905235E+02  0.27285360382E+02  0.42085960695E+03  0.42599174696E+03  0.00000000000E+00 0.  1.
         14    1    5    5    0    0  0.13800293452E+02  0.67049337895E+02  0.93306591146E+03  0.93557365127E+03  0.00000000000E+00 0. -1.
         11    1    3    3    0    0  0.15886010125E+02  0.42341451701E+02 -0.11229591641E+03  0.12106005408E+03  0.00000000000E+00 0. -1.
        -12    1    3    3    0    0  0.84314993601E+02 -0.45255301748E+01 -0.37291899086E+03  0.38235856511E+03  0.00000000000E+00 0.  1.
          5    1    4    4  501    0 -0.38755405385E+02 -0.76427167683E+01 -0.13802423268E+03  0.14362643828E+03  0.41800000000E+01 0. -1.
         -5    1    4    4    0  501 -0.13525979703E+03 -0.12450790304E+03 -0.13748375623E+03  0.22960114598E+03  0.41800000000E+01 0. -1.
</event>
<event>
11    1  0.8299058E-009  0.1303235E+03  0.7561462E-02  0.1118872E+00
         22   -1    0    0    0    0  0.00000000000E+00  0.00000000000E+00  0.25463574268E+04  0.25463574268E+04  0.00000000000E+00 0. -1.
         22   -1    0    0    0    0 -0.00000000000E+00 -0.00000000000E+00 -0.59026670054E+02  0.59026670054E+02  0.00000000000E+00 0.  1.
        -24    2    1    2    0    0  0.15835450149E+02 -0.18018285993E+01 -0.25024511770E+02  0.82488951070E+02  0.76968778031E+02 0.  0.
         25    2    1    2    0    0 -0.43495010671E+02  0.19755300498E+02  0.11278478037E+04  0.11357685246E+04  0.12508950940E+03 0.  0.
         24    2    1    2    0    0  0.27659560522E+02 -0.17953471899E+02  0.13845074648E+04  0.13871266212E+04  0.78561851843E+02 0.  0.
        -11    1    5    5    0    0 -0.10591713444E+02  0.66195629221E+00  0.27866741453E+02  0.29819085482E+02  0.00000000000E+00 0.  1.
         12    1    5    5    0    0  0.38251273966E+02 -0.18615428191E+02  0.13566407234E+04  0.13573075357E+04  0.00000000000E+00 0. -1.
         13    1    3    3    0    0  0.81937688210E+01 -0.15734336806E+02  0.24630048619E+02  0.30353690010E+02  0.00000000000E+00 0. -1.
        -14    1    3    3    0    0  0.76416813279E+01  0.13932508207E+02 -0.49654560389E+02  0.52135261061E+02  0.00000000000E+00 0.  1.
          5    1    4    4  501    0 -0.43555387279E+02 -0.25546166868E+02  0.18468097494E+03  0.19150512606E+03  0.41800000000E+01 0.  1.
         -5    1    4    4    0  501  0.60376608358E-01  0.45301467367E+02  0.94316682875E+03  0.94426339856E+03  0.41800000000E+01 0.  1.
</event>
<event>
11    1  0.8299058E-009  0.1489737E+03  0.7561462E-02  0.1097932E+00
         22   -1    0    0    0    0  0.00000000000E+00  0.00000000000E+00  0.59903413622E+03  0.59903413622E+03  0.00000000000E+00 0.  1.
         22   -1    0    0    0    0 -0.00000000000E+00 -0.00000000000E+00 -0.14716795353E+03  0.14716795353E+03  0.00000000000E+00 0. -1.
         24    2    1    2    0    0 -0.40567273465E+01  0.38589830918E+01 -0.73795931771E+02  0.10722584163E+03  0.77589901272E+02 0.  0.
         25    2    1    2    0    0  0.15700103956E+02 -0.83403904058E+02  0.64855378588E+02  0.16447823441E+03  0.12507663646E+03 0.  0.
        -24    2    1    2    0    0 -0.11643376609E+02  0.79544920966E+02  0.46080673587E+03  0.47449801371E+03  0.79640156429E+02 0.  0.
        -11    1    3    3    0    0  0.22713580235E+02 -0.94820563778E+01  0.30144914066E+01  0.24797243369E+02  0.00000000000E+00 0.  1.
         12    1    3    3    0    0 -0.26770307582E+02  0.13341039470E+02 -0.76810423178E+02  0.82428598259E+02  0.00000000000E+00 0. -1.
         11    1    5    5    0    0  0.33500444689E+02  0.34454329446E+02  0.23421556056E+03  0.23909477079E+03  0.00000000000E+00 0. -1.
        -12    1    5    5    0    0 -0.45143821298E+02  0.45090591520E+02  0.22659117531E+03  0.23540324291E+03  0.00000000000E+00 0.  1.
          5    1    4    4  501    0  0.17082940292E+02 -0.39195944066E+02 -0.34852796389E+02  0.55320328057E+02  0.41800000000E+01 0.  1.
         -5    1    4    4    0  501 -0.13828363369E+01 -0.44207959992E+02  0.99708174977E+02  0.10915790636E+03  0.41800000000E+01 0.  1.
</event>
<event>
11    1  0.8299058E-009  0.1305435E+03  0.7561462E-02  0.1118603E+00
         22   -1    0    0    0    0  0.00000000000E+00  0.00000000000E+00  0.22145188017E+03  0.22145188017E+03  0.00000000000E+00 0. -1.
         22   -1    0    0    0    0 -0.00000000000E+00 -0.00000000000E+00 -0.70728011331E+03  0.70728011331E+03  0.00000000000E+00 0.  1.
        -24    2    1    2    0    0 -0.37230490573E+02 -0.58387361707E+01 -0.63362828021E+03  0.63973986839E+03  0.79762782402E+02 0.  0.
         25    2    1    2    0    0  0.28299608635E+02  0.10464696022E+02  0.85958901387E+01  0.12896312513E+03  0.12508885084E+03 0.  0.
         24    2    1    2    0    0  0.89308819378E+01 -0.46259598515E+01  0.13920415692E+03  0.16002899997E+03  0.78296381579E+02 0.  0.
        -11    1    5    5    0    0  0.29682991349E+01 -0.14698765420E+02 -0.46496128005E+01  0.15699789929E+02  0.00000000000E+00 0.  1.
         12    1    5    5    0    0  0.59625828029E+01  0.10072805569E+02  0.14385376972E+03  0.14432921004E+03  0.00000000000E+00 0. -1.
         11    1    3    3    0    0  0.10529741347E+02 -0.47847597879E+01 -0.13511314444E+02  0.17785527742E+02  0.00000000000E+00 0. -1.
        -12    1    3    3    0    0 -0.47760231920E+02 -0.10539763828E+01 -0.62011696576E+03  0.62195434064E+03  0.00000000000E+00 0.  1.
          5    1    4    4  501    0  0.52683739584E+02  0.53766995745E+02 -0.93320997914E+01  0.75967274102E+02  0.41800000000E+01 0. -1.
         -5    1    4    4    0  501 -0.24384130948E+02 -0.43302299723E+02  0.17927989930E+02  0.52995851029E+02  0.41800000000E+01 0. -1.
</event>
<event>
11    1  0.8299058E-009  0.2005826E+03  0.7561462E-02  0.1054112E+00
         22   -1    0    0    0    0  0.00000000000E+00  0.00000000000E+00  0.31067446951E+03  0.31067446951E+03  0.00000000000E+00 0.  1.
         22   -1    0    0    0    0 -0.00000000000E+00 -0.00000000000E+00 -0.71433533845E+03  0.71433533845E+03  0.00000000000E+00 0.  1.
         24    2    1    2    0    0  0.99996825326E+02 -0.23647085376E+02 -0.29033910544E+03  0.32039875222E+03  0.88317691062E+02 0.  0.
         25    2    1    2    0    0 -0.21428484394E+03  0.12106418847E+03 -0.32928947899E+03  0.42971399674E+03  0.12509206987E+03 0.  0.
        -24    2    1    2    0    0  0.11428801861E+03 -0.97417103089E+02  0.21596771549E+03  0.27489705900E+03  0.79840439254E+02 0.  0.
        -11    1    3    3    0    0  0.10991874271E+03 -0.26175102411E+02 -0.28870691680E+03  0.31003056268E+03  0.00000000000E+00 0.  1.
         12    1    3    3    0    0 -0.99219173815E+01  0.25280170350E+01 -0.16321886384E+01  0.10368189543E+02  0.00000000000E+00 0. -1.
         11    1    5    5    0    0  0.10288163903E+02 -0.52952411544E+02  0.95298443951E+02  0.10950615336E+03  0.00000000000E+00 0. -1.
        -12    1    5    5    0    0  0.10399985471E+03 -0.44464691546E+02  0.12066927154E+03  0.16539090564E+03  0.00000000000E+00 0.  1.
          5    1    4    4  501    0 -0.44723661023E+02 -0.59041816672E+01 -0.13443561810E+03  0.14186427679E+03  0.41800000000E+01 0.  1.
         -5    1    4    4    0  501 -0.16956118292E+03  0.12696837013E+03 -0.19485386090E+03  0.28784971995E+03  0.41800000000E+01 0.  1.
</event>
<event>
11    1  0.8299058E-009  0.1965537E+03  0.7561462E-02  0.1056988E+00
         22   -1    0    0    0    0  0.00000000000E+00  0.00000000000E+00  0.96375851351E+03  0.96375851351E+03  0.00000000000E+00 0.  1.
         22   -1    0    0    0    0 -0.00000000000E+00 -0.00000000000E+00 -0.22377187534E+04  0.22377187534E+04  0.00000000000E+00 0.  1.
         24    2    1    2    0    0  0.83497040723E+02 -0.12554488851E+03 -0.20809486948E+04  0.20879172463E+04  0.79483848434E+02 0.  0.
         25    2    1    2    0    0 -0.82897803199E+02  0.14814012125E+03 -0.77776907118E+02  0.22475219954E+03  0.12508702019E+03 0.  0.
        -24    2    1    2    0    0 -0.59923752488E+00 -0.22595232733E+02  0.88476536204E+03  0.88880782107E+03  0.81600816791E+02 0.  0.
        -11    1    3    3    0    0  0.55128704648E+02 -0.75918734436E+02 -0.17117736747E+04  0.17143430059E+04  0.00000000000E+00 0.  1.
         12    1    3    3    0    0  0.28368336076E+02 -0.49626154077E+02 -0.36917502006E+03  0.37357424041E+03  0.00000000000E+00 0. -1.
         11    1    5    5    0    0 -0.64090449288E+01 -0.15067338239E+02  0.31606308487E+02  0.35595776079E+02  0.00000000000E+00 0. -1.
        -12    1    5    5    0    0  0.58098074039E+01 -0.75278944945E+01  0.85315905355E+03  0.85321204499E+03  0.00000000000E+00 0.  1.
          5    1    4    4  501    0 -0.10597128566E+03  0.13707325854E+03 -0.38252541972E+02  0.17748160738E+03  0.41800000000E+01 0.  1.
         -5    1    4    4    0  501  0.23073482463E+02  0.11066862710E+02 -0.39524365145E+02  0.47270592162E+02  0.41800000000E+01 0.  1.
</event>
<event>
11    1  0.8299058E-009  0.1485320E+03  0.7561462E-02  0.1098388E+00
         22   -1    0    0    0    0  0.00000000000E+00  0.00000000000E+00  0.79800851372E+03  0.79800851372E+03  0.00000000000E+00 0. -1.
         22   -1    0    0    0    0 -0.00000000000E+00 -0.00000000000E+00 -0.80686577008E+03  0.80686577008E+03  0.00000000000E+00 0. -1.
         24    2    1    2    0    0  0.43146849089E+02  0.61822803626E+02 -0.66104595503E+03  0.67029004410E+03  0.81383529769E+02 0.  0.
         25    2    1    2    0    0 -0.82918545255E+02 -0.12557296460E+03 -0.68999917380E+02  0.20749218298E+03  0.12509181754E+03 0.  0.
        -24    2    1    2    0    0  0.39771696166E+02  0.63750160971E+02  0.72118861606E+03  0.72709205672E+03  0.53888479010E+02 0.  0.
        -11    1    3    3    0    0  0.31801334342E+02  0.38437852022E+02 -0.14047330277E+03  0.14906891736E+03  0.00000000000E+00 0.  1.
         12    1    3    3    0    0  0.11345514747E+02  0.23384951604E+02 -0.52057265227E+03  0.52122112674E+03  0.00000000000E+00 0. -1.
         11    1    5    5    0    0  0.29444570261E+02  0.61082334465E+02  0.70088285554E+03  0.70415538874E+03  0.00000000000E+00 0. -1.
        -12    1    5    5    0    0  0.10327125904E+02  0.26678265061E+01  0.20305760522E+02  0.22936667981E+02  0.00000000000E+00 0.  1.
          5    1    4    4  501    0 -0.70711933858E+02 -0.11510611246E+03  0.13953521112E+01  0.13516291697E+03  0.41800000000E+01 0. -1.
         -5    1    4    4    0  501 -0.12206611397E+02 -0.10466852138E+02 -0.70395269491E+02  0.72329266014E+02  0.41800000000E+01 0. -1.
</event>
<event>
11    1  0.8299058E-009  0.1960504E+03  0.7561462E-02  0.1057352E+00
         22   -1    0    0    0    0  0.00000000000E+00  0.00000000000E+00  0.73132738385E+03  0.73132738385E+03  0.00000000000E+00 0.  1.
         22   -1    0    0    0    0 -0.00000000000E+00 -0.00000000000E+00 -0.12785432250E+03  0.12785432250E+03  0.00000000000E+00 0. -1.
         24    2    1    2    0    0  0.88182969015E+02 -0.12107435196E+03  0.19263934966E+02  0.17887041817E+03  0.95855581878E+02 0.  0.
         25    2    1    2    0    0 -0.85816251793E+02  0.12746399052E+03  0.17862235619E+03  0.26676900704E+03  0.12509300155E+03 0.  0.
        -24    2    1    2    0    0 -0.23667172223E+01 -0.63896385585E+01  0.40558677020E+03  0.41354228114E+03  0.80437312866E+02 0.  0.
        -11    1    3    3    0    0  0.76838496164E+01 -0.91487271762E+02  0.51604314684E+01  0.91954295671E+02  0.00000000000E+00 0.  1.
         12    1    3    3    0    0  0.80499119399E+02 -0.29587080201E+02  0.14103503497E+02  0.86916122496E+02  0.00000000000E+00 0. -1.
         13    1    5    5    0    0  0.35568780475E+02 -0.24995177461E+01  0.11329840790E+03  0.11877674421E+03  0.00000000000E+00 0. -1.
        -14    1    5    5    0    0 -0.37935497697E+02 -0.38901208124E+01  0.29228836230E+03  0.29476553693E+03  0.00000000000E+00 0.  1.
          5    1    4    4  501    0 -0.98090158544E+02  0.88477990198E+02  0.67727050343E+02  0.14850743988E+03  0.41800000000E+01 0.  1.
         -5    1    4    4    0  501  0.12273906751E+02  0.38986000323E+02  0.11089530585E+03  0.11826156716E+03  0.41800000000E+01 0.  1.
</event>
<event>
11    1  0.1247636E-008  0.1713840E+03  0.7561462E-02  0.1076834E+00
         22   -1    0    0    0    0  0.00000000000E+00  0.00000000000E+00  0.21415347789E+03  0.21415347789E+03  0.00000000000E+00 0. -1.
         22   -1    0    0    0    0 -0.00000000000E+00 -0.00000000000E+00 -0.17459331175E+04  0.17459331175E+04  0.00000000000E+00 0.  1.
         24    2    1    2    0    0 -0.92972409573E+02 -0.21640662529E+02 -0.12022517278E+04  0.12088505519E+04  0.82451517471E+02 0.  0.
         25    2    1    2    0    0  0.11745329353E+03 -0.92916640524E+02 -0.49532962089E+03  0.53237953615E+03  0.12509100262E+03 0.  0.
        -24    2    1    2    0    0 -0.24480883957E+02  0.11455730305E+03  0.16580170901E+03  0.21885650735E+03  0.81763529381E+02 0.  0.
        -13    1    3    3    0    0 -0.68851030759E+02 -0.46576891974E+01 -0.11066800611E+04  0.11088295253E+04  0.00000000000E+00 0.  1.
         14    1    3    3    0    0 -0.24121378813E+02 -0.16982973331E+02 -0.95571666661E+02  0.10002102663E+03  0.00000000000E+00 0. -1.
         11    1    5    5    0    0 -0.47813714399E+02  0.90668645825E+02  0.91523291002E+02  0.13741712927E+03  0.00000000000E+00 0. -1.
        -12    1    5    5    0    0  0.23332830442E+02  0.23888657228E+02  0.74278418011E+02  0.81439378085E+02  0.00000000000E+00 0.  1.
          5    1    4    4  501    0  0.11638265824E+03 -0.78074479791E+02 -0.25054716396E+03  0.28710956323E+03  0.41800000000E+01 0. -1.
         -5    1    4    4    0  501  0.10706352948E+01 -0.14842160734E+02 -0.24478245693E+03  0.24526997292E+03  0.41800000000E+01 0. -1.
</event>
<event>
11    1  0.8299058E-009  0.2765434E+03  0.7561462E-02  0.1010638E+00
         22   -1    0    0    0    0  0.00000000000E+00  0.00000000000E+00  0.67833696377E+03  0.67833696377E+03  0.00000000000E+00 0. -1.
         22   -1    0    0    0    0 -0.00000000000E+00 -0.00000000000E+00 -0.29541178539E+03  0.29541178539E+03  0.00000000000E+00 0.  1.
        -24    2    1    2    0    0  0.73911696522E+02  0.15361328156E+03  0.30761728547E+01  0.18823732005E+03  0.79773721647E+02 0.  0.
         25    2    1    2    0    0 -0.65814710003E+02 -0.37055658481E+03  0.76445948405E+02  0.40389960049E+03  0.12508855125E+03 0.  0.
         24    2    1    2    0    0 -0.80969865198E+01  0.21694330325E+03  0.30340305712E+03  0.38161182861E+03  0.80275865923E+02 0.  0.
        -13    1    5    5    0    0 -0.16536179848E+02  0.52039871426E+02  0.30231328442E+02  0.62414154495E+02  0.00000000000E+00 0.  1.
         14    1    5    5    0    0  0.84391933280E+01  0.16490343182E+03  0.27317172868E+03  0.31919767412E+03  0.00000000000E+00 0. -1.
         13    1    3    3    0    0  0.67476291081E+02  0.56806949982E+02 -0.15217120176E+02  0.89507765980E+02  0.00000000000E+00 0. -1.
        -14    1    3    3    0    0  0.64354054412E+01  0.96806331577E+02  0.18293293030E+02  0.98729554068E+02  0.00000000000E+00 0.  1.
          5    1    4    4  501    0 -0.69452861200E+02 -0.19943780616E+03 -0.11274228339E+02  0.21152711192E+03  0.41800000000E+01 0.  1.
         -5    1    4    4    0  501  0.36381511978E+01 -0.17111877865E+03  0.87720176744E+02  0.19237248857E+03  0.41800000000E+01 0.  1.
</event>
<event>
11    1  0.9836543E-009  0.2195750E+03  0.7561462E-02  0.1041484E+00
         22   -1    0    0    0    0  0.00000000000E+00  0.00000000000E+00  0.63855678357E+03  0.63855678357E+03  0.00000000000E+00 0.  1.
         22   -1    0    0    0    0 -0.00000000000E+00 -0.00000000000E+00 -0.52535545571E+03  0.52535545571E+03  0.00000000000E+00 0.  1.
        -24    2    1    2    0    0  0.41267920250E+02 -0.69642688389E+02 -0.18319674100E+03  0.21581936684E+03  0.80397810316E+02 0.  0.
         25    2    1    2    0    0 -0.89183507019E+02  0.23938215355E+03 -0.24335125910E+03  0.37433283268E+03  0.12509085082E+03 0.  0.
         24    2    1    2    0    0  0.47915586769E+02 -0.16973946516E+03  0.53974932796E+03  0.57376003975E+03  0.82242669503E+02 0.  0.
        -11    1    5    5    0    0  0.41045516835E+02 -0.17558850517E+03  0.53244604267E+03  0.56215197763E+03  0.00000000000E+00 0.  1.
         12    1    5    5    0    0  0.68700699346E+01  0.58490400137E+01  0.73032852905E+01  0.11608062113E+02  0.00000000000E+00 0. -1.
         13    1    3    3    0    0  0.10308910675E+02  0.14871174148E+02 -0.10105604687E+02  0.20725556831E+02  0.00000000000E+00 0. -1.
        -14    1    3    3    0    0  0.30959009575E+02 -0.84513862538E+02 -0.17309113631E+03  0.19509381001E+03  0.00000000000E+00 0.  1.
          5    1    4    4  501    0 -0.13184150391E+02  0.17159620784E+03 -0.10211323047E+03  0.20015909823E+03  0.41800000000E+01 0. -1.
         -5    1    4    4    0  501 -0.75999356628E+02  0.67785945710E+02 -0.14123802863E+03  0.17417373446E+03  0.41800000000E+01 0. -1.
</event>
<event>
11    1  0.8299058E-009  0.1863123E+03  0.7561462E-02  0.1064648E+00
         22   -1    0    0    0    0  0.00000000000E+00  0.00000000000E+00  0.97534272904E+03  0.97534272904E+03  0.00000000000E+00 0.  1.
         22   -1    0    0    0    0 -0.00000000000E+00 -0.00000000000E+00 -0.58196949957E+03  0.58196949957E+03  0.00000000000E+00 0. -1.
         24    2    1    2    0    0  0.11971718389E+03  0.98514988026E+01 -0.48918016920E+03  0.51009380931E+03  0.80431338480E+02 0.  0.
         25    2    1    2    0    0 -0.24605329690E+03  0.12834123517E+01  0.18109106379E+03  0.33012970827E+03  0.12509108216E+03 0.  0.
        -24    2    1    2    0    0  0.12633611301E+03 -0.11134911154E+02  0.70146233488E+03  0.71708871104E+03  0.77987258843E+02 0.  0.
        -13    1    3    3    0    0  0.26214853105E+02  0.10832430460E+02 -0.29212349244E+02  0.40717581231E+02  0.00000000000E+00 0.  1.
         14    1    3    3    0    0  0.93502330785E+02 -0.98093165739E+00 -0.45996781995E+03  0.46937622808E+03  0.00000000000E+00 0. -1.
         13    1    5    5    0    0  0.29041346514E+01  0.87293020448E+01  0.72618180950E+01  0.11720440022E+02  0.00000000000E+00 0. -1.
        -14    1    5    5    0    0  0.12343197836E+03 -0.19864213199E+02  0.69420051679E+03  0.70536827102E+03  0.00000000000E+00 0.  1.
          5    1    4    4  501    0 -0.81743936154E+02  0.54942003611E+02  0.37829954786E+02  0.10559011667E+03  0.41800000000E+01 0.  1.
         -5    1    4    4    0  501 -0.16430936075E+03 -0.53658591259E+02  0.14326110900E+03  0.22453959160E+03  0.41800000000E+01 0.  1.
</event>
<event>
11    1  0.8299058E-009  0.1358610E+03  0.7561462E-02  0.1112270E+00
         22   -1    0    0    0    0  0.00000000000E+00  0.00000000000E+00  0.68464786417E+03  0.68464786417E+03  0.00000000000E+00 0. -1.
         22   -1    0    0    0    0 -0.00000000000E+00 -0.00000000000E+00 -0.16114174488E+03  0.16114174488E+03  0.00000000000E+00 0. -1.
        -24    2    1    2    0    0 -0.10253579225E+02 -0.11735904623E+02 -0.88528522631E+02  0.11736867929E+03  0.75466815321E+02 0.  0.
         25    2    1    2    0    0  0.62106666292E+02  0.39824710986E+01  0.35865701525E+02  0.14424639278E+03  0.12509026825E+03 0.  0.
         24    2    1    2    0    0 -0.51853087067E+02  0.77534335246E+01  0.57616894039E+03  0.58417453699E+03  0.80872637017E+02 0.  0.
        -13    1    5    5    0    0  0.35146232310E+01 -0.29378120095E+02  0.16355307177E+03  0.16620780307E+03  0.00000000000E+00 0.  1.
         14    1    5    5    0    0 -0.55367710298E+02  0.37131553620E+02  0.41261586862E+03  0.41796673391E+03  0.00000000000E+00 0. -1.
         13    1    3    3    0    0  0.80882112485E+01  0.29410598051E+02 -0.47413566831E+02  0.56377732826E+02  0.00000000000E+00 0. -1.
        -14    1    3    3    0    0 -0.18341790474E+02 -0.41146502674E+02 -0.41114955800E+02  0.60990946463E+02  0.00000000000E+00 0.  1.
          5    1    4    4  501    0 -0.35117540521E+02 -0.16445375287E+02  0.19026899715E+02  0.43395706392E+02  0.41800000000E+01 0.  1.
         -5    1    4    4    0  501  0.97224206813E+02  0.20427846386E+02  0.16838801811E+02  0.10085068639E+03  0.41800000000E+01 0.  1.
</event>
<event>
11    1  0.8299058E-009  0.1735052E+03  0.7561462E-02  0.1075021E+00
         22   -1    0    0    0    0  0.00000000000E+00  0.00000000000E+00  0.45907154819E+03  0.45907154819E+03  0.00000000000E+00 0.  1.
         22   -1    0    0    0    0 -0.00000000000E+00 -0.00000000000E+00 -0.24655447952E+03  0.24655447952E+03  0.00000000000E+00 0. -1.
        -24    2    1    2    0    0  0.41762964986E+01 -0.16705056855E+01 -0.15591832810E+03  0.17587494413E+03  0.81248008563E+02 0.  0.
         25    2    1    2    0    0  0.99833112626E+02 -0.60316767369E+02  0.46822191282E+02  0.17732879164E+03  0.12509364470E+03 0.  0.
         24    2    1    2    0    0 -0.10400940912E+03  0.61987273055E+02  0.32161320549E+03  0.35242229194E+03  0.78141146036E+02 0.  0.
        -11    1    5    5    0    0 -0.10095858465E+03  0.60198700081E+02  0.20925696517E+03  0.24001040973E+03  0.00000000000E+00 0.  1.
         12    1    5    5    0    0 -0.30508244705E+01  0.17885729741E+01  0.11235624032E+03  0.11241188221E+03  0.00000000000E+00 0. -1.
         11    1    3    3    0    0 -0.34624645681E+02  0.31747125971E+01 -0.11101466249E+03  0.11633228347E+03  0.00000000000E+00 0. -1.
        -12    1    3    3    0    0  0.38800942180E+02 -0.48452182826E+01 -0.44903665602E+02  0.59542660662E+02  0.00000000000E+00 0.  1.
          5    1    4    4  501    0 -0.22501191736E+02 -0.39409977481E+01  0.35058157616E+02  0.42052133219E+02  0.41800000000E+01 0.  1.
         -5    1    4    4    0  501  0.12233430436E+03 -0.56375769621E+02  0.11764033666E+02  0.13527665842E+03  0.41800000000E+01 0.  1.
</event>
<event>
11    1  0.8299058E-009  0.1447496E+03  0.7561462E-02  0.1102368E+00
         22   -1    0    0    0    0  0.00000000000E+00  0.00000000000E+00  0.92585732212E+03  0.92585732212E+03  0.00000000000E+00 0.  1.
         22   -1    0    0    0    0 -0.00000000000E+00 -0.00000000000E+00 -0.25429069232E+03  0.25429069232E+03  0.00000000000E+00 0.  1.
         24    2    1    2    0    0 -0.39206776341E+01 -0.12509482315E+02 -0.20133390387E+03  0.21701343107E+03  0.79922647333E+02 0.  0.
         25    2    1    2    0    0 -0.68328999286E+02 -0.11031066856E-01  0.81972485131E+02  0.16443395229E+03  0.12510069577E+03 0.  0.
        -24    2    1    2    0    0  0.72249676920E+02  0.12520513382E+02  0.79092804854E+03  0.79870063108E+03  0.83538859458E+02 0.  0.
        -13    1    3    3    0    0 -0.25719047071E+02  0.15906579220E+02 -0.15765470557E+03  0.16052879752E+03  0.00000000000E+00 0.  1.
         14    1    3    3    0    0  0.21798369437E+02 -0.28416061535E+02 -0.43679198300E+02  0.56484633551E+02  0.00000000000E+00 0. -1.
         11    1    5    5    0    0 -0.16159321652E+02  0.44763128990E+01  0.56762915122E+02  0.59187748619E+02  0.00000000000E+00 0. -1.
        -12    1    5    5    0    0  0.88408998572E+02  0.80442004829E+01  0.73416513342E+03  0.73951288246E+03  0.00000000000E+00 0.  1.
          5    1    4    4  501    0 -0.49264197212E+02  0.20338090812E+02  0.11147059619E+03  0.12362752638E+03  0.41800000000E+01 0. -1.
         -5    1    4    4    0  501 -0.19064802074E+02 -0.20349121879E+02 -0.29498111057E+02  0.40806425907E+02  0.41800000000E+01 0. -1.
</event>
<event>
11    1  0.8299058E-009  0.1837749E+03  0.7561462E-02  0.1066630E+00
         22   -1    0    0    0    0  0.00000000000E+00  0.00000000000E+00  0.87082987959E+03  0.87082987959E+03  0.00000000000E+00 0. -1.
         22   -1    0    0    0    0 -0.00000000000E+00 -0.00000000000E+00 -0.13138242804E+03  0.13138242804E+03  0.00000000000E+00 0. -1.
         24    2    1    2    0    0  0.11253768085E+03  0.32207970789E+02  0.10540142086E+02  0.14153387670E+03  0.78858485067E+02 0.  0.
         25    2    1    2    0    0 -0.17496466568E+03 -0.41531295326E+02  0.13339740420E+03  0.25647320145E+03  0.12508458294E+03 0.  0.
        -24    2    1    2    0    0  0.62426984833E+02  0.93233245370E+01  0.59550990526E+03  0.60420522947E+03  0.80298563150E+02 0.  0.
        -11    1    3    3    0    0  0.56678205677E+01 -0.67337017903E+01 -0.21610148401E+02  0.23333783313E+02  0.00000000000E+00 0.  1.
         12    1    3    3    0    0  0.10686986028E+03  0.38941672580E+02  0.32150290487E+02  0.11820009339E+03  0.00000000000E+00 0. -1.
         13    1    5    5    0    0  0.44723966766E+02  0.16583172713E+02  0.57157755370E+03  0.57356441200E+03  0.00000000000E+00 0. -1.
        -14    1    5    5    0    0  0.17703018067E+02 -0.72598481756E+01  0.23932351565E+02  0.30640817477E+02  0.00000000000E+00 0.  1.
          5    1    4    4  501    0 -0.88690230263E+01 -0.15556843609E+02 -0.21185486551E+02  0.28053024666E+02  0.41800000000E+01 0. -1.
         -5    1    4    4    0  501 -0.16609564265E+03 -0.25974451717E+02  0.15458289075E+03  0.22842017679E+03  0.41800000000E+01 0. -1.
</event>
<event>
11    1  0.8299058E-009  0.1427412E+03  0.7561462E-02  0.1104535E+00
         22   -1    0    0    0    0  0.00000000000E+00  0.00000000000E+00  0.28899354096E+03  0.28899354096E+03  0.00000000000E+00 0.  1.
         22   -1    0    0    0    0 -0.00000000000E+00 -0.00000000000E+00 -0.76181357152E+03  0.76181357152E+03  0.00000000000E+00 0. -1.
         24    2    1    2    0    0 -0.70685035988E+02  0.10086576351E+02 -0.66180876393E+03  0.67013132217E+03  0.77375936856E+02 0.  0.
         25    2    1    2    0    0  0.35729950167E+02 -0.15676627457E+02 -0.38645100944E+02  0.13661323105E+03  0.12508934840E+03 0.  0.
        -24    2    1    2    0    0  0.34955085821E+02  0.55900511052E+01  0.22763383431E+03  0.24406255926E+03  0.80599402062E+02 0.  0.
        -13    1    3    3    0    0 -0.38944774174E+02  0.46725297439E-02 -0.99692440623E+02  0.10702933324E+03  0.00000000000E+00 0.  1.
         14    1    3    3    0    0 -0.31740261813E+02  0.10081903822E+02 -0.56211632331E+03  0.56310198893E+03  0.00000000000E+00 0. -1.
         13    1    5    5    0    0  0.24157776623E+02 -0.35533419155E+02  0.85249131977E+02  0.95465368333E+02  0.00000000000E+00 0. -1.
        -14    1    5    5    0    0  0.10797309197E+02  0.41123470260E+02  0.14238470234E+03  0.14859719093E+03  0.00000000000E+00 0.  1.
          5    1    4    4  501    0  0.45727682558E+02  0.47413709840E+02 -0.11129500536E+02  0.66935932167E+02  0.41800000000E+01 0. -1.
         -5    1    4    4    0  501 -0.99977323912E+01 -0.63090337296E+02 -0.27515600408E+02  0.69677298878E+02  0.41800000000E+01 0. -1.
</event>
<event>
11    1  0.8299058E-009  0.1359486E+03  0.7561462E-02  0.1112169E+00
         22   -1    0    0    0    0  0.00000000000E+00  0.00000000000E+00  0.74914719536E+03  0.74914719536E+03  0.00000000000E+00 0. -1.
         22   -1    0    0    0    0 -0.00000000000E+00 -0.00000000000E+00 -0.62512530965E+03  0.62512530965E+03  0.00000000000E+00 0.  1.
         24    2    1    2    0    0  0.43443261135E+02 -0.31603769724E+02 -0.58282535941E+03  0.59147481080E+03  0.85269789694E+02 0.  0.
         25    2    1    2    0    0 -0.39210067564E+02  0.13157467038E+02  0.90593877585E+02  0.15988899349E+03  0.12508673489E+03 0.  0.
        -24    2    1    2    0    0 -0.42331935705E+01  0.18446302686E+02  0.61625336753E+03  0.62290870072E+03  0.88819200791E+02 0.  0.
        -13    1    3    3    0    0  0.45415979075E+01  0.22512928252E+02 -0.30104441212E+03  0.30191918806E+03  0.00000000000E+00 0.  1.
         14    1    3    3    0    0  0.38901663227E+02 -0.54116697976E+02 -0.28178094729E+03  0.28955562273E+03  0.00000000000E+00 0. -1.
         11    1    5    5    0    0 -0.90251317452E+01  0.19263423168E+02  0.61751918616E+03  0.61788548919E+03  0.00000000000E+00 0. -1.
        -12    1    5    5    0    0  0.47919381747E+01 -0.81712048219E+00 -0.12658186234E+01  0.50232115364E+01  0.00000000000E+00 0.  1.
          5    1    4    4  501    0 -0.37304635671E+02 -0.52734187479E+02  0.35187896394E+02  0.73676256855E+02  0.41800000000E+01 0.  1.
         -5    1    4    4    0  501 -0.19054318939E+01  0.65891654517E+02  0.55405981191E+02  0.86212736631E+02  0.41800000000E+01 0.  1.
</event>
<event>
11    1  0.8299058E-009  0.1799272E+03  0.7561462E-02  0.1069702E+00
         22   -1    0    0    0    0  0.00000000000E+00  0.00000000000E+00  0.53777610082E+03  0.53777610082E+03  0.00000000000E+00 0.  1.
         22   -1    0    0    0    0 -0.00000000000E+00 -0.00000000000E+00 -0.43704241115E+03  0.43704241115E+03  0.00000000000E+00 0. -1.
        -24    2    1    2    0    0  0.57014321565E+01  0.42417213096E+02 -0.31832766297E+03  0.33202568689E+03  0.84123893404E+02 0.  0.
         25    2    1    2    0    0 -0.10240105600E+03  0.47656306234E+02 -0.27040497387E+02  0.17068488976E+03  0.12508014751E+03 0.  0.
         24    2    1    2    0    0  0.96699623839E+02 -0.90073519330E+02  0.44610185003E+03  0.47210793532E+03  0.80093606833E+02 0.  0.
        -11    1    5    5    0    0  0.47966255607E+02 -0.76460508118E+02  0.36904990068E+03  0.37992736170E+03  0.00000000000E+00 0.  1.
         12    1    5    5    0    0  0.48733368233E+02 -0.13613011213E+02  0.77051949352E+02  0.92180573618E+02  0.00000000000E+00 0. -1.
         13    1    3    3    0    0 -0.19946845959E+02 -0.21643994189E+01 -0.22131109156E+03  0.22221872229E+03  0.00000000000E+00 0. -1.
        -14    1    3    3    0    0  0.25648278116E+02  0.44581612515E+02 -0.97016571416E+02  0.10980696460E+03  0.00000000000E+00 0.  1.
          5    1    4    4  501    0  0.16221116164E+02 -0.24457011047E+02 -0.49613948908E+01  0.30055911868E+02  0.41800000000E+01 0.  1.
         -5    1    4    4    0  501 -0.11862217216E+03  0.72113317281E+02 -0.22079102496E+02  0.14062897790E+03  0.41800000000E+01 0.  1.
</event>
<event>
11    1  0.8299058E-009  0.1265505E+03  0.7561462E-02  0.1123581E+00
         22   -1    0    0    0    0  0.00000000000E+00  0.00000000000E+00  0.61176754733E+03  0.61176754733E+03  0.00000000000E+00 0. -1.
         22   -1    0    0    0    0 -0.00000000000E+00 -0.00000000000E+00 -0.13481978076E+03  0.13481978076E+03  0.00000000000E+00 0. -1.
        -24    2    1    2    0    0  0.15096611300E+02  0.11329286392E+02 -0.82655200833E+02  0.11720303158E+03  0.80922234181E+02 0.  0.
         25    2    1    2    0    0 -0.20085274316E+02 -0.88223290767E+01  0.96565601453E+02  0.15954102698E+03  0.12508865725E+03 0.  0.
         24    2    1    2    0    0  0.49886630154E+01 -0.25069573154E+01  0.46303736596E+03  0.46984326952E+03  0.79485370023E+02 0.  0.
        -11    1    5    5    0    0 -0.24434754171E+02  0.25117153739E+02  0.14110621696E+03  0.14539220436E+03  0.00000000000E+00 0.  1.
         12    1    5    5    0    0  0.29423417186E+02 -0.27624111055E+02  0.32193114900E+03  0.32445106516E+03  0.00000000000E+00 0. -1.
         11    1    3    3    0    0  0.37285348634E+01 -0.24202193949E+02 -0.75296616139E+02  0.79178460241E+02  0.00000000000E+00 0. -1.
        -12    1    3    3    0    0  0.11368076437E+02  0.35531480341E+02 -0.73585846946E+01  0.38024571343E+02  0.00000000000E+00 0.  1.
          5    1    4    4  501    0 -0.25276795435E+02 -0.58208478709E+02  0.88618752101E+02  0.10907749083E+03  0.41800000000E+01 0.  1.
         -5    1    4    4    0  501  0.51915211193E+01  0.49386149632E+02  0.79468493526E+01  0.50463536159E+02  0.41800000000E+01 0.  1.
</event>
<event>
11    1  0.8299058E-009  0.1561293E+03  0.7561462E-02  0.1090775E+00
         22   -1    0    0    0    0  0.00000000000E+00  0.00000000000E+00  0.54865154323E+02  0.54865154323E+02  0.00000000000E+00 0.  1.
         22   -1    0    0    0    0 -0.00000000000E+00 -0.00000000000E+00 -0.77612660173E+03  0.77612660173E+03  0.00000000000E+00 0.  1.
         24    2    1    2    0    0 -0.57928027909E+02  0.64559530234E+02 -0.38702347997E+03  0.40487550497E+03  0.81322881866E+02 0.  0.
         25    2    1    2    0    0  0.54331089237E+02 -0.10050209088E+03 -0.26342290071E+03  0.31319461939E+03  0.12508679973E+03 0.  0.
        -24    2    1    2    0    0  0.35969386722E+01  0.35942560645E+02 -0.70815066728E+02  0.11292163169E+03  0.80197977501E+02 0.  0.
        -13    1    3    3    0    0 -0.19194928591E+02  0.41974448979E+02 -0.64854857836E+02  0.79601835629E+02  0.00000000000E+00 0.  1.
         14    1    3    3    0    0 -0.38733099319E+02  0.22585081255E+02 -0.32216862214E+03  0.32527366934E+03  0.00000000000E+00 0. -1.
         11    1    5    5    0    0  0.35170801336E+02  0.78829710021E+01 -0.58865212491E+02  0.69023472385E+02  0.00000000000E+00 0. -1.
        -12    1    5    5    0    0 -0.31573862664E+02  0.28059589643E+02 -0.11949854237E+02  0.43898159310E+02  0.00000000000E+00 0.  1.
          5    1    4    4  501    0 -0.37285798517E+02 -0.48027772320E+02 -0.12486641608E+03  0.13894600372E+03  0.41800000000E+01 0.  1.
         -5    1    4    4    0  501  0.91616887754E+02 -0.52474318560E+02 -0.13855648463E+03  0.17424861567E+03  0.41800000000E+01 0.  1.
</event>
<event>
11    1  0.8299058E-009  0.1321800E+03  0.7561462E-02  0.1116619E+00
         22   -1    0    0    0    0  0.00000000000E+00  0.00000000000E+00  0.12339097700E+04  0.12339097700E+04  0.00000000000E+00 0.  1.
         22   -1    0    0    0    0 -0.00000000000E+00 -0.00000000000E+00 -0.25607296630E+03  0.25607296630E+03  0.00000000000E+00 0. -1.
        -24    2    1    2    0    0 -0.31478212384E+02 -0.20986926812E+02 -0.21959356362E+03  0.23684960830E+03  0.80281223337E+02 0.  0.
         25    2    1    2    0    0  0.44162324095E+02  0.58763914867E+02  0.18319097324E+03  0.23368942853E+03  0.12509319635E+03 0.  0.
         24    2    1    2    0    0 -0.12684111711E+02 -0.37776988055E+02  0.10142393941E+04  0.10194436994E+04  0.94846825696E+02 0.  0.
        -11    1    5    5    0    0 -0.11930125478E+02 -0.66538135157E+02  0.85162749643E+03  0.85430617696E+03  0.00000000000E+00 0.  1.
         12    1    5    5    0    0 -0.75398623302E+00  0.28761147102E+02  0.16261189763E+03  0.16513752247E+03  0.00000000000E+00 0. -1.
         11    1    3    3    0    0 -0.52896749348E+02  0.63387984436E+01 -0.14762490961E+03  0.15694381286E+03  0.00000000000E+00 0. -1.
        -12    1    3    3    0    0  0.21418536964E+02 -0.27325725255E+02 -0.71968654006E+02  0.79905795446E+02  0.00000000000E+00 0.  1.
          5    1    4    4  501    0  0.48006467918E+02  0.42980516089E+02  0.19986577224E+03  0.21003748484E+03  0.41800000000E+01 0. -1.
         -5    1    4    4    0  501 -0.38441438232E+01  0.15783398778E+02 -0.16674799001E+02  0.23651943692E+02  0.41800000000E+01 0. -1.
</event>
<event>
11    1  0.8299058E-009  0.1824850E+03  0.7561462E-02  0.1067650E+00
         22   -1    0    0    0    0  0.00000000000E+00  0.00000000000E+00  0.16042020078E+04  0.16042020078E+04  0.00000000000E+00 0.  1.
         22   -1    0    0    0    0 -0.00000000000E+00 -0.00000000000E+00 -0.13998127234E+03  0.13998127234E+03  0.00000000000E+00 0.  1.
         24    2    1    2    0    0  0.12899780799E+03  0.29514631868E+02 -0.64734296631E+02  0.16767317913E+03  0.80076325345E+02 0.  0.
         25    2    1    2    0    0 -0.13284483934E+03 -0.32214931560E+02  0.36237990558E+03  0.40701075092E+03  0.12511195884E+03 0.  0.
        -24    2    1    2    0    0  0.38470313551E+01  0.27002996921E+01  0.11665751265E+04  0.11694993501E+04  0.82517348337E+02 0.  0.
        -13    1    3    3    0    0  0.56631720645E+02  0.27335011940E+02 -0.71191027144E+02  0.94986930716E+02  0.00000000000E+00 0.  1.
         14    1    3    3    0    0  0.72366087341E+02  0.21796199275E+01  0.64567305126E+01  0.72686248418E+02  0.00000000000E+00 0. -1.
         11    1    5    5    0    0 -0.13549863079E+02  0.34025576023E+02  0.30686430318E+03  0.30904213172E+03  0.00000000000E+00 0. -1.
        -12    1    5    5    0    0  0.17396894434E+02 -0.31325276331E+02  0.85971082334E+03  0.86045721836E+03  0.00000000000E+00 0.  1.
          5    1    4    4  501    0 -0.23344581508E+02  0.40110738034E+02  0.15236791963E+03  0.15933391392E+03  0.41800000000E+01 0.  1.
         -5    1    4    4    0  501 -0.10950025783E+03 -0.72325669595E+02  0.21001198595E+03  0.24767683701E+03  0.41800000000E+01 0.  1.
</event>
<event>
11    1  0.8299058E-009  0.1301572E+03  0.7561462E-02  0.1119076E+00
         22   -1    0    0    0    0  0.00000000000E+00  0.00000000000E+00  0.30051722061E+04  0.30051722061E+04  0.00000000000E+00 0. -1.
         22   -1    0    0    0    0 -0.00000000000E+00 -0.00000000000E+00 -0.36362637537E+03  0.36362637537E+03  0.00000000000E+00 0.  1.
         24    2    1    2    0    0 -0.13797080763E+02 -0.53815053463E+01 -0.33641561706E+03  0.34614067229E+03  0.80116025672E+02 0.  0.
         25    2    1    2    0    0 -0.14815891033E+02 -0.17103633021E+02  0.16483133029E+03  0.20815724713E+03  0.12509207490E+03 0.  0.
        -24    2    1    2    0    0  0.28612971796E+02  0.22485138367E+02  0.28131301175E+04  0.28145006620E+04  0.79928937284E+02 0.  0.
        -11    1    3    3    0    0  0.12265585201E+02  0.27919445524E+02 -0.22341899108E+03  0.22549054436E+03  0.00000000000E+00 0.  1.
         12    1    3    3    0    0 -0.26062665964E+02 -0.33300950871E+02 -0.11299662598E+03  0.12065012793E+03  0.00000000000E+00 0. -1.
         11    1    5    5    0    0  0.33084575247E+02 -0.23497486832E+02  0.11017457132E+04  0.11024927834E+04  0.00000000000E+00 0. -1.
        -12    1    5    5    0    0 -0.44716034512E+01  0.45982625199E+02  0.17113844043E+04  0.17120078786E+04  0.00000000000E+00 0.  1.
          5    1    4    4  501    0  0.37898571306E+01  0.15063092840E+02 -0.16480674677E+02  0.23029216678E+02  0.41800000000E+01 0. -1.
         -5    1    4    4    0  501 -0.18605748164E+02 -0.32166725861E+02  0.18131200496E+03  0.18512803046E+03  0.41800000000E+01 0. -1.
</event>
<event>
11    1  0.8299058E-009  0.1704129E+03  0.7561462E-02  0.1077673E+00
         22   -1    0    0    0    0  0.00000000000E+00  0.00000000000E+00  0.34998324255E+03  0.34998324255E+03  0.00000000000E+00 0.  1.
         22   -1    0    0    0    0 -0.00000000000E+00 -0.00000000000E+00 -0.13064225492E+04  0.13064225492E+04  0.00000000000E+00 0. -1.
        -24    2    1    2    0    0 -0.11369438872E+03  0.17094575240E+02 -0.12288835686E+04  0.12369403202E+04  0.81534605739E+02 0.  0.
         25    2    1    2    0    0  0.13927605542E+03 -0.72741416929E+02  0.10881632608E+03  0.22840729494E+03  0.12505905089E+03 0.  0.
         24    2    1    2    0    0 -0.25581666701E+02  0.55646841689E+02  0.16362793590E+03  0.19105817661E+03  0.77318385795E+02 0.  0.
        -11    1    5    5    0    0 -0.76485657482E+01  0.39918420793E+02  0.16214201799E+03  0.16715865181E+03  0.00000000000E+00 0.  1.
         12    1    5    5    0    0 -0.17933100953E+02  0.15728420896E+02  0.14859179087E+01  0.23899524801E+02  0.00000000000E+00 0. -1.
         13    1    3    3    0    0 -0.10539612266E+03 -0.15360732547E+02 -0.99158227653E+03  0.99728617051E+03  0.00000000000E+00 0. -1.
        -14    1    3    3    0    0 -0.82982660651E+01  0.32455307787E+02 -0.23730129209E+03  0.23965414966E+03  0.00000000000E+00 0.  1.
          5    1    4    4  501    0  0.11043328168E+03 -0.12974134725E+02  0.13354909877E+02  0.11206990627E+03  0.41800000000E+01 0. -1.
         -5    1    4    4    0  501  0.28842773746E+02 -0.59767282204E+02  0.95461416206E+02  0.11633738867E+03  0.41800000000E+01 0. -1.
</event>
<event>
11    1  0.8299058E-009  0.1284145E+03  0.7561462E-02  0.1121233E+00
         22   -1    0    0    0    0  0.00000000000E+00  0.00000000000E+00  0.16375208451E+03  0.16375208451E+03  0.00000000000E+00 0.  1.
         22   -1    0    0    0    0 -0.00000000000E+00 -0.00000000000E+00 -0.10249702153E+04  0.10249702153E+04  0.00000000000E+00 0.  1.
        -24    2    1    2    0    0 -0.14853610062E+02  0.36962848507E+01 -0.75611087922E+03  0.76051202639E+03  0.80253276313E+02 0.  0.
         25    2    1    2    0    0  0.43111658743E+02 -0.54526313847E+01 -0.23654553930E+03  0.27108896330E+03  0.12508831901E+03 0.  0.
         24    2    1    2    0    0 -0.28258048681E+02  0.17563465340E+01  0.13143828776E+03  0.15712131008E+03  0.81298711690E+02 0.  0.
        -11    1    5    5    0    0 -0.26288929695E+02  0.78787308644E+01  0.14206961540E+03  0.14469608787E+03  0.00000000000E+00 0.  1.
         12    1    5    5    0    0 -0.19691189866E+01 -0.61223843304E+01 -0.10631327641E+02  0.12425222207E+02  0.00000000000E+00 0. -1.
         13    1    3    3    0    0 -0.20944063865E+02  0.32231984594E+02 -0.20146912841E+03  0.20510330164E+03  0.00000000000E+00 0. -1.
        -14    1    3    3    0    0  0.60904538027E+01 -0.28535699744E+02 -0.55464175081E+03  0.55540872475E+03  0.00000000000E+00 0.  1.
          5    1    4    4  501    0 -0.57321788973E+01 -0.26735500108E+02 -0.20926611162E+03  0.21108629210E+03  0.41800000000E+01 0.  1.
         -5    1    4    4    0  501  0.48843837640E+02  0.21282868723E+02 -0.27279427680E+02  0.60002671200E+02  0.41800000000E+01 0.  1.
</event>
<event>
11    1  0.8299058E-009  0.1528835E+03  0.7561462E-02  0.1093968E+00
         22   -1    0    0    0    0  0.00000000000E+00  0.00000000000E+00  0.79999496978E+02  0.79999496978E+02  0.00000000000E+00 0.  1.
         22   -1    0    0    0    0 -0.00000000000E+00 -0.00000000000E+00 -0.20975638828E+04  0.20975638828E+04  0.00000000000E+00 0.  1.
        -24    2    1    2    0    0  0.60850904328E+02  0.55602998704E+02 -0.14566818791E+04  0.14610266766E+04  0.76696329603E+02 0.  0.
         25    2    1    2    0    0 -0.13001791337E+03 -0.37540131622E+02 -0.57940341345E+03  0.60800239888E+03  0.12507870422E+03 0.  0.
         24    2    1    2    0    0  0.69167009047E+02 -0.18062867082E+02  0.18520906724E+02  0.10853430424E+03  0.79538222913E+02 0.  0.
        -13    1    5    5    0    0  0.51695632965E+02 -0.31885026569E+02  0.43767130896E+02  0.74864244696E+02  0.00000000000E+00 0.  1.
         14    1    5    5    0    0  0.17471376082E+02  0.13822159487E+02 -0.25246224171E+02  0.33670059548E+02  0.00000000000E+00 0. -1.
         11    1    3    3    0    0  0.30416826329E+02  0.51362731286E+02 -0.45819200787E+03  0.46206409682E+03  0.00000000000E+00 0. -1.
        -12    1    3    3    0    0  0.30434077999E+02  0.42402674181E+01 -0.99848987118E+03  0.99896257979E+03  0.00000000000E+00 0.  1.
          5    1    4    4  501    0 -0.13119369985E+03 -0.36297258194E+02 -0.31040530474E+03  0.33896637509E+03  0.41800000000E+01 0. -1.
         -5    1    4    4    0  501  0.11757864703E+01 -0.12428734285E+01 -0.26899810871E+03  0.26903602379E+03  0.41800000000E+01 0. -1.
</event>
<event>
11    1  0.8299058E-009  0.1378262E+03  0.7561462E-02  0.1110010E+00
         22   -1    0    0    0    0  0.00000000000E+00  0.00000000000E+00  0.66346848810E+03  0.66346848810E+03  0.00000000000E+00 0. -1.
         22   -1    0    0    0    0 -0.00000000000E+00 -0.00000000000E+00 -0.13609461054E+04  0.13609461054E+04  0.00000000000E+00 0. -1.
         24    2    1    2    0    0 -0.49467678693E+02 -0.41320791052E+01 -0.13054238691E+04  0.13088466968E+04  0.80523738680E+02 0.  0.
         25    2    1    2    0    0  0.90389290951E+02 -0.32655166443E+02  0.76615555852E+02  0.17535343089E+03  0.12506917491E+03 0.  0.
        -24    2    1    2    0    0 -0.40921612258E+02  0.36787245548E+02  0.53133069589E+03  0.54021446583E+03  0.80569727049E+02 0.  0.
        -13    1    3    3    0    0 -0.10823231770E+02  0.27828560173E+02 -0.19328610221E+03  0.19557885473E+03  0.00000000000E+00 0.  1.
         14    1    3    3    0    0 -0.38644446923E+02 -0.31960639279E+02 -0.11121377669E+04  0.11132678421E+04  0.00000000000E+00 0. -1.
         11    1    5    5    0    0 -0.27986428407E+01  0.55123722436E+02  0.29067602687E+03  0.29586992036E+03  0.00000000000E+00 0. -1.
        -12    1    5    5    0    0 -0.38122969417E+02 -0.18336476888E+02  0.24065466902E+03  0.24434454547E+03  0.00000000000E+00 0.  1.
          5    1    4    4  501    0  0.33032548541E+02 -0.61540324629E+02  0.85397211833E+02  0.11040161687E+03  0.41800000000E+01 0.  1.
         -5    1    4    4    0  501  0.57356742410E+02  0.28885158186E+02 -0.87816559805E+01  0.64951814024E+02  0.41800000000E+01 0.  1.
</event>
<event>
11    1  0.8299058E-009  0.1328032E+03  0.7561462E-02  0.1115872E+00
         22   -1    0    0    0    0  0.00000000000E+00  0.00000000000E+00  0.63371833536E+03  0.63371833536E+03  0.00000000000E+00 0. -1.
         22   -1    0    0    0    0 -0.00000000000E+00 -0.00000000000E+00 -0.36755393083E+04  0.36755393083E+04  0.00000000000E+00 0.  1.
         24    2    1    2    0    0 -0.44738106718E+02  0.23384764520E+01 -0.36319373031E+04  0.36331241898E+04  0.81337799886E+02 0.  0.
         25    2    1    2    0    0  0.11496507910E+02 -0.13310099163E+01  0.60448081073E+02  0.13941015938E+03  0.12508909126E+03 0.  0.
        -24    2    1    2    0    0  0.33241598808E+02 -0.10074665357E+01  0.52966824910E+03  0.53672329454E+03  0.80108813001E+02 0.  0.
        -13    1    3    3    0    0 -0.53567159487E+02 -0.27864726203E+02 -0.26292594245E+04  0.26299526621E+04  0.00000000000E+00 0.  1.
         14    1    3    3    0    0  0.88290527688E+01  0.30203202655E+02 -0.10026778787E+04  0.10031715277E+04  0.00000000000E+00 0. -1.
         13    1    5    5    0    0  0.41959951337E+02 -0.77006214944E+01  0.12834005432E+03  0.13524461775E+03  0.00000000000E+00 0. -1.
        -14    1    5    5    0    0 -0.87183525287E+01  0.66931549587E+01  0.40132819477E+03  0.40147867678E+03  0.00000000000E+00 0.  1.
          5    1    4    4  501    0  0.57010967370E+02 -0.21274501360E+02 -0.68286240594E-01  0.60994523292E+02  0.41800000000E+01 0. -1.
         -5    1    4    4    0  501 -0.45514459460E+02  0.19943491444E+02  0.60516367314E+02  0.78415636093E+02  0.41800000000E+01 0. -1.
</event>
<event>
11    1  0.8299058E-009  0.1673697E+03  0.7561462E-02  0.1080344E+00
         22   -1    0    0    0    0  0.00000000000E+00  0.00000000000E+00  0.74021043410E+02  0.74021043410E+02  0.00000000000E+00 0. -1.
         22   -1    0    0    0    0 -0.00000000000E+00 -0.00000000000E+00 -0.17100515101E+04  0.17100515101E+04  0.00000000000E+00 0. -1.
         24    2    1    2    0    0  0.23278213750E+02 -0.23824252465E+02 -0.13069236253E+04  0.13100850867E+04  0.84641016939E+02 0.  0.
         25    2    1    2    0    0  0.77264491968E+01  0.12631958106E+03 -0.27837417697E+03  0.33038934007E+03  0.12509436058E+03 0.  0.
        -24    2    1    2    0    0 -0.31004662946E+02 -0.10249532860E+03 -0.50732664451E+02  0.14359812679E+03  0.81117428871E+02 0.  0.
        -11    1    3    3    0    0  0.30529534967E+02  0.26254038182E+02 -0.54988308250E+03  0.55135535859E+03  0.00000000000E+00 0.  1.
         12    1    3    3    0    0 -0.72513212176E+01 -0.50078290647E+02 -0.75704054279E+03  0.75872972809E+03  0.00000000000E+00 0. -1.
         11    1    5    5    0    0 -0.22346206711E+02 -0.71346293327E+02  0.93729702361E+01  0.75349181129E+02  0.00000000000E+00 0. -1.
        -12    1    5    5    0    0 -0.86584562355E+01 -0.31149035270E+02 -0.60105634687E+02  0.68248945660E+02  0.00000000000E+00 0.  1.
          5    1    4    4  501    0 -0.22623565443E+02  0.15661606837E+02  0.15060074883E+01  0.27872066673E+02  0.41800000000E+01 0. -1.
         -5    1    4    4    0  501  0.30350014640E+02  0.11065797423E+03 -0.27988018446E+03  0.30251727340E+03  0.41800000000E+01 0. -1.
</event>
<event>
11    1  0.8299058E-009  0.1807196E+03  0.7561462E-02  0.1069062E+00
         22   -1    0    0    0    0  0.00000000000E+00  0.00000000000E+00  0.35572823100E+03  0.35572823100E+03  0.00000000000E+00 0. -1.
         22   -1    0    0    0    0 -0.00000000000E+00 -0.00000000000E+00 -0.27330942948E+03  0.27330942948E+03  0.00000000000E+00 0. -1.
         24    2    1    2    0    0 -0.11933801268E+03  0.32786847187E+02 -0.10879514271E+03  0.18207009676E+03  0.77437706819E+02 0.  0.
         25    2    1    2    0    0  0.12039260833E+03 -0.95885611400E+02 -0.32497386303E+02  0.20097578062E+03  0.12508698439E+03 0.  0.
        -24    2    1    2    0    0 -0.10545956469E+01  0.63098764213E+02  0.22371133053E+03  0.24599178311E+03  0.80514791994E+02 0.  0.
        -11    1    3    3    0    0 -0.10191337485E+03  0.89914572525E+01 -0.44962477208E+02  0.11175332941E+03  0.00000000000E+00 0.  1.
         12    1    3    3    0    0 -0.17424637831E+02  0.23795389934E+02 -0.63832665504E+02  0.70316767353E+02  0.00000000000E+00 0. -1.
         11    1    5    5    0    0  0.33656065124E+02  0.37116497411E+02  0.68692758570E+02  0.85023880055E+02  0.00000000000E+00 0. -1.
        -12    1    5    5    0    0 -0.34710660771E+02  0.25982266802E+02  0.15501857196E+03  0.16096790305E+03  0.00000000000E+00 0.  1.
          5    1    4    4  501    0  0.35958571537E+02  0.25089752163E+02 -0.30140952948E+02  0.53371003131E+02  0.41800000000E+01 0.  1.
         -5    1    4    4    0  501  0.84434036791E+02 -0.12097536356E+03 -0.23564333549E+01  0.14760477748E+03  0.41800000000E+01 0.  1.
</event>
<event>
11    1  0.8299058E-009  0.2548015E+03  0.7561462E-02  0.1021372E+00
         22   -1    0    0    0    0  0.00000000000E+00  0.00000000000E+00  0.14588956958E+04  0.14588956958E+04  0.00000000000E+00 0. -1.
         22   -1    0    0    0    0 -0.00000000000E+00 -0.00000000000E+00 -0.30059354776E+03  0.30059354776E+03  0.00000000000E+00 0.  1.
         24    2    1    2    0    0  0.91752435427E+02 -0.57671348925E+02 -0.21461141865E+03  0.25387727468E+03  0.81554372615E+02 0.  0.
         25    2    1    2    0    0 -0.27498290836E+03  0.14143023909E+03  0.46442108035E+03  0.57179766509E+03  0.12509003761E+03 0.  0.
        -24    2    1    2    0    0  0.18323047293E+03 -0.83758890163E+02  0.90849248638E+03  0.93381430383E+03  0.77856267143E+02 0.  0.
        -11    1    3    3    0    0  0.89414497446E+02 -0.55981542030E+02 -0.12226433904E+03  0.16148515103E+03  0.00000000000E+00 0.  1.
         12    1    3    3    0    0  0.23379379813E+01 -0.16898068943E+01 -0.92347079609E+02  0.92392123656E+02  0.00000000000E+00 0. -1.
         11    1    5    5    0    0  0.14638833437E+03 -0.76164992907E+02  0.83613387787E+03  0.85226199746E+03  0.00000000000E+00 0. -1.
        -12    1    5    5    0    0  0.36842138559E+02 -0.75938972563E+01  0.72358608504E+02  0.81552306367E+02  0.00000000000E+00 0.  1.
          5    1    4    4  501    0 -0.16296926116E+03  0.13491619856E+03  0.23409859921E+03  0.31556455325E+03  0.41800000000E+01 0. -1.
         -5    1    4    4    0  501 -0.11201364720E+03  0.65140405275E+01  0.23032248115E+03  0.25623311184E+03  0.41800000000E+01 0. -1.
</event>
<event>
11    1  0.8299058E-009  0.1831740E+03  0.7561462E-02  0.1067104E+00
         22   -1    0    0    0    0  0.00000000000E+00  0.00000000000E+00  0.72061416027E+03  0.72061416027E+03  0.00000000000E+00 0. -1.
         22   -1    0    0    0    0 -0.00000000000E+00 -0.00000000000E+00 -0.97425844825E+03  0.97425844825E+03  0.00000000000E+00 0.  1.
         24    2    1    2    0    0  0.98668419098E+02 -0.74077111502E+02 -0.66577935877E+03  0.68178351872E+03  0.79647576626E+02 0.  0.
         25    2    1    2    0    0 -0.14512506434E+03  0.12533377579E+03 -0.25212299376E+03  0.34056572493E+03  0.12509664009E+03 0.  0.
        -24    2    1    2    0    0  0.46456645239E+02 -0.51256664289E+02  0.66425806455E+03  0.67252336487E+03  0.79141862824E+02 0.  0.
        -11    1    3    3    0    0  0.26783823010E+02 -0.39118644095E+02 -0.43453171841E+03  0.43711034739E+03  0.00000000000E+00 0.  1.
         12    1    3    3    0    0  0.71884596088E+02 -0.34958467407E+02 -0.23124764036E+03  0.24467317133E+03  0.00000000000E+00 0. -1.
         13    1    5    5    0    0  0.56537243195E+01 -0.32011943386E+02  0.52782355764E+03  0.52882363518E+03  0.00000000000E+00 0. -1.
        -14    1    5    5    0    0  0.40802920919E+02 -0.19244720903E+02  0.13643450690E+03  0.14369972969E+03  0.00000000000E+00 0.  1.
          5    1    4    4  501    0 -0.13143853200E+03  0.12250366220E+03 -0.14085004402E+03  0.22834062768E+03  0.41800000000E+01 0.  1.
         -5    1    4    4    0  501 -0.13686532336E+02  0.28301135935E+01 -0.11127294973E+03  0.11222509725E+03  0.41800000000E+01 0.  1.
</event>
<event>
11    1  0.8299058E-009  0.2014275E+03  0.7561462E-02  0.1053519E+00
         22   -1    0    0    0    0  0.00000000000E+00  0.00000000000E+00  0.83922016279E+02  0.83922016279E+02  0.00000000000E+00 0.  1.
         22   -1    0    0    0    0 -0.00000000000E+00 -0.00000000000E+00 -0.17262803845E+04  0.17262803845E+04  0.00000000000E+00 0. -1.
         24    2    1    2    0    0  0.34363433756E+02  0.15672065078E+03 -0.14823455309E+04  0.14931582859E+04  0.80194675273E+02 0.  0.
         25    2    1    2    0    0 -0.46317212275E+02 -0.12828376545E+03 -0.13249307972E+03  0.22760350294E+03  0.12508768823E+03 0.  0.
        -24    2    1    2    0    0  0.11953778519E+02 -0.28436885337E+02 -0.27519757631E+02  0.89440611928E+02  0.79314164771E+02 0.  0.
        -13    1    3    3    0    0  0.44032387755E+02  0.95846590432E+02 -0.64694860409E+03  0.65549059216E+03  0.00000000000E+00 0.  1.
         14    1    3    3    0    0 -0.96689539990E+01  0.60874060351E+02 -0.83539692681E+03  0.83766769379E+03  0.00000000000E+00 0. -1.
         13    1    5    5    0    0  0.17719369689E+02 -0.40665614052E+02 -0.47707783462E+02  0.65143693718E+02  0.00000000000E+00 0. -1.
        -14    1    5    5    0    0 -0.57655911697E+01  0.12228728715E+02  0.20188025831E+02  0.24296918209E+02  0.00000000000E+00 0.  1.
          5    1    4    4  501    0 -0.57228882089E+02 -0.11156953756E+03 -0.38224869666E+02  0.13115456423E+03  0.41800000000E+01 0.  1.
         -5    1    4    4    0  501  0.10911669814E+02 -0.16714227888E+02 -0.94268210057E+02  0.96448938715E+02  0.41800000000E+01 0.  1.
</event>
<event>
11    1  0.8299058E-009  0.1296982E+03  0.7561462E-02  0.1119640E+00
         22   -1    0    0    0    0  0.00000000000E+00  0.00000000000E+00  0.27265003017E+04  0.27265003017E+04  0.00000000000E+00 0.  1.
         22   -1    0    0    0    0 -0.00000000000E+00 -0.00000000000E+00 -0.12663700382E+04  0.12663700382E+04  0.00000000000E+00 0. -1.
        -24    2    1    2    0    0 -0.33860125326E+02  0.54855744172E+01 -0.12526490634E+04  0.12558045184E+04  0.82089663001E+02 0.  0.
         25    2    1    2    0    0  0.31794634863E+02 -0.98157723606E+01  0.35403959720E+03  0.37695715217E+03  0.12508161332E+03 0.  0.
         24    2    1    2    0    0  0.20654904633E+01  0.43301979434E+01  0.23587397297E+04  0.23601086694E+04  0.80229681880E+02 0.  0.
        -11    1    5    5    0    0 -0.12238897678E+02  0.38680398803E+02  0.15241583235E+04  0.15246981862E+04  0.00000000000E+00 0.  1.
         12    1    5    5    0    0  0.14304388141E+02 -0.34350200860E+02  0.83458140623E+03  0.83541048320E+03  0.00000000000E+00 0. -1.
         13    1    3    3    0    0 -0.40469611409E+02  0.23446690568E+02 -0.11713391602E+04  0.11722725643E+04  0.00000000000E+00 0. -1.
        -14    1    3    3    0    0  0.66094860826E+01 -0.17961116151E+02 -0.81309903144E+02  0.83531954059E+02  0.00000000000E+00 0.  1.
          5    1    4    4  501    0  0.77815417309E+02 -0.17172844606E+02  0.18318384423E+03  0.19980975689E+03  0.41800000000E+01 0.  1.
         -5    1    4    4    0  501 -0.46020782447E+02  0.73570722451E+01  0.17085575298E+03  0.17714739528E+03  0.41800000000E+01 0.  1.
</event>
<event>
11    1  0.8299058E-009  0.2154167E+03  0.7561462E-02  0.1044127E+00
         22   -1    0    0    0    0  0.00000000000E+00  0.00000000000E+00  0.64450876494E+03  0.64450876494E+03  0.00000000000E+00 0. -1.
         22   -1    0    0    0    0 -0.00000000000E+00 -0.00000000000E+00 -0.14333544545E+03  0.14333544545E+03  0.00000000000E+00 0. -1.
        -24    2    1    2    0    0 -0.39358838124E+02 -0.19590291526E+03  0.45295729715E+02  0.21813419464E+03  0.74858221973E+02 0.  0.
         25    2    1    2    0    0  0.54129284562E+02  0.13216726695E+03  0.13588748077E+03  0.23347546772E+03  0.12508885121E+03 0.  0.
         24    2    1    2    0    0 -0.14770446438E+02  0.63735648303E+02  0.31999010901E+03  0.33623454803E+03  0.79872413683E+02 0.  0.
        -11    1    5    5    0    0  0.13506019755E+02  0.53173782480E+02  0.98935898533E+02  0.11312902250E+03  0.00000000000E+00 0.  1.
         12    1    5    5    0    0 -0.28276466193E+02  0.10561865823E+02  0.22105421048E+03  0.22310552553E+03  0.00000000000E+00 0. -1.
         13    1    3    3    0    0  0.80070199589E+01 -0.95363125398E+02 -0.56709299848E+01  0.95866560912E+02  0.00000000000E+00 0. -1.
        -14    1    3    3    0    0 -0.47365858083E+02 -0.10053978986E+03  0.50966659700E+02  0.12226763373E+03  0.00000000000E+00 0.  1.
          5    1    4    4  501    0 -0.25676883190E+02  0.62488607871E+02  0.92558773511E+01  0.68317436351E+02  0.41800000000E+01 0. -1.
         -5    1    4    4    0  501  0.79806167752E+02  0.69678659082E+02  0.12663160342E+03  0.16515803137E+03  0.41800000000E+01 0. -1.
</event>
<event>
11    1  0.8299058E-009  0.1750656E+03  0.7561462E-02  0.1073706E+00
         22   -1    0    0    0    0  0.00000000000E+00  0.00000000000E+00  0.10423930141E+04  0.10423930141E+04  0.00000000000E+00 0.  1.
         22   -1    0    0    0    0 -0.00000000000E+00 -0.00000000000E+00 -0.89060082002E+02  0.89060082002E+02  0.00000000000E+00 0.  1.
        -24    2    1    2    0    0 -0.10061475311E+03 -0.77009249060E+02  0.24528779821E+02  0.15102457725E+03  0.78441117474E+02 0.  0.
         25    2    1    2    0    0  0.97866832692E+02  0.49295108583E+02  0.27647830286E+03  0.32263783164E+03  0.12508794420E+03 0.  0.
         24    2    1    2    0    0  0.27479204213E+01  0.27714140477E+02  0.65232584938E+03  0.65779068717E+03  0.79899622695E+02 0.  0.
        -13    1    5    5    0    0 -0.38338621477E+02  0.18100538499E+02  0.31955492297E+03  0.32235512744E+03  0.00000000000E+00 0.  1.
         14    1    5    5    0    0  0.41086541899E+02  0.96136019784E+01  0.33277092640E+03  0.33543555972E+03  0.00000000000E+00 0. -1.
         13    1    3    3    0    0  0.96641432994E+01  0.47534607064E+01 -0.26177428774E+01  0.11083484658E+02  0.00000000000E+00 0. -1.
        -14    1    3    3    0    0 -0.11027889641E+03 -0.81762709767E+02  0.27146522699E+02  0.13994109260E+03  0.00000000000E+00 0.  1.
          5    1    4    4  501    0  0.29177046859E+01 -0.12739857753E+02  0.15790971494E+03  0.15850478683E+03  0.41800000000E+01 0. -1.
         -5    1    4    4    0  501  0.94949128006E+02  0.62034966337E+02  0.11856858792E+03  0.16413304481E+03  0.41800000000E+01 0. -1.
</event>
<event>
11    1  0.8299058E-009  0.1580073E+03  0.7561462E-02  0.1088967E+00
         22   -1    0    0    0    0  0.00000000000E+00  0.00000000000E+00  0.21561527323E+04  0.21561527323E+04  0.00000000000E+00 0.  1.
         22   -1    0    0    0    0 -0.00000000000E+00 -0.00000000000E+00 -0.14240817153E+04  0.14240817153E+04  0.00000000000E+00 0.  1.
         24    2    1    2    0    0  0.95286911649E+02  0.12091128977E+02 -0.13765085763E+04  0.13821974594E+04  0.80424905458E+02 0.  0.
         25    2    1    2    0    0 -0.12479769963E+03 -0.33356617138E+02  0.14119326260E+03  0.22862609083E+03  0.12508885749E+03 0.  0.
        -24    2    1    2    0    0  0.29510787977E+02  0.21265488160E+02  0.19673863307E+04  0.19694108973E+04  0.81530366987E+02 0.  0.
        -11    1    3    3    0    0  0.81836637859E+02  0.23140939556E+02 -0.65739521791E+03  0.66287345014E+03  0.00000000000E+00 0.  1.
         12    1    3    3    0    0  0.13450273789E+02 -0.11049810579E+02 -0.71911335836E+03  0.71932400930E+03  0.00000000000E+00 0. -1.
         11    1    5    5    0    0  0.12597141281E+02 -0.26839262572E+02  0.36099823631E+03  0.36221369467E+03  0.00000000000E+00 0. -1.
        -12    1    5    5    0    0  0.16913646696E+02  0.48104750732E+02  0.16063880944E+04  0.16071972026E+04  0.00000000000E+00 0.  1.
          5    1    4    4  501    0 -0.29491876794E+02  0.46188930861E+02  0.34566774525E+02  0.64927054700E+02  0.41800000000E+01 0.  1.
         -5    1    4    4    0  501 -0.95305822832E+02 -0.79545547999E+02  0.10662648807E+03  0.16369903613E+03  0.41800000000E+01 0.  1.
</event>
<event>
11    1  0.8299058E-009  0.1437234E+03  0.7561462E-02  0.1103470E+00
         22   -1    0    0    0    0  0.00000000000E+00  0.00000000000E+00  0.18339321446E+03  0.18339321446E+03  0.00000000000E+00 0. -1.
         22   -1    0    0    0    0 -0.00000000000E+00 -0.00000000000E+00 -0.20802034856E+04  0.20802034856E+04  0.00000000000E+00 0.  1.
        -24    2    1    2    0    0 -0.75161857966E+02  0.11382452018E+02 -0.16977202216E+04  0.17013361995E+04  0.80697259465E+02 0.  0.
         25    2    1    2    0    0  0.37183497737E+02 -0.36875156023E+01 -0.35738491696E+03  0.38048223790E+03  0.12508614716E+03 0.  0.
         24    2    1    2    0    0  0.37978360229E+02 -0.76949364155E+01  0.15829486741E+03  0.18177826269E+03  0.80526417074E+02 0.  0.
        -11    1    5    5    0    0  0.16394406486E+02  0.28176457028E+02  0.22328306998E+02  0.39512562409E+02  0.00000000000E+00 0.  1.
         12    1    5    5    0    0  0.21583953742E+02 -0.35871393443E+02  0.13596656041E+03  0.14226570028E+03  0.00000000000E+00 0. -1.
         11    1    3    3    0    0 -0.47592629345E+02 -0.32898526386E+02 -0.99687947489E+03  0.99855698829E+03  0.00000000000E+00 0. -1.
        -12    1    3    3    0    0 -0.27569228621E+02  0.44280978404E+02 -0.70084074675E+03  0.70277921122E+03  0.00000000000E+00 0.  1.
          5    1    4    4  501    0  0.78788953693E+02 -0.19372956388E+02 -0.27526356750E+03  0.28700263876E+03  0.41800000000E+01 0.  1.
         -5    1    4    4    0  501 -0.41605455956E+02  0.15685440786E+02 -0.82121349457E+02  0.93479599135E+02  0.41800000000E+01 0.  1.
</event>
<event>
11    1  0.8299058E-009  0.2542311E+03  0.7561462E-02  0.1021669E+00
         22   -1    0    0    0    0  0.00000000000E+00  0.00000000000E+00  0.10568567854E+04  0.10568567854E+04  0.00000000000E+00 0.  1.
         22   -1    0    0    0    0 -0.00000000000E+00 -0.00000000000E+00 -0.69335169327E+03  0.69335169327E+03  0.00000000000E+00 0. -1.
        -24    2    1    2    0    0  0.91539380445E+02  0.90681906269E+02 -0.60655195196E+03  0.62490255156E+03  0.77429078693E+02 0.  0.
         25    2    1    2    0    0 -0.28835189864E+03 -0.40665455741E+02  0.37257334296E+03  0.48914226112E+03  0.12509499988E+03 0.  0.
         24    2    1    2    0    0  0.19681251820E+03 -0.50016450528E+02  0.59748370115E+03  0.63616366600E+03  0.80502323921E+02 0.  0.
        -11    1    5    5    0    0  0.10946523204E+03 -0.44128678325E+02  0.44449433288E+03  0.45989693328E+03  0.00000000000E+00 0.  1.
         12    1    5    5    0    0  0.87347286158E+02 -0.58877722030E+01  0.15298936826E+03  0.17626673271E+03  0.00000000000E+00 0. -1.
         13    1    3    3    0    0  0.87002683337E+02  0.67966984289E+02 -0.57641162330E+03  0.58688954441E+03  0.00000000000E+00 0. -1.
        -14    1    3    3    0    0  0.45366971085E+01  0.22714921980E+02 -0.30140328660E+02  0.38013007154E+02  0.00000000000E+00 0.  1.
          5    1    4    4  501    0 -0.27175274625E+03  0.10757837723E+01  0.32206496972E+03  0.42141906640E+03  0.41800000000E+01 0. -1.
         -5    1    4    4    0  501 -0.16599152388E+02 -0.41741239513E+02  0.50508373241E+02  0.67723194724E+02  0.41800000000E+01 0. -1.
</event>
<event>
11    1  0.8299058E-009  0.1672528E+03  0.7561462E-02  0.1080447E+00
         22   -1    0    0    0    0  0.00000000000E+00  0.00000000000E+00  0.21069465065E+04  0.21069465065E+04  0.00000000000E+00 0. -1.
         22   -1    0    0    0    0 -0.00000000000E+00 -0.00000000000E+00 -0.30189066888E+03  0.30189066888E+03  0.00000000000E+00 0.  1.
        -24    2    1    2    0    0  0.67563998667E+02  0.80328698769E+02 -0.21197920087E+03  0.25018437734E+03  0.81482803696E+02 0.  0.
         25    2    1    2    0    0 -0.13708671947E+03 -0.92866861298E+02  0.85828137155E+02  0.22456418084E+03  0.12508229134E+03 0.  0.
         24    2    1    2    0    0  0.69522720802E+02  0.12538162528E+02  0.19312069013E+04  0.19340886172E+04  0.78409624341E+02 0.  0.
        -11    1    5    5    0    0  0.28648593532E+02 -0.23595612989E+01  0.17517156519E+03  0.17751446896E+03  0.00000000000E+00 0.  1.
         12    1    5    5    0    0  0.40874127270E+02  0.14897723827E+02  0.17560353361E+04  0.17565741482E+04  0.00000000000E+00 0. -1.
         11    1    3    3    0    0 -0.30976435140E+01 -0.13879755012E+02 -0.33040033505E+02  0.35970638145E+02  0.00000000000E+00 0. -1.
        -12    1    3    3    0    0  0.70661642181E+02  0.94208453781E+02 -0.17893916737E+03  0.21421373919E+03  0.00000000000E+00 0.  1.
          5    1    4    4  501    0  0.63964452490E+01 -0.59690859513E+02  0.25860198481E+02  0.65499125847E+02  0.41800000000E+01 0. -1.
         -5    1    4    4    0  501 -0.14348316472E+03 -0.33176001785E+02  0.59967938674E+02  0.15906505499E+03  0.41800000000E+01 0. -1.
</event>
<event>
11    1  0.8299058E-009  0.1387618E+03  0.7561462E-02  0.1108949E+00
         22   -1    0    0    0    0  0.00000000000E+00  0.00000000000E+00  0.14448304972E+03  0.14448304972E+03  0.00000000000E+00 0. -1.
         22   -1    0    0    0    0 -0.00000000000E+00 -0.00000000000E+00 -0.15752686369E+04  0.15752686369E+04  0.00000000000E+00 0.  1.
         24    2    1    2    0    0  0.55015660698E+02  0.16310956913E+02 -0.11549105411E+04  0.11592399193E+04  0.82012574931E+02 0.  0.
         25    2    1    2    0    0 -0.71451365577E+02 -0.27236587722E+02 -0.39573400226E+03  0.42201973818E+03  0.12509248384E+03 0.  0.
        -24    2    1    2    0    0  0.16435704880E+02  0.10925630809E+02  0.11985895616E+03  0.13849202910E+03  0.66515945080E+02 0.  0.
        -13    1    3    3    0    0  0.99099851018E+01  0.34347722423E+02 -0.82478354972E+03  0.82555791907E+03  0.00000000000E+00 0.  1.
         14    1    3    3    0    0  0.45105675596E+02 -0.18036765510E+02 -0.33012699133E+03  0.33368200024E+03  0.00000000000E+00 0. -1.
         13    1    5    5    0    0  0.22639335035E+02  0.15077295594E+02  0.12595244681E+03  0.12885605609E+03  0.00000000000E+00 0. -1.
        -14    1    5    5    0    0 -0.62036301555E+01 -0.41516647852E+01 -0.60934906516E+01  0.96359730134E+01  0.00000000000E+00 0.  1.
          5    1    4    4  501    0  0.62979172981E+01  0.20031959811E+02 -0.24477295926E+03  0.24570758466E+03  0.41800000000E+01 0.  1.
         -5    1    4    4    0  501 -0.77749282876E+02 -0.47268547533E+02 -0.15096104300E+03  0.17631215352E+03  0.41800000000E+01 0.  1.
</event>
<event>
11    1  0.8299058E-009  0.2828175E+03  0.7561462E-02  0.1007737E+00
         22   -1    0    0    0    0  0.00000000000E+00  0.00000000000E+00  0.25777282502E+04  0.25777282502E+04  0.00000000000E+00 0. -1.
         22   -1    0    0    0    0 -0.00000000000E+00 -0.00000000000E+00 -0.44996973968E+03  0.44996973968E+03  0.00000000000E+00 0.  1.
        -24    2    1    2    0    0 -0.64791689363E+02 -0.93802372371E+02 -0.38635073030E+03  0.41063494532E+03  0.79732825350E+02 0.  0.
         25    2    1    2    0    0  0.27692239624E+03  0.19928379426E+03  0.72612362712E+03  0.81197489358E+03  0.12509061415E+03 0.  0.
         24    2    1    2    0    0 -0.21213070687E+03 -0.10548142189E+03  0.17879856137E+04  0.18050881510E+04  0.72971986997E+02 0.  0.
        -13    1    5    5    0    0 -0.39365254261E+02 -0.21099216988E+02  0.59839575391E+03  0.60006022906E+03  0.00000000000E+00 0.  1.
         14    1    5    5    0    0 -0.17276545261E+03 -0.84382204903E+02  0.11895898598E+04  0.12050279220E+04  0.00000000000E+00 0. -1.
         11    1    3    3    0    0 -0.40864383453E+02 -0.47327203694E+02 -0.89269517092E+02  0.10898994782E+03  0.00000000000E+00 0. -1.
        -12    1    3    3    0    0 -0.23927305910E+02 -0.46475168677E+02 -0.29708121321E+03  0.30164499749E+03  0.00000000000E+00 0.  1.
          5    1    4    4  501    0  0.23949797012E+03  0.11649332562E+03  0.60011122485E+03  0.65656753438E+03  0.41800000000E+01 0. -1.
         -5    1    4    4    0  501  0.37424426116E+02  0.82790468646E+02  0.12601240227E+03  0.15540735920E+03  0.41800000000E+01 0. -1.
</event>
<event>
11    1  0.8299058E-009  0.1896678E+03  0.7561462E-02  0.1062080E+00
         22   -1    0    0    0    0  0.00000000000E+00  0.00000000000E+00  0.17471810059E+04  0.17471810059E+04  0.00000000000E+00 0. -1.
         22   -1    0    0    0    0 -0.00000000000E+00 -0.00000000000E+00 -0.17256340580E+03  0.17256340580E+03  0.00000000000E+00 0.  1.
         24    2    1    2    0    0 -0.15032159444E+03 -0.21482701096E+02 -0.10429255787E+03  0.20004470921E+03  0.77992691050E+02 0.  0.
         25    2    1    2    0    0  0.80555194993E+02 -0.47000429764E+02  0.33174660548E+03  0.36662605532E+03  0.12514261608E+03 0.  0.
        -24    2    1    2    0    0  0.69766399447E+02  0.68483130860E+02  0.13471635525E+04  0.13530736471E+04  0.80008548035E+02 0.  0.
        -13    1    3    3    0    0 -0.51204368560E+02 -0.19521612724E+02 -0.81683811899E+02  0.98362725914E+02  0.00000000000E+00 0.  1.
         14    1    3    3    0    0 -0.99117225879E+02 -0.19610883722E+01 -0.22608745967E+02  0.10168198330E+03  0.00000000000E+00 0. -1.
         11    1    5    5    0    0  0.80375897247E+02  0.71258097539E+02  0.10029854605E+04  0.10087208907E+04  0.00000000000E+00 0. -1.
        -12    1    5    5    0    0 -0.10609497800E+02 -0.27749666789E+01  0.34417809201E+03  0.34435275649E+03  0.00000000000E+00 0.  1.
          5    1    4    4  501    0  0.62746899893E+02 -0.89363717164E+02  0.21732094066E+03  0.24324660541E+03  0.41800000000E+01 0.  1.
         -5    1    4    4    0  501  0.17808295100E+02  0.42363287401E+02  0.11442566482E+03  0.12337944992E+03  0.41800000000E+01 0.  1.
</event>
<event>
11    1  0.8546817E-009  0.1797908E+03  0.7561462E-02  0.1069812E+00
         22   -1    0    0    0    0  0.00000000000E+00  0.00000000000E+00  0.10615134199E+04  0.10615134199E+04  0.00000000000E+00 0.  1.
         22   -1    0    0    0    0 -0.00000000000E+00 -0.00000000000E+00 -0.13419608854E+04  0.13419608854E+04  0.00000000000E+00 0. -1.
        -24    2    1    2    0    0 -0.46460217599E+02 -0.73546224248E-01 -0.12100074964E+04  0.12135895769E+04  0.80764860389E+02 0.  0.
         25    2    1    2    0    0  0.25129021165E+01  0.12223181411E+03 -0.62892984451E+02  0.18587475201E+03  0.12508782869E+03 0.  0.
         24    2    1    2    0    0  0.43947315482E+02 -0.12215826788E+03  0.99245301539E+03  0.10040099763E+04  0.78860863547E+02 0.  0.
        -11    1    5    5    0    0  0.62031588674E+02 -0.11466542268E+03  0.90842316927E+03  0.91773020633E+03  0.00000000000E+00 0.  1.
         12    1    5    5    0    0 -0.18084273191E+02 -0.74928452026E+01  0.84029846121E+02  0.86279769965E+02  0.00000000000E+00 0. -1.
         13    1    3    3    0    0 -0.53912961124E+01  0.36092215938E+02 -0.61049718027E+03  0.61158688773E+03  0.00000000000E+00 0. -1.
        -14    1    3    3    0    0 -0.41068921487E+02 -0.36165762162E+02 -0.59951031613E+03  0.60200268921E+03  0.00000000000E+00 0.  1.
          5    1    4    4  501    0  0.49732118065E+02  0.71227863397E+02  0.69524288437E+01  0.87249646178E+02  0.41800000000E+01 0.  1.
         -5    1    4    4    0  501 -0.47219215948E+02  0.51003950711E+02 -0.69845413295E+02  0.98625105837E+02  0.41800000000E+01 0.  1.
</event>
<event>
11    1  0.8299058E-009  0.1361610E+03  0.7561462E-02  0.1111923E+00
         22   -1    0    0    0    0  0.00000000000E+00  0.00000000000E+00  0.21255237183E+03  0.21255237183E+03  0.00000000000E+00 0. -1.
         22   -1    0    0    0    0 -0.00000000000E+00 -0.00000000000E+00 -0.49787595480E+03  0.49787595480E+03  0.00000000000E+00 0. -1.
        -24    2    1    2    0    0  0.16626391508E+02 -0.51514427682E+02 -0.25148851060E+03  0.26983375873E+03  0.81446996480E+02 0.  0.
         25    2    1    2    0    0 -0.17348889699E+02  0.50156178660E+02 -0.20797923495E+03  0.24843023341E+03  0.12508234276E+03 0.  0.
         24    2    1    2    0    0  0.72249819019E+00  0.13582490217E+01  0.17414416258E+03  0.19216433448E+03  0.81231614795E+02 0.  0.
        -11    1    5    5    0    0 -0.27784091993E+02 -0.90349837294E+01  0.20842187012E+02  0.35888486431E+02  0.00000000000E+00 0.  1.
         12    1    5    5    0    0  0.28506590183E+02  0.10393232751E+02  0.15330197557E+03  0.15627584805E+03  0.00000000000E+00 0. -1.
         11    1    3    3    0    0  0.46999050299E+02 -0.31657909671E+02 -0.10965178045E+03  0.12342871194E+03  0.00000000000E+00 0. -1.
        -12    1    3    3    0    0 -0.30372658791E+02 -0.19856518011E+02 -0.14183673014E+03  0.14640504679E+03  0.00000000000E+00 0.  1.
          5    1    4    4  501    0 -0.17367472472E+02 -0.21577523233E+02  0.39453429341E+00  0.28015114961E+02  0.41800000000E+01 0.  1.
         -5    1    4    4    0  501  0.18582773657E-01  0.71733701893E+02 -0.20837376925E+03  0.22041511845E+03  0.41800000000E+01 0.  1.
</event>
<event>
11    1  0.8299058E-009  0.2968024E+03  0.7561462E-02  0.1001554E+00
         22   -1    0    0    0    0  0.00000000000E+00  0.00000000000E+00  0.23083736673E+03  0.23083736673E+03  0.00000000000E+00 0.  1.
         22   -1    0    0    0    0 -0.00000000000E+00 -0.00000000000E+00 -0.18434498756E+04  0.18434498756E+04  0.00000000000E+00 0. -1.
         24    2    1    2    0    0 -0.20673837873E+03 -0.18148238672E+03 -0.15999571583E+04  0.16255828312E+04  0.83546507919E+02 0.  0.
         25    2    1    2    0    0  0.14187923990E+03  0.18679118493E+03 -0.12753611909E+03  0.29484324059E+03  0.12508560816E+03 0.  0.
        -24    2    1    2    0    0  0.64859138830E+02 -0.53087982059E+01  0.11488076850E+03  0.15386117050E+03  0.78998592320E+02 0.  0.
        -13    1    3    3    0    0 -0.71013210653E+02 -0.39926154583E+02 -0.68611992730E+03  0.69093959833E+03  0.00000000000E+00 0.  1.
         14    1    3    3    0    0 -0.13572516808E+03 -0.14155623214E+03 -0.91383723098E+03  0.93464323292E+03  0.00000000000E+00 0. -1.
         11    1    5    5    0    0  0.27537349666E+02  0.83384252062E+01 -0.35040606854E+01  0.28984709811E+02  0.00000000000E+00 0. -1.
        -12    1    5    5    0    0  0.37321789164E+02 -0.13647223412E+02  0.11838482918E+03  0.12487646069E+03  0.00000000000E+00 0.  1.
          5    1    4    4  501    0  0.42433248798E+02 -0.10869092117E+02 -0.28214313508E+02  0.52270810724E+02  0.41800000000E+01 0.  1.
         -5    1    4    4    0  501  0.99445991101E+02  0.19766027705E+03 -0.99321805578E+02  0.24257242987E+03  0.41800000000E+01 0.  1.
</event>
<event>
11    1  0.8299058E-009  0.1500702E+03  0.7561462E-02  0.1096807E+00
         22   -1    0    0    0    0  0.00000000000E+00  0.00000000000E+00  0.15633592207E+04  0.15633592207E+04  0.00000000000E+00 0. -1.
         22   -1    0    0    0    0 -0.00000000000E+00 -0.00000000000E+00 -0.87883992889E+02  0.87883992889E+02  0.00000000000E+00 0.  1.
        -24    2    1    2    0    0 -0.34128805366E+01  0.24882518440E+02  0.22573553203E+02  0.87363186792E+02  0.80572784641E+02 0.  0.
         25    2    1    2    0    0 -0.84017976011E+01 -0.10591996136E+03  0.73512314501E+02  0.17983678525E+03  0.12509028951E+03 0.  0.
         24    2    1    2    0    0  0.11814678138E+02  0.81037442920E+02  0.13793893601E+04  0.13840432416E+04  0.78447650818E+02 0.  0.
        -11    1    5    5    0    0 -0.10829602733E+02  0.86239624521E+02  0.92969964363E+03  0.93375370441E+03  0.00000000000E+00 0.  1.
         12    1    5    5    0    0  0.22644280871E+02 -0.52021816005E+01  0.44968971650E+03  0.45028953716E+03  0.00000000000E+00 0. -1.
         13    1    3    3    0    0 -0.10170950681E+02  0.35732308864E+02  0.46930559536E+02  0.59855856463E+02  0.00000000000E+00 0. -1.
        -14    1    3    3    0    0  0.67580701445E+01 -0.10849790424E+02 -0.24357006333E+02  0.27507330329E+02  0.00000000000E+00 0.  1.
          5    1    4    4  501    0 -0.62973145538E+02 -0.43884902149E+02  0.56442992838E+02  0.95366585008E+02  0.41800000000E+01 0.  1.
         -5    1    4    4    0  501  0.54571347937E+02 -0.62035059211E+02  0.17069321663E+02  0.84470200243E+02  0.41800000000E+01 0.  1.
</event>
<event>
11    1  0.8299058E-009  0.1458140E+03  0.7561462E-02  0.1101234E+00
         22   -1    0    0    0    0  0.00000000000E+00  0.00000000000E+00  0.54251830107E+03  0.54251830107E+03  0.00000000000E+00 0.  1.
         22   -1    0    0    0    0 -0.00000000000E+00 -0.00000000000E+00 -0.15070113972E+03  0.15070113972E+03  0.00000000000E+00 0. -1.
         24    2    1    2    0    0  0.12277421066E+01 -0.78052961718E+02 -0.63566585266E+02  0.12825471130E+03  0.79465640527E+02 0.  0.
         25    2    1    2    0    0 -0.16996978517E+02  0.64625419809E+02  0.48715359565E+02  0.14995321749E+03  0.12508972386E+03 0.  0.
        -24    2    1    2    0    0  0.15769236410E+02  0.13427541909E+02  0.40666838704E+03  0.41501151200E+03  0.80164894891E+02 0.  0.
        -13    1    3    3    0    0  0.99916272657E+01  0.12594687761E+02 -0.24169641584E+02  0.29028095864E+02  0.00000000000E+00 0.  1.
         14    1    3    3    0    0 -0.87638851591E+01 -0.90647649479E+02 -0.39396943682E+02  0.99226615435E+02  0.00000000000E+00 0. -1.
         11    1    5    5    0    0 -0.12553697741E+01  0.39828822843E+02  0.11606499458E+03  0.12271509300E+03  0.00000000000E+00 0. -1.
        -12    1    5    5    0    0  0.17024606184E+02 -0.26401280933E+02  0.29060339246E+03  0.29229641900E+03  0.00000000000E+00 0.  1.
          5    1    4    4  501    0 -0.69289027113E+02  0.44192418194E+02  0.44368632030E+02  0.93487897678E+02  0.41800000000E+01 0. -1.
         -5    1    4    4    0  501  0.52292048596E+02  0.20433001614E+02  0.43467275353E+01  0.56465319813E+02  0.41800000000E+01 0. -1.
</event>
<event>
11    1  0.8299058E-009  0.2808832E+03  0.7561462E-02  0.1008623E+00
         22   -1    0    0    0    0  0.00000000000E+00  0.00000000000E+00  0.24946293995E+04  0.24946293995E+04  0.00000000000E+00 0.  1.
         22   -1    0    0    0    0 -0.00000000000E+00 -0.00000000000E+00 -0.14690539580E+03  0.14690539580E+03  0.00000000000E+00 0. -1.
        -24    2    1    2    0    0  0.11586850718E+03  0.21909083226E+03  0.13234515199E+02  0.26093124735E+03  0.80521175542E+02 0.  0.
         25    2    1    2    0    0 -0.17851935168E+03 -0.22540059316E+03  0.11736013576E+04  0.12147683192E+04  0.12508931381E+03 0.  0.
         24    2    1    2    0    0  0.62650844497E+02  0.63097608929E+01  0.11608881309E+04  0.11658352287E+04  0.86865337008E+02 0.  0.
        -11    1    5    5    0    0  0.46706464320E+02  0.35327132850E+02  0.99230542393E+03  0.99403196854E+03  0.00000000000E+00 0.  1.
         12    1    5    5    0    0  0.15944380177E+02 -0.29017371957E+02  0.16858270695E+03  0.17180326021E+03  0.00000000000E+00 0. -1.
         13    1    3    3    0    0  0.12844822132E+03  0.19965375901E+03  0.10774363040E+02  0.23764817682E+03  0.00000000000E+00 0. -1.
        -14    1    3    3    0    0 -0.12579714138E+02  0.19437073254E+02  0.24601521594E+01  0.23283070526E+02  0.00000000000E+00 0.  1.
          5    1    4    4  501    0 -0.19284714965E+02 -0.16998225210E+02  0.33710082335E+03  0.33810542349E+03  0.41800000000E+01 0.  1.
         -5    1    4    4    0  501 -0.15923463671E+03 -0.20840236795E+03  0.83650053426E+03  0.87666289571E+03  0.41800000000E+01 0.  1.
</event>
<event>
11    1  0.8299058E-009  0.1335558E+03  0.7561462E-02  0.1114976E+00
         22   -1    0    0    0    0  0.00000000000E+00  0.00000000000E+00  0.39842271598E+03  0.39842271598E+03  0.00000000000E+00 0.  1.
         22   -1    0    0    0    0 -0.00000000000E+00 -0.00000000000E+00 -0.16602030852E+04  0.16602030852E+04  0.00000000000E+00 0. -1.
        -24    2    1    2    0    0 -0.10052073709E+02  0.16805209930E+02 -0.13796380062E+04  0.13821704039E+04  0.81305214612E+02 0.  0.
         25    2    1    2    0    0 -0.36772236164E+02 -0.21028501688E+02 -0.25591929306E+03  0.28798723549E+03  0.12509023946E+03 0.  0.
         24    2    1    2    0    0  0.46824309873E+02  0.42232917581E+01  0.37377693006E+03  0.38846816179E+03  0.94804889558E+02 0.  0.
        -13    1    5    5    0    0  0.39418610365E+02  0.39934111049E+02  0.30967390208E+03  0.31471651640E+03  0.00000000000E+00 0.  1.
         14    1    5    5    0    0  0.74056995076E+01 -0.35710819291E+02  0.64103027989E+02  0.73751645385E+02  0.00000000000E+00 0. -1.
         13    1    3    3    0    0 -0.71880743399E+01  0.13530109967E+02 -0.13769941023E+04  0.13770793333E+04  0.00000000000E+00 0. -1.
        -14    1    3    3    0    0 -0.28639993690E+01  0.32750999632E+01 -0.26439038751E+01  0.50910706002E+01  0.00000000000E+00 0.  1.
          5    1    4    4  501    0  0.29970415329E+02 -0.44574440572E+02 -0.65577812183E+02  0.84870656873E+02  0.41800000000E+01 0.  1.
         -5    1    4    4    0  501 -0.66742651493E+02  0.23545938884E+02 -0.19034148088E+03  0.20311657861E+03  0.41800000000E+01 0.  1.
</event>
<event>
11    1  0.8299058E-009  0.1653413E+03  0.7561462E-02  0.1082159E+00
         22   -1    0    0    0    0  0.00000000000E+00  0.00000000000E+00  0.15780535145E+04  0.15780535145E+04  0.00000000000E+00 0. -1.
         22   -1    0    0    0    0 -0.00000000000E+00 -0.00000000000E+00 -0.96893883715E+02  0.96893883715E+02  0.00000000000E+00 0. -1.
        -24    2    1    2    0    0 -0.58168883899E+02 -0.90540056722E+02 -0.23658597031E+02  0.13181287288E+03  0.72344891448E+02 0.  0.
         25    2    1    2    0    0  0.81201898339E+02  0.80488096344E+02  0.39116344785E+03  0.42629625545E+03  0.12509025753E+03 0.  0.
         24    2    1    2    0    0 -0.23033014440E+02  0.10051960378E+02  0.11136547800E+04  0.11168382699E+04  0.80431277925E+02 0.  0.
        -11    1    5    5    0    0 -0.39808613606E+02 -0.20669179051E+02  0.44149365563E+03  0.44376636718E+03  0.00000000000E+00 0.  1.
         12    1    5    5    0    0  0.16775599166E+02  0.30721139429E+02  0.67216112436E+03  0.67307190272E+03  0.00000000000E+00 0. -1.
         13    1    3    3    0    0 -0.53619838114E+02 -0.22927530668E+02 -0.26352746996E+02  0.63993952653E+02  0.00000000000E+00 0. -1.
        -14    1    3    3    0    0 -0.45490457845E+01 -0.67612526054E+02  0.26941499649E+01  0.67818920229E+02  0.00000000000E+00 0.  1.
          5    1    4    4  501    0  0.57636008220E+02  0.12340148399E+01  0.53942126034E+02  0.79061100405E+02  0.41800000000E+01 0. -1.
         -5    1    4    4    0  501  0.23565890118E+02  0.79254081504E+02  0.33722132181E+03  0.34723515504E+03  0.41800000000E+01 0. -1.
</event>
<event>
11    1  0.8299058E-009  0.2959378E+03  0.7561462E-02  0.1001925E+00
         22   -1    0    0    0    0  0.00000000000E+00  0.00000000000E+00  0.65145703260E+03  0.65145703260E+03  0.00000000000E+00 0. -1.
         22   -1    0    0    0    0 -0.00000000000E+00 -0.00000000000E+00 -0.41774892834E+03  0.41774892834E+03  0.00000000000E+00 0. -1.
        -24    2    1    2    0    0 -0.79282067075E+02  0.30844603440E+02 -0.25387563179E+03  0.27900285541E+03  0.78439283454E+02 0.  0.
         25    2    1    2    0    0 -0.10561407963E+03 -0.23630683058E+03  0.93643069060E+02  0.30234154643E+03  0.12508450870E+03 0.  0.
         24    2    1    2    0    0  0.18489614671E+03  0.20546222714E+03  0.39394066699E+03  0.48786155911E+03  0.80114542358E+02 0.  0.
        -11    1    5    5    0    0  0.11885813358E+03  0.77665640217E+02  0.22405112358E+03  0.26525103876E+03  0.00000000000E+00 0.  1.
         12    1    5    5    0    0  0.66038013131E+02  0.12779658693E+03  0.16988954342E+03  0.22261052035E+03  0.00000000000E+00 0. -1.
         11    1    3    3    0    0 -0.83771291397E+02  0.47936154154E+02 -0.22881784251E+03  0.24834071190E+03  0.00000000000E+00 0. -1.
        -12    1    3    3    0    0  0.44892243225E+01 -0.17091550714E+02 -0.25057789279E+02  0.30662143506E+02  0.00000000000E+00 0.  1.
          5    1    4    4  501    0 -0.39795301969E+02 -0.47767745890E+02 -0.28172035130E+02  0.68385375408E+02  0.41800000000E+01 0.  1.
         -5    1    4    4    0  501 -0.65818777666E+02 -0.18853908469E+03  0.12181510419E+03  0.23395617102E+03  0.41800000000E+01 0.  1.
</event>
<event>
11    1  0.8299058E-009  0.1807504E+03  0.7561462E-02  0.1069037E+00
         22   -1    0    0    0    0  0.00000000000E+00  0.00000000000E+00  0.32486877703E+04  0.32486877703E+04  0.00000000000E+00 0. -1.
         22   -1    0    0    0    0 -0.00000000000E+00 -0.00000000000E+00 -0.19811343640E+03  0.19811343640E+03  0.00000000000E+00 0. -1.
        -24    2    1    2    0    0 -0.10852581791E+03  0.71597040321E+02 -0.15035649742E+03  0.22608599834E+03  0.10772099606E+03 0.  0.
         25    2    1    2    0    0  0.16036174660E+03 -0.19530109861E+02  0.12365387319E+04  0.12533057625E+04  0.12509989572E+03 0.  0.
         24    2    1    2    0    0 -0.51835928695E+02 -0.52066930459E+02  0.19643920994E+04  0.19674094458E+04  0.80409443247E+02 0.  0.
        -13    1    5    5    0    0  0.78415869678E-01 -0.49111275278E+02  0.59236467210E+03  0.59439702915E+03  0.00000000000E+00 0.  1.
         14    1    5    5    0    0 -0.51914344565E+02 -0.29556551817E+01  0.13720274273E+04  0.13730124167E+04  0.00000000000E+00 0. -1.
         11    1    3    3    0    0 -0.48457731576E+02  0.92943748633E+02 -0.99709650016E+02  0.14466757227E+03  0.00000000000E+00 0. -1.
        -12    1    3    3    0    0 -0.60068086333E+02 -0.21346708312E+02 -0.50646847403E+02  0.81418426068E+02  0.00000000000E+00 0.  1.
          5    1    4    4  501    0  0.32522811917E+02  0.44532359384E+01  0.51976106073E+02  0.61616171642E+02  0.41800000000E+01 0.  1.
         -5    1    4    4    0  501  0.12783893469E+03 -0.23983345800E+02  0.11845626258E+04  0.11916895909E+04  0.41800000000E+01 0.  1.
</event>
<event>
11    1  0.8299058E-009  0.1771066E+03  0.7561462E-02  0.1072008E+00
         22   -1    0    0    0    0  0.00000000000E+00  0.00000000000E+00  0.35713535767E+03  0.35713535767E+03  0.00000000000E+00 0. -1.
         22   -1    0    0    0    0 -0.00000000000E+00 -0.00000000000E+00 -0.15800007227E+03  0.15800007227E+03  0.00000000000E+00 0. -1.
         24    2    1    2    0    0 -0.11298236064E+03 -0.39288933850E+02 -0.26572084666E+02  0.14535121200E+03  0.78180976002E+02 0.  0.
         25    2    1    2    0    0  0.14149484441E+03  0.17038435714E+02  0.95067521210E+02  0.21212339488E+03  0.12508957503E+03 0.  0.
        -24    2    1    2    0    0 -0.28512483771E+02  0.22250498136E+02  0.13063984886E+03  0.15766082306E+03  0.80511605493E+02 0.  0.
        -13    1    3    3    0    0 -0.91423150586E+01  0.12181626981E+02 -0.25201892673E+02  0.29446720613E+02  0.00000000000E+00 0.  1.
         14    1    3    3    0    0 -0.10384004558E+03 -0.51470560831E+02 -0.13701919931E+01  0.11590449139E+03  0.00000000000E+00 0. -1.
         13    1    5    5    0    0 -0.51498459551E+02 -0.13251205376E+01  0.10090682345E+03  0.11329622367E+03  0.00000000000E+00 0. -1.
        -14    1    5    5    0    0  0.22985975779E+02  0.23575618673E+02  0.29733025416E+02  0.44364599387E+02  0.00000000000E+00 0.  1.
          5    1    4    4  501    0 -0.74263505864E+01  0.19424879985E+02 -0.15760318563E+02  0.26426060749E+02  0.41800000000E+01 0.  1.
         -5    1    4    4    0  501  0.14892119499E+03 -0.23864442710E+01  0.11082783977E+03  0.18569733413E+03  0.41800000000E+01 0.  1.
</event>
<event>
11    1  0.8299058E-009  0.1251655E+03  0.7561462E-02  0.1125356E+00
         22   -1    0    0    0    0  0.00000000000E+00  0.00000000000E+00  0.25568098286E+03  0.25568098286E+03  0.00000000000E+00 0. -1.
         22   -1    0    0    0    0 -0.00000000000E+00 -0.00000000000E+00 -0.17067409950E+04  0.17067409950E+04  0.00000000000E+00 0.  1.
        -24    2    1    2    0    0 -0.18019904711E+01  0.39508713606E+01 -0.16426896753E+04  0.16447177341E+04  0.81536489867E+02 0.  0.
         25    2    1    2    0    0 -0.12075742325E+02 -0.81361471968E+01  0.19304982521E+02  0.12740656859E+03  0.12509089066E+03 0.  0.
         24    2    1    2    0    0  0.13877732796E+02  0.41852758362E+01  0.17232468063E+03  0.19029767512E+03  0.79418521779E+02 0.  0.
        -11    1    5    5    0    0  0.19637571962E+02  0.39380100274E+02  0.79643701615E+02  0.90992009194E+02  0.00000000000E+00 0.  1.
         12    1    5    5    0    0 -0.57598391658E+01 -0.35194824438E+02  0.92680979013E+02  0.99305665928E+02  0.00000000000E+00 0. -1.
         13    1    3    3    0    0  0.17895931883E+02  0.36071056780E+02 -0.60135548330E+03  0.60270208462E+03  0.00000000000E+00 0. -1.
        -14    1    3    3    0    0 -0.19697922354E+02 -0.32120185419E+02 -0.10413341920E+04  0.10420156495E+04  0.00000000000E+00 0.  1.
          5    1    4    4  501    0 -0.15238609338E+01  0.40473125815E+02 -0.34966183324E+02  0.53670312479E+02  0.41800000000E+01 0.  1.
         -5    1    4    4    0  501 -0.10551881391E+02 -0.48609273012E+02  0.54271165845E+02  0.73736256114E+02  0.41800000000E+01 0.  1.
</event>
<event>
11    1  0.8299058E-009  0.1316365E+03  0.7561462E-02  0.1117274E+00
         22   -1    0    0    0    0  0.00000000000E+00  0.00000000000E+00  0.37020418711E+03  0.37020418711E+03  0.00000000000E+00 0. -1.
         22   -1    0    0    0    0 -0.00000000000E+00 -0.00000000000E+00 -0.11221470947E+03  0.11221470947E+03  0.00000000000E+00 0. -1.
         24    2    1    2    0    0 -0.18228119839E+02  0.97271323048E+01 -0.38615816509E+02  0.92320805997E+02  0.81271572394E+02 0.  0.
         25    2    1    2    0    0  0.55150785646E+02 -0.12562118039E+01  0.86402058830E+02  0.16172808099E+03  0.12508984446E+03 0.  0.
        -24    2    1    2    0    0 -0.36922665807E+02 -0.84709205009E+01  0.21020323533E+03  0.22837000959E+03  0.80823396335E+02 0.  0.
        -13    1    3    3    0    0 -0.26697763762E+02 -0.12463302294E+02  0.15449309090E+02  0.33268388078E+02  0.00000000000E+00 0.  1.
         14    1    3    3    0    0  0.84696439231E+01  0.22190434599E+02 -0.54065125600E+02  0.59052417918E+02  0.00000000000E+00 0. -1.
         13    1    5    5    0    0  0.12104854812E+02  0.20736096381E+02  0.11410687812E+03  0.11660571529E+03  0.00000000000E+00 0. -1.
        -14    1    5    5    0    0 -0.49027520620E+02 -0.29207016882E+02  0.96096357202E+02  0.11176429430E+03  0.00000000000E+00 0.  1.
          5    1    4    4  501    0 -0.13504438789E+02 -0.43466399929E+02  0.62750146916E+02  0.77632152667E+02  0.41800000000E+01 0. -1.
         -5    1    4    4    0  501  0.68655224435E+02  0.42210188125E+02  0.23651911914E+02  0.84095928326E+02  0.41800000000E+01 0. -1.
</event>
<event>
11    1  0.8299058E-009  0.1585152E+03  0.7561462E-02  0.1088482E+00
         22   -1    0    0    0    0  0.00000000000E+00  0.00000000000E+00  0.57979515846E+03  0.57979515846E+03  0.00000000000E+00 0. -1.
         22   -1    0    0    0    0 -0.00000000000E+00 -0.00000000000E+00 -0.47241365357E+03  0.47241365357E+03  0.00000000000E+00 0.  1.
        -24    2    1    2    0    0 -0.77433991283E+02 -0.63911341908E+02 -0.31888973552E+03  0.34380124848E+03  0.80174512215E+02 0.  0.
         25    2    1    2    0    0  0.68387476900E+02  0.53884723751E+02 -0.95664111066E+02  0.17994709180E+03  0.12509565641E+03 0.  0.
         24    2    1    2    0    0  0.90465143832E+01  0.10026618157E+02  0.52193535147E+03  0.52846047175E+03  0.81679780804E+02 0.  0.
        -13    1    5    5    0    0 -0.10099304355E+02 -0.33131633196E+02  0.18257606000E+03  0.18583250188E+03  0.00000000000E+00 0.  1.
         14    1    5    5    0    0  0.19145818738E+02  0.43158251352E+02  0.33935929147E+03  0.34262796988E+03  0.00000000000E+00 0. -1.
         11    1    3    3    0    0 -0.90693588306E+01 -0.40000233340E+02 -0.46763929552E+02  0.62202387767E+02  0.00000000000E+00 0. -1.
        -12    1    3    3    0    0 -0.68364632452E+02 -0.23911108568E+02 -0.27212580596E+03  0.28159886071E+03  0.00000000000E+00 0.  1.
          5    1    4    4  501    0  0.95134349712E+02  0.36410308696E+01 -0.61899808652E+02  0.11363476718E+03  0.41800000000E+01 0. -1.
         -5    1    4    4    0  501 -0.26746872812E+02  0.50243692881E+02 -0.33764302414E+02  0.66312324625E+02  0.41800000000E+01 0. -1.
</event>
<event>
11    1  0.8299058E-009  0.2088891E+03  0.7561462E-02  0.1048410E+00
         22   -1    0    0    0    0  0.00000000000E+00  0.00000000000E+00  0.87142433929E+03  0.87142433929E+03  0.00000000000E+00 0.  1.
         22   -1    0    0    0    0 -0.00000000000E+00 -0.00000000000E+00 -0.36671272732E+03  0.36671272732E+03  0.00000000000E+00 0.  1.
         24    2    1    2    0    0 -0.13316043615E+03  0.97540355147E+02 -0.29035973651E+03  0.34318245869E+03  0.78864445272E+02 0.  0.
         25    2    1    2    0    0  0.16197806467E+03 -0.10208151060E+03  0.23461271056E+03  0.32764005147E+03  0.12508937256E+03 0.  0.
        -24    2    1    2    0    0 -0.28817628526E+02  0.45411554508E+01  0.56045863793E+03  0.56731455646E+03  0.82950848922E+02 0.  0.
        -11    1    3    3    0    0 -0.10552106261E+03  0.83579707375E+02 -0.27974720335E+03  0.31044928720E+03  0.00000000000E+00 0.  1.
         12    1    3    3    0    0 -0.27639373539E+02  0.13960647773E+02 -0.10612533161E+02  0.32733171492E+02  0.00000000000E+00 0. -1.
         13    1    5    5    0    0  0.24094037356E+02 -0.34570497476E+01  0.73526096030E+02  0.77450375251E+02  0.00000000000E+00 0. -1.
        -14    1    5    5    0    0 -0.52911665882E+02  0.79982051983E+01  0.48693254190E+03  0.48986418121E+03  0.00000000000E+00 0.  1.
          5    1    4    4  501    0  0.14482281952E+03 -0.65357155117E+02  0.10187561388E+03  0.18878908836E+03  0.41800000000E+01 0. -1.
         -5    1    4    4    0  501  0.17155245151E+02 -0.36724355481E+02  0.13273709668E+03  0.13885096311E+03  0.41800000000E+01 0. -1.
</event>
<event>
11    1  0.8299058E-009  0.2672037E+03  0.7561462E-02  0.1015114E+00
         22   -1    0    0    0    0  0.00000000000E+00  0.00000000000E+00  0.53600627808E+03  0.53600627808E+03  0.00000000000E+00 0.  1.
         22   -1    0    0    0    0 -0.00000000000E+00 -0.00000000000E+00 -0.15901306563E+04  0.15901306563E+04  0.00000000000E+00 0. -1.
         24    2    1    2    0    0 -0.45122399650E+01 -0.84320465375E+01 -0.13343845478E+04  0.13368506482E+04  0.80598229256E+02 0.  0.
         25    2    1    2    0    0 -0.21220789897E+03  0.10240629706E+03 -0.13941562564E+03  0.30100386904E+03  0.12508944976E+03 0.  0.
        -24    2    1    2    0    0  0.21672013893E+03 -0.93974250526E+02  0.41967579520E+03  0.48828241713E+03  0.80580192503E+02 0.  0.
        -11    1    3    3    0    0 -0.12225636889E+02 -0.31126914284E+02 -0.25301583839E+03  0.25521631113E+03  0.00000000000E+00 0.  1.
         12    1    3    3    0    0  0.77133969245E+01  0.22694867747E+02 -0.10813687094E+04  0.10816343371E+04  0.00000000000E+00 0. -1.
         13    1    5    5    0    0  0.67849191360E+02 -0.17969433038E+02  0.62717754241E+02  0.94127201110E+02  0.00000000000E+00 0. -1.
        -14    1    5    5    0    0  0.14887094757E+03 -0.76004817488E+02  0.35695804096E+03  0.39415521602E+03  0.00000000000E+00 0.  1.
          5    1    4    4  501    0 -0.11566033234E+03  0.54712416321E+02 -0.14458423534E+03  0.19311352745E+03  0.41800000000E+01 0. -1.
         -5    1    4    4    0  501 -0.96547566628E+02  0.47693880742E+02  0.51686096941E+01  0.10789034159E+03  0.41800000000E+01 0. -1.
</event>
<event>
11    1  0.9450597E-009  0.1694701E+03  0.7561462E-02  0.1078494E+00
         22   -1    0    0    0    0  0.00000000000E+00  0.00000000000E+00  0.80542684864E+03  0.80542684864E+03  0.00000000000E+00 0.  1.
         22   -1    0    0    0    0 -0.00000000000E+00 -0.00000000000E+00 -0.28200732513E+03  0.28200732513E+03  0.00000000000E+00 0. -1.
        -24    2    1    2    0    0  0.18712672217E+02  0.17088220667E+02 -0.16920213539E+03  0.18934956750E+03  0.81127829402E+02 0.  0.
         25    2    1    2    0    0  0.81927484107E+02 -0.72443263935E+02 -0.24141427829E+02  0.16789922466E+03  0.12508877633E+03 0.  0.
         24    2    1    2    0    0 -0.10064015632E+03  0.55355043268E+02  0.71676308673E+03  0.73018538162E+03  0.78922412214E+02 0.  0.
        -11    1    5    5    0    0  0.53178378504E+01  0.28063663273E+02  0.19428245413E+03  0.19637087508E+03  0.00000000000E+00 0.  1.
         12    1    5    5    0    0 -0.10595799417E+03  0.27291379995E+02  0.52248063260E+03  0.53381450654E+03  0.00000000000E+00 0. -1.
         13    1    3    3    0    0  0.44133902037E+02  0.45891048764E+01 -0.14642469387E+03  0.15300017048E+03  0.00000000000E+00 0. -1.
        -14    1    3    3    0    0 -0.25421229819E+02  0.12499115791E+02 -0.22777441517E+02  0.36349397012E+02  0.00000000000E+00 0.  1.
          5    1    4    4  501    0  0.51361805349E+02 -0.95903762690E+02 -0.51520530779E+02  0.12044668629E+03  0.41800000000E+01 0.  1.
         -5    1    4    4    0  501  0.30565678758E+02  0.23460498755E+02  0.27379102950E+02  0.47452538373E+02  0.41800000000E+01 0.  1.
</event>
<event>
11    1  0.8299058E-009  0.2002335E+03  0.7561462E-02  0.1054359E+00
         22   -1    0    0    0    0  0.00000000000E+00  0.00000000000E+00  0.37471461354E+03  0.37471461354E+03  0.00000000000E+00 0.  1.
         22   -1    0    0    0    0 -0.00000000000E+00 -0.00000000000E+00 -0.25930242151E+03  0.25930242151E+03  0.00000000000E+00 0.  1.
        -24    2    1    2    0    0  0.33409036446E+02  0.15937507156E+03 -0.10984661316E+03  0.21211710860E+03  0.80067547657E+02 0.  0.
         25    2    1    2    0    0  0.24284441839E+02 -0.14766608668E+03  0.21746977028E+02  0.19625041031E+03  0.12508511209E+03 0.  0.
         24    2    1    2    0    0 -0.57693478285E+02 -0.11708984880E+02  0.20351182815E+03  0.22564951614E+03  0.77685276402E+02 0.  0.
        -13    1    5    5    0    0 -0.47928437492E+02  0.13025214653E+02  0.18887357303E+03  0.19529469508E+03  0.00000000000E+00 0.  1.
         14    1    5    5    0    0 -0.97650407932E+01 -0.24734199533E+02  0.14638255125E+02  0.30354821056E+02  0.00000000000E+00 0. -1.
         11    1    3    3    0    0 -0.24661409956E+02  0.29154081244E+02 -0.15880993785E+02  0.41356396819E+02  0.00000000000E+00 0. -1.
        -12    1    3    3    0    0  0.58070446402E+02  0.13022099031E+03 -0.93965619373E+02  0.17076071178E+03  0.00000000000E+00 0.  1.
          5    1    4    4  501    0  0.28362813534E+02 -0.15590606294E+03 -0.13968551062E+02  0.15913435353E+03  0.41800000000E+01 0.  1.
         -5    1    4    4    0  501 -0.40783716952E+01  0.82399762634E+01  0.35715528090E+02  0.37116056784E+02  0.41800000000E+01 0.  1.
</event>
<event>
11    1  0.8299058E-009  0.1924300E+03  0.7561462E-02  0.1060010E+00
         22   -1    0    0    0    0  0.00000000000E+00  0.00000000000E+00  0.32245715773E+04  0.32245715773E+04  0.00000000000E+00 0. -1.
         22   -1    0    0    0    0 -0.00000000000E+00 -0.00000000000E+00 -0.45642733883E+03  0.45642733883E+03  0.00000000000E+00 0. -1.
         24    2    1    2    0    0 -0.25192815176E+02  0.45886505176E+02 -0.36980547335E+03  0.38270278662E+03  0.83457087617E+02 0.  0.
         25    2    1    2    0    0  0.66403359991E+02 -0.18468701455E+03  0.95859144159E+02  0.25170428006E+03  0.12508944608E+03 0.  0.
        -24    2    1    2    0    0 -0.41210544814E+02  0.13880050938E+03  0.30420905676E+04  0.30465918494E+04  0.80268205587E+02 0.  0.
        -11    1    3    3    0    0 -0.41179917353E+02  0.50595675603E+02 -0.16817075672E+03  0.18038046291E+03  0.00000000000E+00 0.  1.
         12    1    3    3    0    0  0.15987102177E+02 -0.47091704270E+01 -0.20163471663E+03  0.20232232371E+03  0.00000000000E+00 0. -1.
         11    1    5    5    0    0  0.20932054839E+02  0.43225001581E+02  0.12144229642E+04  0.12153722424E+04  0.00000000000E+00 0. -1.
        -12    1    5    5    0    0 -0.62142599653E+02  0.95575507795E+02  0.18276676034E+04  0.18312196069E+04  0.00000000000E+00 0.  1.
          5    1    4    4  501    0  0.13610433864E+02 -0.15484279786E+01  0.54866670305E+02  0.56705074284E+02  0.41800000000E+01 0.  1.
         -5    1    4    4    0  501  0.52792926127E+02 -0.18313858657E+03  0.40992473854E+02  0.19499920578E+03  0.41800000000E+01 0.  1.
</event>
<event>
11    1  0.8299058E-009  0.1611535E+03  0.7561462E-02  0.1085997E+00
         22   -1    0    0    0    0  0.00000000000E+00  0.00000000000E+00  0.18425035001E+04  0.18425035001E+04  0.00000000000E+00 0.  1.
         22   -1    0    0    0    0 -0.00000000000E+00 -0.00000000000E+00 -0.46747297576E+03  0.46747297576E+03  0.00000000000E+00 0. -1.
         24    2    1    2    0    0  0.49394743478E+01  0.15684504292E+02 -0.30190730178E+03  0.31284188984E+03  0.80322021185E+02 0.  0.
         25    2    1    2    0    0 -0.27347821774E+02 -0.11454229061E+03 -0.11098175466E+03  0.20452761690E+03  0.12508699578E+03 0.  0.
        -24    2    1    2    0    0  0.22408347426E+02  0.98857786315E+02  0.17879195808E+04  0.17926069691E+04  0.80674174314E+02 0.  0.
        -13    1    3    3    0    0 -0.97441211959E+01 -0.17168030980E+02 -0.18163543615E+02  0.26825426413E+02  0.00000000000E+00 0.  1.
         14    1    3    3    0    0  0.14683595544E+02  0.32852535272E+02 -0.28374375817E+03  0.28601646343E+03  0.00000000000E+00 0. -1.
         13    1    5    5    0    0  0.32582495239E+02  0.10693787600E+02  0.79160414518E+03  0.79234657742E+03  0.00000000000E+00 0. -1.
        -14    1    5    5    0    0 -0.10174147813E+02  0.88163998715E+02  0.99631543559E+03  0.10002603917E+04  0.00000000000E+00 0.  1.
          5    1    4    4  501    0 -0.29239258342E+02 -0.13785094356E+03 -0.70582989592E+02  0.15766181430E+03  0.41800000000E+01 0.  1.
         -5    1    4    4    0  501  0.18914365686E+01  0.23308652949E+02 -0.40398765067E+02  0.46865802602E+02  0.41800000000E+01 0.  1.
</event>
<event>
11    1  0.8299058E-009  0.1593013E+03  0.7561462E-02  0.1087736E+00
         22   -1    0    0    0    0  0.00000000000E+00  0.00000000000E+00  0.20408000946E+03  0.20408000946E+03  0.00000000000E+00 0. -1.
         22   -1    0    0    0    0 -0.00000000000E+00 -0.00000000000E+00 -0.27245728649E+04  0.27245728649E+04  0.00000000000E+00 0. -1.
        -24    2    1    2    0    0 -0.11404063975E+02 -0.15631305189E+02 -0.17304193648E+04  0.17323743240E+04  0.79970182645E+02 0.  0.
         25    2    1    2    0    0 -0.78651402856E+02 -0.25461647174E+02 -0.96685842770E+03  0.97841541704E+03  0.12508865033E+03 0.  0.
         24    2    1    2    0    0  0.90055466831E+02  0.41092952364E+02  0.17678493706E+03  0.21786313328E+03  0.80080041412E+02 0.  0.
        -11    1    5    5    0    0  0.22552945017E+02 -0.16396612952E+02  0.11230107756E+02  0.30059932892E+02  0.00000000000E+00 0.  1.
         12    1    5    5    0    0  0.67502521814E+02  0.57489565316E+02  0.16555482930E+03  0.18780320039E+03  0.00000000000E+00 0. -1.
         11    1    3    3    0    0  0.90800449849E+01  0.94297971494E+01 -0.14550973134E+04  0.14551561977E+04  0.00000000000E+00 0. -1.
        -12    1    3    3    0    0 -0.20484108960E+02 -0.25061102339E+02 -0.27532205144E+03  0.27721812636E+03  0.00000000000E+00 0.  1.
          5    1    4    4  501    0  0.22256801354E+02 -0.22152393731E+01 -0.48522616311E+03  0.48575937897E+03  0.41800000000E+01 0. -1.
         -5    1    4    4    0  501 -0.10090820421E+03 -0.23246407801E+02 -0.48163226460E+03  0.49265603808E+03  0.41800000000E+01 0. -1.
</event>
<event>
11    1  0.8299058E-009  0.1540644E+03  0.7561462E-02  0.1092797E+00
         22   -1    0    0    0    0  0.00000000000E+00  0.00000000000E+00  0.70176347054E+03  0.70176347054E+03  0.00000000000E+00 0. -1.
         22   -1    0    0    0    0 -0.00000000000E+00 -0.00000000000E+00 -0.24431739674E+03  0.24431739674E+03  0.00000000000E+00 0.  1.
         24    2    1    2    0    0 -0.89835584831E+02 -0.12845093318E+02 -0.17878224490E+03  0.21597139213E+03  0.80281519685E+02 0.  0.
         25    2    1    2    0    0  0.89237025343E+02 -0.61563313075E+02  0.12494470904E+03  0.20739338128E+03  0.12509015179E+03 0.  0.
        -24    2    1    2    0    0  0.59855948729E+00  0.74408406393E+02  0.51128360967E+03  0.52271609387E+03  0.79273047500E+02 0.  0.
        -13    1    3    3    0    0 -0.62710653631E+02  0.14880468259E+02 -0.16076513792E+03  0.17320359114E+03  0.00000000000E+00 0.  1.
         14    1    3    3    0    0 -0.27124931200E+02 -0.27725561577E+02 -0.18017106981E+02  0.42767800988E+02  0.00000000000E+00 0. -1.
         13    1    5    5    0    0 -0.30985375836E+02  0.56257962767E+02  0.41168512144E+03  0.41666496265E+03  0.00000000000E+00 0. -1.
        -14    1    5    5    0    0  0.31583935324E+02  0.18150443626E+02  0.99598488229E+02  0.10605113121E+03  0.00000000000E+00 0.  1.
          5    1    4    4  501    0  0.76865392781E+02 -0.12498157030E+02  0.13474199324E+03  0.15568355622E+03  0.41800000000E+01 0.  1.
         -5    1    4    4    0  501  0.12371632563E+02 -0.49065156045E+02 -0.97972842028E+01  0.51709825060E+02  0.41800000000E+01 0.  1.
</event>
<event>
11    1  0.8299058E-009  0.1882656E+03  0.7561462E-02  0.1063146E+00
         22   -1    0    0    0    0  0.00000000000E+00  0.00000000000E+00  0.27198725382E+03  0.27198725382E+03  0.00000000000E+00 0.  1.
         22   -1    0    0    0    0 -0.00000000000E+00 -0.00000000000E+00 -0.85433716577E+03  0.85433716577E+03  0.00000000000E+00 0.  1.
         24    2    1    2    0    0  0.13221814754E+03 -0.61318164279E+02 -0.37846701083E+03  0.41351251948E+03  0.80707928197E+02 0.  0.
         25    2    1    2    0    0 -0.11320843819E+03  0.75547680836E+02 -0.43197355112E+03  0.46986574344E+03  0.12509622469E+03 0.  0.
        -24    2    1    2    0    0 -0.19009709349E+02 -0.14229516557E+02  0.22809064999E+03  0.24294615667E+03  0.80209988377E+02 0.  0.
        -11    1    3    3    0    0  0.10949232425E+03 -0.13723165068E+02 -0.29289121508E+03  0.31298907042E+03  0.00000000000E+00 0.  1.
         12    1    3    3    0    0  0.22725823291E+02 -0.47594999211E+02 -0.85575795745E+02  0.10052344906E+03  0.00000000000E+00 0. -1.
         11    1    5    5    0    0  0.29769204866E+02  0.67190320033E+01  0.87172029253E+02  0.92359697019E+02  0.00000000000E+00 0. -1.
        -12    1    5    5    0    0 -0.48778914215E+02 -0.20948548561E+02  0.14091862074E+03  0.15058645965E+03  0.00000000000E+00 0.  1.
          5    1    4    4  501    0 -0.11451216795E+03  0.10477500056E+03 -0.36626532705E+03  0.39781729418E+03  0.41800000000E+01 0. -1.
         -5    1    4    4    0  501  0.13037297625E+01 -0.29227319727E+02 -0.65708224070E+02  0.72048449256E+02  0.41800000000E+01 0. -1.
</event>
<event>
11    1  0.8299058E-009  0.1398906E+03  0.7561462E-02  0.1107681E+00
         22   -1    0    0    0    0  0.00000000000E+00  0.00000000000E+00  0.13148843240E+04  0.13148843240E+04  0.00000000000E+00 0. -1.
         22   -1    0    0    0    0 -0.00000000000E+00 -0.00000000000E+00 -0.17036539227E+03  0.17036539227E+03  0.00000000000E+00 0. -1.
         24    2    1    2    0    0 -0.20737926915E+02 -0.59785761581E+02 -0.14403624455E+03  0.17650252396E+03  0.80014388194E+02 0.  0.
         25    2    1    2    0    0 -0.23693113086E+02  0.42928437396E+02  0.70851724449E+03  0.72114522152E+03  0.12509808325E+03 0.  0.
        -24    2    1    2    0    0  0.44431040001E+02  0.16857324185E+02  0.58003793177E+03  0.58760197078E+03  0.81078894209E+02 0.  0.
        -11    1    3    3    0    0  0.23373802919E+02 -0.12281576637E+02 -0.11178841872E+02  0.28672954037E+02  0.00000000000E+00 0.  1.
         12    1    3    3    0    0 -0.44111729834E+02 -0.47504184944E+02 -0.13285740268E+03  0.14782956992E+03  0.00000000000E+00 0. -1.
         11    1    5    5    0    0 -0.78387372174E+01 -0.15326536865E+02  0.31819158260E+03  0.31865691860E+03  0.00000000000E+00 0. -1.
        -12    1    5    5    0    0  0.52269777219E+02  0.32183861051E+02  0.26184634917E+03  0.26894505218E+03  0.00000000000E+00 0.  1.
          5    1    4    4  501    0 -0.14217299215E+02 -0.37585649876E+02  0.11071057947E+03  0.11785210002E+03  0.41800000000E+01 0.  1.
         -5    1    4    4    0  501 -0.94758138713E+01  0.80514087272E+02  0.59780666503E+03  0.60329312150E+03  0.41800000000E+01 0.  1.
</event>
<event>
11    1  0.8299058E-009  0.1460015E+03  0.7561462E-02  0.1101036E+00
         22   -1    0    0    0    0  0.00000000000E+00  0.00000000000E+00  0.12092508402E+04  0.12092508402E+04  0.00000000000E+00 0. -1.
         22   -1    0    0    0    0 -0.00000000000E+00 -0.00000000000E+00 -0.16121744200E+03  0.16121744200E+03  0.00000000000E+00 0. -1.
        -24    2    1    2    0    0 -0.47374120911E+02  0.27630370685E+02 -0.11489786563E+03  0.15112127699E+03  0.81414839659E+02 0.  0.
         25    2    1    2    0    0  0.97303258494E+02  0.26822390540E+02  0.23022845095E+03  0.28078398166E+03  0.12508852858E+03 0.  0.
         24    2    1    2    0    0 -0.49929137583E+02 -0.54452761225E+02  0.93270281287E+03  0.93856302354E+03  0.74215834125E+02 0.  0.
        -11    1    5    5    0    0 -0.74211342060E+01 -0.94623639128E+01  0.17293686945E+02  0.21063740690E+02  0.00000000000E+00 0.  1.
         12    1    5    5    0    0 -0.42508003377E+02 -0.44990397313E+02  0.91540912593E+03  0.91749928285E+03  0.00000000000E+00 0. -1.
         13    1    3    3    0    0  0.13501188836E+01  0.41844631025E+02 -0.77467290727E+02  0.88056669817E+02  0.00000000000E+00 0. -1.
        -14    1    3    3    0    0 -0.48724239795E+02 -0.14214260340E+02 -0.37430574908E+02  0.63064607178E+02  0.00000000000E+00 0.  1.
          5    1    4    4  501    0  0.26331011499E+02  0.10350277232E+02 -0.95452527033E+01  0.30150201566E+02  0.41800000000E+01 0. -1.
         -5    1    4    4    0  501  0.70972246995E+02  0.16472113309E+02  0.23977370365E+03  0.25063378009E+03  0.41800000000E+01 0. -1.
</event>
<event>
11    1  0.8299058E-009  0.1814850E+03  0.7561462E-02  0.1068448E+00
         22   -1    0    0    0    0  0.00000000000E+00  0.00000000000E+00  0.54387887143E+03  0.54387887143E+03  0.00000000000E+00 0.  1.
         22   -1    0    0    0    0 -0.00000000000E+00 -0.00000000000E+00 -0.58794737800E+03  0.58794737800E+03  0.00000000000E+00 0.  1.
         24    2    1    2    0    0 -0.71321519253E+02 -0.10081216611E+02 -0.46958441863E+03  0.48185700798E+03  0.80549735479E+02 0.  0.
         25    2    1    2    0    0  0.16212489547E+03  0.95072372658E+02  0.30032010824E+02  0.22775684246E+03  0.12509204546E+03 0.  0.
        -24    2    1    2    0    0 -0.90803376221E+02 -0.84991156047E+02  0.39548390123E+03  0.42221239898E+03  0.79918983864E+02 0.  0.
        -13    1    3    3    0    0 -0.53362549149E+02 -0.14590453170E+02 -0.45482736663E+03  0.45817941509E+03  0.00000000000E+00 0.  1.
         14    1    3    3    0    0 -0.17958970104E+02  0.45092365594E+01 -0.14757052000E+02  0.23677592895E+02  0.00000000000E+00 0. -1.
         11    1    5    5    0    0 -0.60756699778E+02 -0.33868046417E+01  0.16671073058E+03  0.17746919368E+03  0.00000000000E+00 0. -1.
        -12    1    5    5    0    0 -0.30046676443E+02 -0.81604351405E+02  0.22877317065E+03  0.24474320531E+03  0.00000000000E+00 0.  1.
          5    1    4    4  501    0  0.88568336632E+02  0.56284127421E+02 -0.46323128099E+02  0.11478483284E+03  0.41800000000E+01 0.  1.
         -5    1    4    4    0  501  0.73556558842E+02  0.38788245237E+02  0.76355138923E+02  0.11297200962E+03  0.41800000000E+01 0.  1.
</event>
<event>
11    1  0.8299058E-009  0.1611104E+03  0.7561462E-02  0.1086038E+00
         22   -1    0    0    0    0  0.00000000000E+00  0.00000000000E+00  0.17795573135E+03  0.17795573135E+03  0.00000000000E+00 0. -1.
         22   -1    0    0    0    0 -0.00000000000E+00 -0.00000000000E+00 -0.12468649699E+04  0.12468649699E+04  0.00000000000E+00 0. -1.
        -24    2    1    2    0    0  0.30874335815E+01 -0.95158990831E+02 -0.96230301216E+03  0.97033579069E+03  0.80372219675E+02 0.  0.
         25    2    1    2    0    0 -0.32258882607E+02  0.17122317131E+03 -0.21022702297E+03  0.30033501535E+03  0.12509080844E+03 0.  0.
         24    2    1    2    0    0  0.29171449026E+02 -0.76064180483E+02  0.10362079655E+03  0.15414989523E+03  0.79926139233E+02 0.  0.
        -11    1    5    5    0    0  0.16916378228E+02 -0.64479205976E+01 -0.97390697735E+01  0.20556969923E+02  0.00000000000E+00 0.  1.
         12    1    5    5    0    0  0.12255070798E+02 -0.69616259885E+02  0.11335986632E+03  0.13359292531E+03  0.00000000000E+00 0. -1.
         13    1    3    3    0    0 -0.32276065903E+02 -0.65525144701E+02 -0.44238411412E+03  0.44837372073E+03  0.00000000000E+00 0. -1.
        -14    1    3    3    0    0  0.35363499485E+02 -0.29633846130E+02 -0.51991889805E+03  0.52196206996E+03  0.00000000000E+00 0.  1.
          5    1    4    4  501    0  0.35172329647E+02  0.12321276500E+03 -0.15301886020E+03  0.19962645668E+03  0.41800000000E+01 0.  1.
         -5    1    4    4    0  501 -0.67431212254E+02  0.48010406314E+02 -0.57208162769E+02  0.10070855866E+03  0.41800000000E+01 0.  1.
</event>
<event>
11    1  0.8299058E-009  0.2241907E+03  0.7561462E-02  0.1038624E+00
         22   -1    0    0    0    0  0.00000000000E+00  0.00000000000E+00  0.56535131260E+03  0.56535131260E+03  0.00000000000E+00 0. -1.
         22   -1    0    0    0    0 -0.00000000000E+00 -0.00000000000E+00 -0.45596604014E+03  0.45596604014E+03  0.00000000000E+00 0. -1.
        -24    2    1    2    0    0 -0.16360971805E+03  0.11737008600E+03 -0.35009501192E+03  0.41187161934E+03  0.80795027805E+02 0.  0.
         25    2    1    2    0    0  0.14034487548E+03  0.45981634044E+01  0.82163431160E+02  0.20522212031E+03  0.12508981598E+03 0.  0.
         24    2    1    2    0    0  0.23264842565E+02 -0.12196824940E+03  0.37731685322E+03  0.40422361310E+03  0.74908042941E+02 0.  0.
        -13    1    5    5    0    0  0.50117274098E+02 -0.74143569074E+02  0.25239773569E+03  0.26779400101E+03  0.00000000000E+00 0.  1.
         14    1    5    5    0    0 -0.26852431533E+02 -0.47824680328E+02  0.12491911754E+03  0.13642961209E+03  0.00000000000E+00 0. -1.
         13    1    3    3    0    0 -0.13293596596E+03  0.12461591966E+03 -0.32029133045E+03  0.36849373785E+03  0.00000000000E+00 0. -1.
        -14    1    3    3    0    0 -0.30673752091E+02 -0.72458336611E+01 -0.29803681472E+02  0.43377881484E+02  0.00000000000E+00 0.  1.
          5    1    4    4  501    0  0.50954669328E+02 -0.53324501289E+02  0.62629048012E+02  0.96849113671E+02  0.41800000000E+01 0.  1.
         -5    1    4    4    0  501  0.89390206157E+02  0.57922664693E+02  0.19534383148E+02  0.10837300663E+03  0.41800000000E+01 0.  1.
</event>
<event>
11    1  0.8299058E-009  0.1478845E+03  0.7561462E-02  0.1099060E+00
         22   -1    0    0    0    0  0.00000000000E+00  0.00000000000E+00  0.69910584088E+03  0.69910584088E+03  0.00000000000E+00 0. -1.
         22   -1    0    0    0    0 -0.00000000000E+00 -0.00000000000E+00 -0.23647502354E+04  0.23647502354E+04  0.00000000000E+00 0.  1.
         24    2    1    2    0    0  0.27646835562E+02  0.17016038851E+01 -0.23070313460E+04  0.23086124213E+04  0.80811123285E+02 0.  0.
         25    2    1    2    0    0  0.11464258319E+02 -0.71486578521E+02  0.49743450908E+02  0.15284432674E+03  0.12508084258E+03 0.  0.
        -24    2    1    2    0    0 -0.39111093881E+02  0.69784974636E+02  0.59164350055E+03  0.60239932821E+03  0.80270159713E+02 0.  0.
        -13    1    3    3    0    0  0.22541006016E+02 -0.83758343141E+01 -0.22638515532E+04  0.22639792637E+04  0.00000000000E+00 0.  1.
         14    1    3    3    0    0  0.51058295460E+01  0.10077438199E+02 -0.43179792832E+02  0.44633157686E+02  0.00000000000E+00 0. -1.
         11    1    5    5    0    0 -0.11430786507E+01  0.69971098157E+02  0.46336768360E+03  0.46862231211E+03  0.00000000000E+00 0. -1.
        -12    1    5    5    0    0 -0.37968015231E+02 -0.18612352116E+00  0.12827581695E+03  0.13377701610E+03  0.00000000000E+00 0.  1.
          5    1    4    4  501    0 -0.30195978533E+02 -0.11201595042E+02 -0.30177479258E+02  0.44333119735E+02  0.41800000000E+01 0. -1.
         -5    1    4    4    0  501  0.41660236853E+02 -0.60284983479E+02  0.79920930166E+02  0.10851120701E+03  0.41800000000E+01 0. -1.
</event>
<event>
11    1  0.8299058E-009  0.1267302E+03  0.7561462E-02  0.1123353E+00
         22   -1    0    0    0    0  0.00000000000E+00  0.00000000000E+00  0.12567383359E+04  0.12567383359E+04  0.00000000000E+00 0.  1.
         22   -1    0    0    0    0 -0.00000000000E+00 -0.00000000000E+00 -0.10105476547E+04  0.10105476547E+04  0.00000000000E+00 0. -1.
         24    2    1    2    0    0  0.18511640020E+02  0.75832586751E+01 -0.85594987166E+03  0.86052501229E+03  0.86330338525E+02 0.  0.
         25    2    1    2    0    0 -0.87205805805E+01 -0.38473249079E+02 -0.12225502388E+03  0.17930209311E+03  0.12508681108E+03 0.  0.
        -24    2    1    2    0    0 -0.97910594395E+01  0.30889990404E+02  0.12243955768E+04  0.12274588852E+04  0.80378667240E+02 0.  0.
        -13    1    3    3    0    0  0.10617912215E+00  0.38704518231E+02 -0.20821610540E+03  0.21178290194E+03  0.00000000000E+00 0.  1.
         14    1    3    3    0    0  0.18405460898E+02 -0.31121259556E+02 -0.64773376626E+03  0.64874211035E+03  0.00000000000E+00 0. -1.
         13    1    5    5    0    0 -0.42264597516E+02  0.11988403959E+01  0.54254718422E+03  0.54419222755E+03  0.00000000000E+00 0. -1.
        -14    1    5    5    0    0  0.32473538076E+02  0.29691150008E+02  0.68184839257E+03  0.68326665770E+03  0.00000000000E+00 0.  1.
          5    1    4    4  501    0 -0.53579225213E+02  0.18620450914E+02 -0.67489813127E+02  0.88259854082E+02  0.41800000000E+01 0. -1.
         -5    1    4    4    0  501  0.44858644632E+02 -0.57093699993E+02 -0.54765210758E+02  0.91042239023E+02  0.41800000000E+01 0. -1.
</event>
<event>
11    1  0.8299058E-009  0.2961943E+03  0.7561462E-02  0.1001815E+00
         22   -1    0    0    0    0  0.00000000000E+00  0.00000000000E+00  0.10873112931E+04  0.10873112931E+04  0.00000000000E+00 0. -1.
         22   -1    0    0    0    0 -0.00000000000E+00 -0.00000000000E+00 -0.30777653185E+03  0.30777653185E+03  0.00000000000E+00 0. -1.
         24    2    1    2    0    0 -0.48074504035E+02 -0.38816213637E+02 -0.15933786070E+03  0.18895383720E+03  0.80604853201E+02 0.  0.
         25    2    1    2    0    0 -0.17953785692E+03  0.18687668986E+03  0.75337285299E+02  0.29745635449E+03  0.12509131459E+03 0.  0.
        -24    2    1    2    0    0  0.22761236096E+03 -0.14806047623E+03  0.86353533670E+03  0.90867763332E+03  0.79198939883E+02 0.  0.
        -11    1    3    3    0    0 -0.14709893865E+02 -0.25562364300E+02 -0.42889246345E+01  0.29802857592E+02  0.00000000000E+00 0.  1.
         12    1    3    3    0    0 -0.33364610170E+02 -0.13253849337E+02 -0.15504893607E+03  0.15915097960E+03  0.00000000000E+00 0. -1.
         11    1    5    5    0    0  0.20669625927E+03 -0.13225984477E+03  0.67287981410E+03  0.71622849312E+03  0.00000000000E+00 0. -1.
        -12    1    5    5    0    0  0.20916101686E+02 -0.15800631460E+02  0.19065552260E+03  0.19244914019E+03  0.00000000000E+00 0.  1.
          5    1    4    4  501    0 -0.48273446341E+02 -0.44695103957E+01  0.39398552561E+02  0.62610066992E+02  0.41800000000E+01 0.  1.
         -5    1    4    4    0  501 -0.13126441058E+03  0.19134620026E+03  0.35938732738E+02  0.23484628749E+03  0.41800000000E+01 0.  1.
</event>
<event>
11    1  0.8299058E-009  0.2719780E+03  0.7561462E-02  0.1012802E+00
         22   -1    0    0    0    0  0.00000000000E+00  0.00000000000E+00  0.50497254438E+03  0.50497254438E+03  0.00000000000E+00 0. -1.
         22   -1    0    0    0    0 -0.00000000000E+00 -0.00000000000E+00 -0.46544717907E+03  0.46544717907E+03  0.00000000000E+00 0.  1.
        -24    2    1    2    0    0 -0.16823881025E+03  0.41178256222E+02 -0.16076796575E+03  0.24925890914E+03  0.79269911763E+02 0.  0.
         25    2    1    2    0    0  0.19166034116E+03  0.20169250336E+03 -0.10470975092E+03  0.32252820477E+03  0.12508700432E+03 0.  0.
         24    2    1    2    0    0 -0.23421530913E+02 -0.24287075958E+03  0.30500308199E+03  0.39863260955E+03  0.79663689369E+02 0.  0.
        -13    1    5    5    0    0 -0.17651177140E+02 -0.47064811613E+01  0.18147026374E+02  0.25749360877E+02  0.00000000000E+00 0.  1.
         14    1    5    5    0    0 -0.57703537734E+01 -0.23816427842E+03  0.28685605562E+03  0.37288324867E+03  0.00000000000E+00 0. -1.
         11    1    3    3    0    0 -0.10581180069E+03  0.62487070939E+02 -0.88654402407E+02  0.15152681039E+03  0.00000000000E+00 0. -1.
        -12    1    3    3    0    0 -0.62427009560E+02 -0.21308814717E+02 -0.72113563347E+02  0.97732098749E+02  0.00000000000E+00 0.  1.
          5    1    4    4  501    0  0.14655632751E+03  0.69167000345E+02 -0.78202793775E+02  0.17998883416E+03  0.41800000000E+01 0. -1.
         -5    1    4    4    0  501  0.45104013656E+02  0.13252550301E+03 -0.26506957150E+02  0.14253937061E+03  0.41800000000E+01 0. -1.
</event>
<event>
11    1  0.8299058E-009  0.8922909E+03  0.7561462E-02  0.8788802E-01
         22   -1    0    0    0    0  0.00000000000E+00  0.00000000000E+00  0.14550029028E+04  0.14550029028E+04  0.00000000000E+00 0. -1.
         22   -1    0    0    0    0 -0.00000000000E+00 -0.00000000000E+00 -0.13333580971E+04  0.13333580971E+04  0.00000000000E+00 0. -1.
        -24    2    1    2    0    0  0.19307454168E+03  0.29940209296E+02 -0.48375622261E+03  0.52770435262E+03  0.79231345356E+02 0.  0.
         25    2    1    2    0    0 -0.10186968109E+04  0.14756897618E+03 -0.23867763411E+03  0.10640183606E+04  0.12509301896E+03 0.  0.
         24    2    1    2    0    0  0.82562226925E+03 -0.17750918548E+03  0.84407866245E+03  0.11966382866E+04  0.79452867331E+02 0.  0.
        -11    1    5    5    0    0  0.63219083068E+03 -0.16945792579E+03  0.65946671923E+03  0.92912732647E+03  0.00000000000E+00 0.  1.
         12    1    5    5    0    0  0.19343143857E+03 -0.80512596836E+01  0.18461194321E+03  0.26751096013E+03  0.00000000000E+00 0. -1.
         13    1    3    3    0    0  0.15465109895E+03  0.53475427316E+00 -0.42069233169E+03  0.44821790048E+03  0.00000000000E+00 0. -1.
        -14    1    3    3    0    0  0.38423442732E+02  0.29405455023E+02 -0.63063890918E+02  0.79486452143E+02  0.00000000000E+00 0.  1.
          5    1    4    4  501    0 -0.32842041186E+03 -0.10377838260E+02 -0.66873519082E+02  0.33534639764E+03  0.41800000000E+01 0. -1.
         -5    1    4    4    0  501 -0.69027639908E+03  0.15794681444E+03 -0.17180411503E+03  0.72867196300E+03  0.41800000000E+01 0. -1.
</event>
<event>
11    1  0.8299058E-009  0.3321697E+03  0.7561462E-02  0.9874263E-01
         22   -1    0    0    0    0  0.00000000000E+00  0.00000000000E+00  0.89812148218E+03  0.89812148218E+03  0.00000000000E+00 0.  1.
         22   -1    0    0    0    0 -0.00000000000E+00 -0.00000000000E+00 -0.10682133794E+04  0.10682133794E+04  0.00000000000E+00 0.  1.
         24    2    1    2    0    0 -0.70347634579E+02  0.10314222372E+02 -0.51701312157E+03  0.52755019031E+03  0.77145722811E+02 0.  0.
         25    2    1    2    0    0  0.16277908532E+03 -0.30199537884E+03 -0.45110904556E+03  0.58038406001E+03  0.12509215268E+03 0.  0.
        -24    2    1    2    0    0 -0.92431450737E+02  0.29168115647E+03  0.79803026995E+03  0.85840061122E+03  0.79861301351E+02 0.  0.
        -11    1    3    3    0    0  0.46631898130E+01  0.84648931743E+01 -0.25021877465E+03  0.25040534129E+03  0.00000000000E+00 0.  1.
         12    1    3    3    0    0 -0.75010824392E+02  0.18493291977E+01 -0.26679434691E+03  0.27714484902E+03  0.00000000000E+00 0. -1.
         13    1    5    5    0    0  0.12145467410E+02  0.58471392894E+02  0.12686437867E+03  0.14021764062E+03  0.00000000000E+00 0. -1.
        -14    1    5    5    0    0 -0.10457691815E+03  0.23320976358E+03  0.67116589128E+03  0.71818297060E+03  0.00000000000E+00 0.  1.
          5    1    4    4  501    0  0.13226322646E+03 -0.18848561351E+03 -0.20802810998E+03  0.31034425162E+03  0.41800000000E+01 0.  1.
         -5    1    4    4    0  501  0.30515858854E+02 -0.11350976533E+03 -0.24308093558E+03  0.27003980838E+03  0.41800000000E+01 0.  1.
</event>
<event>
11    1  0.8299058E-009  0.1351956E+03  0.7561462E-02  0.1113045E+00
         22   -1    0    0    0    0  0.00000000000E+00  0.00000000000E+00  0.13100342220E+04  0.13100342220E+04  0.00000000000E+00 0. -1.
         22   -1    0    0    0    0 -0.00000000000E+00 -0.00000000000E+00 -0.41497092854E+02  0.41497092854E+02  0.00000000000E+00 0. -1.
        -24    2    1    2    0    0 -0.44649128749E+02  0.35023958367E+02  0.71527220496E+02  0.12113664923E+03  0.79609811938E+02 0.  0.
         25    2    1    2    0    0  0.16130370255E+02 -0.34870595741E+02  0.27387204212E+03  0.30352693399E+03  0.12508619792E+03 0.  0.
         24    2    1    2    0    0  0.28518758494E+02 -0.15336262580E+00  0.92313786653E+03  0.92686773164E+03  0.78018768367E+02 0.  0.
        -13    1    5    5    0    0  0.30075140879E+02 -0.19300811035E+02  0.18168683034E+03  0.18516786904E+03  0.00000000000E+00 0.  1.
         14    1    5    5    0    0 -0.15563823849E+01  0.19147448410E+02  0.74145103619E+03  0.74169986259E+03  0.00000000000E+00 0. -1.
         13    1    3    3    0    0 -0.18148459820E+02 -0.23203840407E+00 -0.15307308451E+02  0.23743085892E+02  0.00000000000E+00 0. -1.
        -14    1    3    3    0    0 -0.26500668929E+02  0.35255996771E+02  0.86834528947E+02  0.97393563337E+02  0.00000000000E+00 0.  1.
          5    1    4    4  501    0  0.43598573228E+02  0.33663266973E+02  0.93744592282E+02  0.10880979787E+03  0.41800000000E+01 0. -1.
         -5    1    4    4    0  501 -0.27468202973E+02 -0.68533862714E+02  0.18012744984E+03  0.19471713612E+03  0.41800000000E+01 0. -1.
</event>
<event>
11    1  0.8299058E-009  0.1325690E+03  0.7561462E-02  0.1116152E+00
         22   -1    0    0    0    0  0.00000000000E+00  0.00000000000E+00  0.23713527937E+04  0.23713527937E+04  0.00000000000E+00 0. -1.
         22   -1    0    0    0    0 -0.00000000000E+00 -0.00000000000E+00 -0.84722021927E+02  0.84722021927E+02  0.00000000000E+00 0. -1.
         24    2    1    2    0    0  0.37444560385E+02  0.67950973027E+01 -0.51187263437E+02  0.10142849064E+03  0.78862756258E+02 0.  0.
         25    2    1    2    0    0  0.11585203442E+02 -0.85303282911E+01  0.54011327967E+03  0.55459645993E+03  0.12509154666E+03 0.  0.
        -24    2    1    2    0    0 -0.49029763827E+02  0.17352309885E+01  0.17977047556E+04  0.18000498651E+04  0.77654361532E+02 0.  0.
        -11    1    3    3    0    0 -0.13380474781E+02 -0.17530588277E+02  0.41639252670E+01  0.22443192829E+02  0.00000000000E+00 0.  1.
         12    1    3    3    0    0  0.50825035167E+02  0.24325685580E+02 -0.55351188704E+02  0.78985297807E+02  0.00000000000E+00 0. -1.
         11    1    5    5    0    0 -0.17403806351E+02  0.22754232038E+02  0.14490708799E+04  0.14493540156E+04  0.00000000000E+00 0. -1.
        -12    1    5    5    0    0 -0.31625957476E+02 -0.21019001049E+02  0.34863387565E+03  0.35069584948E+03  0.00000000000E+00 0.  1.
          5    1    4    4  501    0 -0.24630743482E+02 -0.58612731292E+02  0.25620147935E+03  0.26400529581E+03  0.41800000000E+01 0. -1.
         -5    1    4    4    0  501  0.36215946924E+02  0.50082403001E+02  0.28391180032E+03  0.29059116412E+03  0.41800000000E+01 0. -1.
</event>
<event>
11    1  0.8299058E-009  0.2008813E+03  0.7561462E-02  0.1053902E+00
         22   -1    0    0    0    0  0.00000000000E+00  0.00000000000E+00  0.72576742655E+03  0.72576742655E+03  0.00000000000E+00 0. -1.
         22   -1    0    0    0    0 -0.00000000000E+00 -0.00000000000E+00 -0.43415302687E+03  0.43415302687E+03  0.00000000000E+00 0. -1.
        -24    2    1    2    0    0  0.74886943824E+00  0.71281826528E+01 -0.35946879331E+03  0.36835342728E+03  0.80094083621E+02 0.  0.
         25    2    1    2    0    0 -0.12386360230E+03 -0.10319116403E+03  0.13085367229E+03  0.24240259018E+03  0.12508286800E+03 0.  0.
         24    2    1    2    0    0  0.12311473286E+03  0.96062981376E+02  0.52022952071E+03  0.54916443596E+03  0.80978328383E+02 0.  0.
        -13    1    5    5    0    0  0.56597487833E+02  0.52668653789E+01  0.11058530577E+03  0.12433875242E+03  0.00000000000E+00 0.  1.
         14    1    5    5    0    0  0.66517245029E+02  0.90796115997E+02  0.40964421494E+03  0.42482568355E+03  0.00000000000E+00 0. -1.
         13    1    3    3    0    0 -0.18053776941E+02  0.36841762204E+02 -0.25090143211E+03  0.25423371716E+03  0.00000000000E+00 0. -1.
        -14    1    3    3    0    0  0.18802646379E+02 -0.29713579551E+02 -0.10856736120E+03  0.11411971012E+03  0.00000000000E+00 0.  1.
          5    1    4    4  501    0 -0.34061809247E+02 -0.20879393151E+02 -0.22865972370E+02  0.46222083467E+02  0.41800000000E+01 0.  1.
         -5    1    4    4    0  501 -0.89801793053E+02 -0.82311770877E+02  0.15371964466E+03  0.19618050671E+03  0.41800000000E+01 0.  1.
</event>
<event>
11    1  0.8299058E-009  0.1458950E+03  0.7561462E-02  0.1101149E+00
         22   -1    0    0    0    0  0.00000000000E+00  0.00000000000E+00  0.15128884354E+03  0.15128884354E+03  0.00000000000E+00 0. -1.
         22   -1    0    0    0    0 -0.00000000000E+00 -0.00000000000E+00 -0.27625144897E+04  0.27625144897E+04  0.00000000000E+00 0.  1.
        -24    2    1    2    0    0 -0.92603576983E+02  0.54939380662E+02 -0.18100808332E+04  0.18149650202E+04  0.78177003017E+02 0.  0.
         25    2    1    2    0    0  0.54075512122E+01 -0.22349934314E+02 -0.91953187896E+03  0.92828548138E+03  0.12508516035E+03 0.  0.
         24    2    1    2    0    0  0.87196025770E+02 -0.32589446347E+02  0.11838706602E+03  0.17055283165E+03  0.80047186457E+02 0.  0.
        -11    1    5    5    0    0 -0.69244390930E+01  0.10782290388E+02 -0.51786663358E+00  0.12824735031E+02  0.00000000000E+00 0.  1.
         12    1    5    5    0    0  0.94120464863E+02 -0.43371736736E+02  0.11890493266E+03  0.15772809662E+03  0.00000000000E+00 0. -1.
         13    1    3    3    0    0 -0.52749604484E+02 -0.57507099311E+01 -0.48444404609E+03  0.48734138469E+03  0.00000000000E+00 0. -1.
        -14    1    3    3    0    0 -0.39853972499E+02  0.60690090593E+02 -0.13256367871E+04  0.13276236355E+04  0.00000000000E+00 0.  1.
          5    1    4    4  501    0 -0.51907648268E+02  0.19809793449E+02 -0.42885770291E+03  0.43246182908E+03  0.41800000000E+01 0. -1.
         -5    1    4    4    0  501  0.57315199480E+02 -0.42159727763E+02 -0.49067417606E+03  0.49582365231E+03  0.41800000000E+01 0. -1.
</event>
<event>
11    1  0.8299058E-009  0.1306436E+03  0.7561462E-02  0.1118481E+00
         22   -1    0    0    0    0  0.00000000000E+00  0.00000000000E+00  0.14279992808E+04  0.14279992808E+04  0.00000000000E+00 0. -1.
         22   -1    0    0    0    0 -0.00000000000E+00 -0.00000000000E+00 -0.46101904938E+03  0.46101904938E+03  0.00000000000E+00 0. -1.
         24    2    1    2    0    0 -0.28752502430E+02 -0.31345463260E+02 -0.30214407197E+03  0.31677171166E+03  0.85111882924E+02 0.  0.
         25    2    1    2    0    0  0.24146911993E+01  0.23926273159E+02 -0.12328207942E+03  0.17726618946E+03  0.12508610450E+03 0.  0.
        -24    2    1    2    0    0  0.26337811231E+02  0.74191901005E+01  0.13924063828E+04  0.13949804291E+04  0.80163195491E+02 0.  0.
        -13    1    3    3    0    0 -0.17587206696E+02 -0.58147116865E+02 -0.14914866549E+03  0.16104571232E+03  0.00000000000E+00 0.  1.
         14    1    3    3    0    0 -0.11165295734E+02  0.26801653605E+02 -0.15299540648E+03  0.15572599934E+03  0.00000000000E+00 0. -1.
         13    1    5    5    0    0  0.15568660594E+02 -0.13268752695E+02  0.12807887167E+04  0.12809520599E+04  0.00000000000E+00 0. -1.
        -14    1    5    5    0    0  0.10769150636E+02  0.20687942795E+02  0.11161766612E+03  0.11402836916E+03  0.00000000000E+00 0.  1.
          5    1    4    4  501    0  0.23494205271E+02 -0.34487191804E+02 -0.32591983727E+01  0.42064698428E+02  0.41800000000E+01 0. -1.
         -5    1    4    4    0  501 -0.21079514072E+02  0.58413464963E+02 -0.12002288105E+03  0.13520149103E+03  0.41800000000E+01 0. -1.
</event>
<event>
11    1  0.8299058E-009  0.1374241E+03  0.7561462E-02  0.1110469E+00
         22   -1    0    0    0    0  0.00000000000E+00  0.00000000000E+00  0.18598103874E+04  0.18598103874E+04  0.00000000000E+00 0.  1.
         22   -1    0    0    0    0 -0.00000000000E+00 -0.00000000000E+00 -0.92067670306E+02  0.92067670306E+02  0.00000000000E+00 0.  1.
        -24    2    1    2    0    0 -0.48878697042E+02 -0.28940448406E+02 -0.46057686805E+02  0.10908417340E+03  0.80940532461E+02 0.  0.
         25    2    1    2    0    0  0.28517503324E+02  0.64017584766E+02  0.37974319107E+03  0.40591016216E+03  0.12508664767E+03 0.  0.
         24    2    1    2    0    0  0.20361193718E+02 -0.35077136360E+02  0.14340572129E+04  0.14368837222E+04  0.80434803278E+02 0.  0.
        -11    1    5    5    0    0 -0.13643622923E+02 -0.28640154400E+02  0.11859619327E+04  0.11863861566E+04  0.00000000000E+00 0.  1.
         12    1    5    5    0    0  0.34004816642E+02 -0.64369819602E+01  0.24809528023E+03  0.25049756558E+03  0.00000000000E+00 0. -1.
         11    1    3    3    0    0 -0.66787870627E+02 -0.37234703167E+02 -0.25549186818E+02  0.80621360258E+02  0.00000000000E+00 0. -1.
        -12    1    3    3    0    0  0.17909173584E+02  0.82942547611E+01 -0.20508499987E+02  0.28462813147E+02  0.00000000000E+00 0.  1.
          5    1    4    4  501    0  0.23077602591E+02  0.75928722600E+02  0.38351073566E+03  0.39165763548E+03  0.41800000000E+01 0.  1.
         -5    1    4    4    0  501  0.54399007335E+01 -0.11911137834E+02 -0.37675445985E+01  0.14252526681E+02  0.41800000000E+01 0.  1.
</event>
<event>
11    1  0.8299058E-009  0.2056553E+03  0.7561462E-02  0.1050595E+00
         22   -1    0    0    0    0  0.00000000000E+00  0.00000000000E+00  0.42556512681E+03  0.42556512681E+03  0.00000000000E+00 0. -1.
         22   -1    0    0    0    0 -0.00000000000E+00 -0.00000000000E+00 -0.98703854161E+03  0.98703854161E+03  0.00000000000E+00 0.  1.
        -24    2    1    2    0    0  0.69371718754E+02  0.58106795959E+01 -0.77682857383E+03  0.78427707223E+03  0.82351038488E+02 0.  0.
         25    2    1    2    0    0  0.75306027149E+02 -0.94070717194E+02 -0.14220157247E+03  0.22447401782E+03  0.12508796866E+03 0.  0.
         24    2    1    2    0    0 -0.14467774590E+03  0.88260037598E+02  0.35755673151E+03  0.40385257837E+03  0.80799779776E+02 0.  0.
        -13    1    5    5    0    0 -0.94501501096E+02  0.63276926525E+02  0.14640950967E+03  0.18539214563E+03  0.00000000000E+00 0.  1.
         14    1    5    5    0    0 -0.50176244806E+02  0.24983111073E+02  0.21114722184E+03  0.21846043274E+03  0.00000000000E+00 0. -1.
         11    1    3    3    0    0  0.41411854037E+02  0.17938898692E+02 -0.14841701053E+03  0.15512689888E+03  0.00000000000E+00 0. -1.
        -12    1    3    3    0    0  0.27959864716E+02 -0.12128219096E+02 -0.62841156330E+03  0.62915017335E+03  0.00000000000E+00 0.  1.
          5    1    4    4  501    0  0.21031535255E+02  0.16424676038E+02 -0.84006898675E+02  0.88242432441E+02  0.41800000000E+01 0. -1.
         -5    1    4    4    0  501  0.54274491894E+02 -0.11049539323E+03 -0.58194673799E+02  0.13623158538E+03  0.41800000000E+01 0. -1.
</event>
<event>
11    1  0.8299058E-009  0.1340815E+03  0.7561462E-02  0.1114353E+00
         22   -1    0    0    0    0  0.00000000000E+00  0.00000000000E+00  0.26620205528E+04  0.26620205528E+04  0.00000000000E+00 0. -1.
         22   -1    0    0    0    0 -0.00000000000E+00 -0.00000000000E+00 -0.28415552683E+04  0.28415552683E+04  0.00000000000E+00 0. -1.
         24    2    1    2    0    0  0.20861252024E+02  0.43526688351E+02 -0.28356289302E+04  0.28372130597E+04  0.81588921555E+02 0.  0.
         25    2    1    2    0    0 -0.33698577563E+02 -0.41808318244E+02  0.11373938069E+04  0.11455112469E+04  0.12509122773E+03 0.  0.
        -24    2    1    2    0    0  0.12837325539E+02 -0.17183701067E+01  0.15187004079E+04  0.15208515145E+04  0.79816354271E+02 0.  0.
        -13    1    3    3    0    0 -0.27947326483E+02  0.16977018291E+02 -0.59712811929E+03  0.59802279476E+03  0.00000000000E+00 0.  1.
         14    1    3    3    0    0  0.48808578508E+02  0.26549670059E+02 -0.22385008109E+04  0.22391902650E+04  0.00000000000E+00 0. -1.
         11    1    5    5    0    0  0.26682127036E+02  0.33136670059E+02  0.91352442861E+03  0.91451454689E+03  0.00000000000E+00 0. -1.
        -12    1    5    5    0    0 -0.13844801497E+02 -0.34855040166E+02  0.60517597927E+03  0.60633696757E+03  0.00000000000E+00 0.  1.
          5    1    4    4  501    0  0.94701129711E+01 -0.64314261163E+02  0.93641068072E+03  0.93867376793E+03  0.41800000000E+01 0.  1.
         -5    1    4    4    0  501 -0.43168690534E+02  0.22505942919E+02  0.20098312616E+03  0.20683747897E+03  0.41800000000E+01 0.  1.
</event>
<event>
11    1  0.8299058E-009  0.1679529E+03  0.7561462E-02  0.1079827E+00
         22   -1    0    0    0    0  0.00000000000E+00  0.00000000000E+00  0.25348046532E+03  0.25348046532E+03  0.00000000000E+00 0. -1.
         22   -1    0    0    0    0 -0.00000000000E+00 -0.00000000000E+00 -0.12590631977E+04  0.12590631977E+04  0.00000000000E+00 0.  1.
        -24    2    1    2    0    0  0.68817422100E+01 -0.10783103101E+02 -0.84681499037E+03  0.85109416379E+03  0.84273447934E+02 0.  0.
         25    2    1    2    0    0  0.53400941990E+02  0.10494650087E+03 -0.37103392920E+03  0.40887604699E+03  0.12509203226E+03 0.  0.
         24    2    1    2    0    0 -0.60282684200E+02 -0.94163397771E+02  0.21226618715E+03  0.25257345227E+03  0.78966240205E+02 0.  0.
        -13    1    5    5    0    0 -0.17943651120E+02  0.12007597962E+01  0.23252901555E+01  0.18133488740E+02  0.00000000000E+00 0.  1.
         14    1    5    5    0    0 -0.42339033080E+02 -0.95364157567E+02  0.20994089699E+03  0.23443996353E+03  0.00000000000E+00 0. -1.
         13    1    3    3    0    0 -0.32939340497E+02  0.14556648605E+02 -0.27771479121E+03  0.28003999969E+03  0.00000000000E+00 0. -1.
        -14    1    3    3    0    0  0.39821082707E+02 -0.25339751705E+02 -0.56910019916E+03  0.57105416410E+03  0.00000000000E+00 0.  1.
          5    1    4    4  501    0  0.45678964512E+02 -0.11487007111E+02 -0.58366700265E+02  0.75117662577E+02  0.41800000000E+01 0.  1.
         -5    1    4    4    0  501  0.77219774784E+01  0.11643350798E+03 -0.31266722893E+03  0.33375838441E+03  0.41800000000E+01 0.  1.
</event>
<event>
11    1  0.8299058E-009  0.1519601E+03  0.7561462E-02  0.1094893E+00
         22   -1    0    0    0    0  0.00000000000E+00  0.00000000000E+00  0.12103513768E+04  0.12103513768E+04  0.00000000000E+00 0. -1.
         22   -1    0    0    0    0 -0.00000000000E+00 -0.00000000000E+00 -0.37401588835E+03  0.37401588835E+03  0.00000000000E+00 0.  1.
         24    2    1    2    0    0  0.58652713168E+02 -0.13733156269E+02 -0.18214525675E+03  0.20794352515E+03  0.80217671060E+02 0.  0.
         25    2    1    2    0    0 -0.10895645015E+03  0.82939140717E+02 -0.12732452042E+03  0.22496614592E+03  0.12509126355E+03 0.  0.
        -24    2    1    2    0    0  0.50303736978E+02 -0.69205984448E+02  0.11458052656E+04  0.11514575941E+04  0.75265862178E+02 0.  0.
        -11    1    3    3    0    0  0.68599888623E+02 -0.20371191014E+02 -0.89793603239E+02  0.11482082270E+03  0.00000000000E+00 0.  1.
         12    1    3    3    0    0 -0.99471754549E+01  0.66380347455E+01 -0.92351653513E+02  0.93122702449E+02  0.00000000000E+00 0. -1.
         11    1    5    5    0    0  0.33091629782E+02 -0.64282768775E+02  0.48026943341E+03  0.48568102597E+03  0.00000000000E+00 0. -1.
        -12    1    5    5    0    0  0.17212107196E+02 -0.49232156735E+01  0.66553583220E+03  0.66577656810E+03  0.00000000000E+00 0.  1.
          5    1    4    4  501    0 -0.87540961825E+02  0.10482091583E+03 -0.56798969677E+02  0.14796769833E+03  0.41800000000E+01 0.  1.
         -5    1    4    4    0  501 -0.21415488322E+02 -0.21881775117E+02 -0.70525550744E+02  0.76998447582E+02  0.41800000000E+01 0.  1.
</event>
<event>
11    1  0.8299058E-009  0.4238240E+03  0.7561462E-02  0.9581967E-01
         22   -1    0    0    0    0  0.00000000000E+00  0.00000000000E+00  0.10260319532E+03  0.10260319532E+03  0.00000000000E+00 0.  1.
         22   -1    0    0    0    0 -0.00000000000E+00 -0.00000000000E+00 -0.43767342927E+03  0.43767342927E+03  0.00000000000E+00 0.  1.
        -24    2    1    2    0    0  0.21979613836E+02  0.56775409205E+02 -0.74076210486E+02  0.12345501246E+03  0.77764417478E+02 0.  0.
         25    2    1    2    0    0 -0.35659423992E+02 -0.14829792361E+03 -0.12380478125E+03  0.23289420512E+03  0.12509283853E+03 0.  0.
         24    2    1    2    0    0  0.13679810155E+02  0.91522514404E+02 -0.13718924222E+03  0.18392740702E+03  0.80280103523E+02 0.  0.
        -13    1    5    5    0    0 -0.81183990750E+01  0.79957750618E+02 -0.13748200836E+03  0.15924965592E+03  0.00000000000E+00 0.  1.
         14    1    5    5    0    0  0.21798209230E+02  0.11564763785E+02  0.29276614183E+00  0.24677751094E+02  0.00000000000E+00 0. -1.
         13    1    3    3    0    0 -0.24675280508E+02  0.43904025662E+02 -0.37534869851E+02  0.62811618290E+02  0.00000000000E+00 0. -1.
        -14    1    3    3    0    0  0.46654894344E+02  0.12871383543E+02 -0.36541340634E+02  0.60643394165E+02  0.00000000000E+00 0.  1.
          5    1    4    4  501    0  0.38330494369E+01 -0.15657258634E+03 -0.99682989195E+02  0.18569824393E+03  0.41800000000E+01 0.  1.
         -5    1    4    4    0  501 -0.39492473429E+02  0.82746627363E+01 -0.24121792055E+02  0.47195961192E+02  0.41800000000E+01 0.  1.
</event>
<event>
11    1  0.8299058E-009  0.2536805E+03  0.7561462E-02  0.1021957E+00
         22   -1    0    0    0    0  0.00000000000E+00  0.00000000000E+00  0.35917143237E+03  0.35917143237E+03  0.00000000000E+00 0.  1.
         22   -1    0    0    0    0 -0.00000000000E+00 -0.00000000000E+00 -0.27464404622E+03  0.27464404622E+03  0.00000000000E+00 0. -1.
         24    2    1    2    0    0 -0.15226892710E+03  0.17505312437E+03 -0.75618458443E+02  0.25709220289E+03  0.80924823233E+02 0.  0.
         25    2    1    2    0    0  0.97624996965E+02 -0.17795299676E+03  0.82528081863E+02  0.25230045601E+03  0.12508687668E+03 0.  0.
        -24    2    1    2    0    0  0.54643930137E+02  0.28998723836E+01  0.77617762733E+02  0.12442281969E+03  0.80387515248E+02 0.  0.
        -11    1    3    3    0    0  0.27345060831E+01  0.12444795646E+01  0.88621031129E+01  0.93575170044E+01  0.00000000000E+00 0.  1.
         12    1    3    3    0    0 -0.15500343318E+03  0.17380864481E+03 -0.84480561556E+02  0.24773468588E+03  0.00000000000E+00 0. -1.
         11    1    5    5    0    0  0.33117384769E+02  0.36158198715E+02  0.67686209946E+02  0.83579899049E+02  0.00000000000E+00 0. -1.
        -12    1    5    5    0    0  0.21526545367E+02 -0.33258326331E+02  0.99315527866E+01  0.40842920642E+02  0.00000000000E+00 0.  1.
          5    1    4    4  501    0  0.10877149644E+03 -0.14515630457E+03  0.10611147587E+03  0.21018731861E+03  0.41800000000E+01 0.  1.
         -5    1    4    4    0  501 -0.11146499472E+02 -0.32796692185E+02 -0.23583394003E+02  0.42113137397E+02  0.41800000000E+01 0.  1.
</event>
<event>
11    1  0.8299058E-009  0.1897579E+03  0.7561462E-02  0.1062012E+00
         22   -1    0    0    0    0  0.00000000000E+00  0.00000000000E+00  0.32447885387E+03  0.32447885387E+03  0.00000000000E+00 0. -1.
         22   -1    0    0    0    0 -0.00000000000E+00 -0.00000000000E+00 -0.87835386724E+03  0.87835386724E+03  0.00000000000E+00 0. -1.
        -24    2    1    2    0    0  0.12167458091E+03 -0.67103306073E+02 -0.69739230740E+03  0.71582625810E+03  0.82119693305E+02 0.  0.
         25    2    1    2    0    0 -0.12151789585E+03  0.13667734443E+03 -0.83377702454E+02  0.23674058461E+03  0.12508783971E+03 0.  0.
         24    2    1    2    0    0 -0.15668506542E+00 -0.69574038359E+02  0.22689499649E+03  0.25026587841E+03  0.79442426333E+02 0.  0.
        -13    1    5    5    0    0 -0.14561452248E+02  0.52903701599E+01  0.10747262911E+03  0.10858356190E+03  0.00000000000E+00 0.  1.
         14    1    5    5    0    0  0.14404767183E+02 -0.74864408519E+02  0.11942236738E+03  0.14168231651E+03  0.00000000000E+00 0. -1.
         13    1    3    3    0    0  0.12077488876E+03 -0.36127565711E+02 -0.48183965859E+03  0.49805745788E+03  0.00000000000E+00 0. -1.
        -14    1    3    3    0    0  0.89969214839E+00 -0.30975740362E+02 -0.21555264881E+03  0.21776880022E+03  0.00000000000E+00 0.  1.
          5    1    4    4  501    0 -0.49877123103E+02  0.12690334945E+03 -0.15178142997E+02  0.13725901040E+03  0.41800000000E+01 0.  1.
         -5    1    4    4    0  501 -0.71640772745E+02  0.97739949822E+01 -0.68199559457E+02  0.99481574212E+02  0.41800000000E+01 0.  1.
</event>
<event>
11    1  0.8299058E-009  0.1428240E+03  0.7561462E-02  0.1104445E+00
         22   -1    0    0    0    0  0.00000000000E+00  0.00000000000E+00  0.76587252414E+03  0.76587252414E+03  0.00000000000E+00 0.  1.
         22   -1    0    0    0    0 -0.00000000000E+00 -0.00000000000E+00 -0.10713344066E+04  0.10713344066E+04  0.00000000000E+00 0. -1.
         24    2    1    2    0    0  0.53812147280E+02  0.42425087090E+02 -0.10043639800E+04  0.10093001551E+04  0.72416597858E+02 0.  0.
         25    2    1    2    0    0 -0.59457588870E+02 -0.60146295433E+02  0.30073477606E+02  0.15396384736E+03  0.12509064917E+03 0.  0.
        -24    2    1    2    0    0  0.56454415903E+01  0.17721208343E+02  0.66882861984E+03  0.67394292832E+03  0.80755406436E+02 0.  0.
        -11    1    3    3    0    0 -0.15837744052E+02  0.21422802798E+02 -0.23543819958E+03  0.23694074457E+03  0.00000000000E+00 0.  1.
         12    1    3    3    0    0  0.69649891332E+02  0.21002284292E+02 -0.76892578038E+03  0.77235941053E+03  0.00000000000E+00 0. -1.
         11    1    5    5    0    0  0.23933882508E+02  0.21253650631E+02  0.10416079396E+03  0.10896797417E+03  0.00000000000E+00 0. -1.
        -12    1    5    5    0    0 -0.18288440918E+02 -0.35324422879E+01  0.56466782589E+03  0.56497495415E+03  0.00000000000E+00 0.  1.
          5    1    4    4  501    0 -0.23773768631E+02  0.24114353614E+02 -0.29157656003E+02  0.44881348339E+02  0.41800000000E+01 0.  1.
         -5    1    4    4    0  501 -0.35683820239E+02 -0.84260649046E+02  0.59231133609E+02  0.10908249902E+03  0.41800000000E+01 0.  1.
</event>
<event>
11    1  0.8299058E-009  0.1398548E+03  0.7561462E-02  0.1107721E+00
         22   -1    0    0    0    0  0.00000000000E+00  0.00000000000E+00  0.42426756525E+03  0.42426756525E+03  0.00000000000E+00 0.  1.
         22   -1    0    0    0    0 -0.00000000000E+00 -0.00000000000E+00 -0.80684968504E+03  0.80684968504E+03  0.00000000000E+00 0.  1.
         24    2    1    2    0    0 -0.13413165764E+02  0.18834663148E+02 -0.73331230085E+03  0.73800847333E+03  0.79843087269E+02 0.  0.
         25    2    1    2    0    0  0.63380377526E+02  0.18869403893E+02  0.16578884138E+02  0.14244687682E+03  0.12507248562E+03 0.  0.
        -24    2    1    2    0    0 -0.49967211762E+02 -0.37704067041E+02  0.33415129691E+03  0.35066190014E+03  0.85955570243E+02 0.  0.
        -13    1    3    3    0    0 -0.59170478247E+01 -0.22174051322E+02 -0.52842088152E+03  0.52891901841E+03  0.00000000000E+00 0.  1.
         14    1    3    3    0    0 -0.74961179389E+01  0.41008714471E+02 -0.20489141933E+03  0.20908945492E+03  0.00000000000E+00 0. -1.
         11    1    5    5    0    0  0.19044675518E+02 -0.31793254028E+02  0.11450637277E+03  0.12035455983E+03  0.00000000000E+00 0. -1.
        -12    1    5    5    0    0 -0.69011887280E+02 -0.59108130124E+01  0.21964492415E+03  0.23030734031E+03  0.00000000000E+00 0.  1.
          5    1    4    4  501    0  0.38704920101E+02 -0.20836022335E+02 -0.46302121754E+02  0.63981009258E+02  0.41800000000E+01 0. -1.
         -5    1    4    4    0  501  0.24675457425E+02  0.39705426228E+02  0.62881005892E+02  0.78465867567E+02  0.41800000000E+01 0. -1.
</event>
<event>
11    1  0.8299058E-009  0.1362939E+03  0.7561462E-02  0.1111769E+00
         22   -1    0    0    0    0  0.00000000000E+00  0.00000000000E+00  0.21325029136E+04  0.21325029136E+04  0.00000000000E+00 0.  1.
         22   -1    0    0    0    0 -0.00000000000E+00 -0.00000000000E+00 -0.15628613533E+03  0.15628613533E+03  0.00000000000E+00 0.  1.
        -24    2    1    2    0    0  0.31746329537E+02 -0.28723362544E+02 -0.12866955063E+03  0.15709638292E+03  0.79313046049E+02 0.  0.
         25    2    1    2    0    0  0.23433720438E+02  0.10323694681E+02  0.32742450436E+03  0.35144003971E+03  0.12509027750E+03 0.  0.
         24    2    1    2    0    0 -0.55180049974E+02  0.18399667863E+02  0.17774618245E+04  0.17802526263E+04  0.80904203435E+02 0.  0.
        -13    1    5    5    0    0 -0.64454094129E+02 -0.22892630013E+01  0.16064864271E+04  0.16077805234E+04  0.00000000000E+00 0.  1.
         14    1    5    5    0    0  0.92740441546E+01  0.20688930864E+02  0.17097539737E+03  0.17247210285E+03  0.00000000000E+00 0. -1.
         13    1    3    3    0    0  0.43789933100E+02 -0.14615865466E+01 -0.27737850652E+02  0.51856367352E+02  0.00000000000E+00 0. -1.
        -14    1    3    3    0    0 -0.12043603563E+02 -0.27261775997E+02 -0.10093169997E+03  0.10524001557E+03  0.00000000000E+00 0.  1.
          5    1    4    4  501    0  0.59076916639E+01  0.26407715032E+02  0.32610423708E+03  0.32725175947E+03  0.41800000000E+01 0. -1.
         -5    1    4    4    0  501  0.17526028774E+02 -0.16084020351E+02  0.13202672876E+01  0.24188280239E+02  0.41800000000E+01 0. -1.
</event>
<event>
11    1  0.8299058E-009  0.1386469E+03  0.7561462E-02  0.1109079E+00
         22   -1    0    0    0    0  0.00000000000E+00  0.00000000000E+00  0.91853400648E+03  0.91853400648E+03  0.00000000000E+00 0. -1.
         22   -1    0    0    0    0 -0.00000000000E+00 -0.00000000000E+00 -0.41944582632E+03  0.41944582632E+03  0.00000000000E+00 0.  1.
        -24    2    1    2    0    0 -0.25934286789E+02 -0.45465927243E+02 -0.39271477986E+03  0.40433908439E+03  0.80780313626E+02 0.  0.
         25    2    1    2    0    0  0.76837075773E+02  0.53948162590E+02  0.36170070068E+03  0.39406718466E+03  0.12508880322E+03 0.  0.
         24    2    1    2    0    0 -0.50902788984E+02 -0.84822353468E+01  0.53010225934E+03  0.53957356375E+03  0.86418650192E+02 0.  0.
        -11    1    5    5    0    0  0.11468457271E+02 -0.27883997764E+02  0.97129942694E+02  0.10170186139E+03  0.00000000000E+00 0.  1.
         12    1    5    5    0    0 -0.62371246255E+02  0.19401762417E+02  0.43297231665E+03  0.43787170236E+03  0.00000000000E+00 0. -1.
         11    1    3    3    0    0  0.21576135622E+02  0.71971266243E+01 -0.60425732285E+02  0.64564675963E+02  0.00000000000E+00 0. -1.
        -12    1    3    3    0    0 -0.47510422410E+02 -0.52663053868E+02 -0.33228904758E+03  0.33977440842E+03  0.00000000000E+00 0.  1.
          5    1    4    4  501    0  0.27326342643E+02 -0.40023478010E+02  0.13977660146E+03  0.14799857604E+03  0.41800000000E+01 0.  1.
         -5    1    4    4    0  501  0.49510733130E+02  0.93971640600E+02  0.22192409923E+03  0.24606860862E+03  0.41800000000E+01 0.  1.
</event>
<event>
11    1  0.8299058E-009  0.1341715E+03  0.7561462E-02  0.1114247E+00
         22   -1    0    0    0    0  0.00000000000E+00  0.00000000000E+00  0.46741966314E+03  0.46741966314E+03  0.00000000000E+00 0.  1.
         22   -1    0    0    0    0 -0.00000000000E+00 -0.00000000000E+00 -0.35376047967E+03  0.35376047967E+03  0.00000000000E+00 0.  1.
         24    2    1    2    0    0  0.30833709845E+01 -0.23029138246E+02 -0.27460134522E+03  0.28749472917E+03  0.81899158233E+02 0.  0.
         25    2    1    2    0    0  0.44470674907E+02  0.10378681932E+02 -0.72775094969E+00  0.13316350938E+03  0.12508650064E+03 0.  0.
        -24    2    1    2    0    0 -0.47554045892E+02  0.12650456314E+02  0.38898827965E+03  0.40052190426E+03  0.81758747322E+02 0.  0.
        -13    1    3    3    0    0 -0.37024224228E+02 -0.18264448142E+02 -0.98137112199E+02  0.10646725335E+03  0.00000000000E+00 0.  1.
         14    1    3    3    0    0  0.40107595212E+02 -0.47646901044E+01 -0.17646423302E+03  0.18102747582E+03  0.00000000000E+00 0. -1.
         13    1    5    5    0    0 -0.22019107243E+02  0.23166106962E+02  0.43750033383E+02  0.54180946988E+02  0.00000000000E+00 0. -1.
        -14    1    5    5    0    0 -0.25534938649E+02 -0.10515650648E+02  0.34523824626E+03  0.34634095727E+03  0.00000000000E+00 0.  1.
          5    1    4    4  501    0  0.81763740775E+02  0.89906829188E+01 -0.27736101932E+02  0.86907453278E+02  0.41800000000E+01 0.  1.
         -5    1    4    4    0  501 -0.37293065867E+02  0.13879990135E+01  0.27008350982E+02  0.46256056099E+02  0.41800000000E+01 0.  1.
</event>
<event>
11    1  0.8299058E-009  0.1361595E+03  0.7561462E-02  0.1111924E+00
         22   -1    0    0    0    0  0.00000000000E+00  0.00000000000E+00  0.45894262259E+03  0.45894262259E+03  0.00000000000E+00 0. -1.
         22   -1    0    0    0    0 -0.00000000000E+00 -0.00000000000E+00 -0.67835962574E+03  0.67835962574E+03  0.00000000000E+00 0. -1.
        -24    2    1    2    0    0 -0.34513729306E+02  0.43044075834E+02 -0.54851218501E+03  0.55786120511E+03  0.85437211341E+02 0.  0.
         25    2    1    2    0    0 -0.72533356407E+01 -0.57639393889E+02 -0.80856943216E+02  0.15986983814E+03  0.12508240994E+03 0.  0.
         24    2    1    2    0    0  0.41767064947E+02  0.14595318055E+02  0.40995212508E+03  0.41957120507E+03  0.77599872711E+02 0.  0.
        -11    1    5    5    0    0  0.39871188126E+02  0.30024947868E+02  0.13100144098E+03  0.14018768375E+03  0.00000000000E+00 0.  1.
         12    1    5    5    0    0  0.18958768209E+01 -0.15429629813E+02  0.27895068410E+03  0.27938352132E+03  0.00000000000E+00 0. -1.
         11    1    3    3    0    0 -0.23766935413E+02  0.58165904804E+02 -0.52039899455E+03  0.52417864629E+03  0.00000000000E+00 0. -1.
        -12    1    3    3    0    0 -0.10746793894E+02 -0.15121828970E+02 -0.28113190467E+02  0.33682558820E+02  0.00000000000E+00 0.  1.
          5    1    4    4  501    0  0.15142824428E+02 -0.55173799884E+02  0.16627856508E+02  0.59727810418E+02  0.41800000000E+01 0. -1.
         -5    1    4    4    0  501 -0.22396160068E+02 -0.24655940049E+01 -0.97484799724E+02  0.10014202773E+03  0.41800000000E+01 0. -1.
</event>
<event>
11    1  0.8299058E-009  0.2671430E+03  0.7561462E-02  0.1015143E+00
         22   -1    0    0    0    0  0.00000000000E+00  0.00000000000E+00  0.17163550219E+04  0.17163550219E+04  0.00000000000E+00 0.  1.
         22   -1    0    0    0    0 -0.00000000000E+00 -0.00000000000E+00 -0.50271093770E+03  0.50271093770E+03  0.00000000000E+00 0. -1.
         24    2    1    2    0    0  0.12793985163E+02 -0.17679958209E+03 -0.17991126082E+03  0.26402594905E+03  0.76940637623E+02 0.  0.
         25    2    1    2    0    0  0.17057055347E+03  0.31980426824E+03 -0.13524665585E+03  0.40658180852E+03  0.12509206772E+03 0.  0.
        -24    2    1    2    0    0 -0.18336453863E+03 -0.14300468615E+03  0.15288020009E+04  0.15484582021E+04  0.80089645428E+02 0.  0.
        -13    1    3    3    0    0 -0.10433933664E+01 -0.30263740161E+02  0.16156133964E+01  0.30324789281E+02  0.00000000000E+00 0.  1.
         14    1    3    3    0    0  0.13837378529E+02 -0.14653584193E+03 -0.18152687422E+03  0.23370115977E+03  0.00000000000E+00 0. -1.
         13    1    5    5    0    0 -0.56576002597E+02 -0.73812948717E+02  0.80738554429E+03  0.81272419220E+03  0.00000000000E+00 0. -1.
        -14    1    5    5    0    0 -0.12678853604E+03 -0.69191737430E+02  0.72141645662E+03  0.73573400987E+03  0.00000000000E+00 0.  1.
          5    1    4    4  501    0  0.19065532593E+03  0.28223246897E+03 -0.12004998101E+03  0.36115660064E+03  0.41800000000E+01 0. -1.
         -5    1    4    4    0  501 -0.20084772455E+02  0.37571799266E+02 -0.15196674843E+02  0.45425207880E+02  0.41800000000E+01 0. -1.
</event>
<event>
11    1  0.8299058E-009  0.2315630E+03  0.7561462E-02  0.1034207E+00
         22   -1    0    0    0    0  0.00000000000E+00  0.00000000000E+00  0.75631446696E+03  0.75631446696E+03  0.00000000000E+00 0. -1.
         22   -1    0    0    0    0 -0.00000000000E+00 -0.00000000000E+00 -0.19809059785E+03  0.19809059785E+03  0.00000000000E+00 0.  1.
        -24    2    1    2    0    0 -0.17641059524E+03  0.62446678826E+02 -0.36026171791E+02  0.20741137971E+03  0.81861526802E+02 0.  0.
         25    2    1    2    0    0  0.18462155267E+03 -0.11777554017E+03  0.15284434921E+03  0.29489691447E+03  0.12508636819E+03 0.  0.
         24    2    1    2    0    0 -0.82109574361E+01  0.55328861344E+02  0.44140569170E+03  0.45209677063E+03  0.80148628369E+02 0.  0.
        -11    1    5    5    0    0  0.21396968775E+02 -0.10226326967E+02  0.73703381388E+02  0.77424779392E+02  0.00000000000E+00 0.  1.
         12    1    5    5    0    0 -0.29607926211E+02  0.65555188312E+02  0.36770231031E+03  0.37467199123E+03  0.00000000000E+00 0. -1.
         11    1    3    3    0    0  0.56967831675E+00 -0.12174088850E+02 -0.18917426240E+01  0.12333355702E+02  0.00000000000E+00 0. -1.
        -12    1    3    3    0    0 -0.17698027355E+03  0.74620767676E+02 -0.34134429167E+02  0.19507802401E+03  0.00000000000E+00 0.  1.
          5    1    4    4  501    0  0.25127730516E+02 -0.43832019426E+02 -0.13892464006E+02  0.52565404251E+02  0.41800000000E+01 0. -1.
         -5    1    4    4    0  501  0.15949382216E+03 -0.73943520744E+02  0.16673681321E+03  0.24233151022E+03  0.41800000000E+01 0. -1.
</event>
<event>
11    1  0.8299058E-009  0.1690256E+03  0.7561462E-02  0.1078883E+00
         22   -1    0    0    0    0  0.00000000000E+00  0.00000000000E+00  0.64339448019E+03  0.64339448019E+03  0.00000000000E+00 0. -1.
         22   -1    0    0    0    0 -0.00000000000E+00 -0.00000000000E+00 -0.10203356788E+04  0.10203356788E+04  0.00000000000E+00 0. -1.
         24    2    1    2    0    0  0.10033913388E+03 -0.37280210475E+02 -0.60738985904E+03  0.62185531748E+03  0.79522569979E+02 0.  0.
         25    2    1    2    0    0 -0.12967634274E+03  0.31162808039E+02 -0.38228446737E+03  0.42376409886E+03  0.12509005964E+03 0.  0.
        -24    2    1    2    0    0  0.29337208863E+02  0.61174024355E+01  0.61273312775E+03  0.61811074268E+03  0.75636697037E+02 0.  0.
        -13    1    3    3    0    0  0.21132834654E+02  0.18789730330E+02 -0.65484621802E+02  0.71329421412E+02  0.00000000000E+00 0.  1.
         14    1    3    3    0    0  0.79206299225E+02 -0.56069940804E+02 -0.54190523723E+03  0.55052589607E+03  0.00000000000E+00 0. -1.
         11    1    5    5    0    0 -0.52655229885E+01  0.47360792581E+01  0.50284872509E+03  0.50289859466E+03  0.00000000000E+00 0. -1.
        -12    1    5    5    0    0  0.34602731851E+02  0.13813231774E+01  0.10988440266E+03  0.11521214803E+03  0.00000000000E+00 0.  1.
          5    1    4    4  501    0 -0.10999392146E+03  0.68058258436E+02 -0.34151263574E+03  0.36521081866E+03  0.41800000000E+01 0. -1.
         -5    1    4    4    0  501 -0.19682421280E+02 -0.36895450396E+02 -0.40771831628E+02  0.58553280196E+02  0.41800000000E+01 0. -1.
</event>
<event>
11    1  0.8299058E-009  0.1283099E+03  0.7561462E-02  0.1121363E+00
         22   -1    0    0    0    0  0.00000000000E+00  0.00000000000E+00  0.39702114346E+03  0.39702114346E+03  0.00000000000E+00 0.  1.
         22   -1    0    0    0    0 -0.00000000000E+00 -0.00000000000E+00 -0.11535514749E+03  0.11535514749E+03  0.00000000000E+00 0. -1.
         24    2    1    2    0    0 -0.22492796180E+02 -0.11358508525E+02 -0.49050228155E+02  0.97519492158E+02  0.80431243139E+02 0.  0.
         25    2    1    2    0    0  0.23943070804E+02 -0.18723021525E+02  0.85906429382E+02  0.15476267272E+03  0.12509095925E+03 0.  0.
        -24    2    1    2    0    0 -0.14502746241E+01  0.30081530050E+02  0.24480979474E+03  0.26009412607E+03  0.82523433448E+02 0.  0.
        -11    1    3    3    0    0  0.22922368455E+02 -0.17099526092E+02  0.23452212392E+01  0.28693707164E+02  0.00000000000E+00 0.  1.
         12    1    3    3    0    0 -0.45415164636E+02  0.57410175671E+01 -0.51395449394E+02  0.68825784994E+02  0.00000000000E+00 0. -1.
         13    1    5    5    0    0 -0.15790299843E+02 -0.68565524572E+01  0.63248199461E+01  0.18339826283E+02  0.00000000000E+00 0. -1.
        -14    1    5    5    0    0  0.14340025219E+02  0.36938082507E+02  0.23848497479E+03  0.24175429978E+03  0.00000000000E+00 0.  1.
          5    1    4    4  501    0 -0.79873002295E+01 -0.37125531368E+02 -0.19591421870E+02  0.42934814023E+02  0.41800000000E+01 0.  1.
         -5    1    4    4    0  501  0.31930371034E+02  0.18402509843E+02  0.10549785125E+03  0.11182785870E+03  0.41800000000E+01 0.  1.
</event>
<event>
11    1  0.8299058E-009  0.1504159E+03  0.7561462E-02  0.1096455E+00
         22   -1    0    0    0    0  0.00000000000E+00  0.00000000000E+00  0.11637972180E+03  0.11637972180E+03  0.00000000000E+00 0.  1.
         22   -1    0    0    0    0 -0.00000000000E+00 -0.00000000000E+00 -0.14874408787E+04  0.14874408787E+04  0.00000000000E+00 0. -1.
        -24    2    1    2    0    0 -0.34349207675E+02 -0.69728489271E+02 -0.11415521763E+04  0.11474731809E+04  0.86668329710E+02 0.  0.
         25    2    1    2    0    0  0.52144706260E+02  0.12797337615E+03 -0.28568981529E+03  0.34111793489E+03  0.12508604858E+03 0.  0.
         24    2    1    2    0    0 -0.17795498586E+02 -0.58244886883E+02  0.56180834718E+02  0.11522948469E+03  0.80077470831E+02 0.  0.
        -13    1    5    5    0    0 -0.38455410589E+02 -0.54339768214E+02  0.64429735521E+02  0.92643509392E+02  0.00000000000E+00 0.  1.
         14    1    5    5    0    0  0.20659912003E+02 -0.39051186689E+01 -0.82489008026E+01  0.22585975300E+02  0.00000000000E+00 0. -1.
         13    1    3    3    0    0 -0.57262830689E+02 -0.71016287424E+02 -0.80831419635E+03  0.81344587090E+03  0.00000000000E+00 0. -1.
        -14    1    3    3    0    0  0.22913623015E+02  0.12877981526E+01 -0.33323797993E+03  0.33402730998E+03  0.00000000000E+00 0.  1.
          5    1    4    4  501    0 -0.44192400274E+01 -0.48346223578E+01 -0.12432990223E+03  0.12457246985E+03  0.41800000000E+01 0.  1.
         -5    1    4    4    0  501  0.56563946288E+02  0.13280799851E+03 -0.16135991306E+03  0.21654546504E+03  0.41800000000E+01 0.  1.
</event>
<event>
11    1  0.8299058E-009  0.1491137E+03  0.7561462E-02  0.1097788E+00
         22   -1    0    0    0    0  0.00000000000E+00  0.00000000000E+00  0.60032213543E+03  0.60032213543E+03  0.00000000000E+00 0. -1.
         22   -1    0    0    0    0 -0.00000000000E+00 -0.00000000000E+00 -0.34483937431E+03  0.34483937431E+03  0.00000000000E+00 0.  1.
         24    2    1    2    0    0 -0.41593320790E+02  0.41172680493E+02 -0.23561311079E+03  0.25566762126E+03  0.80169823673E+02 0.  0.
         25    2    1    2    0    0 -0.18255864582E+02  0.18996313121E+02 -0.48905408486E+02  0.13688010830E+03  0.12510111337E+03 0.  0.
        -24    2    1    2    0    0  0.59849185371E+02 -0.60168993614E+02  0.54000128041E+03  0.55261378018E+03  0.81107178607E+02 0.  0.
        -11    1    3    3    0    0  0.19678892409E+02  0.31537670369E+02 -0.92646262018E+02  0.99825915096E+02  0.00000000000E+00 0.  1.
         12    1    3    3    0    0 -0.61272213198E+02  0.96350101243E+01 -0.14296684878E+03  0.15584170616E+03  0.00000000000E+00 0. -1.
         13    1    5    5    0    0  0.61221945413E+02 -0.49146009450E+01  0.31415422850E+03  0.32010179503E+03  0.00000000000E+00 0. -1.
        -14    1    5    5    0    0 -0.13727600412E+01 -0.55254392669E+02  0.22584705191E+03  0.23251198514E+03  0.00000000000E+00 0.  1.
          5    1    4    4  501    0  0.33812974355E+01 -0.49533678534E+02  0.50265055004E-01  0.49824626522E+02  0.41800000000E+01 0. -1.
         -5    1    4    4    0  501 -0.21637162017E+02  0.68529991655E+02 -0.48955673541E+02  0.87055481781E+02  0.41800000000E+01 0. -1.
</event>
<event>
11    1  0.8299058E-009  0.1320816E+03  0.7561462E-02  0.1116738E+00
         22   -1    0    0    0    0  0.00000000000E+00  0.00000000000E+00  0.21441568281E+03  0.21441568281E+03  0.00000000000E+00 0.  1.
         22   -1    0    0    0    0 -0.00000000000E+00 -0.00000000000E+00 -0.56332821098E+03  0.56332821098E+03  0.00000000000E+00 0.  1.
        -24    2    1    2    0    0  0.38994956411E+02  0.11145007318E+02 -0.47409971660E+03  0.48417785533E+03  0.89514448545E+02 0.  0.
         25    2    1    2    0    0 -0.65791890089E+02 -0.19156594051E+02  0.18976632843E+00  0.14263024293E+03  0.12509117590E+03 0.  0.
         24    2    1    2    0    0  0.26796933678E+02  0.80115867335E+01  0.12499742210E+03  0.15093579554E+03  0.79843582506E+02 0.  0.
        -11    1    5    5    0    0  0.32085848081E+02 -0.21471204844E+02  0.11166221813E+03  0.11814806491E+03  0.00000000000E+00 0.  1.
         12    1    5    5    0    0 -0.52889144021E+01  0.29482791577E+02  0.13335203964E+02  0.32787730624E+02  0.00000000000E+00 0. -1.
         11    1    3    3    0    0 -0.52699499230E+01  0.14678798019E+02 -0.11316846619E+02  0.19269418800E+02  0.00000000000E+00 0. -1.
        -12    1    3    3    0    0  0.44264906334E+02 -0.35337907014E+01 -0.46278286998E+03  0.46490843653E+03  0.00000000000E+00 0.  1.
          5    1    4    4  501    0 -0.73859176029E+02  0.35928577308E+02  0.17691169464E+02  0.84121878415E+02  0.41800000000E+01 0.  1.
         -5    1    4    4    0  501  0.80672859396E+01 -0.55085171359E+02 -0.17501403136E+02  0.58508364511E+02  0.41800000000E+01 0.  1.
</event>
<event>
11    1  0.8299058E-009  0.1705442E+03  0.7561462E-02  0.1077559E+00
         22   -1    0    0    0    0  0.00000000000E+00  0.00000000000E+00  0.20666870244E+04  0.20666870244E+04  0.00000000000E+00 0.  1.
         22   -1    0    0    0    0 -0.00000000000E+00 -0.00000000000E+00 -0.23467349636E+03  0.23467349636E+03  0.00000000000E+00 0. -1.
         24    2    1    2    0    0 -0.28066732270E+02  0.30524637343E+02 -0.17087500865E+03  0.20588197556E+03  0.10709633202E+03 0.  0.
         25    2    1    2    0    0  0.89548952570E+02  0.68470204551E+02  0.11854593342E+03  0.20592717211E+03  0.12508268491E+03 0.  0.
        -24    2    1    2    0    0 -0.61482220300E+02 -0.98994841895E+02  0.18843426033E+04  0.18895513731E+04  0.77957058436E+02 0.  0.
        -13    1    3    3    0    0 -0.56431498605E+02  0.29444795030E+02 -0.47867260252E+02  0.79641600895E+02  0.00000000000E+00 0.  1.
         14    1    3    3    0    0  0.28364766335E+02  0.10798423131E+01 -0.12300774840E+03  0.12624037466E+03  0.00000000000E+00 0. -1.
         11    1    5    5    0    0 -0.24120423604E+02  0.66499119757E+01  0.52591029338E+03  0.52650513088E+03  0.00000000000E+00 0. -1.
        -12    1    5    5    0    0 -0.37361796696E+02 -0.10564475387E+03  0.13584323099E+04  0.13630462422E+04  0.00000000000E+00 0.  1.
          5    1    4    4  501    0  0.11789870721E+03  0.59023219647E+02  0.71523371841E+02  0.15005635854E+03  0.41800000000E+01 0.  1.
         -5    1    4    4    0  501 -0.28349754635E+02  0.94469849046E+01  0.47022561582E+02  0.55870813574E+02  0.41800000000E+01 0.  1.
</event>
<event>
11    1  0.8299058E-009  0.1487809E+03  0.7561462E-02  0.1098131E+00
         22   -1    0    0    0    0  0.00000000000E+00  0.00000000000E+00  0.51361680818E+03  0.51361680818E+03  0.00000000000E+00 0.  1.
         22   -1    0    0    0    0 -0.00000000000E+00 -0.00000000000E+00 -0.23563378082E+04  0.23563378082E+04  0.00000000000E+00 0.  1.
        -24    2    1    2    0    0  0.37096083580E+01 -0.21635306021E+02 -0.16829265534E+04  0.16850754469E+04  0.82192639634E+02 0.  0.
         25    2    1    2    0    0  0.52220450615E+01  0.10148971183E+03 -0.65617145637E+03  0.67567394475E+03  0.12508744181E+03 0.  0.
         24    2    1    2    0    0 -0.89316534195E+01 -0.79854405804E+02  0.49637700974E+03  0.50920522472E+03  0.80270321552E+02 0.  0.
        -13    1    5    5    0    0 -0.39559617473E+02 -0.70700005111E+02  0.37829064522E+03  0.38686853881E+03  0.00000000000E+00 0.  1.
         14    1    5    5    0    0  0.30627964054E+02 -0.91544006931E+01  0.11808636452E+03  0.12233668591E+03  0.00000000000E+00 0. -1.
         11    1    3    3    0    0 -0.35181473239E+02 -0.22847361101E+02 -0.60831358257E+03  0.60975827399E+03  0.00000000000E+00 0. -1.
        -12    1    3    3    0    0  0.38891081597E+02  0.12120550803E+01 -0.10746129708E+04  0.10753171729E+04  0.00000000000E+00 0.  1.
          5    1    4    4  501    0  0.49171520464E+01 -0.26210830056E+02 -0.20465822771E+03  0.20643073552E+03  0.41800000000E+01 0. -1.
         -5    1    4    4    0  501  0.30489301513E+00  0.12770054188E+03 -0.45151322866E+03  0.46924320923E+03  0.41800000000E+01 0. -1.
</event>
<event>
11    1  0.8299058E-009  0.1419987E+03  0.7561462E-02  0.1105347E+00
         22   -1    0    0    0    0  0.00000000000E+00  0.00000000000E+00  0.19073301417E+04  0.19073301417E+04  0.00000000000E+00 0. -1.
         22   -1    0    0    0    0 -0.00000000000E+00 -0.00000000000E+00 -0.45120995360E+02  0.45120995360E+02  0.00000000000E+00 0.  1.
        -24    2    1    2    0    0  0.28228063721E+02  0.56642548630E+02  0.62531633025E+02  0.11987979590E+03  0.80347734498E+02 0.  0.
         25    2    1    2    0    0 -0.69679157014E+02 -0.57357711594E+02  0.38353132112E+03  0.41338746712E+03  0.12509129343E+03 0.  0.
         24    2    1    2    0    0  0.41451093293E+02  0.71516296401E+00  0.14161461922E+04  0.14191838740E+04  0.83030874221E+02 0.  0.
        -13    1    5    5    0    0  0.34830542787E+02  0.19161074335E+02  0.27392293806E+03  0.27679250257E+03  0.00000000000E+00 0.  1.
         14    1    5    5    0    0  0.66205505056E+01 -0.18445911371E+02  0.11422232541E+04  0.11423913714E+04  0.00000000000E+00 0. -1.
         13    1    3    3    0    0  0.15334948084E+02 -0.19356699740E+02  0.10251162983E+02  0.26738152518E+02  0.00000000000E+00 0. -1.
        -14    1    3    3    0    0  0.12893115637E+02  0.75999248370E+02  0.52280470043E+02  0.93141643380E+02  0.00000000000E+00 0.  1.
          5    1    4    4  501    0  0.36579566468E+01 -0.33459103327E+02  0.15418446517E+02  0.37257121941E+02  0.41800000000E+01 0.  1.
         -5    1    4    4    0  501 -0.73337113661E+02 -0.23898608267E+02  0.36811287460E+03  0.37613034518E+03  0.41800000000E+01 0.  1.
</event>
<event>
11    1  0.8299058E-009  0.1522787E+03  0.7561462E-02  0.1094573E+00
         22   -1    0    0    0    0  0.00000000000E+00  0.00000000000E+00  0.30648852380E+03  0.30648852380E+03  0.00000000000E+00 0. -1.
         22   -1    0    0    0    0 -0.00000000000E+00 -0.00000000000E+00 -0.26781925751E+04  0.26781925751E+04  0.00000000000E+00 0.  1.
        -24    2    1    2    0    0  0.13922181253E+02 -0.40651447700E+01 -0.22430552477E+04  0.22446319371E+04  0.82857325998E+02 0.  0.
         25    2    1    2    0    0 -0.98484550458E+02 -0.14048134742E+02 -0.40695448638E+03  0.43721381464E+03  0.12508960371E+03 0.  0.
         24    2    1    2    0    0  0.84562369205E+02  0.18113279512E+02  0.27830568277E+03  0.30283534713E+03  0.82318340781E+02 0.  0.
        -13    1    5    5    0    0  0.75356707885E+02  0.16294133837E+02  0.11033586784E+03  0.13460362534E+03  0.00000000000E+00 0.  1.
         14    1    5    5    0    0  0.92056613195E+01  0.18191456753E+01  0.16796981492E+03  0.16823172179E+03  0.00000000000E+00 0. -1.
         11    1    3    3    0    0  0.35140703010E+01 -0.32763239125E+02 -0.40983016500E+03  0.41115269994E+03  0.00000000000E+00 0. -1.
        -12    1    3    3    0    0  0.10408110952E+02  0.28698094355E+02 -0.18332250827E+04  0.18334792372E+04  0.00000000000E+00 0.  1.
          5    1    4    4  501    0 -0.10133123506E+03 -0.52420581792E+02 -0.23912998179E+03  0.26498406968E+03  0.41800000000E+01 0.  1.
         -5    1    4    4    0  501  0.28466846061E+01  0.38372447050E+02 -0.16782450460E+03  0.17222974496E+03  0.41800000000E+01 0.  1.
</event>
<event>
11    1  0.8299058E-009  0.1431639E+03  0.7561462E-02  0.1104076E+00
         22   -1    0    0    0    0  0.00000000000E+00  0.00000000000E+00  0.18461601118E+04  0.18461601118E+04  0.00000000000E+00 0.  1.
         22   -1    0    0    0    0 -0.00000000000E+00 -0.00000000000E+00 -0.17805827286E+03  0.17805827286E+03  0.00000000000E+00 0. -1.
         24    2    1    2    0    0 -0.50223633394E+02 -0.48313190544E+02 -0.14675796008E+03  0.18026594073E+03  0.78111028726E+02 0.  0.
         25    2    1    2    0    0  0.43485609942E+02  0.53223654635E+02  0.36731010104E+03  0.39406621659E+03  0.12509083518E+03 0.  0.
        -24    2    1    2    0    0  0.67380234518E+01 -0.49104640915E+01  0.14475496980E+04  0.14498862273E+04  0.81856157180E+02 0.  0.
        -13    1    3    3    0    0  0.20236205362E+02 -0.56934000168E+01 -0.19404455885E+02  0.28608595201E+02  0.00000000000E+00 0.  1.
         14    1    3    3    0    0 -0.70459838756E+02 -0.42619790527E+02 -0.12735350420E+03  0.15165734553E+03  0.00000000000E+00 0. -1.
         11    1    5    5    0    0  0.46453445883E+01  0.20090311581E+02  0.10004211029E+03  0.10214511088E+03  0.00000000000E+00 0. -1.
        -12    1    5    5    0    0  0.20926788635E+01 -0.25000775673E+02  0.13475075877E+04  0.13477411165E+04  0.00000000000E+00 0.  1.
          5    1    4    4  501    0 -0.96941954063E+01  0.70532513155E+02  0.11283108864E+03  0.13348085931E+03  0.41800000000E+01 0. -1.
         -5    1    4    4    0  501  0.53179805349E+02 -0.17308858520E+02  0.25447901240E+03  0.26058535728E+03  0.41800000000E+01 0. -1.
</event>
<event>
11    1  0.8299058E-009  0.1344586E+03  0.7561462E-02  0.1113909E+00
         22   -1    0    0    0    0  0.00000000000E+00  0.00000000000E+00  0.16047205500E+04  0.16047205500E+04  0.00000000000E+00 0. -1.
         22   -1    0    0    0    0 -0.00000000000E+00 -0.00000000000E+00 -0.14084917878E+03  0.14084917878E+03  0.00000000000E+00 0.  1.
         24    2    1    2    0    0 -0.52423080938E+02 -0.85916986517E+00 -0.11102735084E+03  0.14651033499E+03  0.79933022198E+02 0.  0.
         25    2    1    2    0    0  0.30327769151E+02 -0.46789921700E+02  0.45720097794E+03  0.47727292806E+03  0.12509054031E+03 0.  0.
        -24    2    1    2    0    0  0.22095311787E+02  0.47649091565E+02  0.11176977441E+04  0.11217864657E+04  0.79987428737E+02 0.  0.
        -11    1    3    3    0    0 -0.56572803699E+02  0.15933081353E+02 -0.34711109455E+02  0.68258379115E+02  0.00000000000E+00 0.  1.
         12    1    3    3    0    0  0.41497227613E+01 -0.16792251219E+02 -0.76316241381E+02  0.78251955876E+02  0.00000000000E+00 0. -1.
         13    1    5    5    0    0  0.32214532039E+02  0.35203588366E+02  0.10767832328E+04  0.10778400620E+04  0.00000000000E+00 0. -1.
        -14    1    5    5    0    0 -0.10119220252E+02  0.12445503199E+02  0.40914511287E+02  0.43946403746E+02  0.00000000000E+00 0.  1.
          5    1    4    4  501    0 -0.38529087572E+02 -0.18033816979E+01  0.58781407061E+02  0.70430596978E+02  0.41800000000E+01 0.  1.
         -5    1    4    4    0  501  0.68856856723E+02 -0.44986540002E+02  0.39841957088E+03  0.40684233108E+03  0.41800000000E+01 0.  1.
</event>
<event>
11    1  0.8299058E-009  0.1395818E+03  0.7561462E-02  0.1108026E+00
         22   -1    0    0    0    0  0.00000000000E+00  0.00000000000E+00  0.11438324522E+04  0.11438324522E+04  0.00000000000E+00 0. -1.
         22   -1    0    0    0    0 -0.00000000000E+00 -0.00000000000E+00 -0.76731394063E+03  0.76731394063E+03  0.00000000000E+00 0.  1.
        -24    2    1    2    0    0  0.16680864859E+02  0.59267753455E+02 -0.74096987347E+03  0.74864123060E+03  0.87386617414E+02 0.  0.
         25    2    1    2    0    0 -0.77696973363E+02 -0.80541179785E+02  0.35350681458E+03  0.39132601340E+03  0.12508109169E+03 0.  0.
         24    2    1    2    0    0  0.61016108504E+02  0.21273426330E+02  0.76398157042E+03  0.77117914879E+03  0.82909079272E+02 0.  0.
        -11    1    5    5    0    0 -0.19547707087E+02 -0.42649100770E+00  0.93228706557E+02  0.95256949737E+02  0.00000000000E+00 0.  1.
         12    1    5    5    0    0  0.80563815591E+02  0.21699917337E+02  0.67075286386E+03  0.67592219905E+03  0.00000000000E+00 0. -1.
         11    1    3    3    0    0  0.31170132805E+02  0.23972143379E+02 -0.11552856026E+03  0.12203724462E+03  0.00000000000E+00 0. -1.
        -12    1    3    3    0    0 -0.14489267946E+02  0.35295610077E+02 -0.62544131321E+03  0.62660398598E+03  0.00000000000E+00 0.  1.
          5    1    4    4  501    0  0.31329799673E+02 -0.40991487108E+02  0.10625660157E+03  0.11819389214E+03  0.41800000000E+01 0. -1.
         -5    1    4    4    0  501 -0.10902677304E+03 -0.39549692677E+02  0.24725021301E+03  0.27313212126E+03  0.41800000000E+01 0. -1.
</event>
<event>
11    1  0.8299058E-009  0.1348430E+03  0.7561462E-02  0.1113458E+00
         22   -1    0    0    0    0  0.00000000000E+00  0.00000000000E+00  0.42401794290E+03  0.42401794290E+03  0.00000000000E+00 0.  1.
         22   -1    0    0    0    0 -0.00000000000E+00 -0.00000000000E+00 -0.82390699392E+03  0.82390699392E+03  0.00000000000E+00 0. -1.
        -24    2    1    2    0    0  0.15387067673E+02  0.16183924851E+02 -0.78232152362E+03  0.78684045890E+03  0.81192734729E+02 0.  0.
         25    2    1    2    0    0  0.38345022427E+02 -0.14042100407E+02  0.10983292288E+03  0.17138469418E+03  0.12506766617E+03 0.  0.
         24    2    1    2    0    0 -0.53732090100E+02 -0.21418244446E+01  0.27259954972E+03  0.28969978374E+03  0.81998324817E+02 0.  0.
        -13    1    5    5    0    0 -0.34035648065E+02  0.33719002748E+02  0.20631694542E+03  0.21180670068E+03  0.00000000000E+00 0.  1.
         14    1    5    5    0    0 -0.19696442035E+02 -0.35860827192E+02  0.66282604298E+02  0.77893083058E+02  0.00000000000E+00 0. -1.
         13    1    3    3    0    0  0.31114639894E+02  0.21863955963E+02 -0.74469729095E+03  0.74566762605E+03  0.00000000000E+00 0. -1.
        -14    1    3    3    0    0 -0.15727572221E+02 -0.56800311121E+01 -0.37624232669E+02  0.41172832856E+02  0.00000000000E+00 0.  1.
          5    1    4    4  501    0 -0.33259723631E+02  0.31950488951E+02  0.40957673797E+02  0.61822701357E+02  0.41800000000E+01 0. -1.
         -5    1    4    4    0  501  0.71604746058E+02 -0.45992589357E+02  0.68875249086E+02  0.10956199282E+03  0.41800000000E+01 0. -1.
</event>
<event>
11    1  0.8299058E-009  0.1587431E+03  0.7561462E-02  0.1088265E+00
         22   -1    0    0    0    0  0.00000000000E+00  0.00000000000E+00  0.68546564961E+02  0.68546564961E+02  0.00000000000E+00 0. -1.
         22   -1    0    0    0    0 -0.00000000000E+00 -0.00000000000E+00 -0.24019830606E+04  0.24019830606E+04  0.00000000000E+00 0.  1.
         24    2    1    2    0    0  0.15487579323E+02 -0.81688070177E+02 -0.13542207206E+04  0.13593192918E+04  0.83200786687E+02 0.  0.
         25    2    1    2    0    0 -0.20417877655E+02  0.17388073098E+03 -0.96479558969E+03  0.98849869965E+03  0.12509097083E+03 0.  0.
        -24    2    1    2    0    0  0.49302983320E+01 -0.92192660806E+02 -0.14420185342E+02  0.12271163416E+03  0.79538725559E+02 0.  0.
        -13    1    3    3    0    0 -0.31530326794E+02 -0.34304538307E+02 -0.74420975755E+03  0.74566690022E+03  0.00000000000E+00 0.  1.
         14    1    3    3    0    0  0.47017906117E+02 -0.47383531869E+02 -0.61001096308E+03  0.61365239156E+03  0.00000000000E+00 0. -1.
         11    1    5    5    0    0 -0.98901058532E+01 -0.10092598842E+03 -0.22233599561E+02  0.10381812116E+03  0.00000000000E+00 0. -1.
        -12    1    5    5    0    0  0.14820404185E+02  0.87333276144E+01  0.78134142182E+01  0.18893512992E+02  0.00000000000E+00 0.  1.
          5    1    4    4  501    0 -0.14245633533E+02  0.16462766643E+03 -0.96225354119E+03  0.97634755930E+03  0.41800000000E+01 0.  1.
         -5    1    4    4    0  501 -0.61722441222E+01  0.92530645510E+01 -0.25420485041E+01  0.12151140345E+02  0.41800000000E+01 0.  1.
</event>
<event>
11    1  0.8299058E-009  0.1406242E+03  0.7561462E-02  0.1106863E+00
         22   -1    0    0    0    0  0.00000000000E+00  0.00000000000E+00  0.43703399747E+03  0.43703399747E+03  0.00000000000E+00 0.  1.
         22   -1    0    0    0    0 -0.00000000000E+00 -0.00000000000E+00 -0.51819255823E+03  0.51819255823E+03  0.00000000000E+00 0. -1.
        -24    2    1    2    0    0 -0.64745288173E+01  0.30802920438E+02 -0.44630051226E+03  0.45485216091E+03  0.81948774302E+02 0.  0.
         25    2    1    2    0    0  0.42208571570E+02 -0.79848032127E+02  0.41003131488E+02  0.15965341384E+03  0.12510269386E+03 0.  0.
         24    2    1    2    0    0 -0.35734042752E+02  0.49045111689E+02  0.32413882000E+03  0.34072098096E+03  0.85688198943E+02 0.  0.
        -13    1    5    5    0    0 -0.88616673747E+01  0.57277299376E+02  0.29340235931E+03  0.29907216959E+03  0.00000000000E+00 0.  1.
         14    1    5    5    0    0 -0.26872375378E+02 -0.82321876870E+01  0.30736460696E+02  0.41648811371E+02  0.00000000000E+00 0. -1.
         11    1    3    3    0    0  0.19736051686E+02  0.50756507439E+02 -0.25695894770E+03  0.26266639600E+03  0.00000000000E+00 0. -1.
        -12    1    3    3    0    0 -0.26210580503E+02 -0.19953587001E+02 -0.18934156455E+03  0.19218576491E+03  0.00000000000E+00 0.  1.
          5    1    4    4  501    0 -0.12543209292E+02 -0.84019811170E+02  0.56904748072E+02  0.10233417573E+03  0.41800000000E+01 0.  1.
         -5    1    4    4    0  501  0.54751780861E+02  0.41717790424E+01 -0.15901616584E+02  0.57319238113E+02  0.41800000000E+01 0.  1.
</event>
<event>
11    1  0.8299058E-009  0.1367094E+03  0.7561462E-02  0.1111290E+00
         22   -1    0    0    0    0  0.00000000000E+00  0.00000000000E+00  0.26286844374E+03  0.26286844374E+03  0.00000000000E+00 0.  1.
         22   -1    0    0    0    0 -0.00000000000E+00 -0.00000000000E+00 -0.12044407605E+04  0.12044407605E+04  0.00000000000E+00 0. -1.
        -24    2    1    2    0    0 -0.16549794995E+02  0.73324731266E+01 -0.11388089548E+04  0.11421054155E+04  0.84801437100E+02 0.  0.
         25    2    1    2    0    0  0.67430748086E+02 -0.13520351267E+02  0.53017386256E+02  0.15227666014E+03  0.12509049640E+03 0.  0.
         24    2    1    2    0    0 -0.50880953091E+02  0.61878781401E+01  0.14421925176E+03  0.17292712862E+03  0.80482532326E+02 0.  0.
        -11    1    5    5    0    0 -0.29623988488E+02 -0.35612764657E+02  0.53229733245E+02  0.70563830690E+02  0.00000000000E+00 0.  1.
         12    1    5    5    0    0 -0.21256964603E+02  0.41800642797E+02  0.90989518517E+02  0.10236329793E+03  0.00000000000E+00 0. -1.
         13    1    3    3    0    0 -0.22828137984E+02 -0.88442522154E+01 -0.10904960479E+04  0.10907708170E+04  0.00000000000E+00 0. -1.
        -14    1    3    3    0    0  0.62783429897E+01  0.16176725342E+02 -0.48312906848E+02  0.51334598485E+02  0.00000000000E+00 0.  1.
          5    1    4    4  501    0 -0.30386431921E+02 -0.10958469632E+02 -0.12009674214E+02  0.34714953209E+02  0.41800000000E+01 0.  1.
         -5    1    4    4    0  501  0.97817180007E+02 -0.25618816349E+01  0.65027060470E+02  0.11756170693E+03  0.41800000000E+01 0.  1.
</event>
<event>
11    1  0.8299058E-009  0.1322959E+03  0.7561462E-02  0.1116480E+00
         22   -1    0    0    0    0  0.00000000000E+00  0.00000000000E+00  0.30067061751E+03  0.30067061751E+03  0.00000000000E+00 0.  1.
         22   -1    0    0    0    0 -0.00000000000E+00 -0.00000000000E+00 -0.30157784982E+03  0.30157784982E+03  0.00000000000E+00 0. -1.
         24    2    1    2    0    0  0.37916034509E+02  0.19533870607E+02 -0.22273770169E+03  0.24076712590E+03  0.80854977519E+02 0.  0.
         25    2    1    2    0    0 -0.47481807772E+02 -0.84751287345E+01  0.90412559117E+01  0.13437140007E+03  0.12509028328E+03 0.  0.
        -24    2    1    2    0    0  0.95657732632E+01 -0.11058741872E+02  0.21278921346E+03  0.22710994136E+03  0.78012026694E+02 0.  0.
        -11    1    3    3    0    0  0.45101046603E+01 -0.19791061450E+02 -0.11522891458E+02  0.23341040785E+02  0.00000000000E+00 0.  1.
         12    1    3    3    0    0  0.33405929848E+02  0.39324932057E+02 -0.21121481023E+03  0.21742608512E+03  0.00000000000E+00 0. -1.
         11    1    5    5    0    0 -0.31985941246E+02 -0.14482364704E+02  0.69315661545E+02  0.77701353014E+02  0.00000000000E+00 0. -1.
        -12    1    5    5    0    0  0.41551714509E+02  0.34236228319E+01  0.14347355192E+03  0.14940858835E+03  0.00000000000E+00 0.  1.
          5    1    4    4  501    0 -0.56271515194E+01  0.46994493716E+02 -0.28371618130E+02  0.55340476951E+02  0.41800000000E+01 0. -1.
         -5    1    4    4    0  501 -0.41854656252E+02 -0.55469622451E+02  0.37412874042E+02  0.79030923118E+02  0.41800000000E+01 0. -1.
</event>
<event>
11    1  0.8299058E-009  0.2561372E+03  0.7561462E-02  0.1020680E+00
         22   -1    0    0    0    0  0.00000000000E+00  0.00000000000E+00  0.49000854788E+03  0.49000854788E+03  0.00000000000E+00 0.  1.
         22   -1    0    0    0    0 -0.00000000000E+00 -0.00000000000E+00 -0.50884871970E+03  0.50884871970E+03  0.00000000000E+00 0. -1.
        -24    2    1    2    0    0 -0.38571997949E+02 -0.10676803189E+03 -0.25783932458E+03  0.29320614167E+03  0.81249692630E+02 0.  0.
         25    2    1    2    0    0  0.21125772240E+03  0.22394656259E+03 -0.55686443998E+02  0.33694455083E+03  0.12509501236E+03 0.  0.
         24    2    1    2    0    0 -0.17268572445E+03 -0.11717853070E+03  0.29468559676E+03  0.36870657507E+03  0.74523620924E+02 0.  0.
        -13    1    5    5    0    0 -0.17869628497E+03 -0.10889871425E+03  0.28956235869E+03  0.35726412050E+03  0.00000000000E+00 0.  1.
         14    1    5    5    0    0  0.60105605221E+01 -0.82798164487E+01  0.51232380736E+01  0.11442454569E+02  0.00000000000E+00 0. -1.
         13    1    3    3    0    0 -0.43009628493E+02 -0.11181741892E+03 -0.25989305427E+03  0.28617715314E+03  0.00000000000E+00 0. -1.
        -14    1    3    3    0    0  0.44376305441E+01  0.50493870289E+01  0.20537296890E+01  0.70289885367E+01  0.00000000000E+00 0.  1.
          5    1    4    4  501    0  0.43343799007E+02  0.90343313838E+02  0.31750045956E+02  0.10519570849E+03  0.41800000000E+01 0. -1.
         -5    1    4    4    0  501  0.16791392339E+03  0.13360324876E+03 -0.87436489954E+02  0.23174884233E+03  0.41800000000E+01 0. -1.
</event>
<event>
11    1  0.8299058E-009  0.2426357E+03  0.7561462E-02  0.1027897E+00
         22   -1    0    0    0    0  0.00000000000E+00  0.00000000000E+00  0.77248378359E+03  0.77248378359E+03  0.00000000000E+00 0. -1.
         22   -1    0    0    0    0 -0.00000000000E+00 -0.00000000000E+00 -0.56281406322E+03  0.56281406322E+03  0.00000000000E+00 0.  1.
        -24    2    1    2    0    0 -0.18607906241E+03  0.11096180246E+03 -0.44355858489E+03  0.50044814526E+03  0.82256846472E+02 0.  0.
         25    2    1    2    0    0  0.12485483358E+03 -0.11741969121E+03  0.43281748220E+02  0.21655586049E+03  0.12508803953E+03 0.  0.
         24    2    1    2    0    0  0.61224228834E+02  0.64578887460E+01  0.60994655703E+03  0.61829384105E+03  0.80388810953E+02 0.  0.
        -13    1    5    5    0    0  0.66278614918E+01 -0.96154279705E+01  0.92252835304E+01  0.14882568973E+02  0.00000000000E+00 0.  1.
         14    1    5    5    0    0  0.54596367342E+02  0.16073316716E+02  0.60072127350E+03  0.60341127208E+03  0.00000000000E+00 0. -1.
         11    1    3    3    0    0 -0.53545257620E+02 -0.44382092986E+01 -0.13592815601E+03  0.14616174572E+03  0.00000000000E+00 0. -1.
        -12    1    3    3    0    0 -0.13253380479E+03  0.11540001176E+03 -0.30763042888E+03  0.35428639954E+03  0.00000000000E+00 0.  1.
          5    1    4    4  501    0 -0.23539624918E+02 -0.68993193998E+01 -0.47861725363E+01  0.25339581627E+02  0.41800000000E+01 0. -1.
         -5    1    4    4    0  501  0.14839445850E+03 -0.11052037181E+03  0.48067920756E+02  0.19121627887E+03  0.41800000000E+01 0. -1.
</event>
<event>
11    1  0.8299058E-009  0.2009006E+03  0.7561462E-02  0.1053889E+00
         22   -1    0    0    0    0  0.00000000000E+00  0.00000000000E+00  0.38561926782E+03  0.38561926782E+03  0.00000000000E+00 0. -1.
         22   -1    0    0    0    0 -0.00000000000E+00 -0.00000000000E+00 -0.70587118610E+03  0.70587118610E+03  0.00000000000E+00 0. -1.
         24    2    1    2    0    0 -0.14036741176E+03 -0.66662742890E+02 -0.60257474303E+03  0.62713241078E+03  0.77793368142E+02 0.  0.
         25    2    1    2    0    0  0.15589739634E+03  0.87615006038E+02  0.59724492929E+02  0.22625553564E+03  0.12507663604E+03 0.  0.
        -24    2    1    2    0    0 -0.15529984580E+02 -0.20952263148E+02  0.22259833182E+03  0.23810250749E+03  0.80390353844E+02 0.  0.
        -11    1    3    3    0    0 -0.52795167170E+02 -0.67613768112E+02 -0.27650071890E+03  0.28950232964E+03  0.00000000000E+00 0.  1.
         12    1    3    3    0    0 -0.87572244593E+02  0.95102522201E+00 -0.32607402413E+03  0.33763008113E+03  0.00000000000E+00 0. -1.
         13    1    5    5    0    0  0.23867453213E+02  0.14524523690E+02  0.11230954558E+03  0.11573267101E+03  0.00000000000E+00 0. -1.
        -14    1    5    5    0    0 -0.39397437792E+02 -0.35476786839E+02  0.11028878625E+03  0.12236983648E+03  0.00000000000E+00 0.  1.
          5    1    4    4  501    0  0.12917926111E+03  0.39344529493E+02  0.90815521189E+02  0.16278883497E+03  0.41800000000E+01 0.  1.
         -5    1    4    4    0  501  0.26718135234E+02  0.48270476545E+02 -0.31091028260E+02  0.63466700675E+02  0.41800000000E+01 0.  1.
</event>
<event>
11    1  0.8299058E-009  0.1667000E+03  0.7561462E-02  0.1080940E+00
         22   -1    0    0    0    0  0.00000000000E+00  0.00000000000E+00  0.50250513349E+03  0.50250513349E+03  0.00000000000E+00 0. -1.
         22   -1    0    0    0    0 -0.00000000000E+00 -0.00000000000E+00 -0.25760448626E+04  0.25760448626E+04  0.00000000000E+00 0. -1.
        -24    2    1    2    0    0 -0.40950661831E+02  0.10271365327E+03 -0.24469641214E+04  0.24507435495E+04  0.79268421270E+02 0.  0.
         25    2    1    2    0    0  0.29816932564E+02 -0.95120481669E+02 -0.71975490829E+02  0.17540285685E+03  0.12509490562E+03 0.  0.
         24    2    1    2    0    0  0.11133729267E+02 -0.75931715992E+01  0.44539988311E+03  0.45240358976E+03  0.78143048154E+02 0.  0.
        -13    1    5    5    0    0  0.17623621007E+01 -0.22797544624E+02  0.36217169648E+02  0.42831265897E+02  0.00000000000E+00 0.  1.
         14    1    5    5    0    0  0.93713671660E+01  0.15204373025E+02  0.40918271346E+03  0.40957232387E+03  0.00000000000E+00 0. -1.
         11    1    3    3    0    0 -0.47214065544E+02  0.10117805067E+03 -0.16589320976E+04  0.16626851387E+04  0.00000000000E+00 0. -1.
        -12    1    3    3    0    0  0.62634037125E+01  0.15356025985E+01 -0.78803202376E+03  0.78805841076E+03  0.00000000000E+00 0.  1.
          5    1    4    4  501    0 -0.78133765924E+01 -0.11384225256E+03 -0.68185225395E+02  0.13299550626E+03  0.41800000000E+01 0.  1.
         -5    1    4    4    0  501  0.37630309157E+02  0.18721770892E+02 -0.37902654341E+01  0.42407350597E+02  0.41800000000E+01 0.  1.
</event>
<event>
11    1  0.8299058E-009  0.1318609E+03  0.7561462E-02  0.1117003E+00
         22   -1    0    0    0    0  0.00000000000E+00  0.00000000000E+00  0.13897290845E+04  0.13897290845E+04  0.00000000000E+00 0.  1.
         22   -1    0    0    0    0 -0.00000000000E+00 -0.00000000000E+00 -0.22767343121E+03  0.22767343121E+03  0.00000000000E+00 0. -1.
         24    2    1    2    0    0 -0.72138326447E+00 -0.42356378549E+02 -0.20205372245E+03  0.22172591627E+03  0.80883199707E+02 0.  0.
         25    2    1    2    0    0 -0.20028578767E+02  0.17124075438E+02  0.27664319149E+03  0.30477587703E+03  0.12514991767E+03 0.  0.
        -24    2    1    2    0    0  0.20749962031E+02  0.25232303111E+02  0.10874661842E+04  0.10909007224E+04  0.80090287941E+02 0.  0.
        -11    1    3    3    0    0 -0.10455789841E+02  0.90937160662E+01 -0.91968560570E+00  0.13887585633E+02  0.00000000000E+00 0.  1.
         12    1    3    3    0    0  0.97344065764E+01 -0.51450094615E+02 -0.20113403684E+03  0.20783833064E+03  0.00000000000E+00 0. -1.
         13    1    5    5    0    0  0.29762567302E+02 -0.12211224073E+02  0.19760748219E+03  0.20020899436E+03  0.00000000000E+00 0. -1.
        -14    1    5    5    0    0 -0.90126052712E+01  0.37443527184E+02  0.88985870205E+03  0.89069172804E+03  0.00000000000E+00 0.  1.
          5    1    4    4  501    0  0.18170983605E+02  0.86386712962E+01 -0.43795732421E+01  0.21011053013E+02  0.41800000000E+01 0.  1.
         -5    1    4    4    0  501 -0.38199562372E+02  0.84854041415E+01  0.28102276473E+03  0.28376482401E+03  0.41800000000E+01 0.  1.
</event>
<event>
11    1  0.8299058E-009  0.1481942E+03  0.7561462E-02  0.1098738E+00
         22   -1    0    0    0    0  0.00000000000E+00  0.00000000000E+00  0.71528560926E+02  0.71528560926E+02  0.00000000000E+00 0.  1.
         22   -1    0    0    0    0 -0.00000000000E+00 -0.00000000000E+00 -0.33034647850E+04  0.33034647850E+04  0.00000000000E+00 0. -1.
        -24    2    1    2    0    0  0.35501574072E+02 -0.50719365392E+02 -0.28641213373E+04  0.28659385184E+04  0.81115599948E+02 0.  0.
         25    2    1    2    0    0 -0.91266850335E+02 -0.75741215015E+01 -0.36305604665E+03  0.39477199504E+03  0.12509288459E+03 0.  0.
         24    2    1    2    0    0  0.55765276263E+02  0.58293486893E+02 -0.47588401458E+01  0.11428283253E+03  0.80808555240E+02 0.  0.
        -13    1    5    5    0    0  0.64057741080E+02  0.70467710046E+02  0.69225510148E+01  0.95483056423E+02  0.00000000000E+00 0.  1.
         14    1    5    5    0    0 -0.82924648169E+01 -0.12174223152E+02 -0.11681391161E+02  0.18799776104E+02  0.00000000000E+00 0. -1.
         11    1    3    3    0    0  0.17502694940E+02 -0.52826889465E+02 -0.27334636819E+04  0.27340301250E+04  0.00000000000E+00 0. -1.
        -12    1    3    3    0    0  0.17998879132E+02  0.21075240728E+01 -0.13065765546E+03  0.13190839335E+03  0.00000000000E+00 0.  1.
          5    1    4    4  501    0 -0.10672607193E+02  0.13341809661E+01  0.85739419637E+01  0.14376003059E+02  0.41800000000E+01 0. -1.
         -5    1    4    4    0  501 -0.80594243141E+02 -0.89083024676E+01 -0.37162998862E+03  0.38039599199E+03  0.41800000000E+01 0. -1.
</event>
<event>
11    1  0.8299058E-009  0.1462429E+03  0.7561462E-02  0.1100781E+00
         22   -1    0    0    0    0  0.00000000000E+00  0.00000000000E+00  0.86981149747E+03  0.86981149747E+03  0.00000000000E+00 0. -1.
         22   -1    0    0    0    0 -0.00000000000E+00 -0.00000000000E+00 -0.23951267736E+03  0.23951267736E+03  0.00000000000E+00 0.  1.
         24    2    1    2    0    0 -0.73335770743E+02 -0.11746151683E+02 -0.19810746407E+03  0.22632731838E+03  0.80382711900E+02 0.  0.
         25    2    1    2    0    0  0.11660339220E+03 -0.38969000053E+02  0.29803703074E+03  0.34581438887E+03  0.12508631349E+03 0.  0.
        -24    2    1    2    0    0 -0.43267621461E+02  0.50715151736E+02  0.53036925345E+03  0.53718246758E+03  0.53191585684E+02 0.  0.
        -13    1    3    3    0    0 -0.78103885503E+02 -0.17091577807E+02 -0.20264569638E+03  0.21784769272E+03  0.00000000000E+00 0.  1.
         14    1    3    3    0    0  0.47681147604E+01  0.53454261233E+01  0.45382323063E+01  0.84796256565E+01  0.00000000000E+00 0. -1.
         11    1    5    5    0    0 -0.39342714221E+02  0.61564270545E+02  0.47848957359E+03  0.48403541255E+03  0.00000000000E+00 0. -1.
        -12    1    5    5    0    0 -0.39249072408E+01 -0.10849118809E+02  0.51879679855E+02  0.53147055023E+02  0.00000000000E+00 0.  1.
          5    1    4    4  501    0  0.49941374981E+02 -0.80369991828E+02  0.13605308105E+03  0.16577511811E+03  0.41800000000E+01 0. -1.
         -5    1    4    4    0  501  0.66662017223E+02  0.41400991775E+02  0.16198394968E+03  0.18003927076E+03  0.41800000000E+01 0. -1.
</event>
<event>
11    1  0.8299058E-009  0.1593612E+03  0.7561462E-02  0.1087680E+00
         22   -1    0    0    0    0  0.00000000000E+00  0.00000000000E+00  0.19807419641E+04  0.19807419641E+04  0.00000000000E+00 0. -1.
         22   -1    0    0    0    0 -0.00000000000E+00 -0.00000000000E+00 -0.45538841137E+03  0.45538841137E+03  0.00000000000E+00 0.  1.
         24    2    1    2    0    0  0.56576478864E+02 -0.78922260035E+02 -0.40581921464E+03  0.42501624615E+03  0.80746228541E+02 0.  0.
         25    2    1    2    0    0 -0.10941517492E+03  0.91588454336E+02  0.19573384796E+03  0.27261609717E+03  0.12509065404E+03 0.  0.
        -24    2    1    2    0    0  0.52838696059E+02 -0.12666194302E+02  0.17354389194E+04  0.17384980322E+04  0.87605961742E+02 0.  0.
        -13    1    3    3    0    0  0.28096607867E+02 -0.55496949839E+02 -0.36393121005E+03  0.36920896043E+03  0.00000000000E+00 0.  1.
         14    1    3    3    0    0  0.28479870997E+02 -0.23425310195E+02 -0.41888004592E+02  0.55807285711E+02  0.00000000000E+00 0. -1.
         11    1    5    5    0    0  0.70690344260E+02 -0.29786091816E+02  0.14317873348E+04  0.14338407541E+04  0.00000000000E+00 0. -1.
        -12    1    5    5    0    0 -0.17851648201E+02  0.17119897515E+02  0.30365158459E+03  0.30465727803E+03  0.00000000000E+00 0.  1.
          5    1    4    4  501    0 -0.90082200809E+02  0.99148403848E+02  0.20852181142E+03  0.24787905745E+03  0.41800000000E+01 0. -1.
         -5    1    4    4    0  501 -0.19332974114E+02 -0.75599495113E+01 -0.12787963455E+02  0.24737039718E+02  0.41800000000E+01 0. -1.
</event>
<event>
11    1  0.8299058E-009  0.2550875E+03  0.7561462E-02  0.1021223E+00
         22   -1    0    0    0    0  0.00000000000E+00  0.00000000000E+00  0.49984849678E+03  0.49984849678E+03  0.00000000000E+00 0.  1.
         22   -1    0    0    0    0 -0.00000000000E+00 -0.00000000000E+00 -0.58976262260E+03  0.58976262260E+03  0.00000000000E+00 0. -1.
         24    2    1    2    0    0  0.69703225303E+02 -0.83455893959E+02 -0.41397848314E+03  0.43568447190E+03  0.81359379880E+02 0.  0.
         25    2    1    2    0    0  0.13007150797E+03  0.18971918594E+03  0.14174414048E+02  0.26222445317E+03  0.12509509635E+03 0.  0.
        -24    2    1    2    0    0 -0.19977473327E+03 -0.10626329198E+03  0.30988994328E+03  0.39170219431E+03  0.78721031520E+02 0.  0.
        -13    1    3    3    0    0  0.22374582469E+02 -0.12975159353E+02 -0.24712060241E+03  0.24847045868E+03  0.00000000000E+00 0.  1.
         14    1    3    3    0    0  0.47328642834E+02 -0.70480734606E+02 -0.16685788073E+03  0.18721401322E+03  0.00000000000E+00 0. -1.
         11    1    5    5    0    0 -0.13244929733E+03 -0.67615790089E+02  0.13705777023E+03  0.20223635631E+03  0.00000000000E+00 0. -1.
        -12    1    5    5    0    0 -0.67325435938E+02 -0.38647501888E+02  0.17283217305E+03  0.18946583800E+03  0.00000000000E+00 0.  1.
          5    1    4    4  501    0  0.60737702003E+02  0.14407772896E+03  0.59748882735E+02  0.16743614250E+03  0.41800000000E+01 0.  1.
         -5    1    4    4    0  501  0.69333805966E+02  0.45641456976E+02 -0.45574468687E+02  0.94788310675E+02  0.41800000000E+01 0.  1.
</event>
<event>
11    1  0.8299058E-009  0.1401010E+03  0.7561462E-02  0.1107446E+00
         22   -1    0    0    0    0  0.00000000000E+00  0.00000000000E+00  0.16572503989E+04  0.16572503989E+04  0.00000000000E+00 0. -1.
         22   -1    0    0    0    0 -0.00000000000E+00 -0.00000000000E+00 -0.10054678276E+03  0.10054678276E+03  0.00000000000E+00 0. -1.
        -24    2    1    2    0    0  0.45139420845E+02 -0.32071228657E+02 -0.63230544725E+02  0.11620206229E+03  0.80241426164E+02 0.  0.
         25    2    1    2    0    0  0.20214157657E+02 -0.99028489495E+01  0.49846638957E+03  0.51441553560E+03  0.12509165897E+03 0.  0.
         24    2    1    2    0    0 -0.65353578502E+02  0.41974077607E+02  0.11214677713E+04  0.11271795838E+04  0.82528410903E+02 0.  0.
        -13    1    5    5    0    0 -0.49921376259E+02  0.67213245910E+02  0.81855217993E+03  0.82282284576E+03  0.00000000000E+00 0.  1.
         14    1    5    5    0    0 -0.15432202244E+02 -0.25239168304E+02  0.30291559136E+03  0.30435673801E+03  0.00000000000E+00 0. -1.
         13    1    3    3    0    0  0.52748401025E+02 -0.31408990601E+02 -0.78186649745E+02  0.99408604757E+02  0.00000000000E+00 0. -1.
        -14    1    3    3    0    0 -0.76089801799E+01 -0.66223805605E+00  0.14956105020E+02  0.16793457535E+02  0.00000000000E+00 0.  1.
          5    1    4    4  501    0  0.62340467601E+02 -0.39224068853E+02  0.24943840150E+03  0.26011891516E+03  0.41800000000E+01 0.  1.
         -5    1    4    4    0  501 -0.42126309944E+02  0.29321219904E+02  0.24902798807E+03  0.25429662044E+03  0.41800000000E+01 0.  1.
</event>
<event>
11    1  0.8299058E-009  0.1412303E+03  0.7561462E-02  0.1106192E+00
         22   -1    0    0    0    0  0.00000000000E+00  0.00000000000E+00  0.17251174006E+03  0.17251174006E+03  0.00000000000E+00 0.  1.
         22   -1    0    0    0    0 -0.00000000000E+00 -0.00000000000E+00 -0.12678374432E+04  0.12678374432E+04  0.00000000000E+00 0. -1.
         24    2    1    2    0    0  0.18913549640E+02  0.14904337296E+02 -0.11359864616E+04  0.11389753415E+04  0.78865239498E+02 0.  0.
         25    2    1    2    0    0 -0.43055381291E+02  0.47203710321E+02 -0.62990040238E+02  0.15393721168E+03  0.12508782452E+03 0.  0.
        -24    2    1    2    0    0  0.24141831651E+02 -0.62108047617E+02  0.10365079860E+03  0.14743663016E+03  0.80955754883E+02 0.  0.
        -11    1    3    3    0    0 -0.25960884515E+01 -0.13652739807E+02 -0.38925088923E+02  0.41331580265E+02  0.00000000000E+00 0.  1.
         12    1    3    3    0    0  0.21509638091E+02  0.28557077103E+02 -0.10970613726E+04  0.10976437612E+04  0.00000000000E+00 0. -1.
         13    1    5    5    0    0  0.23533385348E+02 -0.45653542446E+00 -0.35170741380E+01  0.23799127316E+02  0.00000000000E+00 0. -1.
        -14    1    5    5    0    0  0.60844630324E+00 -0.61651512193E+02  0.10716787274E+03  0.12363750285E+03  0.00000000000E+00 0.  1.
          5    1    4    4  501    0  0.12050190546E+02 -0.35378813490E+02 -0.33291704273E+02  0.50226263146E+02  0.41800000000E+01 0.  1.
         -5    1    4    4    0  501 -0.55105571837E+02  0.82582523811E+02 -0.29698335965E+02  0.10371094853E+03  0.41800000000E+01 0.  1.
</event>
<event>
11    1  0.8299058E-009  0.1879664E+03  0.7561462E-02  0.1063375E+00
         22   -1    0    0    0    0  0.00000000000E+00  0.00000000000E+00  0.24287129737E+04  0.24287129737E+04  0.00000000000E+00 0.  1.
         22   -1    0    0    0    0 -0.00000000000E+00 -0.00000000000E+00 -0.66465062499E+03  0.66465062499E+03  0.00000000000E+00 0. -1.
        -24    2    1    2    0    0  0.43485414792E+02  0.14692021665E+03 -0.51635977231E+03  0.54376026155E+03  0.74640982146E+02 0.  0.
         25    2    1    2    0    0  0.79951324732E+02 -0.10197891718E+03 -0.70663166678E+02  0.19347596874E+03  0.12509098080E+03 0.  0.
         24    2    1    2    0    0 -0.12343673952E+03 -0.44941299471E+02  0.23510852878E+04  0.23561273685E+04  0.80484762629E+02 0.  0.
        -11    1    5    5    0    0 -0.79349563747E+02 -0.85355583981E+01  0.18623215141E+04  0.18640307484E+04  0.00000000000E+00 0.  1.
         12    1    5    5    0    0 -0.44087175777E+02 -0.36405741073E+02  0.48876377366E+03  0.49209662008E+03  0.00000000000E+00 0. -1.
         13    1    3    3    0    0  0.23790336500E+02  0.59710657798E+02 -0.34011649729E+03  0.34613664136E+03  0.00000000000E+00 0. -1.
        -14    1    3    3    0    0  0.19695078292E+02  0.87209558854E+02 -0.17624327502E+03  0.19762362019E+03  0.00000000000E+00 0.  1.
          5    1    4    4  501    0 -0.26158975981E+02 -0.60602638949E+02 -0.25524095618E+02  0.70893749577E+02  0.41800000000E+01 0. -1.
         -5    1    4    4    0  501  0.10611030071E+03 -0.41376278232E+02 -0.45139071060E+02  0.12258221916E+03  0.41800000000E+01 0. -1.
</event>
<event>
11    1  0.8299058E-009  0.1383202E+03  0.7561462E-02  0.1109449E+00
         22   -1    0    0    0    0  0.00000000000E+00  0.00000000000E+00  0.12256297797E+03  0.12256297797E+03  0.00000000000E+00 0. -1.
         22   -1    0    0    0    0 -0.00000000000E+00 -0.00000000000E+00 -0.14326689061E+04  0.14326689061E+04  0.00000000000E+00 0. -1.
        -24    2    1    2    0    0  0.41834955208E+02 -0.44194130941E+02 -0.10696950431E+04  0.10748209663E+04  0.85377630003E+02 0.  0.
         25    2    1    2    0    0 -0.60200201274E+02  0.77116519880E+01 -0.32562976387E+03  0.35407109484E+03  0.12509221908E+03 0.  0.
         24    2    1    2    0    0  0.18365246066E+02  0.36482478953E+02  0.85218878870E+02  0.12633982288E+03  0.83852489497E+02 0.  0.
        -13    1    5    5    0    0  0.46487172447E+02  0.30899914467E+02  0.79443210563E+02  0.97093180094E+02  0.00000000000E+00 0.  1.
         14    1    5    5    0    0 -0.28121926381E+02  0.55825644861E+01  0.57756683073E+01  0.29246642782E+02  0.00000000000E+00 0. -1.
         13    1    3    3    0    0  0.56006923632E+02 -0.61032239467E+02 -0.84780716953E+03  0.85184429707E+03  0.00000000000E+00 0. -1.
        -14    1    3    3    0    0 -0.14171968424E+02  0.16838108525E+02 -0.22188787360E+03  0.22297666927E+03  0.00000000000E+00 0.  1.
          5    1    4    4  501    0 -0.82998712630E+02  0.29461735271E+02 -0.13796313755E+03  0.16373173140E+03  0.41800000000E+01 0.  1.
         -5    1    4    4    0  501  0.22798511356E+02 -0.21750083283E+02 -0.18766662632E+03  0.19033936345E+03  0.41800000000E+01 0.  1.
</event>
<event>
11    1  0.8299058E-009  0.1669021E+03  0.7561462E-02  0.1080759E+00
         22   -1    0    0    0    0  0.00000000000E+00  0.00000000000E+00  0.10482732756E+04  0.10482732756E+04  0.00000000000E+00 0. -1.
         22   -1    0    0    0    0 -0.00000000000E+00 -0.00000000000E+00 -0.13405766124E+04  0.13405766124E+04  0.00000000000E+00 0. -1.
        -24    2    1    2    0    0 -0.35786847041E+02 -0.17585999768E+02 -0.12827465530E+04  0.12858700067E+04  0.80205916705E+02 0.  0.
         25    2    1    2    0    0  0.68293248533E+02 -0.88530730518E+02  0.85299997845E+02  0.18821583057E+03  0.12508977258E+03 0.  0.
         24    2    1    2    0    0 -0.32506401492E+02  0.10611673029E+03  0.90514321836E+03  0.91476405074E+03  0.72052732100E+02 0.  0.
        -13    1    5    5    0    0 -0.75480848614E+01 -0.78392956611E+00  0.27677676644E+03  0.27688078043E+03  0.00000000000E+00 0.  1.
         14    1    5    5    0    0 -0.24958316631E+02  0.10690065985E+03  0.62836645192E+03  0.63788327031E+03  0.00000000000E+00 0. -1.
         13    1    3    3    0    0 -0.47394309973E+02  0.62185936768E+01 -0.11168810571E+04  0.11179034785E+04  0.00000000000E+00 0. -1.
        -14    1    3    3    0    0  0.11607462932E+02 -0.23804593444E+02 -0.16586549587E+03  0.16796652817E+03  0.00000000000E+00 0.  1.
          5    1    4    4  501    0  0.50545329362E+02 -0.71006782132E+02  0.11807427316E+03  0.14681893547E+03  0.41800000000E+01 0.  1.
         -5    1    4    4    0  501  0.17747919171E+02 -0.17523948386E+02 -0.32774275315E+02  0.41396895105E+02  0.41800000000E+01 0.  1.
</event>
<event>
11    1  0.8299058E-009  0.1367461E+03  0.7561462E-02  0.1111247E+00
         22   -1    0    0    0    0  0.00000000000E+00  0.00000000000E+00  0.15149291972E+03  0.15149291972E+03  0.00000000000E+00 0.  1.
         22   -1    0    0    0    0 -0.00000000000E+00 -0.00000000000E+00 -0.51275616402E+03  0.51275616402E+03  0.00000000000E+00 0.  1.
        -24    2    1    2    0    0 -0.26732101941E+02 -0.21601811822E+01 -0.33217268185E+03  0.34250357109E+03  0.79061583482E+02 0.  0.
         25    2    1    2    0    0  0.78351918703E+02  0.80582073190E+01 -0.11846285215E+03  0.18943558349E+03  0.12509370521E+03 0.  0.
         24    2    1    2    0    0 -0.51619816762E+02 -0.58980261368E+01  0.89372289702E+02  0.13230992917E+03  0.82577957073E+02 0.  0.
        -11    1    5    5    0    0 -0.18924931197E+02  0.32852481905E+02  0.66804804466E+02  0.76813543649E+02  0.00000000000E+00 0.  1.
         12    1    5    5    0    0 -0.32694885565E+02 -0.38750508042E+02  0.22567485236E+02  0.55496385518E+02  0.00000000000E+00 0. -1.
         11    1    3    3    0    0 -0.16054136235E+02 -0.35434823385E+02 -0.93257375468E+02  0.10104602950E+03  0.00000000000E+00 0. -1.
        -12    1    3    3    0    0 -0.10677965706E+02  0.33274642203E+02 -0.23891530638E+03  0.24145754159E+03  0.00000000000E+00 0.  1.
          5    1    4    4  501    0  0.57242603681E+02 -0.12037403571E+02 -0.14076959452E+03  0.15249644554E+03  0.41800000000E+01 0.  1.
         -5    1    4    4    0  501  0.21109315022E+02  0.20095610890E+02  0.22306742367E+02  0.36939137954E+02  0.41800000000E+01 0.  1.
</event>
<event>
11    1  0.8299058E-009  0.2404064E+03  0.7561462E-02  0.1029138E+00
         22   -1    0    0    0    0  0.00000000000E+00  0.00000000000E+00  0.24342619639E+03  0.24342619639E+03  0.00000000000E+00 0. -1.
         22   -1    0    0    0    0 -0.00000000000E+00 -0.00000000000E+00 -0.11851018323E+04  0.11851018323E+04  0.00000000000E+00 0. -1.
         24    2    1    2    0    0  0.85993405064E+02  0.18651806469E+03 -0.71108873364E+03  0.74456949373E+03  0.80948685623E+02 0.  0.
         25    2    1    2    0    0 -0.61424291345E+02 -0.19690878587E+03 -0.41531942925E+03  0.48029590880E+03  0.12509163911E+03 0.  0.
        -24    2    1    2    0    0 -0.24569113720E+02  0.10390721185E+02  0.18473252695E+03  0.20366262620E+03  0.81490799242E+02 0.  0.
        -13    1    3    3    0    0  0.64000946470E+01 -0.15535068113E+01 -0.23467430691E+01  0.69915518975E+01  0.00000000000E+00 0.  1.
         14    1    3    3    0    0  0.79593310417E+02  0.18807157150E+03 -0.70874199058E+03  0.73757794183E+03  0.00000000000E+00 0. -1.
         11    1    5    5    0    0  0.10938329517E+02  0.81912850819E+01  0.15941122521E+03  0.15999588409E+03  0.00000000000E+00 0. -1.
        -12    1    5    5    0    0 -0.35507443237E+02  0.21994361030E+01  0.25321301743E+02  0.43666742109E+02  0.00000000000E+00 0.  1.
          5    1    4    4  501    0 -0.24576636854E+02 -0.42985180859E+02 -0.23559584952E+03  0.24077918009E+03  0.41800000000E+01 0.  1.
         -5    1    4    4    0  501 -0.36847654491E+02 -0.15392360501E+03 -0.17972357973E+03  0.23951672871E+03  0.41800000000E+01 0.  1.
</event>
<event>
11    1  0.8299058E-009  0.1329669E+03  0.7561462E-02  0.1115676E+00
         22   -1    0    0    0    0  0.00000000000E+00  0.00000000000E+00  0.20311857203E+04  0.20311857203E+04  0.00000000000E+00 0. -1.
         22   -1    0    0    0    0 -0.00000000000E+00 -0.00000000000E+00 -0.67029816159E+03  0.67029816159E+03  0.00000000000E+00 0. -1.
        -24    2    1    2    0    0  0.37662367292E+02 -0.23877193894E+02 -0.64226343825E+03  0.64870764151E+03  0.79565732229E+02 0.  0.
         25    2    1    2    0    0 -0.63039055670E+02  0.52371001381E+02  0.21194334245E+03  0.25939132138E+03  0.12508889987E+03 0.  0.
         24    2    1    2    0    0  0.25376688378E+02 -0.28493807488E+02  0.17912076545E+04  0.17933849190E+04  0.79678935647E+02 0.  0.
        -11    1    5    5    0    0 -0.17466887814E+02 -0.39593001424E+02  0.10069477139E+04  0.10078771733E+04  0.00000000000E+00 0.  1.
         12    1    5    5    0    0  0.42843576192E+02  0.11099193937E+02  0.78425994061E+03  0.78550774571E+03  0.00000000000E+00 0. -1.
         13    1    3    3    0    0  0.64931082712E+01 -0.37391917134E+02 -0.53145149695E+03  0.53280485127E+03  0.00000000000E+00 0. -1.
        -14    1    3    3    0    0  0.31169259021E+02  0.13514723240E+02 -0.11081194130E+03  0.11590279025E+03  0.00000000000E+00 0.  1.
          5    1    4    4  501    0 -0.27863213874E+01  0.73859848516E+02  0.16204312436E+03  0.17815298864E+03  0.41800000000E+01 0. -1.
         -5    1    4    4    0  501 -0.60252734283E+02 -0.21488847135E+02  0.49900218093E+02  0.81238332735E+02  0.41800000000E+01 0. -1.
</event>
<event>
11    1  0.8299058E-009  0.1376131E+03  0.7561462E-02  0.1110253E+00
         22   -1    0    0    0    0  0.00000000000E+00  0.00000000000E+00  0.58599118658E+03  0.58599118658E+03  0.00000000000E+00 0.  1.
         22   -1    0    0    0    0 -0.00000000000E+00 -0.00000000000E+00 -0.25800205406E+03  0.25800205406E+03  0.00000000000E+00 0.  1.
         24    2    1    2    0    0  0.26271705219E+02 -0.18646927392E+01 -0.18729022355E+03  0.20580103424E+03  0.81134199229E+02 0.  0.
         25    2    1    2    0    0 -0.48559026828E+02  0.53490711646E+02  0.37326446875E+02  0.14919720501E+03  0.12508919629E+03 0.  0.
        -24    2    1    2    0    0  0.22287321608E+02 -0.51626018907E+02  0.47795290920E+03  0.48899500138E+03  0.86690007665E+02 0.  0.
        -11    1    3    3    0    0  0.21474317601E+02 -0.75269167583E+01 -0.19427894016E+03  0.19560702283E+03  0.00000000000E+00 0.  1.
         12    1    3    3    0    0  0.47973876181E+01  0.56622240190E+01  0.69887166094E+01  0.10194011411E+02  0.00000000000E+00 0. -1.
         13    1    5    5    0    0 -0.32960345219E+02 -0.14143246017E+02  0.14087920559E+03  0.14537319674E+03  0.00000000000E+00 0. -1.
        -14    1    5    5    0    0  0.55247666827E+02 -0.37482772890E+02  0.33707370361E+03  0.34362180463E+03  0.00000000000E+00 0.  1.
          5    1    4    4  501    0  0.12543357592E+02  0.72411362720E+02  0.42310980972E+02  0.84902489843E+02  0.41800000000E+01 0. -1.
         -5    1    4    4    0  501 -0.61102384419E+02 -0.18920651074E+02 -0.49845340976E+01  0.64294715171E+02  0.41800000000E+01 0. -1.
</event>
<event>
11    1  0.8299058E-009  0.1389325E+03  0.7561462E-02  0.1108756E+00
         22   -1    0    0    0    0  0.00000000000E+00  0.00000000000E+00  0.77063450671E+02  0.77063450671E+02  0.00000000000E+00 0.  1.
         22   -1    0    0    0    0 -0.00000000000E+00 -0.00000000000E+00 -0.88373089647E+03  0.88373089647E+03  0.00000000000E+00 0.  1.
        -24    2    1    2    0    0  0.59504439810E+02  0.24027026797E+02 -0.69788021912E+03  0.70539307563E+03  0.80153069465E+02 0.  0.
         25    2    1    2    0    0 -0.34080471521E+02  0.71345246556E+01 -0.10227193105E+03  0.16528630767E+03  0.12509050980E+03 0.  0.
         24    2    1    2    0    0 -0.25423968289E+02 -0.31161551453E+02 -0.65152956319E+01  0.90114963837E+02  0.80379333025E+02 0.  0.
        -11    1    5    5    0    0  0.17689666837E+02 -0.41274296502E+02  0.22921875777E+01  0.44963829779E+02  0.00000000000E+00 0.  1.
         12    1    5    5    0    0 -0.43113635126E+02  0.10112745049E+02 -0.88074832096E+01  0.45151134058E+02  0.00000000000E+00 0. -1.
         13    1    3    3    0    0  0.21713236582E+02  0.34534491260E+02 -0.13211026346E+03  0.13826502609E+03  0.00000000000E+00 0. -1.
        -14    1    3    3    0    0  0.37791203228E+02 -0.10507464463E+02 -0.56576995566E+03  0.56712804954E+03  0.00000000000E+00 0.  1.
          5    1    4    4  501    0  0.31095638906E+02  0.42788868014E+02 -0.27351826900E+02  0.59694395211E+02  0.41800000000E+01 0.  1.
         -5    1    4    4    0  501 -0.65176110427E+02 -0.35654343358E+02 -0.74920104149E+02  0.10559191246E+03  0.41800000000E+01 0.  1.
</event>
<event>
11    1  0.8299058E-009  0.1409441E+03  0.7561462E-02  0.1106509E+00
         22   -1    0    0    0    0  0.00000000000E+00  0.00000000000E+00  0.10976118069E+03  0.10976118069E+03  0.00000000000E+00 0.  1.
         22   -1    0    0    0    0 -0.00000000000E+00 -0.00000000000E+00 -0.12418503916E+04  0.12418503916E+04  0.00000000000E+00 0.  1.
         24    2    1    2    0    0 -0.54613261415E+02  0.25632264903E+02 -0.83342478064E+03  0.83928151185E+03  0.78466361128E+02 0.  0.
         25    2    1    2    0    0  0.94847585230E+02 -0.76143365045E+01 -0.36559646339E+03  0.39794815808E+03  0.12509164615E+03 0.  0.
        -24    2    1    2    0    0 -0.40234323814E+02 -0.18017928398E+02  0.66932033087E+02  0.11438190238E+03  0.81608063221E+02 0.  0.
        -13    1    3    3    0    0 -0.18901061708E+02  0.52067019045E+01 -0.68444060176E+03  0.68472132815E+03  0.00000000000E+00 0.  1.
         14    1    3    3    0    0 -0.35712199707E+02  0.20425562998E+02 -0.14898417888E+03  0.15456018370E+03  0.00000000000E+00 0. -1.
         13    1    5    5    0    0 -0.23046481966E+01  0.30765958795E+02  0.24912375511E+02  0.39654534135E+02  0.00000000000E+00 0. -1.
        -14    1    5    5    0    0 -0.37929675618E+02 -0.48783887193E+02  0.42019657576E+02  0.74727368246E+02  0.00000000000E+00 0.  1.
          5    1    4    4  501    0  0.62697133078E+02 -0.12806132281E+02 -0.35871324757E+03  0.36440032094E+03  0.41800000000E+01 0.  1.
         -5    1    4    4    0  501  0.32150452152E+02  0.51917957761E+01 -0.68832158195E+01  0.33547837143E+02  0.41800000000E+01 0.  1.
</event>
<event>
11    1  0.8299058E-009  0.1407694E+03  0.7561462E-02  0.1106702E+00
         22   -1    0    0    0    0  0.00000000000E+00  0.00000000000E+00  0.24476833654E+03  0.24476833654E+03  0.00000000000E+00 0.  1.
         22   -1    0    0    0    0 -0.00000000000E+00 -0.00000000000E+00 -0.14378154326E+04  0.14378154326E+04  0.00000000000E+00 0.  1.
         24    2    1    2    0    0  0.58123444695E+02  0.33435325957E+02 -0.12892619405E+04  0.12935104779E+04  0.80478253370E+02 0.  0.
         25    2    1    2    0    0 -0.32437759055E+02 -0.12373151644E+01 -0.10665646088E+03  0.16756191525E+03  0.12509058971E+03 0.  0.
        -24    2    1    2    0    0 -0.25685685640E+02 -0.32198010792E+02  0.20287130534E+03  0.22151137600E+03  0.78829289132E+02 0.  0.
        -13    1    3    3    0    0  0.35209537965E+02  0.30673578149E+02 -0.12114054442E+04  0.12123051308E+04  0.00000000000E+00 0.  1.
         14    1    3    3    0    0  0.22913906730E+02  0.27617478075E+01 -0.77856496285E+02  0.81205347030E+02  0.00000000000E+00 0. -1.
         11    1    5    5    0    0 -0.18310023349E+02  0.57284529358E+00  0.26710625343E+01  0.18512689751E+02  0.00000000000E+00 0. -1.
        -12    1    5    5    0    0 -0.73756622910E+01 -0.32770856086E+02  0.20020024280E+03  0.20299868625E+03  0.00000000000E+00 0.  1.
          5    1    4    4  501    0  0.36061572089E+02 -0.82546961119E+01  0.37052481428E+01  0.37413610534E+02  0.41800000000E+01 0.  1.
         -5    1    4    4    0  501 -0.68499331144E+02  0.70173809475E+01 -0.11036170902E+03  0.13014830472E+03  0.41800000000E+01 0.  1.
</event>
<event>
11    1  0.8299058E-009  0.2494972E+03  0.7561462E-02  0.1024167E+00
         22   -1    0    0    0    0  0.00000000000E+00  0.00000000000E+00  0.14349534765E+04  0.14349534765E+04  0.00000000000E+00 0. -1.
         22   -1    0    0    0    0 -0.00000000000E+00 -0.00000000000E+00 -0.26635800078E+03  0.26635800078E+03  0.00000000000E+00 0.  1.
        -24    2    1    2    0    0 -0.20090215706E+03  0.63479499752E+02 -0.12758016803E+03  0.25867083294E+03  0.79009979974E+02 0.  0.
         25    2    1    2    0    0  0.20687479111E+03 -0.12536343090E+03  0.19081700012E+03  0.33252402884E+03  0.12509169923E+03 0.  0.
         24    2    1    2    0    0 -0.59726340496E+01  0.61883931148E+02  0.11053586436E+04  0.11101166155E+04  0.81706032120E+02 0.  0.
        -13    1    5    5    0    0  0.33823167057E+02  0.76773763433E+01  0.44176131143E+03  0.44312075670E+03  0.00000000000E+00 0.  1.
         14    1    5    5    0    0 -0.39795801107E+02  0.54206554805E+02  0.66359733219E+03  0.66699585880E+03  0.00000000000E+00 0. -1.
         11    1    3    3    0    0  0.31176833741E+01  0.11933238651E+02 -0.16858611661E+02  0.20888631393E+02  0.00000000000E+00 0. -1.
        -12    1    3    3    0    0 -0.20401984044E+03  0.51546261101E+02 -0.11072155637E+03  0.23778220154E+03  0.00000000000E+00 0.  1.
          5    1    4    4  501    0  0.89432419171E+02 -0.11921700599E+03  0.13938103286E+03  0.20409653804E+03  0.41800000000E+01 0. -1.
         -5    1    4    4    0  501  0.11744237194E+03 -0.61464249108E+01  0.51435967254E+02  0.12842749080E+03  0.41800000000E+01 0. -1.
</event>
<event>
11    1  0.8299058E-009  0.1530569E+03  0.7561462E-02  0.1093796E+00
         22   -1    0    0    0    0  0.00000000000E+00  0.00000000000E+00  0.14630743670E+04  0.14630743670E+04  0.00000000000E+00 0.  1.
         22   -1    0    0    0    0 -0.00000000000E+00 -0.00000000000E+00 -0.17892736691E+04  0.17892736691E+04  0.00000000000E+00 0.  1.
        -24    2    1    2    0    0 -0.80309907443E+02  0.36921286981E+02 -0.17730732278E+04  0.17772223217E+04  0.83172393802E+02 0.  0.
         25    2    1    2    0    0  0.18838462580E+02 -0.68266409769E+02  0.44828200362E+03  0.47076465230E+03  0.12508961870E+03 0.  0.
         24    2    1    2    0    0  0.61471444864E+02  0.31345122789E+02  0.99859192205E+03  0.10043610621E+04  0.82426094414E+02 0.  0.
        -11    1    5    5    0    0  0.71187498509E+02  0.49340161084E+02  0.84076782576E+03  0.84521751536E+03  0.00000000000E+00 0.  1.
         12    1    5    5    0    0 -0.97160536455E+01 -0.17995038295E+02  0.15782409629E+03  0.15914354675E+03  0.00000000000E+00 0. -1.
         13    1    3    3    0    0  0.26089556688E+01 -0.20371961868E+02 -0.31848188403E+03  0.31914343787E+03  0.00000000000E+00 0. -1.
        -14    1    3    3    0    0 -0.82918863112E+02  0.57293248848E+02 -0.14545913437E+04  0.14580788838E+04  0.00000000000E+00 0.  1.
          5    1    4    4  501    0  0.11635121326E+02 -0.10047995505E+03  0.39645211651E+03  0.40917398561E+03  0.41800000000E+01 0. -1.
         -5    1    4    4    0  501  0.72033412532E+01  0.32213545283E+02  0.51829887114E+02  0.61590666689E+02  0.41800000000E+01 0. -1.
</event>
<event>
11    1  0.8299058E-009  0.2049807E+03  0.7561462E-02  0.1051056E+00
         22   -1    0    0    0    0  0.00000000000E+00  0.00000000000E+00  0.43081032549E+03  0.43081032549E+03  0.00000000000E+00 0.  1.
         22   -1    0    0    0    0 -0.00000000000E+00 -0.00000000000E+00 -0.15695485545E+04  0.15695485545E+04  0.00000000000E+00 0. -1.
         24    2    1    2    0    0 -0.69030642472E+02 -0.14354868506E+03 -0.13892667395E+04  0.14021140011E+04  0.10242140409E+03 0.  0.
         25    2    1    2    0    0  0.50025230838E+02  0.20379440767E+03 -0.76343275497E+02  0.25595192520E+03  0.12509359689E+03 0.  0.
        -24    2    1    2    0    0  0.19005411634E+02 -0.60245722612E+02  0.32687178600E+03  0.34229295367E+03  0.79552177129E+02 0.  0.
        -11    1    3    3    0    0 -0.19151554003E+02 -0.70721752117E+02 -0.28298788812E+03  0.29231916302E+03  0.00000000000E+00 0.  1.
         12    1    3    3    0    0 -0.49879088469E+02 -0.72826932939E+02 -0.11062788513E+04  0.11097948380E+04  0.00000000000E+00 0. -1.
         13    1    5    5    0    0  0.13459374979E+02 -0.57236066982E+02  0.10508056709E+03  0.12041199159E+03  0.00000000000E+00 0. -1.
        -14    1    5    5    0    0  0.55460366555E+01 -0.30096556305E+01  0.22179121891E+03  0.22188096208E+03  0.00000000000E+00 0.  1.
          5    1    4    4  501    0  0.85331928683E+02  0.16231225162E+03 -0.33350992414E+02  0.18643112984E+03  0.41800000000E+01 0. -1.
         -5    1    4    4    0  501 -0.35306697845E+02  0.41482156053E+02 -0.42992283083E+02  0.69520795365E+02  0.41800000000E+01 0. -1.
</event>
<event>
11    1  0.8299058E-009  0.1418427E+03  0.7561462E-02  0.1105518E+00
         22   -1    0    0    0    0  0.00000000000E+00  0.00000000000E+00  0.37961067356E+03  0.37961067356E+03  0.00000000000E+00 0. -1.
         22   -1    0    0    0    0 -0.00000000000E+00 -0.00000000000E+00 -0.40163358378E+03  0.40163358378E+03  0.00000000000E+00 0.  1.
        -24    2    1    2    0    0 -0.64867511298E+02  0.12024916567E+02 -0.34334772680E+03  0.35876600298E+03  0.80454898862E+02 0.  0.
         25    2    1    2    0    0  0.74819737272E+02 -0.73907914484E+02  0.14330893471E+03  0.21735740945E+03  0.12508564971E+03 0.  0.
         24    2    1    2    0    0 -0.99522259737E+01  0.61882997917E+02  0.17801588187E+03  0.20512084492E+03  0.80351444231E+02 0.  0.
        -13    1    5    5    0    0  0.24843658259E+01  0.66193851287E+01 -0.79969051240E+01  0.10674213067E+02  0.00000000000E+00 0.  1.
         14    1    5    5    0    0 -0.12436591800E+02  0.55263612788E+02  0.18601278699E+03  0.19444663185E+03  0.00000000000E+00 0. -1.
         11    1    3    3    0    0 -0.59172648623E+02 -0.24198088664E+02 -0.17096743132E+03  0.18252893582E+03  0.00000000000E+00 0. -1.
        -12    1    3    3    0    0 -0.56948626755E+01  0.36223005231E+02 -0.17238029548E+03  0.17623706715E+03  0.00000000000E+00 0.  1.
          5    1    4    4  501    0  0.54292521462E+01 -0.88587351954E+02  0.56987828807E+02  0.10555700231E+03  0.41800000000E+01 0.  1.
         -5    1    4    4    0  501  0.69390485126E+02  0.14679437471E+02  0.86321105908E+02  0.11180040713E+03  0.41800000000E+01 0.  1.
</event>
<event>
11    1  0.8299058E-009  0.1392430E+03  0.7561462E-02  0.1108407E+00
         22   -1    0    0    0    0  0.00000000000E+00  0.00000000000E+00  0.32169379056E+04  0.32169379056E+04  0.00000000000E+00 0.  1.
         22   -1    0    0    0    0 -0.00000000000E+00 -0.00000000000E+00 -0.42234536367E+02  0.42234536367E+02  0.00000000000E+00 0.  1.
         24    2    1    2    0    0  0.15495465290E+02  0.58780168598E+02  0.37106140624E+02  0.10712987768E+03  0.80029540519E+02 0.  0.
         25    2    1    2    0    0 -0.63108838984E+01 -0.65587787983E+02  0.75506890172E+03  0.76819167166E+03  0.12509121824E+03 0.  0.
        -24    2    1    2    0    0 -0.91845813920E+01  0.68076193850E+01  0.23825283269E+04  0.23838508926E+04  0.78569393487E+02 0.  0.
        -13    1    3    3    0    0  0.13756285028E+02  0.76474692264E+02  0.15646663338E+02  0.79261794127E+02  0.00000000000E+00 0.  1.
         14    1    3    3    0    0  0.17391802623E+01 -0.17694523666E+02  0.21459477286E+02  0.27868083557E+02  0.00000000000E+00 0. -1.
         11    1    5    5    0    0  0.34369754915E+01  0.16152482659E+02  0.10687145426E+03  0.10813983185E+03  0.00000000000E+00 0. -1.
        -12    1    5    5    0    0 -0.12621556884E+02 -0.93448632737E+01  0.22756568726E+04  0.22757110607E+04  0.00000000000E+00 0.  1.
          5    1    4    4  501    0  0.25197243249E+02 -0.94185134103E+02  0.56576030229E+03  0.57411491236E+03  0.41800000000E+01 0.  1.
         -5    1    4    4    0  501 -0.31508127148E+02  0.28597346120E+02  0.18930859943E+03  0.19407675930E+03  0.41800000000E+01 0.  1.
</event>
<event>
11    1  0.8299058E-009  0.1605852E+03  0.7561462E-02  0.1086528E+00
         22   -1    0    0    0    0  0.00000000000E+00  0.00000000000E+00  0.48950604631E+03  0.48950604631E+03  0.00000000000E+00 0.  1.
         22   -1    0    0    0    0 -0.00000000000E+00 -0.00000000000E+00 -0.22139293023E+03  0.22139293023E+03  0.00000000000E+00 0. -1.
         24    2    1    2    0    0 -0.66111612227E+02 -0.76017998326E+02 -0.14412020419E+03  0.19337262404E+03  0.80454068470E+02 0.  0.
         25    2    1    2    0    0  0.13675098798E+03  0.84607147079E+01  0.24141725721E+03  0.30447406103E+03  0.12509894224E+03 0.  0.
        -24    2    1    2    0    0 -0.70639375756E+02  0.67557283618E+02  0.17081606305E+03  0.21305229147E+03  0.81604188153E+02 0.  0.
        -13    1    3    3    0    0 -0.51335843343E+02 -0.84027166592E+02 -0.79360293209E+02  0.12646734628E+03  0.00000000000E+00 0.  1.
         14    1    3    3    0    0 -0.14775768884E+02  0.80091682663E+01 -0.64759910976E+02  0.66905277760E+02  0.00000000000E+00 0. -1.
         13    1    5    5    0    0  0.10287205279E+02  0.17995400677E+02  0.39674995264E+01  0.21104551416E+02  0.00000000000E+00 0. -1.
        -14    1    5    5    0    0 -0.80926581035E+02  0.49561882941E+02  0.16684856353E+03  0.19194774005E+03  0.00000000000E+00 0.  1.
          5    1    4    4  501    0  0.26269083245E+02 -0.14936645378E+02 -0.72289443579E+01  0.31351206455E+02  0.41800000000E+01 0. -1.
         -5    1    4    4    0  501  0.11048190474E+03  0.23397360085E+02  0.24864620157E+03  0.27312285457E+03  0.41800000000E+01 0. -1.
</event>
<event>
11    1  0.8299058E-009  0.1497554E+03  0.7561462E-02  0.1097129E+00
         22   -1    0    0    0    0  0.00000000000E+00  0.00000000000E+00  0.20355410953E+04  0.20355410953E+04  0.00000000000E+00 0.  1.
         22   -1    0    0    0    0 -0.00000000000E+00 -0.00000000000E+00 -0.39133311950E+03  0.39133311950E+03  0.00000000000E+00 0. -1.
        -24    2    1    2    0    0  0.46481696088E+02  0.65908685416E+02 -0.35143186323E+03  0.36939211089E+03  0.80260041188E+02 0.  0.
         25    2    1    2    0    0 -0.69892455283E+02 -0.11708839634E+03  0.26000380566E+03  0.31913563766E+03  0.12510367064E+03 0.  0.
         24    2    1    2    0    0  0.23410759195E+02  0.51179710925E+02  0.17356360334E+04  0.17383464663E+04  0.79047896027E+02 0.  0.
        -13    1    5    5    0    0  0.44563976027E+02  0.37949632968E+02  0.15418841766E+04  0.15429947948E+04  0.00000000000E+00 0.  1.
         14    1    5    5    0    0 -0.21153216832E+02  0.13230077958E+02  0.19375185679E+03  0.19535167149E+03  0.00000000000E+00 0. -1.
         11    1    3    3    0    0  0.51039275117E+02  0.64042487299E+02 -0.35433495559E+03  0.36367527897E+03  0.00000000000E+00 0. -1.
        -12    1    3    3    0    0 -0.45575790284E+01  0.18661981172E+01  0.29030923550E+01  0.57168319229E+01  0.00000000000E+00 0.  1.
          5    1    4    4  501    0 -0.73409575007E+02 -0.13987946637E+03  0.24418830971E+03  0.29086188099E+03  0.41800000000E+01 0. -1.
         -5    1    4    4    0  501  0.35171197234E+01  0.22791070031E+02  0.15815495947E+02  0.28273756672E+02  0.41800000000E+01 0. -1.
</event>
<event>
11    1  0.8299058E-009  0.1411624E+03  0.7561462E-02  0.1106267E+00
         22   -1    0    0    0    0  0.00000000000E+00  0.00000000000E+00  0.11945762270E+03  0.11945762270E+03  0.00000000000E+00 0. -1.
         22   -1    0    0    0    0 -0.00000000000E+00 -0.00000000000E+00 -0.38675917291E+03  0.38675917291E+03  0.00000000000E+00 0. -1.
         24    2    1    2    0    0 -0.50869791298E+01 -0.29885303306E+02 -0.15957342268E+03  0.17715082848E+03  0.70708769561E+02 0.  0.
         25    2    1    2    0    0  0.57145817764E+02 -0.13176715105E+02 -0.16016965438E+03  0.21151888050E+03  0.12508656329E+03 0.  0.
        -24    2    1    2    0    0 -0.52058838634E+02  0.43062018412E+02  0.52441526849E+02  0.11754708664E+03  0.80639591578E+02 0.  0.
        -13    1    3    3    0    0 -0.23092116525E+02 -0.11276387950E+02 -0.13944570017E+02  0.29237883025E+02  0.00000000000E+00 0.  1.
         14    1    3    3    0    0  0.18005137396E+02 -0.18608915356E+02 -0.14562885267E+03  0.14791294545E+03  0.00000000000E+00 0. -1.
         13    1    5    5    0    0 -0.15559832397E+02 -0.24000523065E+02  0.17928215247E+02  0.33757286526E+02  0.00000000000E+00 0. -1.
        -14    1    5    5    0    0 -0.36499006237E+02  0.67062541477E+02  0.34513311602E+02  0.83789800115E+02  0.00000000000E+00 0.  1.
          5    1    4    4  501    0  0.23966877932E+02  0.52938956708E+02 -0.10141190003E+03  0.11695636042E+03  0.41800000000E+01 0. -1.
         -5    1    4    4    0  501  0.33178939831E+02 -0.66115671813E+02 -0.58757754351E+02  0.94562520081E+02  0.41800000000E+01 0. -1.
</event>
<event>
11    1  0.8299058E-009  0.2834556E+03  0.7561462E-02  0.1007447E+00
         22   -1    0    0    0    0  0.00000000000E+00  0.00000000000E+00  0.95550693262E+03  0.95550693262E+03  0.00000000000E+00 0. -1.
         22   -1    0    0    0    0 -0.00000000000E+00 -0.00000000000E+00 -0.33009817488E+03  0.33009817488E+03  0.00000000000E+00 0.  1.
         24    2    1    2    0    0  0.14665206243E+03  0.99942453625E+02 -0.78245212427E+02  0.21010544550E+03  0.80787768317E+02 0.  0.
         25    2    1    2    0    0 -0.35466231554E+03 -0.20064724636E+03  0.12025649179E+03  0.44289304610E+03  0.12509177004E+03 0.  0.
        -24    2    1    2    0    0  0.20801025311E+03  0.10070479274E+03  0.58339747837E+03  0.63260661590E+03  0.80179748313E+02 0.  0.
        -13    1    3    3    0    0  0.93614661981E+01  0.42964811835E+02 -0.32168990316E+02  0.54483539197E+02  0.00000000000E+00 0.  1.
         14    1    3    3    0    0  0.13729059623E+03  0.56977641789E+02 -0.46076222110E+02  0.15562190630E+03  0.00000000000E+00 0. -1.
         11    1    5    5    0    0  0.14534168080E+03  0.30445826911E+02  0.39510169877E+03  0.42208589757E+03  0.00000000000E+00 0. -1.
        -12    1    5    5    0    0  0.62668572304E+02  0.70258965826E+02  0.18829577960E+03  0.21052071833E+03  0.00000000000E+00 0.  1.
          5    1    4    4  501    0 -0.30441264677E+03 -0.21450285701E+03  0.11755152445E+03  0.39053088031E+03  0.41800000000E+01 0.  1.
         -5    1    4    4    0  501 -0.50249668767E+02  0.13855610647E+02  0.27049673450E+01  0.52362165788E+02  0.41800000000E+01 0.  1.
</event>
<event>
11    1  0.8299058E-009  0.1433458E+03  0.7561462E-02  0.1103879E+00
         22   -1    0    0    0    0  0.00000000000E+00  0.00000000000E+00  0.14319737949E+04  0.14319737949E+04  0.00000000000E+00 0. -1.
         22   -1    0    0    0    0 -0.00000000000E+00 -0.00000000000E+00 -0.13515859201E+04  0.13515859201E+04  0.00000000000E+00 0.  1.
         24    2    1    2    0    0 -0.36707971172E+01  0.29291993846E+02 -0.13272932312E+04  0.13302757786E+04  0.83993034485E+02 0.  0.
         25    2    1    2    0    0  0.49060099009E+02  0.26875763894E+02  0.21073280430E+03  0.25136170726E+03  0.12508074620E+03 0.  0.
        -24    2    1    2    0    0 -0.45389301892E+02 -0.56167757740E+02  0.11969483017E+04  0.12019222291E+04  0.81956098853E+02 0.  0.
        -11    1    3    3    0    0  0.18058744403E+02 -0.24763195703E+02 -0.42500242238E+03  0.42610608203E+03  0.00000000000E+00 0.  1.
         12    1    3    3    0    0 -0.21729541520E+02  0.54055189548E+02 -0.90229080884E+03  0.90416969658E+03  0.00000000000E+00 0. -1.
         13    1    5    5    0    0 -0.32988815208E+02  0.70164842971E+01  0.70108870361E+03  0.70189946809E+03  0.00000000000E+00 0. -1.
        -14    1    5    5    0    0 -0.12400486684E+02 -0.63184242037E+02  0.49585959811E+03  0.50002276103E+03  0.00000000000E+00 0.  1.
          5    1    4    4  501    0  0.79616122711E+02  0.11451831349E+02  0.70784159063E+02  0.10722751984E+03  0.41800000000E+01 0.  1.
         -5    1    4    4    0  501 -0.30556023702E+02  0.15423932545E+02  0.13994864524E+03  0.14413418742E+03  0.41800000000E+01 0.  1.
</event>
<event>
11    1  0.8299058E-009  0.1996638E+03  0.7561462E-02  0.1054762E+00
         22   -1    0    0    0    0  0.00000000000E+00  0.00000000000E+00  0.13921437441E+03  0.13921437441E+03  0.00000000000E+00 0.  1.
         22   -1    0    0    0    0 -0.00000000000E+00 -0.00000000000E+00 -0.12474758101E+04  0.12474758101E+04  0.00000000000E+00 0.  1.
        -24    2    1    2    0    0  0.32664651624E+02  0.14474031860E+03 -0.83136987995E+03  0.84832104846E+03  0.80349142334E+02 0.  0.
         25    2    1    2    0    0 -0.44736622080E+02 -0.17851266017E+03 -0.33978892020E+03  0.40616636629E+03  0.12508585700E+03 0.  0.
         24    2    1    2    0    0  0.12071970456E+02  0.33772341567E+02  0.62897364506E+02  0.13220276972E+03  0.11061279462E+03 0.  0.
        -13    1    5    5    0    0 -0.17424331190E+02  0.67446384417E+02  0.49562692679E+02  0.85493172792E+02  0.00000000000E+00 0.  1.
         14    1    5    5    0    0  0.29496301646E+02 -0.33674042850E+02  0.13334671827E+02  0.46709596930E+02  0.00000000000E+00 0. -1.
         13    1    3    3    0    0 -0.21843272878E+02  0.11808842717E+02 -0.13920635178E+03  0.14140362694E+03  0.00000000000E+00 0. -1.
        -14    1    3    3    0    0  0.54507924502E+02  0.13293147588E+03 -0.69216352817E+03  0.70691742152E+03  0.00000000000E+00 0.  1.
          5    1    4    4  501    0 -0.18907467133E+02  0.72442609654E+01 -0.97909233508E+02  0.10006828687E+03  0.41800000000E+01 0. -1.
         -5    1    4    4    0  501 -0.25829154946E+02 -0.18575692113E+03 -0.24187968669E+03  0.30609807942E+03  0.41800000000E+01 0. -1.
</event>
<event>
11    1  0.8299058E-009  0.3784610E+03  0.7561462E-02  0.9715538E-01
         22   -1    0    0    0    0  0.00000000000E+00  0.00000000000E+00  0.85390683711E+03  0.85390683711E+03  0.00000000000E+00 0.  1.
         22   -1    0    0    0    0 -0.00000000000E+00 -0.00000000000E+00 -0.18981253185E+04  0.18981253185E+04  0.00000000000E+00 0.  1.
        -24    2    1    2    0    0  0.26010602423E+03 -0.25288636547E+03 -0.10022682888E+04  0.10686487696E+04  0.76562474212E+02 0.  0.
         25    2    1    2    0    0 -0.25807946425E+03  0.23714762174E+03 -0.82039284501E+03  0.90085407868E+03  0.12509854739E+03 0.  0.
         24    2    1    2    0    0 -0.20265599816E+01  0.15738743727E+02  0.77844265237E+03  0.78252930733E+03  0.78277319881E+02 0.  0.
        -11    1    5    5    0    0  0.23815935069E+02  0.28685137820E+02  0.64084434617E+03  0.64192796474E+03  0.00000000000E+00 0.  1.
         12    1    5    5    0    0 -0.25842495051E+02 -0.12946394094E+02  0.13759830619E+03  0.14060134259E+03  0.00000000000E+00 0. -1.
         13    1    3    3    0    0  0.32545539373E+01  0.29496775938E+01 -0.41979319877E+02  0.42208482756E+02  0.00000000000E+00 0. -1.
        -14    1    3    3    0    0  0.25685147029E+03 -0.25583604306E+03 -0.96028896890E+03  0.10264402869E+04  0.00000000000E+00 0.  1.
          5    1    4    4  501    0 -0.17281790276E+03  0.10557158006E+03 -0.34285142110E+03  0.39821596576E+03  0.41800000000E+01 0. -1.
         -5    1    4    4    0  501 -0.85261561485E+02  0.13157604169E+03 -0.47754142391E+03  0.50263811292E+03  0.41800000000E+01 0. -1.
</event>
<event>
11    1  0.8299058E-009  0.1542300E+03  0.7561462E-02  0.1092633E+00
         22   -1    0    0    0    0  0.00000000000E+00  0.00000000000E+00  0.16748302452E+03  0.16748302452E+03  0.00000000000E+00 0. -1.
         22   -1    0    0    0    0 -0.00000000000E+00 -0.00000000000E+00 -0.90458668872E+03  0.90458668872E+03  0.00000000000E+00 0. -1.
        -24    2    1    2    0    0 -0.95889007236E+01 -0.69650638996E+02 -0.49641020147E+03  0.50769069763E+03  0.79897420544E+02 0.  0.
         25    2    1    2    0    0 -0.52500425651E+02  0.13120236991E+03 -0.35307145060E+03  0.40034851495E+03  0.12509647330E+03 0.  0.
         24    2    1    2    0    0  0.62089326375E+02 -0.61551730915E+02  0.11237798787E+03  0.16403050065E+03  0.81446258096E+02 0.  0.
        -13    1    5    5    0    0  0.22227794203E+02 -0.74011660402E+02  0.66065398270E+02  0.10166827214E+03  0.00000000000E+00 0.  1.
         14    1    5    5    0    0  0.39861532172E+02  0.12459929486E+02  0.46312589598E+02  0.62362228513E+02  0.00000000000E+00 0. -1.
         11    1    3    3    0    0 -0.66252097103E+01 -0.87276214929E+02 -0.43568010951E+03  0.44438518081E+03  0.00000000000E+00 0. -1.
        -12    1    3    3    0    0 -0.29636910132E+01  0.17625575933E+02 -0.60730091957E+02  0.63305516825E+02  0.00000000000E+00 0.  1.
          5    1    4    4  501    0 -0.72041379290E+02  0.11177663875E+03 -0.34726703297E+03  0.37188148904E+03  0.41800000000E+01 0.  1.
         -5    1    4    4    0  501  0.19540953639E+02  0.19425731162E+02 -0.58044176242E+01  0.28467025912E+02  0.41800000000E+01 0.  1.
</event>
<event>
11    1  0.8299058E-009  0.1348329E+03  0.7561462E-02  0.1113469E+00
         22   -1    0    0    0    0  0.00000000000E+00  0.00000000000E+00  0.36611109789E+04  0.36611109789E+04  0.00000000000E+00 0. -1.
         22   -1    0    0    0    0 -0.00000000000E+00 -0.00000000000E+00 -0.36412847184E+03  0.36412847184E+03  0.00000000000E+00 0. -1.
         24    2    1    2    0    0 -0.20784107231E+02  0.28947814646E+02 -0.22452838246E+03  0.24077339068E+03  0.79302434040E+02 0.  0.
         25    2    1    2    0    0 -0.41583402806E+01 -0.72569336107E+02 -0.90830562441E+02  0.17082553546E+03  0.12509025604E+03 0.  0.
        -24    2    1    2    0    0  0.24942447512E+02  0.43621521462E+02  0.36123414519E+04  0.36136405246E+04  0.82837869562E+02 0.  0.
        -11    1    3    3    0    0 -0.22736600569E+02  0.87629593579E+01 -0.11787568843E+02  0.27068233067E+02  0.00000000000E+00 0.  1.
         12    1    3    3    0    0  0.19524933381E+01  0.20184855288E+02 -0.21274081361E+03  0.21370515761E+03  0.00000000000E+00 0. -1.
         13    1    5    5    0    0  0.13470795564E+02 -0.23192475069E+02  0.14130113638E+04  0.14132658870E+04  0.00000000000E+00 0. -1.
        -14    1    5    5    0    0  0.11471651948E+02  0.66813996531E+02  0.21993300882E+04  0.22003746376E+04  0.00000000000E+00 0.  1.
          5    1    4    4  501    0 -0.38437299147E+02  0.12236691948E+02  0.17758169914E+01  0.40592961478E+02  0.41800000000E+01 0. -1.
         -5    1    4    4    0  501  0.34278958867E+02 -0.84806028055E+02 -0.92606379432E+02  0.13023257399E+03  0.41800000000E+01 0. -1.
</event>
<event>
11    1  0.8299058E-009  0.2080908E+03  0.7561462E-02  0.1048945E+00
         22   -1    0    0    0    0  0.00000000000E+00  0.00000000000E+00  0.12471264326E+04  0.12471264326E+04  0.00000000000E+00 0.  1.
         22   -1    0    0    0    0 -0.00000000000E+00 -0.00000000000E+00 -0.77599071385E+03  0.77599071385E+03  0.00000000000E+00 0.  1.
         24    2    1    2    0    0  0.34642109495E+02  0.11625534098E+02 -0.68842269022E+03  0.69417729553E+03  0.81370070861E+02 0.  0.
         25    2    1    2    0    0  0.11037323853E+03  0.76217980096E+02  0.32368993185E+02  0.18625260622E+03  0.12510335459E+03 0.  0.
        -24    2    1    2    0    0 -0.14501534802E+03 -0.87843514195E+02  0.11271894158E+04  0.11426872447E+04  0.80201159553E+02 0.  0.
        -13    1    3    3    0    0 -0.17380637552E+02 -0.20753697821E+02 -0.16928345417E+03  0.17143421593E+03  0.00000000000E+00 0.  1.
         14    1    3    3    0    0  0.52022747047E+02  0.32379231919E+02 -0.51913923604E+03  0.52274307960E+03  0.00000000000E+00 0. -1.
         13    1    5    5    0    0 -0.94231786036E+02 -0.10850784643E+02  0.53097642888E+03  0.53938236628E+03  0.00000000000E+00 0. -1.
        -14    1    5    5    0    0 -0.50783561989E+02 -0.76992729551E+02  0.59621298690E+03  0.60330487842E+03  0.00000000000E+00 0.  1.
          5    1    4    4  501    0  0.38300859951E+02  0.65725882094E+02 -0.37785683878E+02  0.85041623668E+02  0.41800000000E+01 0. -1.
         -5    1    4    4    0  501  0.72072378579E+02  0.10492098002E+02  0.70154677063E+02  0.10121098255E+03  0.41800000000E+01 0. -1.
</event>
<event>
11    1  0.8299058E-009  0.1715804E+03  0.7561462E-02  0.1076665E+00
         22   -1    0    0    0    0  0.00000000000E+00  0.00000000000E+00  0.11506801785E+04  0.11506801785E+04  0.00000000000E+00 0. -1.
         22   -1    0    0    0    0 -0.00000000000E+00 -0.00000000000E+00 -0.80462141546E+03  0.80462141546E+03  0.00000000000E+00 0. -1.
        -24    2    1    2    0    0  0.11147139996E+03 -0.42586421043E+02 -0.75815342390E+03  0.77169597548E+03  0.80489677217E+02 0.  0.
         25    2    1    2    0    0 -0.59739836634E+02  0.55302909723E+02  0.11186686900E+03  0.18652115376E+03  0.12509470218E+03 0.  0.
         24    2    1    2    0    0 -0.51731563329E+02 -0.12716488680E+02  0.99234531799E+03  0.99708446477E+03  0.81180884539E+02 0.  0.
        -13    1    5    5    0    0  0.32823962059E+01 -0.31428146979E+01  0.16774982559E+01  0.48441108035E+01  0.00000000000E+00 0.  1.
         14    1    5    5    0    0 -0.55013959535E+02 -0.95736739819E+01  0.99066781973E+03  0.99224035396E+03  0.00000000000E+00 0. -1.
         11    1    3    3    0    0  0.10739929762E+03 -0.60444448007E+02 -0.69868035456E+03  0.70946626296E+03  0.00000000000E+00 0. -1.
        -12    1    3    3    0    0  0.40721023463E+01  0.17858026964E+02 -0.59473069332E+02  0.62229712521E+02  0.00000000000E+00 0.  1.
          5    1    4    4  501    0 -0.74715573696E+02 -0.13255549468E+02  0.39575534541E+02  0.85684431950E+02  0.41800000000E+01 0.  1.
         -5    1    4    4    0  501  0.14975737062E+02  0.68558459191E+02  0.72291334461E+02  0.10083672181E+03  0.41800000000E+01 0.  1.
</event>
<event>
11    1  0.8299058E-009  0.1659597E+03  0.7561462E-02  0.1081602E+00
         22   -1    0    0    0    0  0.00000000000E+00  0.00000000000E+00  0.11101895194E+03  0.11101895194E+03  0.00000000000E+00 0. -1.
         22   -1    0    0    0    0 -0.00000000000E+00 -0.00000000000E+00 -0.77865306175E+03  0.77865306175E+03  0.00000000000E+00 0. -1.
         24    2    1    2    0    0 -0.12691151783E+02  0.45247754490E+01 -0.29526186043E+03  0.30663957649E+03  0.81650013554E+02 0.  0.
         25    2    1    2    0    0  0.54437076695E+02 -0.10419692936E+03 -0.40791561330E+03  0.44256443526E+03  0.12509091242E+03 0.  0.
        -24    2    1    2    0    0 -0.41745924912E+02  0.99672153907E+02  0.35543363933E+02  0.14046800195E+03  0.82405511589E+02 0.  0.
        -13    1    3    3    0    0  0.20782063083E+02  0.18309654830E+02 -0.39005998609E+02  0.47839372210E+02  0.00000000000E+00 0.  1.
         14    1    3    3    0    0 -0.33473214866E+02 -0.13784879381E+02 -0.25625586183E+03  0.25880020428E+03  0.00000000000E+00 0. -1.
         11    1    5    5    0    0 -0.26481720428E+02  0.94825455396E+02  0.56946186891E+02  0.11373661112E+03  0.00000000000E+00 0. -1.
        -12    1    5    5    0    0 -0.15264204484E+02  0.48466985110E+01 -0.21402822957E+02  0.26731390827E+02  0.00000000000E+00 0.  1.
          5    1    4    4  501    0 -0.93604444531E+01 -0.76058745140E+02 -0.32598980279E+03  0.33490203725E+03  0.41800000000E+01 0. -1.
         -5    1    4    4    0  501  0.63797521148E+02 -0.28138184216E+02 -0.81925810512E+02  0.10766239800E+03  0.41800000000E+01 0. -1.
</event>
<event>
11    1  0.8299058E-009  0.1386917E+03  0.7561462E-02  0.1109028E+00
         22   -1    0    0    0    0  0.00000000000E+00  0.00000000000E+00  0.21084086975E+03  0.21084086975E+03  0.00000000000E+00 0. -1.
         22   -1    0    0    0    0 -0.00000000000E+00 -0.00000000000E+00 -0.33391174890E+03  0.33391174890E+03  0.00000000000E+00 0. -1.
         24    2    1    2    0    0 -0.37217962410E+02  0.40921463733E+02 -0.21159126000E+03  0.23311961263E+03  0.80710281653E+02 0.  0.
         25    2    1    2    0    0  0.90444196003E+02 -0.33651958658E+02 -0.27959379840E+02  0.16044608524E+03  0.12509441408E+03 0.  0.
        -24    2    1    2    0    0 -0.53226233593E+02 -0.72695050743E+01  0.11647976069E+03  0.15118692078E+03  0.80025450448E+02 0.  0.
        -13    1    3    3    0    0  0.80905226630E+01  0.35575913463E+02 -0.34383097934E+02  0.50132819582E+02  0.00000000000E+00 0.  1.
         14    1    3    3    0    0 -0.45308485073E+02  0.53455502696E+01 -0.17720816207E+03  0.18298679305E+03  0.00000000000E+00 0. -1.
         13    1    5    5    0    0 -0.28655867010E+02 -0.24038749457E+02  0.11551953649E+03  0.12142398239E+03  0.00000000000E+00 0. -1.
        -14    1    5    5    0    0 -0.24570366583E+02  0.16769244383E+02  0.96022420111E+00  0.29762938392E+02  0.00000000000E+00 0.  1.
          5    1    4    4  501    0  0.12174764460E+02  0.42114031114E+02 -0.26552444509E+02  0.51422963895E+02  0.41800000000E+01 0.  1.
         -5    1    4    4    0  501  0.78269431543E+02 -0.75765989773E+02 -0.14069353314E+01  0.10902312134E+03  0.41800000000E+01 0.  1.
</event>
<event>
11    1  0.8299058E-009  0.1488334E+03  0.7561462E-02  0.1098077E+00
         22   -1    0    0    0    0  0.00000000000E+00  0.00000000000E+00  0.18405252620E+04  0.18405252620E+04  0.00000000000E+00 0.  1.
         22   -1    0    0    0    0 -0.00000000000E+00 -0.00000000000E+00 -0.30677639622E+02  0.30677639622E+02  0.00000000000E+00 0. -1.
         24    2    1    2    0    0  0.53140043460E+01  0.70757457387E+02  0.14562123818E+03  0.18060826827E+03  0.79868298716E+02 0.  0.
         25    2    1    2    0    0 -0.37222166132E+02 -0.12579566941E+03  0.80363110019E+03  0.82382003624E+03  0.12508583778E+03 0.  0.
        -24    2    1    2    0    0  0.31908161786E+02  0.55038212023E+02  0.86059528396E+03  0.86677459707E+03  0.81404077181E+02 0.  0.
        -13    1    3    3    0    0 -0.27390258273E+02 -0.15723389709E+00  0.51299177849E+02  0.58153732630E+02  0.00000000000E+00 0.  1.
         14    1    3    3    0    0  0.32704262619E+02  0.70914691285E+02  0.94322060328E+02  0.12245453564E+03  0.00000000000E+00 0. -1.
         13    1    5    5    0    0  0.50824892838E+02  0.51734218135E+02  0.45664191359E+03  0.46236504658E+03  0.00000000000E+00 0. -1.
        -14    1    5    5    0    0 -0.18916731052E+02  0.33039938876E+01  0.40395337038E+03  0.40440955049E+03  0.00000000000E+00 0.  1.
          5    1    4    4  501    0  0.16223673104E+02 -0.80354437933E+02  0.20113366524E+03  0.21723781199E+03  0.41800000000E+01 0. -1.
         -5    1    4    4    0  501 -0.53445839236E+02 -0.45441231477E+02  0.60249743495E+03  0.60658222424E+03  0.41800000000E+01 0. -1.
</event>
<event>
11    1  0.8299058E-009  0.1370390E+03  0.7561462E-02  0.1110911E+00
         22   -1    0    0    0    0  0.00000000000E+00  0.00000000000E+00  0.18445535407E+03  0.18445535407E+03  0.00000000000E+00 0.  1.
         22   -1    0    0    0    0 -0.00000000000E+00 -0.00000000000E+00 -0.55123007153E+03  0.55123007153E+03  0.00000000000E+00 0. -1.
        -24    2    1    2    0    0 -0.85902427031E+01  0.34090149502E+02 -0.43142454120E+03  0.44047258347E+03  0.81566117205E+02 0.  0.
         25    2    1    2    0    0 -0.45687991696E+02 -0.99778137988E+01 -0.49330959865E+02  0.14237885858E+03  0.12510494162E+03 0.  0.
         24    2    1    2    0    0  0.54278234399E+02 -0.24112335703E+02  0.11398078360E+03  0.15283398355E+03  0.82698706372E+02 0.  0.
        -11    1    5    5    0    0  0.47303539632E+02  0.23363388064E+02  0.70684712517E+02  0.88203182183E+02  0.00000000000E+00 0.  1.
         12    1    5    5    0    0  0.69746947670E+01 -0.47475723767E+02  0.43296071084E+02  0.64630801369E+02  0.00000000000E+00 0. -1.
         13    1    3    3    0    0 -0.36301226236E+02  0.12686573449E+02 -0.98951601537E+02  0.10616095148E+03  0.00000000000E+00 0. -1.
        -14    1    3    3    0    0  0.27710983533E+02  0.21403576053E+02 -0.33247293966E+03  0.33431163199E+03  0.00000000000E+00 0.  1.
          5    1    4    4  501    0 -0.64570944802E+02 -0.15178750857E+02 -0.81081173697E+02  0.10484002346E+03  0.41800000000E+01 0. -1.
         -5    1    4    4    0  501  0.18882953106E+02  0.52009370580E+01  0.31750213832E+02  0.37538835127E+02  0.41800000000E+01 0. -1.
</event>
<event>
11    1  0.8299058E-009  0.1334827E+03  0.7561462E-02  0.1115062E+00
         22   -1    0    0    0    0  0.00000000000E+00  0.00000000000E+00  0.10313854522E+04  0.10313854522E+04  0.00000000000E+00 0.  1.
         22   -1    0    0    0    0 -0.00000000000E+00 -0.00000000000E+00 -0.22391383649E+03  0.22391383649E+03  0.00000000000E+00 0.  1.
         24    2    1    2    0    0 -0.14692848101E+01 -0.47702589925E+02 -0.18684257452E+03  0.20874502078E+03  0.79916457398E+02 0.  0.
         25    2    1    2    0    0 -0.14924603607E+02  0.28801940487E+02  0.14998219668E+03  0.19797557759E+03  0.12508946571E+03 0.  0.
        -24    2    1    2    0    0  0.16393888418E+02  0.18900649438E+02  0.84433199355E+03  0.84857869033E+03  0.81014098875E+02 0.  0.
        -13    1    3    3    0    0  0.64553017381E+01 -0.63476605282E+02 -0.90091332751E+02  0.11039655147E+03  0.00000000000E+00 0.  1.
         14    1    3    3    0    0 -0.79245865481E+01  0.15774015356E+02 -0.96751241765E+02  0.98348469310E+02  0.00000000000E+00 0. -1.
         13    1    5    5    0    0 -0.25844019782E+02 -0.14803480527E+02  0.24149780085E+03  0.24332744237E+03  0.00000000000E+00 0. -1.
        -14    1    5    5    0    0  0.42237908199E+02  0.33704129966E+02  0.60283419270E+03  0.60525124796E+03  0.00000000000E+00 0.  1.
          5    1    4    4  501    0  0.32958194847E+02 -0.35514683673E+02  0.50087667943E+02  0.69812479142E+02  0.41800000000E+01 0. -1.
         -5    1    4    4    0  501 -0.47882798455E+02  0.64316624160E+02  0.99894528739E+02  0.12816309845E+03  0.41800000000E+01 0. -1.
</event>
<event>
11    1  0.8299058E-009  0.1265002E+03  0.7561462E-02  0.1123645E+00
         22   -1    0    0    0    0  0.00000000000E+00  0.00000000000E+00  0.22512968499E+04  0.22512968499E+04  0.00000000000E+00 0. -1.
         22   -1    0    0    0    0 -0.00000000000E+00 -0.00000000000E+00 -0.17928006046E+03  0.17928006046E+03  0.00000000000E+00 0. -1.
        -24    2    1    2    0    0  0.96627105512E+01  0.15586852048E+02 -0.15401225798E+03  0.17509677372E+03  0.81257532732E+02 0.  0.
         25    2    1    2    0    0 -0.16862167297E+02 -0.27903305237E+02  0.28701507606E+03  0.31478347373E+03  0.12509218328E+03 0.  0.
         24    2    1    2    0    0  0.71994567462E+01  0.12316453189E+02  0.19390139713E+04  0.19406966629E+04  0.79528794448E+02 0.  0.
        -13    1    5    5    0    0  0.36980468098E+02  0.98636293846E+01  0.53609198085E+03  0.53745647093E+03  0.00000000000E+00 0.  1.
         14    1    5    5    0    0 -0.29781011351E+02  0.24528238041E+01  0.14029219905E+04  0.14032401919E+04  0.00000000000E+00 0. -1.
         11    1    3    3    0    0  0.13394176543E+02 -0.28236904482E+02 -0.10352012397E+03  0.10813483623E+03  0.00000000000E+00 0. -1.
        -12    1    3    3    0    0 -0.37314659919E+01  0.43823756530E+02 -0.50492134010E+02  0.66961937484E+02  0.00000000000E+00 0.  1.
          5    1    4    4  501    0 -0.56517504481E+02 -0.41305168047E+02  0.24686184539E+03  0.25662928190E+03  0.41800000000E+01 0. -1.
         -5    1    4    4    0  501  0.39655337183E+02  0.13401862811E+02  0.40153230671E+02  0.58154191829E+02  0.41800000000E+01 0. -1.
</event>
<event>
11    1  0.8299058E-009  0.1441483E+03  0.7561462E-02  0.1103013E+00
         22   -1    0    0    0    0  0.00000000000E+00  0.00000000000E+00  0.15992880302E+04  0.15992880302E+04  0.00000000000E+00 0. -1.
         22   -1    0    0    0    0 -0.00000000000E+00 -0.00000000000E+00 -0.68234405029E+02  0.68234405029E+02  0.00000000000E+00 0.  1.
         24    2    1    2    0    0  0.41628332838E+02  0.61858303569E+02  0.44784696190E+02  0.11944561262E+03  0.81867072417E+02 0.  0.
         25    2    1    2    0    0  0.26916721806E+02 -0.83888849220E+02  0.17599539275E+03  0.23320430248E+03  0.12509204407E+03 0.  0.
        -24    2    1    2    0    0 -0.68545054644E+02  0.22030545651E+02  0.13102735362E+04  0.13148725201E+04  0.83001415537E+02 0.  0.
        -11    1    3    3    0    0  0.28277178930E+02  0.81264672729E+02  0.27865426791E+02  0.90443506634E+02  0.00000000000E+00 0.  1.
         12    1    3    3    0    0  0.13351153908E+02 -0.19406369160E+02  0.16919269399E+02  0.29002105986E+02  0.00000000000E+00 0. -1.
         13    1    5    5    0    0 -0.60255439497E+02  0.13017545233E+02  0.12878389943E+04  0.12893135575E+04  0.00000000000E+00 0. -1.
        -14    1    5    5    0    0 -0.82896151473E+01  0.90130004178E+01  0.22434541937E+02  0.25558962572E+02  0.00000000000E+00 0.  1.
          5    1    4    4  501    0  0.37813950540E+02  0.15437667426E+02  0.98400737522E+02  0.10662267102E+03  0.41800000000E+01 0. -1.
         -5    1    4    4    0  501 -0.10897228734E+02 -0.99326516646E+02  0.77594655228E+02  0.12658163146E+03  0.41800000000E+01 0. -1.
</event>
<event>
11    1  0.8299058E-009  0.1387000E+03  0.7561462E-02  0.1109019E+00
         22   -1    0    0    0    0  0.00000000000E+00  0.00000000000E+00  0.32853181091E+04  0.32853181091E+04  0.00000000000E+00 0.  1.
         22   -1    0    0    0    0 -0.00000000000E+00 -0.00000000000E+00 -0.65249182857E+02  0.65249182857E+02  0.00000000000E+00 0.  1.
        -24    2    1    2    0    0  0.20578206359E+01  0.61135351094E+02 -0.18761482460E+02  0.10032137239E+03  0.77269779055E+02 0.  0.
         25    2    1    2    0    0 -0.27463532032E+02 -0.30748775956E+02  0.91689846778E+03  0.92630914965E+03  0.12508440232E+03 0.  0.
         24    2    1    2    0    0  0.25405711396E+02 -0.30386575138E+02  0.23219319409E+04  0.23239367699E+04  0.88007830022E+02 0.  0.
        -11    1    5    5    0    0  0.88386209967E+00 -0.54886302777E+02  0.18102246808E+04  0.18110567861E+04  0.00000000000E+00 0.  1.
         12    1    5    5    0    0  0.24521849296E+02  0.24499727639E+02  0.51170726012E+03  0.51287998382E+03  0.00000000000E+00 0. -1.
         11    1    3    3    0    0  0.19665142779E+02 -0.12193225562E+02 -0.43724047295E+01  0.23548046910E+02  0.00000000000E+00 0. -1.
        -12    1    3    3    0    0 -0.17607322143E+02  0.73328576656E+02 -0.14389077731E+02  0.76773325481E+02  0.00000000000E+00 0.  1.
          5    1    4    4  501    0 -0.75882692643E+02 -0.50672687285E+01  0.48945374806E+03  0.49534463169E+03  0.41800000000E+01 0. -1.
         -5    1    4    4    0  501  0.48419160612E+02 -0.25681507228E+02  0.42744471972E+03  0.43096451797E+03  0.41800000000E+01 0. -1.
</event>
<event>
11    1  0.8299058E-009  0.1345884E+03  0.7561462E-02  0.1113756E+00
         22   -1    0    0    0    0  0.00000000000E+00  0.00000000000E+00  0.19580286102E+04  0.19580286102E+04  0.00000000000E+00 0.  1.
         22   -1    0    0    0    0 -0.00000000000E+00 -0.00000000000E+00 -0.28718950170E+03  0.28718950170E+03  0.00000000000E+00 0.  1.
         24    2    1    2    0    0 -0.51421746920E+01  0.40082268306E+02 -0.25915002429E+03  0.27432394710E+03  0.80385711874E+02 0.  0.
         25    2    1    2    0    0 -0.42368393997E+02 -0.21845197487E+02  0.21571894704E+03  0.25387926446E+03  0.12509086036E+03 0.  0.
        -24    2    1    2    0    0  0.47510568689E+02 -0.18237070818E+02  0.17142701857E+04  0.17170149003E+04  0.82632035850E+02 0.  0.
        -13    1    3    3    0    0  0.25554676061E+02  0.17370449144E+02 -0.20909916954E+03  0.21136990484E+03  0.00000000000E+00 0.  1.
         14    1    3    3    0    0 -0.30696850753E+02  0.22711819162E+02 -0.50050854747E+02  0.62954042259E+02  0.00000000000E+00 0. -1.
         13    1    5    5    0    0 -0.15691990119E+02 -0.36188181019E+01  0.90683105222E+03  0.90697403031E+03  0.00000000000E+00 0. -1.
        -14    1    5    5    0    0  0.63202558808E+02 -0.14618252716E+02  0.80743913352E+03  0.81004087001E+03  0.00000000000E+00 0.  1.
          5    1    4    4  501    0  0.19681976033E+02 -0.30560882095E+01  0.17717206663E+03  0.17833713424E+03  0.41800000000E+01 0.  1.
         -5    1    4    4    0  501 -0.62050370029E+02 -0.18789109278E+02  0.38546880414E+02  0.75542130218E+02  0.41800000000E+01 0.  1.
</event>
<event>
11    1  0.8299058E-009  0.1542983E+03  0.7561462E-02  0.1092566E+00
         22   -1    0    0    0    0  0.00000000000E+00  0.00000000000E+00  0.10529390113E+04  0.10529390113E+04  0.00000000000E+00 0. -1.
         22   -1    0    0    0    0 -0.00000000000E+00 -0.00000000000E+00 -0.11389857952E+03  0.11389857952E+03  0.00000000000E+00 0. -1.
         24    2    1    2    0    0  0.33803172922E+02 -0.74099119887E+02 -0.19472226178E+02  0.11655285946E+03  0.81068288433E+02 0.  0.
         25    2    1    2    0    0  0.34934086933E+01  0.13815445604E+03  0.16435802528E+03  0.24851715875E+03  0.12509340546E+03 0.  0.
        -24    2    1    2    0    0 -0.37296581615E+02 -0.64055336155E+02  0.79415463269E+03  0.80176757262E+03  0.81581485670E+02 0.  0.
        -11    1    3    3    0    0 -0.15873737712E+01  0.11861356011E+02  0.13386475095E+02  0.17955757778E+02  0.00000000000E+00 0.  1.
         12    1    3    3    0    0  0.35390546693E+02 -0.85960475898E+02 -0.32858701273E+02  0.98597101687E+02  0.00000000000E+00 0. -1.
         11    1    5    5    0    0 -0.33192676326E+02 -0.65681267481E+02  0.79394495105E+03  0.79734833540E+03  0.00000000000E+00 0. -1.
        -12    1    5    5    0    0 -0.41039052892E+01  0.16259313253E+01  0.20968163633E+00  0.44192372290E+01  0.00000000000E+00 0.  1.
          5    1    4    4  501    0 -0.34049114272E+02  0.14386495324E+03  0.13619498622E+03  0.20105475281E+03  0.41800000000E+01 0. -1.
         -5    1    4    4    0  501  0.37542522965E+02 -0.57104971994E+01  0.28163039058E+02  0.47462405943E+02  0.41800000000E+01 0. -1.
</event>
<event>
11    1  0.8299058E-009  0.1496757E+03  0.7561462E-02  0.1097211E+00
         22   -1    0    0    0    0  0.00000000000E+00  0.00000000000E+00  0.14387905220E+04  0.14387905220E+04  0.00000000000E+00 0.  1.
         22   -1    0    0    0    0 -0.00000000000E+00 -0.00000000000E+00 -0.10515427210E+03  0.10515427210E+03  0.00000000000E+00 0.  1.
        -24    2    1    2    0    0  0.13589806950E+02  0.27489379330E+02 -0.67091144889E+02  0.10875398982E+03  0.79911574573E+02 0.  0.
         25    2    1    2    0    0 -0.36357950884E+02  0.55538799514E+02  0.33781958859E+03  0.36630032645E+03  0.12508955142E+03 0.  0.
         24    2    1    2    0    0  0.22768143933E+02 -0.83028178844E+02  0.10629078062E+04  0.10688904778E+04  0.73087497383E+02 0.  0.
        -11    1    5    5    0    0 -0.15907825154E+02 -0.41087689251E+02  0.24024048480E+03  0.24424730837E+03  0.00000000000E+00 0.  1.
         12    1    5    5    0    0  0.38675969087E+02 -0.41940489593E+02  0.82266732140E+03  0.82464316947E+03  0.00000000000E+00 0. -1.
         13    1    3    3    0    0  0.47665088426E+01  0.21922175877E+01  0.18415507461E+02  0.19148272495E+02  0.00000000000E+00 0. -1.
        -14    1    3    3    0    0  0.88232981078E+01  0.25297161742E+02 -0.85506652349E+02  0.89605717327E+02  0.00000000000E+00 0.  1.
          5    1    4    4  501    0 -0.39541653249E+02  0.68399297730E+02  0.97419487975E+02  0.12549914465E+03  0.41800000000E+01 0.  1.
         -5    1    4    4    0  501  0.31837023656E+01 -0.12860498216E+02  0.24040010062E+03  0.24080118179E+03  0.41800000000E+01 0.  1.
</event>
<event>
11    1  0.8299058E-009  0.1345145E+03  0.7561462E-02  0.1113843E+00
         22   -1    0    0    0    0  0.00000000000E+00  0.00000000000E+00  0.28242332543E+04  0.28242332543E+04  0.00000000000E+00 0.  1.
         22   -1    0    0    0    0 -0.00000000000E+00 -0.00000000000E+00 -0.45777396972E+03  0.45777396972E+03  0.00000000000E+00 0.  1.
         24    2    1    2    0    0 -0.39686512709E+02  0.29028394020E+02 -0.44143945254E+03  0.45142637288E+03  0.80618316332E+02 0.  0.
         25    2    1    2    0    0  0.90607316903E+02 -0.18243721413E+02  0.57415968675E+03  0.59485227132E+03  0.12508940625E+03 0.  0.
        -24    2    1    2    0    0 -0.50920804194E+02 -0.10784672607E+02  0.22337390504E+04  0.22357285799E+04  0.78631419009E+02 0.  0.
        -11    1    3    3    0    0 -0.26699721599E+02  0.26443730350E+02 -0.67522664029E+02  0.77275197611E+02  0.00000000000E+00 0.  1.
         12    1    3    3    0    0 -0.12986791110E+02  0.25846636705E+01 -0.37391678851E+03  0.37415117527E+03  0.00000000000E+00 0. -1.
         13    1    5    5    0    0 -0.16643878487E+02  0.21259745420E+02  0.25352424216E+03  0.25495791188E+03  0.00000000000E+00 0. -1.
        -14    1    5    5    0    0 -0.34276925707E+02 -0.32044418027E+02  0.19802148082E+04  0.19807706680E+04  0.00000000000E+00 0.  1.
          5    1    4    4  501    0  0.82723264376E+01 -0.49388836602E+02  0.93187113297E+02  0.10587256042E+03  0.41800000000E+01 0. -1.
         -5    1    4    4    0  501  0.82334990465E+02  0.31145115189E+02  0.48097257345E+03  0.48897971090E+03  0.41800000000E+01 0. -1.
</event>
<event>
11    1  0.8299058E-009  0.1633814E+03  0.7561462E-02  0.1083939E+00
         22   -1    0    0    0    0  0.00000000000E+00  0.00000000000E+00  0.13652459968E+03  0.13652459968E+03  0.00000000000E+00 0.  1.
         22   -1    0    0    0    0 -0.00000000000E+00 -0.00000000000E+00 -0.17061925438E+04  0.17061925438E+04  0.00000000000E+00 0.  1.
        -24    2    1    2    0    0 -0.43905674529E+00 -0.50269418261E+02 -0.12891101051E+04  0.12925687445E+04  0.80011805486E+02 0.  0.
         25    2    1    2    0    0  0.85571107684E+02  0.10734402352E+03 -0.35489050138E+03  0.40054143295E+03  0.12506405435E+03 0.  0.
         24    2    1    2    0    0 -0.85132050938E+02 -0.57074605258E+02  0.74332662324E+02  0.14960696605E+03  0.79698951942E+02 0.  0.
        -13    1    5    5    0    0 -0.42138721359E+02 -0.50357286236E+02  0.82387446106E+02  0.10535283286E+03  0.00000000000E+00 0.  1.
         14    1    5    5    0    0 -0.42993329579E+02 -0.67173190223E+01 -0.80547837822E+01  0.44254133196E+02  0.00000000000E+00 0. -1.
         13    1    3    3    0    0  0.16446554779E+02  0.14164049085E+02 -0.15602507584E+03  0.15752756502E+03  0.00000000000E+00 0. -1.
        -14    1    3    3    0    0 -0.16885611525E+02 -0.64433467347E+02 -0.11330850293E+04  0.11350411795E+04  0.00000000000E+00 0.  1.
          5    1    4    4  501    0  0.24931268263E+02  0.12028524831E+03 -0.25107307924E+03  0.27954475959E+03  0.41800000000E+01 0. -1.
         -5    1    4    4    0  501  0.60639839420E+02 -0.12941224795E+02 -0.10381742214E+03  0.12099667336E+03  0.41800000000E+01 0. -1.
</event>
<event>
11    1  0.8299058E-009  0.1417392E+03  0.7561462E-02  0.1105632E+00
         22   -1    0    0    0    0  0.00000000000E+00  0.00000000000E+00  0.19549712042E+03  0.19549712042E+03  0.00000000000E+00 0.  1.
         22   -1    0    0    0    0 -0.00000000000E+00 -0.00000000000E+00 -0.56640666402E+03  0.56640666402E+03  0.00000000000E+00 0.  1.
         24    2    1    2    0    0 -0.20333280676E+02 -0.75350254440E+01 -0.41825667666E+03  0.42728175433E+03  0.84621694036E+02 0.  0.
         25    2    1    2    0    0  0.64658241297E+02 -0.40756144133E+02 -0.82538432325E+02  0.16823633423E+03  0.12509644236E+03 0.  0.
        -24    2    1    2    0    0 -0.44324960622E+02  0.48291169577E+02  0.12988556538E+03  0.16638569587E+03  0.80729179993E+02 0.  0.
        -13    1    3    3    0    0 -0.16422420070E+02  0.38130499579E+02 -0.19618106147E+03  0.20052590795E+03  0.00000000000E+00 0.  1.
         14    1    3    3    0    0 -0.39108606057E+01 -0.45665525023E+02 -0.22207561520E+03  0.22675584639E+03  0.00000000000E+00 0. -1.
         11    1    5    5    0    0 -0.41419349138E+02  0.72212889385E+01  0.15490662393E+02  0.44807032019E+02  0.00000000000E+00 0. -1.
        -12    1    5    5    0    0 -0.29056114833E+01  0.41069880639E+02  0.11439490299E+03  0.12157866385E+03  0.00000000000E+00 0.  1.
          5    1    4    4  501    0 -0.35981225931E+02  0.32921590331E+01 -0.16036859804E+02  0.39750977384E+02  0.41800000000E+01 0.  1.
         -5    1    4    4    0  501  0.10063946723E+03 -0.44048303166E+02 -0.66501572522E+02  0.12848535685E+03  0.41800000000E+01 0.  1.
</event>
<event>
11    1  0.8299058E-009  0.1510777E+03  0.7561462E-02  0.1095783E+00
         22   -1    0    0    0    0  0.00000000000E+00  0.00000000000E+00  0.16980115475E+03  0.16980115475E+03  0.00000000000E+00 0. -1.
         22   -1    0    0    0    0 -0.00000000000E+00 -0.00000000000E+00 -0.85402639908E+03  0.85402639908E+03  0.00000000000E+00 0.  1.
        -24    2    1    2    0    0  0.10320139958E+02 -0.23950900585E+01 -0.74397186045E+03  0.74836018997E+03  0.80228442853E+02 0.  0.
         25    2    1    2    0    0 -0.10767625379E+02 -0.83110994422E+02  0.16549553020E+02  0.15147429445E+03  0.12508874859E+03 0.  0.
         24    2    1    2    0    0  0.44748542107E+00  0.85506084480E+02  0.43197063102E+02  0.12399306941E+03  0.78719783254E+02 0.  0.
        -13    1    5    5    0    0 -0.28072314879E+02  0.32878876906E+02 -0.94763485429E+01  0.44259197812E+02  0.00000000000E+00 0.  1.
         14    1    5    5    0    0  0.28519800300E+02  0.52627207574E+02  0.52673411645E+02  0.79733871601E+02  0.00000000000E+00 0. -1.
         11    1    3    3    0    0  0.90395952011E+01 -0.22711807689E+02 -0.71180200244E+02  0.75260623148E+02  0.00000000000E+00 0. -1.
        -12    1    3    3    0    0  0.12805447568E+01  0.20316717631E+02 -0.67279166021E+03  0.67309956682E+03  0.00000000000E+00 0.  1.
          5    1    4    4  501    0 -0.76931200575E+01 -0.46531672303E+02  0.71200728323E+02  0.85506705803E+02  0.41800000000E+01 0. -1.
         -5    1    4    4    0  501 -0.30745053215E+01 -0.36579322119E+02 -0.54651175303E+02  0.65967588645E+02  0.41800000000E+01 0. -1.
</event>
<event>
11    1  0.8299058E-009  0.1332722E+03  0.7561462E-02  0.1115313E+00
         22   -1    0    0    0    0  0.00000000000E+00  0.00000000000E+00  0.54536159351E+03  0.54536159351E+03  0.00000000000E+00 0. -1.
         22   -1    0    0    0    0 -0.00000000000E+00 -0.00000000000E+00 -0.76048888987E+03  0.76048888987E+03  0.00000000000E+00 0.  1.
         24    2    1    2    0    0 -0.41869203750E+02 -0.19769940431E+02 -0.71582431996E+03  0.72164080651E+03  0.78848689361E+02 0.  0.
         25    2    1    2    0    0  0.13025986377E+02  0.47082287370E+02  0.85337683942E+02  0.15911232647E+03  0.12509114288E+03 0.  0.
        -24    2    1    2    0    0  0.28843217373E+02 -0.27312346938E+02  0.41535933966E+03  0.42509735040E+03  0.81280260755E+02 0.  0.
        -13    1    3    3    0    0 -0.39782178806E+02 -0.21477892665E+01 -0.68435016331E+03  0.68550884806E+03  0.00000000000E+00 0.  1.
         14    1    3    3    0    0 -0.20870249440E+01 -0.17622151165E+02 -0.31474156650E+02  0.36131958453E+02  0.00000000000E+00 0. -1.
         11    1    5    5    0    0  0.37350748759E+01 -0.53816847138E+02  0.24427393289E+03  0.25015986511E+03  0.00000000000E+00 0. -1.
        -12    1    5    5    0    0  0.25108142497E+02  0.26504500200E+02  0.17108540677E+03  0.17493748529E+03  0.00000000000E+00 0.  1.
          5    1    4    4  501    0  0.47498810180E+02 -0.34637149155E+00  0.88195867788E+02  0.10026086194E+03  0.41800000000E+01 0. -1.
         -5    1    4    4    0  501 -0.34472823803E+02  0.47428658861E+02 -0.28581838458E+01  0.58851464529E+02  0.41800000000E+01 0. -1.
</event>
<event>
11    1  0.8299058E-009  0.1788543E+03  0.7561462E-02  0.1070573E+00
         22   -1    0    0    0    0  0.00000000000E+00  0.00000000000E+00  0.13319266583E+03  0.13319266583E+03  0.00000000000E+00 0. -1.
         22   -1    0    0    0    0 -0.00000000000E+00 -0.00000000000E+00 -0.21085380722E+04  0.21085380722E+04  0.00000000000E+00 0.  1.
        -24    2    1    2    0    0  0.11935316923E+03 -0.43658593258E+02 -0.17394033754E+04  0.17459584001E+04  0.81825305350E+02 0.  0.
         25    2    1    2    0    0 -0.13567972881E+03  0.16095113019E+02 -0.32421799250E+03  0.37340797685E+03  0.12509264185E+03 0.  0.
         24    2    1    2    0    0  0.16326559579E+02  0.27563480239E+02  0.88275961509E+02  0.12236436115E+03  0.78448005130E+02 0.  0.
        -13    1    5    5    0    0 -0.28462337437E+02  0.32068998534E+00  0.14737450919E+02  0.32053080258E+02  0.00000000000E+00 0.  1.
         14    1    5    5    0    0  0.44788897016E+02  0.27242790254E+02  0.73538510589E+02  0.90311280892E+02  0.00000000000E+00 0. -1.
         11    1    3    3    0    0  0.11783714255E+03 -0.61717316834E+02 -0.15364883480E+04  0.15422357352E+04  0.00000000000E+00 0. -1.
        -12    1    3    3    0    0  0.15160266834E+01  0.18058723576E+02 -0.20291502738E+03  0.20372266485E+03  0.00000000000E+00 0.  1.
          5    1    4    4  501    0 -0.10212748442E+03 -0.27480469165E+02 -0.11183321441E+03  0.15397837349E+03  0.41800000000E+01 0. -1.
         -5    1    4    4    0  501 -0.33552244395E+02  0.43575582184E+02 -0.21238477809E+03  0.21942960336E+03  0.41800000000E+01 0. -1.
</event>
<event>
11    1  0.8299058E-009  0.3268108E+03  0.7561462E-02  0.9894422E-01
         22   -1    0    0    0    0  0.00000000000E+00  0.00000000000E+00  0.76630619491E+03  0.76630619491E+03  0.00000000000E+00 0. -1.
         22   -1    0    0    0    0 -0.00000000000E+00 -0.00000000000E+00 -0.85322268106E+03  0.85322268106E+03  0.00000000000E+00 0.  1.
        -24    2    1    2    0    0  0.27599696962E+03 -0.12293150717E+03 -0.62592016454E+03  0.69977468170E+03  0.81376102642E+02 0.  0.
         25    2    1    2    0    0 -0.22597612321E+03  0.22291209095E+03 -0.21895840527E+02  0.34187989540E+03  0.12508967382E+03 0.  0.
         24    2    1    2    0    0 -0.50020846413E+02 -0.99980583780E+02  0.56089951891E+03  0.57787429887E+03  0.82657321340E+02 0.  0.
        -13    1    5    5    0    0 -0.61953941776E+02 -0.88366868122E+02  0.34861124770E+03  0.36493396157E+03  0.00000000000E+00 0.  1.
         14    1    5    5    0    0  0.11933095363E+02 -0.11613715657E+02  0.21228827121E+03  0.21294033730E+03  0.00000000000E+00 0. -1.
         13    1    3    3    0    0  0.18623848151E+03 -0.59776662098E+02 -0.32325128845E+03  0.37782193797E+03  0.00000000000E+00 0. -1.
        -14    1    3    3    0    0  0.89758488108E+02 -0.63154845072E+02 -0.30266887609E+03  0.32195274373E+03  0.00000000000E+00 0.  1.
          5    1    4    4  501    0  0.10009206819E+02  0.31224602134E+01  0.13310284084E+02  0.17451935175E+02  0.41800000000E+01 0.  1.
         -5    1    4    4    0  501 -0.23598533003E+03  0.21978963074E+03 -0.35206124611E+02  0.32442796023E+03  0.41800000000E+01 0.  1.
</event>
<event>
11    1  0.8299058E-009  0.5067248E+03  0.7561462E-02  0.9378619E-01
         22   -1    0    0    0    0  0.00000000000E+00  0.00000000000E+00  0.93688574085E+03  0.93688574085E+03  0.00000000000E+00 0. -1.
         22   -1    0    0    0    0 -0.00000000000E+00 -0.00000000000E+00 -0.43851901659E+03  0.43851901659E+03  0.00000000000E+00 0. -1.
        -24    2    1    2    0    0 -0.19565541978E+03  0.47072290660E+03 -0.12136205329E+03  0.53021814645E+03  0.80879149114E+02 0.  0.
         25    2    1    2    0    0  0.19214761592E+03 -0.38974047230E+03  0.54279797567E+03  0.70646665184E+03  0.12508855153E+03 0.  0.
         24    2    1    2    0    0  0.35078038664E+01 -0.80982434301E+02  0.76930801881E+02  0.13871995914E+03  0.82185275034E+02 0.  0.
        -11    1    5    5    0    0  0.22077374265E+02 -0.20113039955E+02 -0.95430959893E+01  0.31353078186E+02  0.00000000000E+00 0.  1.
         12    1    5    5    0    0 -0.18569570399E+02 -0.60869394346E+02  0.86473897871E+02  0.10736688095E+03  0.00000000000E+00 0. -1.
         11    1    3    3    0    0 -0.15196954278E+03  0.34620761171E+03 -0.53579689667E+02  0.38187070519E+03  0.00000000000E+00 0. -1.
        -12    1    3    3    0    0 -0.43685877006E+02  0.12451529489E+03 -0.67782363619E+02  0.14834744127E+03  0.00000000000E+00 0.  1.
          5    1    4    4  501    0  0.30988766359E+02 -0.20077091586E+02  0.10426162197E+03  0.11068582323E+03  0.41800000000E+01 0. -1.
         -5    1    4    4    0  501  0.16115884956E+03 -0.36966338071E+03  0.43853635369E+03  0.59578082861E+03  0.41800000000E+01 0. -1.
</event>
<event>
11    1  0.8299058E-009  0.1471813E+03  0.7561462E-02  0.1099794E+00
         22   -1    0    0    0    0  0.00000000000E+00  0.00000000000E+00  0.10772439632E+03  0.10772439632E+03  0.00000000000E+00 0.  1.
         22   -1    0    0    0    0 -0.00000000000E+00 -0.00000000000E+00 -0.34875763500E+04  0.34875763500E+04  0.00000000000E+00 0.  1.
        -24    2    1    2    0    0  0.47282459669E+02 -0.26966819118E+02 -0.32027777211E+04  0.32044389734E+04  0.87642246485E+02 0.  0.
         25    2    1    2    0    0  0.17885888048E+02  0.73788211774E+02 -0.22505559132E+03  0.26844671104E+03  0.12509601231E+03 0.  0.
         24    2    1    2    0    0 -0.65168347717E+02 -0.46821392656E+02  0.47981358767E+02  0.12241506182E+03  0.79019492641E+02 0.  0.
        -11    1    5    5    0    0 -0.81998458536E+02 -0.48957036758E+02  0.38409890068E+02  0.10293618560E+03  0.00000000000E+00 0.  1.
         12    1    5    5    0    0  0.16830110819E+02  0.21356441020E+01  0.95714686990E+01  0.19478876224E+02  0.00000000000E+00 0. -1.
         13    1    3    3    0    0 -0.99017712380E+01  0.70334795740E+01 -0.76888719789E+02  0.77842084629E+02  0.00000000000E+00 0. -1.
        -14    1    3    3    0    0  0.57184230907E+02 -0.34000298692E+02 -0.31258890013E+04  0.31265968888E+04  0.00000000000E+00 0.  1.
          5    1    4    4  501    0  0.65122770933E+02  0.73452260246E+02 -0.16336331881E+03  0.19063382743E+03  0.41800000000E+01 0.  1.
         -5    1    4    4    0  501 -0.47236882885E+02  0.33595152722E+00 -0.61692272511E+02  0.77812883610E+02  0.41800000000E+01 0.  1.
</event>
<event>
11    1  0.8299058E-009  0.1376476E+03  0.7561462E-02  0.1110214E+00
         22   -1    0    0    0    0  0.00000000000E+00  0.00000000000E+00  0.16546071932E+04  0.16546071932E+04  0.00000000000E+00 0.  1.
         22   -1    0    0    0    0 -0.00000000000E+00 -0.00000000000E+00 -0.50896248608E+02  0.50896248608E+02  0.00000000000E+00 0. -1.
         24    2    1    2    0    0 -0.46077076538E+02  0.27093956983E+02  0.32063602399E+02  0.10557385653E+03  0.85209066980E+02 0.  0.
         25    2    1    2    0    0  0.93185555388E+02 -0.89051035995E+01  0.48939559588E+03  0.51373007771E+03  0.12509074659E+03 0.  0.
        -24    2    1    2    0    0 -0.47108478850E+02 -0.18188853383E+02  0.10822517464E+04  0.10861995076E+04  0.77527315631E+02 0.  0.
        -13    1    3    3    0    0 -0.48874236648E+02  0.18424057613E+02  0.58018933515E+02  0.78066212622E+02  0.00000000000E+00 0.  1.
         14    1    3    3    0    0  0.27971601100E+01  0.86698993696E+01 -0.25955331116E+02  0.27507643904E+02  0.00000000000E+00 0. -1.
         13    1    5    5    0    0 -0.20549609167E+02  0.21565431826E+02  0.16261754761E+03  0.16532338334E+03  0.00000000000E+00 0. -1.
        -14    1    5    5    0    0 -0.26558869683E+02 -0.39754285209E+02  0.91963419874E+03  0.92087612427E+03  0.00000000000E+00 0.  1.
          5    1    4    4  501    0  0.12201613097E+03 -0.15966862436E+02  0.34655439743E+03  0.36777751385E+03  0.41800000000E+01 0.  1.
         -5    1    4    4    0  501 -0.28830575579E+02  0.70617588369E+01  0.14284119844E+03  0.14595256387E+03  0.41800000000E+01 0.  1.
</event>
<event>
11    1  0.8299058E-009  0.1431711E+03  0.7561462E-02  0.1104068E+00
         22   -1    0    0    0    0  0.00000000000E+00  0.00000000000E+00  0.38534469168E+03  0.38534469168E+03  0.00000000000E+00 0. -1.
         22   -1    0    0    0    0 -0.00000000000E+00 -0.00000000000E+00 -0.11298398285E+04  0.11298398285E+04  0.00000000000E+00 0. -1.
        -24    2    1    2    0    0 -0.13095335733E+02  0.35229221616E+02 -0.97807163851E+03  0.98239321725E+03  0.84022124261E+02 0.  0.
         25    2    1    2    0    0  0.53491435604E+02 -0.89520657447E+02 -0.94484530636E+02  0.18827737973E+03  0.12508302601E+03 0.  0.
         24    2    1    2    0    0 -0.40396099872E+02  0.54291435832E+02  0.32806103236E+03  0.34451392316E+03  0.80538173607E+02 0.  0.
        -13    1    5    5    0    0 -0.12396475031E+01 -0.87066012074E+01  0.66401883784E+00  0.88194416793E+01  0.00000000000E+00 0.  1.
         14    1    5    5    0    0 -0.39156452369E+02  0.62998037039E+02  0.32739701352E+03  0.33569448148E+03  0.00000000000E+00 0. -1.
         11    1    3    3    0    0 -0.38799932080E+01  0.70027747376E+01 -0.87733854600E+03  0.87737507231E+03  0.00000000000E+00 0. -1.
        -12    1    3    3    0    0 -0.92153425245E+01  0.28226446878E+02 -0.10073309251E+03  0.10501814494E+03  0.00000000000E+00 0.  1.
          5    1    4    4  501    0  0.78659326689E+02 -0.63106895477E+02 -0.16759761567E+02  0.10231388928E+03  0.41800000000E+01 0.  1.
         -5    1    4    4    0  501 -0.25167891084E+02 -0.26413761970E+02 -0.77724769068E+02  0.85963490447E+02  0.41800000000E+01 0.  1.
</event>
<event>
11    1  0.8299058E-009  0.2029629E+03  0.7561462E-02  0.1052448E+00
         22   -1    0    0    0    0  0.00000000000E+00  0.00000000000E+00  0.56586035309E+03  0.56586035309E+03  0.00000000000E+00 0.  1.
         22   -1    0    0    0    0 -0.00000000000E+00 -0.00000000000E+00 -0.52812962487E+03  0.52812962487E+03  0.00000000000E+00 0.  1.
         24    2    1    2    0    0  0.62923254197E+02  0.33123040576E+02 -0.21415841731E+03  0.23953655913E+03  0.80358345672E+02 0.  0.
         25    2    1    2    0    0 -0.35464025580E+02  0.12658025125E+03 -0.25685609180E+03  0.31448954845E+03  0.12509343338E+03 0.  0.
        -24    2    1    2    0    0 -0.27459228617E+02 -0.15970329182E+03  0.50874523732E+03  0.53996387038E+03  0.80499156303E+02 0.  0.
        -13    1    3    3    0    0  0.31740726159E+02  0.39847022414E+02 -0.19666386388E+03  0.20315495132E+03  0.00000000000E+00 0.  1.
         14    1    3    3    0    0  0.31182528038E+02 -0.67239818379E+01 -0.17494553430E+02  0.36381607803E+02  0.00000000000E+00 0. -1.
         11    1    5    5    0    0 -0.10622765793E+02 -0.10216060616E+03  0.19352562309E+03  0.21909312951E+03  0.00000000000E+00 0. -1.
        -12    1    5    5    0    0 -0.16836462824E+02 -0.57542685658E+02  0.31521961423E+03  0.32087074087E+03  0.00000000000E+00 0.  1.
          5    1    4    4  501    0 -0.19941613297E+02 -0.19230852484E+02 -0.15416349527E+02  0.31978584410E+02  0.41800000000E+01 0. -1.
         -5    1    4    4    0  501 -0.15522412283E+02  0.14581110373E+03 -0.24143974227E+03  0.28251096404E+03  0.41800000000E+01 0. -1.
</event>
<event>
11    1  0.8299058E-009  0.2028734E+03  0.7561462E-02  0.1052510E+00
         22   -1    0    0    0    0  0.00000000000E+00  0.00000000000E+00  0.10685734885E+03  0.10685734885E+03  0.00000000000E+00 0. -1.
         22   -1    0    0    0    0 -0.00000000000E+00 -0.00000000000E+00 -0.13494585836E+04  0.13494585836E+04  0.00000000000E+00 0. -1.
        -24    2    1    2    0    0  0.28249146729E+02  0.42938543704E+02 -0.81479606417E+03  0.82079910043E+03  0.84716021281E+02 0.  0.
         25    2    1    2    0    0 -0.14615031102E+03  0.66789839892E+02 -0.40602365483E+03  0.45422874212E+03  0.12509094996E+03 0.  0.
         24    2    1    2    0    0  0.11790116429E+03 -0.10972838360E+03 -0.21781515712E+02  0.18128808987E+03  0.80311483579E+02 0.  0.
        -13    1    5    5    0    0  0.37391553072E+02  0.18733357461E+01  0.12502417072E+02  0.39470850771E+02  0.00000000000E+00 0.  1.
         14    1    5    5    0    0  0.80509611215E+02 -0.11160171934E+03 -0.34283932784E+02  0.14181723910E+03  0.00000000000E+00 0. -1.
         11    1    3    3    0    0  0.14287623483E+02 -0.17032341884E+02 -0.47155667062E+03  0.47208042796E+03  0.00000000000E+00 0. -1.
        -12    1    3    3    0    0  0.13961523246E+02  0.59970885587E+02 -0.34323939355E+03  0.34871867247E+03  0.00000000000E+00 0.  1.
          5    1    4    4  501    0 -0.75525726507E+02  0.22854446727E+02 -0.62482189780E+02  0.10073707133E+03  0.41800000000E+01 0. -1.
         -5    1    4    4    0  501 -0.70624584509E+02  0.43935393165E+02 -0.34354146505E+03  0.35349167079E+03  0.41800000000E+01 0. -1.
</event>
<event>
11    1  0.8299058E-009  0.1548971E+03  0.7561462E-02  0.1091977E+00
         22   -1    0    0    0    0  0.00000000000E+00  0.00000000000E+00  0.18943407134E+03  0.18943407134E+03  0.00000000000E+00 0. -1.
         22   -1    0    0    0    0 -0.00000000000E+00 -0.00000000000E+00 -0.73314711077E+03  0.73314711077E+03  0.00000000000E+00 0.  1.
        -24    2    1    2    0    0  0.15109116184E+01 -0.68601054537E+01 -0.42852579074E+03  0.43653309183E+03  0.82930350458E+02 0.  0.
         25    2    1    2    0    0  0.58660198350E+02 -0.62498555110E+02 -0.25732431375E+03  0.29868009202E+03  0.12508759596E+03 0.  0.
         24    2    1    2    0    0 -0.60171109969E+02  0.69358660564E+02  0.14213706506E+03  0.18736799826E+03  0.80452689436E+02 0.  0.
        -13    1    5    5    0    0 -0.34891207242E+02  0.82424621687E+02  0.84512152910E+02  0.12309962873E+03  0.00000000000E+00 0.  1.
         14    1    5    5    0    0 -0.25279902726E+02 -0.13065961124E+02  0.57624912153E+02  0.64268369534E+02  0.00000000000E+00 0. -1.
         11    1    3    3    0    0  0.39970794984E+02 -0.30916008806E+01 -0.14704998742E+03  0.15241693229E+03  0.00000000000E+00 0. -1.
        -12    1    3    3    0    0 -0.38459883365E+02 -0.37685045731E+01 -0.28147580332E+03  0.28411615954E+03  0.00000000000E+00 0.  1.
          5    1    4    4  501    0 -0.63455734722E+01  0.33787526575E+02 -0.72303136688E+02  0.80169066539E+02  0.41800000000E+01 0. -1.
         -5    1    4    4    0  501  0.65005771822E+02 -0.96286081685E+02 -0.18502117706E+03  0.21851102549E+03  0.41800000000E+01 0. -1.
</event>
<event>
11    1  0.8299058E-009  0.3612833E+03  0.7561462E-02  0.9771450E-01
         22   -1    0    0    0    0  0.00000000000E+00  0.00000000000E+00  0.31219787472E+04  0.31219787472E+04  0.00000000000E+00 0.  1.
         22   -1    0    0    0    0 -0.00000000000E+00 -0.00000000000E+00 -0.33488496534E+03  0.33488496534E+03  0.00000000000E+00 0.  1.
         24    2    1    2    0    0 -0.15002370972E+02  0.21102189377E+02 -0.27445954588E+03  0.28732464762E+03  0.80975535036E+02 0.  0.
         25    2    1    2    0    0 -0.15607450930E+03 -0.31066612776E+03  0.79441717323E+03  0.87613862028E+03  0.12509013325E+03 0.  0.
        -24    2    1    2    0    0  0.17107688027E+03  0.28956393838E+03  0.22671361545E+04  0.22934004447E+04  0.81637510255E+02 0.  0.
        -11    1    3    3    0    0 -0.36895498235E+02 -0.15973637089E+02 -0.10372102951E+03  0.11124067077E+03  0.00000000000E+00 0.  1.
         12    1    3    3    0    0  0.21893127264E+02  0.37075826466E+02 -0.17073851637E+03  0.17608397684E+03  0.00000000000E+00 0. -1.
         13    1    5    5    0    0  0.42474712074E+02  0.13624585002E+03  0.11023249186E+04  0.11115247451E+04  0.00000000000E+00 0. -1.
        -14    1    5    5    0    0  0.12860216820E+03  0.15331808836E+03  0.11648112359E+04  0.11818756995E+04  0.00000000000E+00 0.  1.
          5    1    4    4  501    0 -0.47670831727E+02 -0.20119695669E+02  0.18773874871E+03  0.19478352220E+03  0.41800000000E+01 0. -1.
         -5    1    4    4    0  501 -0.10840367757E+03 -0.29054643209E+03  0.60667842452E+03  0.68135509808E+03  0.41800000000E+01 0. -1.
</event>
<event>
11    1  0.8299058E-009  0.1491498E+03  0.7561462E-02  0.1097751E+00
         22   -1    0    0    0    0  0.00000000000E+00  0.00000000000E+00  0.12187669288E+03  0.12187669288E+03  0.00000000000E+00 0.  1.
         22   -1    0    0    0    0 -0.00000000000E+00 -0.00000000000E+00 -0.23088777883E+04  0.23088777883E+04  0.00000000000E+00 0.  1.
         24    2    1    2    0    0  0.52462797615E+02 -0.62977668412E+02 -0.20271667285E+04  0.20304652126E+04  0.81642528345E+02 0.  0.
         25    2    1    2    0    0  0.12744797290E+02  0.98653068908E+02 -0.22275965363E+03  0.27416304670E+03  0.12509458433E+03 0.  0.
        -24    2    1    2    0    0 -0.65207594905E+02 -0.35675400497E+02  0.62925286762E+02  0.12612622186E+03  0.80146537622E+02 0.  0.
        -13    1    3    3    0    0  0.69453433943E+02 -0.52361530409E+02 -0.12415514980E+04  0.12445945651E+04  0.00000000000E+00 0.  1.
         14    1    3    3    0    0 -0.16990636328E+02 -0.10616138003E+02 -0.78561523052E+03  0.78587064746E+03  0.00000000000E+00 0. -1.
         11    1    5    5    0    0 -0.66668717653E+01 -0.29558923420E+02 -0.10456992970E+02  0.32055043829E+02  0.00000000000E+00 0. -1.
        -12    1    5    5    0    0 -0.58540723140E+02 -0.61164770764E+01  0.73382279732E+02  0.94071178032E+02  0.00000000000E+00 0.  1.
          5    1    4    4  501    0 -0.38028433472E+02  0.29978657463E+02 -0.16234831851E+03  0.16946778625E+03  0.41800000000E+01 0.  1.
         -5    1    4    4    0  501  0.50773230762E+02  0.68674411446E+02 -0.60411335121E+02  0.10469526045E+03  0.41800000000E+01 0.  1.
</event>
<event>
11    1  0.8299058E-009  0.1357608E+03  0.7561462E-02  0.1112387E+00
         22   -1    0    0    0    0  0.00000000000E+00  0.00000000000E+00  0.61775629123E+03  0.61775629123E+03  0.00000000000E+00 0.  1.
         22   -1    0    0    0    0 -0.00000000000E+00 -0.00000000000E+00 -0.41285109374E+03  0.41285109374E+03  0.00000000000E+00 0.  1.
        -24    2    1    2    0    0 -0.50814809141E+02 -0.21877083650E+02 -0.32573791269E+03  0.33994623884E+03  0.79984410478E+02 0.  0.
         25    2    1    2    0    0  0.26973357899E+02  0.20700359909E+02 -0.22129279966E+02  0.13150273702E+03  0.12508875999E+03 0.  0.
         24    2    1    2    0    0  0.23841451242E+02  0.11767237415E+01  0.55277239015E+03  0.55915840911E+03  0.80814674970E+02 0.  0.
        -13    1    5    5    0    0  0.25304021838E+02  0.38940030382E+02  0.31278437742E+03  0.31621303934E+03  0.00000000000E+00 0.  1.
         14    1    5    5    0    0 -0.14625705962E+01 -0.37763306641E+02  0.23998801272E+03  0.24294536977E+03  0.00000000000E+00 0. -1.
         11    1    3    3    0    0 -0.64783489554E+02 -0.18832410950E+02 -0.16065977787E+03  0.17425017775E+03  0.00000000000E+00 0. -1.
        -12    1    3    3    0    0  0.13968680413E+02 -0.30446727006E+01 -0.16507813482E+03  0.16569606109E+03  0.00000000000E+00 0.  1.
          5    1    4    4  501    0 -0.44573369188E+02  0.25781007899E+02  0.10293802246E+02  0.52677133310E+02  0.41800000000E+01 0.  1.
         -5    1    4    4    0  501  0.71546727088E+02 -0.50806479896E+01 -0.32423082211E+02  0.78825603715E+02  0.41800000000E+01 0.  1.
</event>
<event>
11    1  0.8299058E-009  0.2192785E+03  0.7561462E-02  0.1041670E+00
         22   -1    0    0    0    0  0.00000000000E+00  0.00000000000E+00  0.39220752780E+03  0.39220752780E+03  0.00000000000E+00 0.  1.
         22   -1    0    0    0    0 -0.00000000000E+00 -0.00000000000E+00 -0.13468810070E+04  0.13468810070E+04  0.00000000000E+00 0.  1.
        -24    2    1    2    0    0 -0.74749833412E+02 -0.24143406079E+02 -0.11362867478E+04  0.11419389879E+04  0.81894061194E+02 0.  0.
         25    2    1    2    0    0  0.18431555243E+03 -0.11319330892E+03 -0.89102257450E+02  0.26527881853E+03  0.12509472902E+03 0.  0.
         24    2    1    2    0    0 -0.10956571901E+03  0.13733671500E+03  0.27071552608E+03  0.33187072832E+03  0.77364489174E+02 0.  0.
        -11    1    5    5    0    0 -0.69291517989E+02  0.85741898161E+02  0.22927784098E+03  0.25440384417E+03  0.00000000000E+00 0.  1.
         12    1    5    5    0    0 -0.40274201025E+02  0.51594816841E+02  0.41437685096E+02  0.77466884145E+02  0.00000000000E+00 0. -1.
         11    1    3    3    0    0  0.17679666869E+02 -0.80675465637E+01 -0.22371847022E+03  0.22456092680E+03  0.00000000000E+00 0. -1.
        -12    1    3    3    0    0 -0.92429500281E+02 -0.16075859516E+02 -0.91256827759E+03  0.91737806114E+03  0.00000000000E+00 0.  1.
          5    1    4    4  501    0  0.64509256137E+02 -0.47419156957E+02 -0.99927305959E+02  0.12811307291E+03  0.41800000000E+01 0.  1.
         -5    1    4    4    0  501  0.11980629629E+03 -0.65774151966E+02  0.10825048509E+02  0.13716574562E+03  0.41800000000E+01 0.  1.
</event>
<event>
11    1  0.8299058E-009  0.1664382E+03  0.7561462E-02  0.1081173E+00
         22   -1    0    0    0    0  0.00000000000E+00  0.00000000000E+00  0.19794139407E+03  0.19794139407E+03  0.00000000000E+00 0. -1.
         22   -1    0    0    0    0 -0.00000000000E+00 -0.00000000000E+00 -0.53094889560E+03  0.53094889560E+03  0.00000000000E+00 0.  1.
        -24    2    1    2    0    0 -0.44960983816E+01 -0.76432058300E+02 -0.26838598341E+03  0.29082147125E+03  0.81755841463E+02 0.  0.
         25    2    1    2    0    0 -0.10559985217E+03  0.74400026964E+02 -0.18330999575E+03  0.25678152334E+03  0.12508998120E+03 0.  0.
         24    2    1    2    0    0  0.11009595055E+03  0.20320313362E+01  0.11868847762E+03  0.18128729509E+03  0.81565195773E+02 0.  0.
        -13    1    5    5    0    0  0.38528840141E+02 -0.10377064286E+02  0.97925694444E+02  0.10574306889E+03  0.00000000000E+00 0.  1.
         14    1    5    5    0    0  0.71567110414E+02  0.12409095622E+02  0.20762783177E+02  0.75544226202E+02  0.00000000000E+00 0. -1.
         13    1    3    3    0    0 -0.35348285099E+02 -0.62252660102E+02 -0.13081620510E+03  0.14912335319E+03  0.00000000000E+00 0. -1.
        -14    1    3    3    0    0  0.30852186717E+02 -0.14179398198E+02 -0.13756977831E+03  0.14169811806E+03  0.00000000000E+00 0.  1.
          5    1    4    4  501    0  0.28091445131E+02  0.75328283327E+01 -0.40232135112E+02  0.49819372617E+02  0.41800000000E+01 0. -1.
         -5    1    4    4    0  501 -0.13369129730E+03  0.66867198631E+02 -0.14307786063E+03  0.20696215072E+03  0.41800000000E+01 0. -1.
</event>
<event>
11    1  0.8299058E-009  0.1520322E+03  0.7561462E-02  0.1094820E+00
         22   -1    0    0    0    0  0.00000000000E+00  0.00000000000E+00  0.29221303955E+03  0.29221303955E+03  0.00000000000E+00 0. -1.
         22   -1    0    0    0    0 -0.00000000000E+00 -0.00000000000E+00 -0.55268428402E+03  0.55268428402E+03  0.00000000000E+00 0.  1.
         24    2    1    2    0    0 -0.57295542926E+02 -0.24658416567E+02 -0.46100313641E+03  0.47211264154E+03  0.80471347509E+02 0.  0.
         25    2    1    2    0    0  0.10295877903E+03  0.76677551117E+02  0.72546318823E+02  0.19336559861E+03  0.12508928542E+03 0.  0.
        -24    2    1    2    0    0 -0.45663236106E+02 -0.52019134551E+02  0.12798557312E+03  0.17941908342E+03  0.10497513551E+03 0.  0.
        -13    1    3    3    0    0 -0.65880437190E+02  0.94429084896E+01 -0.29170929140E+03  0.29920513233E+03  0.00000000000E+00 0.  1.
         14    1    3    3    0    0  0.85848942636E+01 -0.34101325056E+02 -0.16929384502E+03  0.17290750921E+03  0.00000000000E+00 0. -1.
         13    1    5    5    0    0 -0.53094485124E+02 -0.66706086512E+02  0.13646138362E+03  0.16090505135E+03  0.00000000000E+00 0. -1.
        -14    1    5    5    0    0  0.74312490180E+01  0.14686951962E+02 -0.84758105002E+01  0.18514032071E+02  0.00000000000E+00 0.  1.
          5    1    4    4  501    0  0.70839838314E+02  0.42811095979E+02 -0.23800666782E+02  0.86226543306E+02  0.41800000000E+01 0.  1.
         -5    1    4    4    0  501  0.32118940719E+02  0.33866455139E+02  0.96346985605E+02  0.10713905531E+03  0.41800000000E+01 0.  1.
</event>
<event>
11    1  0.8299058E-009  0.1733551E+03  0.7561462E-02  0.1075148E+00
         22   -1    0    0    0    0  0.00000000000E+00  0.00000000000E+00  0.21050836246E+03  0.21050836246E+03  0.00000000000E+00 0. -1.
         22   -1    0    0    0    0 -0.00000000000E+00 -0.00000000000E+00 -0.11628249812E+04  0.11628249812E+04  0.00000000000E+00 0. -1.
         24    2    1    2    0    0  0.80835178658E+02  0.83268281755E+02 -0.90048185822E+03  0.91150406429E+03  0.80648306749E+02 0.  0.
         25    2    1    2    0    0 -0.17896851241E+03 -0.42716217809E+02 -0.17399397217E+03  0.28244606319E+03  0.12508985796E+03 0.  0.
        -24    2    1    2    0    0  0.98133333748E+02 -0.40552063946E+02  0.12215921164E+03  0.17938321618E+03  0.77335917748E+02 0.  0.
        -11    1    3    3    0    0  0.37652113366E+02  0.83346546197E+02 -0.46660290632E+03  0.47548144084E+03  0.00000000000E+00 0.  1.
         12    1    3    3    0    0  0.43183065292E+02 -0.78264441807E-01 -0.43387895190E+03  0.43602262345E+03  0.00000000000E+00 0. -1.
         11    1    5    5    0    0  0.11064515264E+03 -0.38714551952E+02  0.11730896568E+03  0.16583895732E+03  0.00000000000E+00 0. -1.
        -12    1    5    5    0    0 -0.12511818887E+02 -0.18375119937E+01  0.48502459630E+01  0.13544258861E+02  0.00000000000E+00 0.  1.
          5    1    4    4  501    0  0.15346867145E+02  0.41000513411E+01 -0.35870878338E+02  0.39452871440E+02  0.41800000000E+01 0.  1.
         -5    1    4    4    0  501 -0.19431537955E+03 -0.46816269150E+02 -0.13812309383E+03  0.24299319175E+03  0.41800000000E+01 0.  1.
</event>
<event>
11    1  0.8299058E-009  0.1784627E+03  0.7561462E-02  0.1070893E+00
         22   -1    0    0    0    0  0.00000000000E+00  0.00000000000E+00  0.18592861775E+03  0.18592861775E+03  0.00000000000E+00 0.  1.
         22   -1    0    0    0    0 -0.00000000000E+00 -0.00000000000E+00 -0.17306123383E+04  0.17306123383E+04  0.00000000000E+00 0.  1.
         24    2    1    2    0    0 -0.12685009113E+03  0.24602185303E+02 -0.16419590391E+04  0.16491042603E+04  0.82578217993E+02 0.  0.
         25    2    1    2    0    0  0.78383191215E+02 -0.89555751156E+01  0.29229419442E+02  0.15075257635E+03  0.12509137989E+03 0.  0.
        -24    2    1    2    0    0  0.48466899914E+02 -0.15646610187E+02  0.68045899063E+02  0.11668411945E+03  0.79944246536E+02 0.  0.
        -13    1    3    3    0    0 -0.62100163815E+02  0.52508071019E+02 -0.99369162500E+03  0.99701382812E+03  0.00000000000E+00 0.  1.
         14    1    3    3    0    0 -0.64749927314E+02 -0.27905885716E+02 -0.64826741409E+03  0.65209043216E+03  0.00000000000E+00 0. -1.
         13    1    5    5    0    0  0.16189776093E+02 -0.38810183709E+01 -0.17707625408E+02  0.24304961451E+02  0.00000000000E+00 0. -1.
        -14    1    5    5    0    0  0.32277123821E+02 -0.11765591816E+02  0.85753524471E+02  0.92379157996E+02  0.00000000000E+00 0.  1.
          5    1    4    4  501    0  0.64478881017E+02 -0.14766567247E+02 -0.41575948595E+02  0.78240715149E+02  0.41800000000E+01 0.  1.
         -5    1    4    4    0  501  0.13904310198E+02  0.58109921318E+01  0.70805368037E+02  0.72511861199E+02  0.41800000000E+01 0.  1.
</event>
<event>
11    1  0.8299058E-009  0.1738009E+03  0.7561462E-02  0.1074771E+00
         22   -1    0    0    0    0  0.00000000000E+00  0.00000000000E+00  0.95373145011E+03  0.95373145011E+03  0.00000000000E+00 0. -1.
         22   -1    0    0    0    0 -0.00000000000E+00 -0.00000000000E+00 -0.88766702203E+03  0.88766702203E+03  0.00000000000E+00 0. -1.
         24    2    1    2    0    0 -0.15479660380E+01 -0.15382585256E+02 -0.67021530847E+03  0.67507395860E+03  0.79355338489E+02 0.  0.
         25    2    1    2    0    0  0.76675787801E+02 -0.79374178275E+02 -0.17714434899E+03  0.24331653665E+03  0.12507349846E+03 0.  0.
        -24    2    1    2    0    0 -0.75127821763E+02  0.94756763531E+02  0.91342408554E+03  0.92300797689E+03  0.54563096619E+02 0.  0.
        -11    1    3    3    0    0 -0.44361084137E+00 -0.35206996760E+02 -0.13581169317E+03  0.14030162299E+03  0.00000000000E+00 0.  1.
         12    1    3    3    0    0 -0.11043551966E+01  0.19824411504E+02 -0.53440361530E+03  0.53477233561E+03  0.00000000000E+00 0. -1.
         11    1    5    5    0    0 -0.69430220617E+02  0.95336061125E+02  0.90593742890E+03  0.91358204075E+03  0.00000000000E+00 0. -1.
        -12    1    5    5    0    0 -0.56976011453E+01 -0.57929759357E+00  0.74866566357E+01  0.94259361389E+01  0.00000000000E+00 0.  1.
          5    1    4    4  501    0 -0.18441024735E+02  0.32791216477E+01  0.67569495388E+01  0.20345830018E+02  0.41800000000E+01 0.  1.
         -5    1    4    4    0  501  0.95116812536E+02 -0.82653299923E+02 -0.18390129853E+03  0.22297070663E+03  0.41800000000E+01 0.  1.
</event>
<event>
11    1  0.8299058E-009  0.1420876E+03  0.7561462E-02  0.1105249E+00
         22   -1    0    0    0    0  0.00000000000E+00  0.00000000000E+00  0.15434394605E+03  0.15434394605E+03  0.00000000000E+00 0. -1.
         22   -1    0    0    0    0 -0.00000000000E+00 -0.00000000000E+00 -0.12732903785E+04  0.12732903785E+04  0.00000000000E+00 0. -1.
        -24    2    1    2    0    0  0.19203681706E+02  0.58745718118E+02 -0.11080021454E+04  0.11124311136E+04  0.77552482133E+02 0.  0.
         25    2    1    2    0    0 -0.77469579316E+02 -0.21733651873E+02 -0.99962069390E+02  0.17920704548E+03  0.12509541354E+03 0.  0.
         24    2    1    2    0    0  0.58265897610E+02 -0.37012066245E+02  0.89017782295E+02  0.13599616553E+03  0.76197005197E+02 0.  0.
        -13    1    5    5    0    0  0.21278010685E+02  0.31145473460E+01 -0.93928815743E+01  0.23466579813E+02  0.00000000000E+00 0.  1.
         14    1    5    5    0    0  0.36987886926E+02 -0.40126613591E+02  0.98410663869E+02  0.11252958571E+03  0.00000000000E+00 0. -1.
         11    1    3    3    0    0  0.31898938383E+02  0.71743196295E+02 -0.98084786261E+03  0.98398534444E+03  0.00000000000E+00 0. -1.
        -12    1    3    3    0    0 -0.12695256677E+02 -0.12997478176E+02 -0.12715428279E+03  0.12844576915E+03  0.00000000000E+00 0.  1.
          5    1    4    4  501    0 -0.42581012510E+02 -0.64717541868E+02 -0.17065828000E+02  0.79436878949E+02  0.41800000000E+01 0. -1.
         -5    1    4    4    0  501 -0.34888566806E+02  0.42983889995E+02 -0.82896241390E+02  0.99770166530E+02  0.41800000000E+01 0. -1.
</event>
<event>
11    1  0.8299058E-009  0.2971348E+03  0.7561462E-02  0.1001411E+00
         22   -1    0    0    0    0  0.00000000000E+00  0.00000000000E+00  0.10671942286E+04  0.10671942286E+04  0.00000000000E+00 0.  1.
         22   -1    0    0    0    0 -0.00000000000E+00 -0.00000000000E+00 -0.26046985197E+03  0.26046985197E+03  0.00000000000E+00 0. -1.
        -24    2    1    2    0    0 -0.33591151920E+02 -0.20826589158E+03 -0.84401669870E+02  0.24098164416E+03  0.80283646276E+02 0.  0.
         25    2    1    2    0    0  0.28784483522E+03  0.96126625677E+02  0.41998836248E+03  0.53304113462E+03  0.12509056421E+03 0.  0.
         24    2    1    2    0    0 -0.25425368330E+03  0.11213926591E+03  0.47113768405E+03  0.55364130182E+03  0.85602706226E+02 0.  0.
        -13    1    5    5    0    0 -0.86530538842E+02  0.83825319208E+02  0.20551384920E+03  0.23822292187E+03  0.00000000000E+00 0.  1.
         14    1    5    5    0    0 -0.16772314446E+03  0.28313946698E+02  0.26562383485E+03  0.31541837994E+03  0.00000000000E+00 0. -1.
         13    1    3    3    0    0 -0.37844990987E+02 -0.15435590884E+03 -0.96003537137E+02  0.18567355514E+03  0.00000000000E+00 0. -1.
        -14    1    3    3    0    0  0.42538390669E+01 -0.53909982747E+02  0.11601867267E+02  0.55308089017E+02  0.00000000000E+00 0.  1.
          5    1    4    4  501    0  0.23979955199E+03  0.36932934787E+02  0.36749719605E+03  0.44038565861E+03  0.41800000000E+01 0.  1.
         -5    1    4    4    0  501  0.48045283231E+02  0.59193690890E+02  0.52491166436E+02  0.92655476016E+02  0.41800000000E+01 0.  1.
</event>
<event>
11    1  0.8299058E-009  0.1419715E+03  0.7561462E-02  0.1105377E+00
         22   -1    0    0    0    0  0.00000000000E+00  0.00000000000E+00  0.35977685094E+03  0.35977685094E+03  0.00000000000E+00 0. -1.
         22   -1    0    0    0    0 -0.00000000000E+00 -0.00000000000E+00 -0.79375943252E+03  0.79375943252E+03  0.00000000000E+00 0. -1.
         24    2    1    2    0    0 -0.46103662078E+02 -0.10308994142E+02 -0.55412857046E+03  0.55952796121E+03  0.61491818708E+02 0.  0.
         25    2    1    2    0    0  0.85917201623E+02 -0.42903757733E+02 -0.20156322193E+03  0.25592543783E+03  0.12509036466E+03 0.  0.
        -24    2    1    2    0    0 -0.39813539545E+02  0.53212751875E+02  0.32170921080E+03  0.33808288443E+03  0.79915615071E+02 0.  0.
        -13    1    3    3    0    0 -0.42499643943E+02 -0.30340819829E+02 -0.29376099634E+03  0.29836606385E+03  0.00000000000E+00 0.  1.
         14    1    3    3    0    0 -0.36040181352E+01  0.20031825687E+02 -0.26036757411E+03  0.26116189737E+03  0.00000000000E+00 0. -1.
         13    1    5    5    0    0 -0.59371504233E+02  0.25461314352E+02  0.25715592077E+03  0.26514603831E+03  0.00000000000E+00 0. -1.
        -14    1    5    5    0    0  0.19557964688E+02  0.27751437522E+02  0.64553290030E+02  0.72936846113E+02  0.00000000000E+00 0.  1.
          5    1    4    4  501    0  0.10851635219E+03  0.49006898147E+00 -0.13851267487E+03  0.17600929623E+03  0.41800000000E+01 0. -1.
         -5    1    4    4    0  501 -0.22599150566E+02 -0.43393826715E+02 -0.63050547058E+02  0.79916141596E+02  0.41800000000E+01 0. -1.
</event>
<event>
11    1  0.8299058E-009  0.1716414E+03  0.7561462E-02  0.1076612E+00
         22   -1    0    0    0    0  0.00000000000E+00  0.00000000000E+00  0.15865383699E+03  0.15865383699E+03  0.00000000000E+00 0. -1.
         22   -1    0    0    0    0 -0.00000000000E+00 -0.00000000000E+00 -0.62376147865E+03  0.62376147865E+03  0.00000000000E+00 0. -1.
        -24    2    1    2    0    0  0.18129930662E+02  0.11892711855E+03 -0.43988779020E+03  0.46437310039E+03  0.87571425048E+02 0.  0.
         25    2    1    2    0    0 -0.95306351364E+02 -0.85694425990E+02 -0.71854200439E+02  0.19296962435E+03  0.12508962606E+03 0.  0.
         24    2    1    2    0    0  0.77176420702E+02 -0.33232692555E+02  0.46634348979E+02  0.12507259090E+03  0.80048602248E+02 0.  0.
        -11    1    5    5    0    0  0.36397299686E+02 -0.16626682872E+02 -0.20365747446E+02  0.44899595508E+02  0.00000000000E+00 0.  1.
         12    1    5    5    0    0  0.40779121017E+02 -0.16606009683E+02  0.67000096425E+02  0.80172995388E+02  0.00000000000E+00 0. -1.
         13    1    3    3    0    0  0.20875349036E+02  0.99902630060E+02 -0.43149212298E+03  0.44339797912E+03  0.00000000000E+00 0. -1.
        -14    1    3    3    0    0 -0.27454183744E+01  0.19024488485E+02 -0.83956672154E+01  0.20975121267E+02  0.00000000000E+00 0.  1.
          5    1    4    4  501    0 -0.10105803764E+02  0.12503584861E+02 -0.60113035832E+02  0.62365987373E+02  0.41800000000E+01 0.  1.
         -5    1    4    4    0  501 -0.85200547600E+02 -0.98198010851E+02 -0.11741164606E+02  0.13060363698E+03  0.41800000000E+01 0.  1.
</event>
<event>
11    1  0.8299058E-009  0.1462683E+03  0.7561462E-02  0.1100754E+00
         22   -1    0    0    0    0  0.00000000000E+00  0.00000000000E+00  0.44823062029E+03  0.44823062029E+03  0.00000000000E+00 0. -1.
         22   -1    0    0    0    0 -0.00000000000E+00 -0.00000000000E+00 -0.91087349017E+03  0.91087349017E+03  0.00000000000E+00 0.  1.
         24    2    1    2    0    0  0.18039543949E+02 -0.77173641959E+01 -0.87049534180E+03  0.87444672029E+03  0.80684221936E+02 0.  0.
         25    2    1    2    0    0 -0.47858115414E+02  0.71235614653E+02  0.21522951587E+03  0.26331878224E+03  0.12509246408E+03 0.  0.
        -24    2    1    2    0    0  0.29818571465E+02 -0.63518250457E+02  0.19262295604E+03  0.22133860794E+03  0.83447353608E+02 0.  0.
        -11    1    3    3    0    0  0.42402953779E+01 -0.11516285644E+02 -0.84590764869E+03  0.84599666374E+03  0.00000000000E+00 0.  1.
         12    1    3    3    0    0  0.13799248571E+02  0.37989214477E+01 -0.24587693108E+02  0.28450056549E+02  0.00000000000E+00 0. -1.
         11    1    5    5    0    0  0.22931162969E+02 -0.35717183372E+02  0.18749802730E+03  0.19224220573E+03  0.00000000000E+00 0. -1.
        -12    1    5    5    0    0  0.68874084963E+01 -0.27801067085E+02  0.51249287445E+01  0.29096402209E+02  0.00000000000E+00 0.  1.
          5    1    4    4  501    0  0.20221741983E+02  0.77446034149E+02  0.89493197584E+02  0.12013871927E+03  0.41800000000E+01 0.  1.
         -5    1    4    4    0  501 -0.68079857397E+02 -0.62104194962E+01  0.12573631829E+03  0.14318006296E+03  0.41800000000E+01 0.  1.
</event>
<event>
11    1  0.8299058E-009  0.7572259E+03  0.7561462E-02  0.8951978E-01
         22   -1    0    0    0    0  0.00000000000E+00  0.00000000000E+00  0.37117218721E+03  0.37117218721E+03  0.00000000000E+00 0. -1.
         22   -1    0    0    0    0 -0.00000000000E+00 -0.00000000000E+00 -0.38620291920E+03  0.38620291920E+03  0.00000000000E+00 0.  1.
         24    2    1    2    0    0 -0.11264230641E+03 -0.13491229893E+02  0.35173465697E+02  0.14690319134E+03  0.86446934347E+02 0.  0.
         25    2    1    2    0    0  0.33505618901E+03  0.64282612996E+02 -0.58849046268E+02  0.36811519813E+03  0.12510269670E+03 0.  0.
        -24    2    1    2    0    0 -0.22241388260E+03 -0.50791383103E+02  0.86448485817E+01  0.24235671694E+03  0.81328623937E+02 0.  0.
        -13    1    3    3    0    0 -0.11168382316E+03 -0.23171677843E+02  0.53629084514E+02  0.12604079386E+03  0.00000000000E+00 0.  1.
         14    1    3    3    0    0 -0.95848324897E+00  0.96804479507E+01 -0.18455618817E+02  0.20862397479E+02  0.00000000000E+00 0. -1.
         11    1    5    5    0    0 -0.26532278232E+02  0.48644280130E+01 -0.24019458165E+02  0.36118676867E+02  0.00000000000E+00 0. -1.
        -12    1    5    5    0    0 -0.19588160437E+03 -0.55655811116E+02  0.32664306747E+02  0.20623804008E+03  0.00000000000E+00 0.  1.
          5    1    4    4  501    0  0.29100048209E+03  0.16333204714E+02 -0.19995173946E+02  0.29217346480E+03  0.41800000000E+01 0.  1.
         -5    1    4    4    0  501  0.44055706923E+02  0.47949408282E+02 -0.38853872322E+02  0.75941733332E+02  0.41800000000E+01 0.  1.
</event>
<event>
11    1  0.8299058E-009  0.1810701E+03  0.7561462E-02  0.1068781E+00
         22   -1    0    0    0    0  0.00000000000E+00  0.00000000000E+00  0.13327262432E+03  0.13327262432E+03  0.00000000000E+00 0.  1.
         22   -1    0    0    0    0 -0.00000000000E+00 -0.00000000000E+00 -0.85150515087E+03  0.85150515087E+03  0.00000000000E+00 0.  1.
        -24    2    1    2    0    0  0.75473891170E+02  0.96774336983E+02 -0.58427091153E+03  0.60205413649E+03  0.77685936029E+02 0.  0.
         25    2    1    2    0    0 -0.90783385394E+02 -0.16590261261E+03 -0.14965760293E+03  0.27168099418E+03  0.12509142476E+03 0.  0.
         24    2    1    2    0    0  0.15309494224E+02  0.69128275627E+02  0.15695987917E+02  0.11104264452E+03  0.84089272561E+02 0.  0.
        -13    1    5    5    0    0  0.28700454666E+02  0.39664730311E+02  0.45653369906E+02  0.66942042936E+02  0.00000000000E+00 0.  1.
         14    1    5    5    0    0 -0.13390960441E+02  0.29463545315E+02 -0.29957381988E+02  0.44100601580E+02  0.00000000000E+00 0. -1.
         11    1    3    3    0    0  0.36601024465E+02  0.30849037509E+02 -0.90424676106E+02  0.10231285431E+03  0.00000000000E+00 0. -1.
        -12    1    3    3    0    0  0.38872866705E+02  0.65925299473E+02 -0.49384623543E+03  0.49974128219E+03  0.00000000000E+00 0.  1.
          5    1    4    4  501    0 -0.20013107491E+02 -0.15314047352E+03 -0.96543101640E+02  0.18218279824E+03  0.41800000000E+01 0.  1.
         -5    1    4    4    0  501 -0.70770277904E+02 -0.12762139090E+02 -0.53114501295E+02  0.89498195940E+02  0.41800000000E+01 0.  1.
</event>
<event>
11    1  0.8299058E-009  0.1675515E+03  0.7561462E-02  0.1080182E+00
         22   -1    0    0    0    0  0.00000000000E+00  0.00000000000E+00  0.46168938513E+03  0.46168938513E+03  0.00000000000E+00 0. -1.
         22   -1    0    0    0    0 -0.00000000000E+00 -0.00000000000E+00 -0.29761927354E+04  0.29761927354E+04  0.00000000000E+00 0. -1.
         24    2    1    2    0    0 -0.22078038647E+02 -0.13660276422E+02 -0.27444536354E+04  0.27457294378E+04  0.79563472138E+02 0.  0.
         25    2    1    2    0    0 -0.71799800156E+02  0.74732868710E+02 -0.19005068762E+03  0.25001432916E+03  0.12509071890E+03 0.  0.
        -24    2    1    2    0    0  0.93877838803E+02 -0.61072592289E+02  0.42000097272E+03  0.44213835354E+03  0.80886317959E+02 0.  0.
        -11    1    3    3    0    0 -0.40544751014E+02 -0.32894934153E+01 -0.70922003141E+03  0.71038563510E+03  0.00000000000E+00 0.  1.
         12    1    3    3    0    0  0.18466712367E+02 -0.10370783006E+02 -0.20352336040E+04  0.20353438027E+04  0.00000000000E+00 0. -1.
         11    1    5    5    0    0  0.28380128365E+02 -0.39476290841E+02  0.29845704214E+03  0.30239116262E+03  0.00000000000E+00 0. -1.
        -12    1    5    5    0    0  0.65497710439E+02 -0.21596301447E+02  0.12154393058E+03  0.13974719092E+03  0.00000000000E+00 0.  1.
          5    1    4    4  501    0 -0.29473977892E+01 -0.19070385965E+01  0.17462460119E+02  0.18295733474E+02  0.41800000000E+01 0.  1.
         -5    1    4    4    0  501 -0.68852402367E+02  0.76639907307E+02 -0.20751314774E+03  0.23171859569E+03  0.41800000000E+01 0.  1.
</event>
<event>
11    1  0.8299058E-009  0.1391678E+03  0.7561462E-02  0.1108491E+00
         22   -1    0    0    0    0  0.00000000000E+00  0.00000000000E+00  0.16739225544E+03  0.16739225544E+03  0.00000000000E+00 0. -1.
         22   -1    0    0    0    0 -0.00000000000E+00 -0.00000000000E+00 -0.70975544543E+03  0.70975544543E+03  0.00000000000E+00 0. -1.
        -24    2    1    2    0    0  0.60106713702E+02  0.18491927582E+02 -0.57182254524E+03  0.58072286215E+03  0.79393015775E+02 0.  0.
         25    2    1    2    0    0 -0.53756813687E+02  0.38005573265E+02 -0.69269937218E+02  0.15741636759E+03  0.12508944786E+03 0.  0.
         24    2    1    2    0    0 -0.63499000154E+01 -0.56497500847E+02  0.98729292465E+02  0.13900847114E+03  0.79646676179E+02 0.  0.
        -13    1    5    5    0    0 -0.16063214009E+02 -0.39484965861E+02  0.46144273921E+01  0.42876360777E+02  0.00000000000E+00 0.  1.
         14    1    5    5    0    0  0.97133139935E+01 -0.17012534986E+02  0.94114865073E+02  0.96132110365E+02  0.00000000000E+00 0. -1.
         11    1    3    3    0    0  0.62581557326E+02  0.43428412765E+02 -0.43792299862E+03  0.44449862888E+03  0.00000000000E+00 0. -1.
        -12    1    3    3    0    0 -0.24748436240E+01 -0.24936485183E+02 -0.13389954662E+03  0.13622423327E+03  0.00000000000E+00 0.  1.
          5    1    4    4  501    0 -0.58635275047E+02  0.37517664951E+02  0.16290489531E+02  0.71613707573E+02  0.41800000000E+01 0. -1.
         -5    1    4    4    0  501  0.48784613606E+01  0.48790831408E+00 -0.85560426749E+02  0.85802660012E+02  0.41800000000E+01 0. -1.
</event>
<event>
11    1  0.8299058E-009  0.1524253E+03  0.7561462E-02  0.1094426E+00
         22   -1    0    0    0    0  0.00000000000E+00  0.00000000000E+00  0.72150190175E+03  0.72150190175E+03  0.00000000000E+00 0. -1.
         22   -1    0    0    0    0 -0.00000000000E+00 -0.00000000000E+00 -0.28496765385E+03  0.28496765385E+03  0.00000000000E+00 0.  1.
        -24    2    1    2    0    0 -0.32945213001E+02  0.10291307929E+02 -0.15128086773E+03  0.17540633244E+03  0.81793535439E+02 0.  0.
         25    2    1    2    0    0 -0.44171537421E+02 -0.52948351854E+02 -0.72495667767E+02  0.16017983617E+03  0.12508918973E+03 0.  0.
         24    2    1    2    0    0  0.77116750421E+02  0.42657043925E+02  0.66031078339E+03  0.67088338700E+03  0.79420222195E+02 0.  0.
        -11    1    5    5    0    0 -0.11997544263E+02  0.21001497869E+02  0.87651918116E+02  0.90927788549E+02  0.00000000000E+00 0.  1.
         12    1    5    5    0    0  0.89114294684E+02  0.21655546056E+02  0.57265886528E+03  0.57995559845E+03  0.00000000000E+00 0. -1.
         11    1    3    3    0    0 -0.14178871921E+02 -0.14982337467E+01  0.67881193349E+01  0.15791253194E+02  0.00000000000E+00 0. -1.
        -12    1    3    3    0    0 -0.18766341079E+02  0.11789541676E+02 -0.15806898707E+03  0.15961507924E+03  0.00000000000E+00 0.  1.
          5    1    4    4  501    0 -0.18605676004E+02 -0.91610317780E+02 -0.33261039657E+02  0.99309569843E+02  0.41800000000E+01 0. -1.
         -5    1    4    4    0  501 -0.25565861417E+02  0.38661965927E+02 -0.39234628110E+02  0.60870266323E+02  0.41800000000E+01 0. -1.
</event>
<event>
11    1  0.8299058E-009  0.1319760E+03  0.7561462E-02  0.1116865E+00
         22   -1    0    0    0    0  0.00000000000E+00  0.00000000000E+00  0.26623466403E+03  0.26623466403E+03  0.00000000000E+00 0. -1.
         22   -1    0    0    0    0 -0.00000000000E+00 -0.00000000000E+00 -0.85402712124E+03  0.85402712124E+03  0.00000000000E+00 0.  1.
         24    2    1    2    0    0  0.21586441267E+02  0.34733675550E+02 -0.73121362720E+03  0.73652800740E+03  0.78279846805E+02 0.  0.
         25    2    1    2    0    0 -0.37424680323E+02 -0.50126194107E+02 -0.68388207604E+02  0.15567029927E+03  0.12507219157E+03 0.  0.
        -24    2    1    2    0    0  0.15838239056E+02  0.15392518557E+02  0.21180937760E+03  0.22806347859E+03  0.81620820771E+02 0.  0.
        -11    1    3    3    0    0 -0.18820656748E+02  0.74104987743E+01 -0.49076510014E+03  0.49118175467E+03  0.00000000000E+00 0.  1.
         12    1    3    3    0    0  0.40407098015E+02  0.27323176776E+02 -0.24044852707E+03  0.24534625273E+03  0.00000000000E+00 0. -1.
         13    1    5    5    0    0  0.29478533205E+02  0.43374058044E+01  0.20796651647E+03  0.21009014489E+03  0.00000000000E+00 0. -1.
        -14    1    5    5    0    0 -0.13640294149E+02  0.11055112753E+02  0.38428611288E+01  0.17973333695E+02  0.00000000000E+00 0.  1.
          5    1    4    4  501    0  0.88085799009E+01 -0.81390711056E+02 -0.27892826088E+02  0.86588227106E+02  0.41800000000E+01 0. -1.
         -5    1    4    4    0  501 -0.46233260224E+02  0.31264516949E+02 -0.40495381516E+02  0.69082072169E+02  0.41800000000E+01 0. -1.
</event>
<event>
11    1  0.8299058E-009  0.1353987E+03  0.7561462E-02  0.1112808E+00
         22   -1    0    0    0    0  0.00000000000E+00  0.00000000000E+00  0.58693584610E+03  0.58693584610E+03  0.00000000000E+00 0.  1.
         22   -1    0    0    0    0 -0.00000000000E+00 -0.00000000000E+00 -0.30841085787E+03  0.30841085787E+03  0.00000000000E+00 0.  1.
        -24    2    1    2    0    0  0.76831981354E+01 -0.46712788167E+02 -0.18988641631E+03  0.21108623378E+03  0.79116565153E+02 0.  0.
         25    2    1    2    0    0 -0.96051768291E+01  0.73366509128E+02 -0.53848361516E+02  0.15494516175E+03  0.12503380754E+03 0.  0.
         24    2    1    2    0    0  0.19219786937E+01 -0.26653720961E+02  0.52225976606E+03  0.52931530845E+03  0.81886004144E+02 0.  0.
        -11    1    5    5    0    0  0.25260227937E+02 -0.41807340138E+02  0.43481174732E+03  0.43754678425E+03  0.00000000000E+00 0.  1.
         12    1    5    5    0    0 -0.23338249243E+02  0.15153619177E+02  0.87448018739E+02  0.91768524197E+02  0.00000000000E+00 0. -1.
         13    1    3    3    0    0  0.30925620016E+02 -0.53771277040E+02 -0.97496705642E+02  0.11555670391E+03  0.00000000000E+00 0. -1.
        -14    1    3    3    0    0 -0.23242421881E+02  0.70584888737E+01 -0.92389710665E+02  0.95529529868E+02  0.00000000000E+00 0.  1.
          5    1    4    4  501    0 -0.36249317220E+02  0.32132506955E+02  0.30403308144E+02  0.57344089044E+02  0.41800000000E+01 0. -1.
         -5    1    4    4    0  501  0.26644140391E+02  0.41234002173E+02 -0.84251669660E+02  0.97601072703E+02  0.41800000000E+01 0. -1.
</event>
<event>
11    1  0.8299058E-009  0.1476029E+03  0.7561462E-02  0.1099354E+00
         22   -1    0    0    0    0  0.00000000000E+00  0.00000000000E+00  0.26041824065E+03  0.26041824065E+03  0.00000000000E+00 0.  1.
         22   -1    0    0    0    0 -0.00000000000E+00 -0.00000000000E+00 -0.13906159448E+04  0.13906159448E+04  0.00000000000E+00 0.  1.
        -24    2    1    2    0    0 -0.29266069736E+02  0.15600392347E+02 -0.12317695144E+04  0.12347708066E+04  0.79391014807E+02 0.  0.
         25    2    1    2    0    0  0.60603892881E+02  0.56408018146E+02 -0.10354592409E+03  0.18227559152E+03  0.12509171245E+03 0.  0.
         24    2    1    2    0    0 -0.31337823145E+02 -0.72008410492E+02  0.20511773433E+03  0.23398778732E+03  0.80682893695E+02 0.  0.
        -13    1    5    5    0    0 -0.31442113311E+02 -0.49334699589E+02  0.20294626001E+03  0.21121009333E+03  0.00000000000E+00 0.  1.
         14    1    5    5    0    0  0.10429016598E+00 -0.22673710903E+02  0.21714743215E+01  0.22777693985E+02  0.00000000000E+00 0. -1.
         13    1    3    3    0    0 -0.51459638060E+02  0.29664177350E+02 -0.90459470213E+03  0.90654268123E+03  0.00000000000E+00 0. -1.
        -14    1    3    3    0    0  0.22193568324E+02 -0.14063785004E+02 -0.32717481225E+03  0.32822812538E+03  0.00000000000E+00 0.  1.
          5    1    4    4  501    0 -0.91984400075E+01  0.67989832413E+02 -0.17756225620E+02  0.70992848642E+02  0.41800000000E+01 0.  1.
         -5    1    4    4    0  501  0.69802332888E+02 -0.11581814267E+02 -0.85789698469E+02  0.11128274287E+03  0.41800000000E+01 0.  1.
</event>
<event>
11    1  0.8299058E-009  0.1472229E+03  0.7561462E-02  0.1099751E+00
         22   -1    0    0    0    0  0.00000000000E+00  0.00000000000E+00  0.79113508261E+03  0.79113508261E+03  0.00000000000E+00 0. -1.
         22   -1    0    0    0    0 -0.00000000000E+00 -0.00000000000E+00 -0.20059520042E+03  0.20059520042E+03  0.00000000000E+00 0.  1.
         24    2    1    2    0    0 -0.29667871255E+02  0.40765961417E+02 -0.12236438744E+03  0.15454537056E+03  0.79807155400E+02 0.  0.
         25    2    1    2    0    0 -0.19437991981E+02  0.24173675075E+02  0.14790076821E+02  0.12972902237E+03  0.12509464726E+03 0.  0.
        -24    2    1    2    0    0  0.49105863236E+02 -0.64939636492E+02  0.69811419281E+03  0.70745589010E+03  0.80634161716E+02 0.  0.
        -11    1    3    3    0    0 -0.19291657369E+02 -0.51137444624E+01 -0.10087559432E+03  0.10283094843E+03  0.00000000000E+00 0.  1.
         12    1    3    3    0    0 -0.10376213887E+02  0.45879705880E+02 -0.21488793122E+02  0.51714422129E+02  0.00000000000E+00 0. -1.
         13    1    5    5    0    0  0.36649125558E+02 -0.63864398371E+02  0.68634984583E+03  0.69028829532E+03  0.00000000000E+00 0. -1.
        -14    1    5    5    0    0  0.12456737678E+02 -0.10752381208E+01  0.11764346987E+02  0.17167594783E+02  0.00000000000E+00 0.  1.
          5    1    4    4  501    0  0.43238603747E+02  0.45111842204E+02  0.55198436979E+01  0.62869676597E+02  0.41800000000E+01 0. -1.
         -5    1    4    4    0  501 -0.62676595728E+02 -0.20938167129E+02  0.92702331228E+01  0.66859345771E+02  0.41800000000E+01 0. -1.
</event>
<event>
11    1  0.8299058E-009  0.1648106E+03  0.7561462E-02  0.1082638E+00
         22   -1    0    0    0    0  0.00000000000E+00  0.00000000000E+00  0.26228179899E+03  0.26228179899E+03  0.00000000000E+00 0.  1.
         22   -1    0    0    0    0 -0.00000000000E+00 -0.00000000000E+00 -0.22142513283E+04  0.22142513283E+04  0.00000000000E+00 0. -1.
        -24    2    1    2    0    0  0.68255154134E+02  0.83210954702E+02 -0.20320524827E+04  0.20364703790E+04  0.79946750616E+02 0.  0.
         25    2    1    2    0    0 -0.42786820915E+02 -0.96014028942E+02 -0.13095172732E+03  0.20939653925E+03  0.12509656256E+03 0.  0.
         24    2    1    2    0    0 -0.25468333219E+02  0.12803074240E+02  0.21103468070E+03  0.23066620909E+03  0.88649358995E+02 0.  0.
        -13    1    5    5    0    0 -0.34716079717E+02  0.46373016208E+02  0.12163236281E+03  0.13472228660E+03  0.00000000000E+00 0.  1.
         14    1    5    5    0    0  0.92477464980E+01 -0.33569941968E+02  0.89402317886E+02  0.95943922488E+02  0.00000000000E+00 0. -1.
         11    1    3    3    0    0  0.85064160294E+02  0.68062391778E+02 -0.15082534239E+04  0.15121827903E+04  0.00000000000E+00 0. -1.
        -12    1    3    3    0    0 -0.16809006160E+02  0.15148562924E+02 -0.52379905880E+03  0.52428758868E+03  0.00000000000E+00 0.  1.
          5    1    4    4  501    0 -0.82954203002E+02 -0.87329156166E+02 -0.10957113630E+03  0.16288366285E+03  0.41800000000E+01 0.  1.
         -5    1    4    4    0  501  0.40167382087E+02 -0.86848727758E+01 -0.21380591025E+02  0.46512876405E+02  0.41800000000E+01 0.  1.
</event>
<event>
11    1  0.8299058E-009  0.1473853E+03  0.7561462E-02  0.1099581E+00
         22   -1    0    0    0    0  0.00000000000E+00  0.00000000000E+00  0.13402713435E+03  0.13402713435E+03  0.00000000000E+00 0. -1.
         22   -1    0    0    0    0 -0.00000000000E+00 -0.00000000000E+00 -0.34266317077E+03  0.34266317077E+03  0.00000000000E+00 0. -1.
         24    2    1    2    0    0  0.79460575864E+02  0.17395357678E+01 -0.18015286299E+03  0.21253198732E+03  0.79986139342E+02 0.  0.
         25    2    1    2    0    0 -0.65732254776E+02 -0.63006745233E+02 -0.44605519025E+02  0.16101974345E+03  0.12508847345E+03 0.  0.
        -24    2    1    2    0    0 -0.13728321088E+02  0.61267209465E+02  0.16122345599E+02  0.10313857436E+03  0.80221554071E+02 0.  0.
        -13    1    3    3    0    0 -0.13043232780E+02 -0.13766708397E+02 -0.29957863747E+02  0.35455913212E+02  0.00000000000E+00 0.  1.
         14    1    3    3    0    0  0.92503808643E+02  0.15506244165E+02 -0.15019499925E+03  0.17707607410E+03  0.00000000000E+00 0. -1.
         11    1    5    5    0    0 -0.43578535784E+02  0.56314994551E+02  0.15496292152E+02  0.72873880525E+02  0.00000000000E+00 0. -1.
        -12    1    5    5    0    0  0.29850214696E+02  0.49522149139E+01  0.62605344679E+00  0.30264693834E+02  0.00000000000E+00 0.  1.
          5    1    4    4  501    0 -0.22885197190E+01 -0.86651377748E+02 -0.27909981326E+02  0.91159958566E+02  0.41800000000E+01 0.  1.
         -5    1    4    4    0  501 -0.63443735057E+02  0.23644632515E+02 -0.16695537700E+02  0.69859784882E+02  0.41800000000E+01 0.  1.
</event>
<event>
11    1  0.8299058E-009  0.2016211E+03  0.7561462E-02  0.1053383E+00
         22   -1    0    0    0    0  0.00000000000E+00  0.00000000000E+00  0.18502101767E+04  0.18502101767E+04  0.00000000000E+00 0.  1.
         22   -1    0    0    0    0 -0.00000000000E+00 -0.00000000000E+00 -0.65010232148E+03  0.65010232148E+03  0.00000000000E+00 0.  1.
        -24    2    1    2    0    0  0.19971666638E+02  0.53326481823E+02 -0.60418677622E+03  0.61213103836E+03  0.80125941083E+02 0.  0.
         25    2    1    2    0    0  0.13456812461E+03 -0.38686789100E+01  0.19177004973E+03  0.26560635170E+03  0.12508970883E+03 0.  0.
         24    2    1    2    0    0 -0.15453979125E+03 -0.49457802913E+02  0.16125245817E+04  0.16225751081E+04  0.78650070044E+02 0.  0.
        -13    1    5    5    0    0 -0.15912980891E+03 -0.44217610825E+02  0.15974916275E+04  0.16060065359E+04  0.00000000000E+00 0.  1.
         14    1    5    5    0    0  0.45900176616E+01 -0.52401920880E+01  0.15032954143E+02  0.16568572223E+02  0.00000000000E+00 0. -1.
         13    1    3    3    0    0 -0.24668203920E+02  0.89317710090E+01 -0.80352093653E+02  0.84526657170E+02  0.00000000000E+00 0. -1.
        -14    1    3    3    0    0  0.44639870558E+02  0.44394710814E+02 -0.52383468257E+03  0.52760438119E+03  0.00000000000E+00 0.  1.
          5    1    4    4  501    0  0.15853150502E+03 -0.10049716634E+01  0.15775353435E+03  0.22368928909E+03  0.41800000000E+01 0.  1.
         -5    1    4    4    0  501 -0.23963380412E+02 -0.28637072465E+01  0.34016515375E+02  0.41917062614E+02  0.41800000000E+01 0.  1.
</event>
<event>
11    1  0.8299058E-009  0.1905338E+03  0.7561462E-02  0.1061427E+00
         22   -1    0    0    0    0  0.00000000000E+00  0.00000000000E+00  0.15682938275E+04  0.15682938275E+04  0.00000000000E+00 0.  1.
         22   -1    0    0    0    0 -0.00000000000E+00 -0.00000000000E+00 -0.36124447045E+03  0.36124447045E+03  0.00000000000E+00 0. -1.
        -24    2    1    2    0    0  0.42195778262E+02  0.28756056626E+02 -0.19467526919E+03  0.21708712017E+03  0.81369298978E+02 0.  0.
         25    2    1    2    0    0  0.14663389113E+02  0.10460422482E+03 -0.10638190561E+03  0.19524887754E+03  0.12509178834E+03 0.  0.
         24    2    1    2    0    0 -0.56859167376E+02 -0.13336028144E+03  0.15081065319E+04  0.15172023003E+04  0.80619965736E+02 0.  0.
        -11    1    5    5    0    0 -0.96790618812E+01 -0.89298287945E+02  0.11353129701E+04  0.11388605746E+04  0.00000000000E+00 0.  1.
         12    1    5    5    0    0 -0.47180105495E+02 -0.44061993498E+02  0.37279356180E+03  0.37834172562E+03  0.00000000000E+00 0. -1.
         13    1    3    3    0    0 -0.20108973983E+02  0.25001595584E+02 -0.85596529490E+02  0.91412343133E+02  0.00000000000E+00 0. -1.
        -14    1    3    3    0    0  0.62304752245E+02  0.37544610422E+01 -0.10907873970E+03  0.12567477704E+03  0.00000000000E+00 0.  1.
          5    1    4    4  501    0 -0.44555770196E+02  0.91697654886E+02 -0.76603030993E+02  0.12758986373E+03  0.41800000000E+01 0.  1.
         -5    1    4    4    0  501  0.59219159309E+02  0.12906569931E+02 -0.29778874614E+02  0.67659013812E+02  0.41800000000E+01 0.  1.
</event>
<event>
11    1  0.8299058E-009  0.3469484E+03  0.7561462E-02  0.9820721E-01
         22   -1    0    0    0    0  0.00000000000E+00  0.00000000000E+00  0.62980833685E+03  0.62980833685E+03  0.00000000000E+00 0. -1.
         22   -1    0    0    0    0 -0.00000000000E+00 -0.00000000000E+00 -0.14689795500E+04  0.14689795500E+04  0.00000000000E+00 0.  1.
        -24    2    1    2    0    0  0.85428729251E+02 -0.72977523167E+01 -0.96528703182E+03  0.97218699809E+03  0.77570487162E+02 0.  0.
         25    2    1    2    0    0 -0.32282222559E+03 -0.20378367302E+03 -0.36067511188E+03  0.53988324018E+03  0.12508158125E+03 0.  0.
         24    2    1    2    0    0  0.23739349634E+03  0.21108142534E+03  0.48679093054E+03  0.58671764859E+03  0.79756810848E+02 0.  0.
        -11    1    5    5    0    0  0.81164666878E+02  0.27348207170E+02  0.11118130360E+03  0.14034567986E+03  0.00000000000E+00 0.  1.
         12    1    5    5    0    0  0.15622882946E+03  0.18373321817E+03  0.37560962694E+03  0.44637196873E+03  0.00000000000E+00 0. -1.
         11    1    3    3    0    0 -0.82577665358E+01 -0.31328811971E+00 -0.31904493633E+03  0.31915193914E+03  0.00000000000E+00 0. -1.
        -12    1    3    3    0    0  0.93686495787E+02 -0.69844641970E+01 -0.64624209548E+03  0.65303505894E+03  0.00000000000E+00 0.  1.
          5    1    4    4  501    0 -0.27926108633E+03 -0.20150825064E+03 -0.35678837270E+03  0.49589085967E+03  0.41800000000E+01 0. -1.
         -5    1    4    4    0  501 -0.43561139265E+02 -0.22754223835E+01 -0.38867391819E+01  0.43992380505E+02  0.41800000000E+01 0. -1.
</event>
<event>
11    1  0.8299058E-009  0.1362779E+03  0.7561462E-02  0.1111787E+00
         22   -1    0    0    0    0  0.00000000000E+00  0.00000000000E+00  0.95322319884E+03  0.95322319884E+03  0.00000000000E+00 0.  1.
         22   -1    0    0    0    0 -0.00000000000E+00 -0.00000000000E+00 -0.14661753485E+03  0.14661753485E+03  0.00000000000E+00 0.  1.
        -24    2    1    2    0    0  0.42848606671E+02 -0.33732574298E+02 -0.11062415321E+03  0.14696629678E+03  0.79921833388E+02 0.  0.
         25    2    1    2    0    0 -0.45114081482E+02  0.17957414186E+02  0.28390248580E+03  0.31401459935E+03  0.12508716198E+03 0.  0.
         24    2    1    2    0    0  0.22654748109E+01  0.15775160112E+02  0.63332733140E+03  0.63885983756E+03  0.82367440737E+02 0.  0.
        -13    1    5    5    0    0  0.51535453225E+01 -0.33628301733E+02  0.28864861806E+03  0.29064660055E+03  0.00000000000E+00 0.  1.
         14    1    5    5    0    0 -0.28880705116E+01  0.49403461845E+02  0.34467871335E+03  0.34821323701E+03  0.00000000000E+00 0. -1.
         11    1    3    3    0    0 -0.91076709658E+01  0.16571971992E+02 -0.46933742127E+02  0.50599961226E+02  0.00000000000E+00 0. -1.
        -12    1    3    3    0    0  0.51956277637E+02 -0.50304546289E+02 -0.63690411085E+02  0.96366335551E+02  0.00000000000E+00 0.  1.
          5    1    4    4  501    0 -0.73790918227E+02 -0.25234632637E+02  0.20635137470E+03  0.22063600916E+03  0.41800000000E+01 0. -1.
         -5    1    4    4    0  501  0.28676836745E+02  0.43192046823E+02  0.77551111101E+02  0.93378590198E+02  0.41800000000E+01 0. -1.
</event>
<event>
11    1  0.8299058E-009  0.2099378E+03  0.7561462E-02  0.1047710E+00
         22   -1    0    0    0    0  0.00000000000E+00  0.00000000000E+00  0.40016789501E+04  0.40016789501E+04  0.00000000000E+00 0. -1.
         22   -1    0    0    0    0 -0.00000000000E+00 -0.00000000000E+00 -0.10132750829E+03  0.10132750829E+03  0.00000000000E+00 0.  1.
        -24    2    1    2    0    0 -0.15207694049E+03 -0.68854372999E+02  0.16299642819E+02  0.18659155398E+03  0.81746003888E+02 0.  0.
         25    2    1    2    0    0  0.16599031101E+03  0.72826354847E+02  0.75584984723E+03  0.78728195659E+03  0.12508967308E+03 0.  0.
         24    2    1    2    0    0 -0.13913370527E+02 -0.39719818480E+01  0.31282019518E+04  0.31291329478E+04  0.74941280811E+02 0.  0.
        -11    1    5    5    0    0  0.54100354699E+01 -0.26086483901E+02  0.46090806068E+03  0.46167739118E+03  0.00000000000E+00 0.  1.
         12    1    5    5    0    0 -0.19323405997E+02  0.22114502053E+02  0.26672938911E+04  0.26674555566E+04  0.00000000000E+00 0. -1.
         11    1    3    3    0    0 -0.64345874695E+02 -0.41803539977E+02  0.46766790123E+02  0.89861338757E+02  0.00000000000E+00 0. -1.
        -12    1    3    3    0    0 -0.87731065790E+02 -0.27050833022E+02 -0.30467147304E+02  0.96730215221E+02  0.00000000000E+00 0.  1.
          5    1    4    4  501    0  0.23758410578E+02 -0.24399603938E+02  0.49611858445E+02  0.60320905530E+02  0.41800000000E+01 0. -1.
         -5    1    4    4    0  501  0.14223190043E+03  0.97225958786E+02  0.70623798878E+03  0.72696105106E+03  0.41800000000E+01 0. -1.
</event>
<event>
11    1  0.8299058E-009  0.1348848E+03  0.7561462E-02  0.1113409E+00
         22   -1    0    0    0    0  0.00000000000E+00  0.00000000000E+00  0.38163778232E+03  0.38163778232E+03  0.00000000000E+00 0. -1.
         22   -1    0    0    0    0 -0.00000000000E+00 -0.00000000000E+00 -0.83674319259E+03  0.83674319259E+03  0.00000000000E+00 0. -1.
        -24    2    1    2    0    0 -0.11063323074E+02  0.49268905338E+02 -0.64593783638E+03  0.65285010841E+03  0.80173271347E+02 0.  0.
         25    2    1    2    0    0  0.33918710192E+02 -0.42973456029E+02 -0.15715787163E+03  0.20819598643E+03  0.12509906205E+03 0.  0.
         24    2    1    2    0    0 -0.22855387118E+02 -0.62954493095E+01  0.34799029774E+03  0.35733488007E+03  0.77646428060E+02 0.  0.
        -11    1    5    5    0    0 -0.34671440783E+01  0.66304258594E+01 -0.10165855860E+01  0.75509655933E+01  0.00000000000E+00 0.  1.
         12    1    5    5    0    0 -0.19388243039E+02 -0.12925875169E+02  0.34900688332E+03  0.34978391447E+03  0.00000000000E+00 0. -1.
         11    1    3    3    0    0 -0.45897632032E+02  0.29802323244E+02 -0.35713355957E+03  0.36130202112E+03  0.00000000000E+00 0. -1.
        -12    1    3    3    0    0  0.34834308958E+02  0.19466582094E+02 -0.28880427681E+03  0.29154808729E+03  0.00000000000E+00 0.  1.
          5    1    4    4  501    0 -0.74623316969E+01 -0.61700408957E+02 -0.14948228685E+03  0.16194151210E+03  0.41800000000E+01 0.  1.
         -5    1    4    4    0  501  0.41381041889E+02  0.18726952929E+02 -0.76755847810E+01  0.46254474330E+02  0.41800000000E+01 0.  1.
</event>
<event>
11    1  0.8299058E-009  0.1682439E+03  0.7561462E-02  0.1079570E+00
         22   -1    0    0    0    0  0.00000000000E+00  0.00000000000E+00  0.14400234987E+04  0.14400234987E+04  0.00000000000E+00 0. -1.
         22   -1    0    0    0    0 -0.00000000000E+00 -0.00000000000E+00 -0.32513410265E+03  0.32513410265E+03  0.00000000000E+00 0. -1.
        -24    2    1    2    0    0 -0.11085453222E+03 -0.29645456589E+02 -0.22919565025E+03  0.27009201007E+03  0.85155548288E+02 0.  0.
         25    2    1    2    0    0  0.96597058248E+02  0.36406518334E+02  0.14234980156E+02  0.16280862725E+03  0.12509032020E+03 0.  0.
         24    2    1    2    0    0  0.14257473970E+02 -0.67610617452E+01  0.13298500662E+04  0.13322569640E+04  0.78475679301E+02 0.  0.
        -13    1    5    5    0    0  0.85926254702E+01  0.16171868191E+02  0.75668816900E+02  0.77853274718E+02  0.00000000000E+00 0.  1.
         14    1    5    5    0    0  0.56648484999E+01 -0.22932929936E+02  0.12541812493E+04  0.12544036893E+04  0.00000000000E+00 0. -1.
         11    1    3    3    0    0 -0.72026881497E+02 -0.16023335965E+01 -0.20320551338E+03  0.21559897913E+03  0.00000000000E+00 0. -1.
        -12    1    3    3    0    0 -0.38827650721E+02 -0.28043122992E+02 -0.25990136864E+02  0.54493030948E+02  0.00000000000E+00 0.  1.
          5    1    4    4  501    0 -0.17904047383E+02 -0.94740951440E+01  0.32012505926E+02  0.38112810539E+02  0.41800000000E+01 0. -1.
         -5    1    4    4    0  501  0.11450110563E+03  0.45880613478E+02 -0.17777525770E+02  0.12469581672E+03  0.41800000000E+01 0. -1.
</event>
<event>
11    1  0.8299058E-009  0.1510572E+03  0.7561462E-02  0.1095803E+00
         22   -1    0    0    0    0  0.00000000000E+00  0.00000000000E+00  0.17793263925E+03  0.17793263925E+03  0.00000000000E+00 0.  1.
         22   -1    0    0    0    0 -0.00000000000E+00 -0.00000000000E+00 -0.72041384409E+03  0.72041384409E+03  0.00000000000E+00 0.  1.
        -24    2    1    2    0    0 -0.73919356417E+02  0.41311350167E+02 -0.38159985954E+03  0.39834238590E+03  0.76730076868E+02 0.  0.
         25    2    1    2    0    0  0.55717982754E+02 -0.69586367490E+02 -0.29899624229E+03  0.33614600321E+03  0.12509447002E+03 0.  0.
         24    2    1    2    0    0  0.18201373663E+02  0.28275017323E+02  0.13811489698E+03  0.16385809423E+03  0.81504500908E+02 0.  0.
        -11    1    5    5    0    0  0.42422403867E+02  0.21215530619E+02  0.12830077255E+03  0.13678759931E+03  0.00000000000E+00 0.  1.
         12    1    5    5    0    0 -0.24221030204E+02  0.70594867043E+01  0.98141244362E+01  0.27070494918E+02  0.00000000000E+00 0. -1.
         13    1    3    3    0    0 -0.46222394650E+02  0.16479551256E+02 -0.75862945161E+02  0.90350826367E+02  0.00000000000E+00 0. -1.
        -14    1    3    3    0    0 -0.27696961768E+02  0.24831798911E+02 -0.30573691438E+03  0.30799155953E+03  0.00000000000E+00 0.  1.
          5    1    4    4  501    0 -0.31867720360E+02  0.11498063233E+02 -0.63205988367E+02  0.71834716012E+02  0.41800000000E+01 0. -1.
         -5    1    4    4    0  501  0.87585703114E+02 -0.81084430723E+02 -0.23579025392E+03  0.26431128720E+03  0.41800000000E+01 0. -1.
</event>
<event>
11    1  0.8299058E-009  0.1386690E+03  0.7561462E-02  0.1109054E+00
         22   -1    0    0    0    0  0.00000000000E+00  0.00000000000E+00  0.13124980657E+03  0.13124980657E+03  0.00000000000E+00 0.  1.
         22   -1    0    0    0    0 -0.00000000000E+00 -0.00000000000E+00 -0.14278710618E+04  0.14278710618E+04  0.00000000000E+00 0.  1.
         24    2    1    2    0    0  0.55134894786E+02 -0.24220382600E+02 -0.12707172305E+04  0.12745823855E+04  0.78813032722E+02 0.  0.
         25    2    1    2    0    0 -0.57377130249E+02  0.12883332583E+01 -0.10164342339E+03  0.17109019684E+03  0.12508667019E+03 0.  0.
        -24    2    1    2    0    0  0.22422354627E+01  0.22932049342E+02  0.75739398566E+02  0.11344828605E+03  0.81259772374E+02 0.  0.
        -13    1    3    3    0    0  0.49348721675E+02  0.11733202484E+02 -0.10170970921E+04  0.10183611634E+04  0.00000000000E+00 0.  1.
         14    1    3    3    0    0  0.57861731114E+01 -0.35953585084E+02 -0.25362013841E+03  0.25622122216E+03  0.00000000000E+00 0. -1.
         13    1    5    5    0    0  0.18453331144E+02 -0.19598832668E+02  0.22598732306E+01  0.27013824226E+02  0.00000000000E+00 0. -1.
        -14    1    5    5    0    0 -0.16211095682E+02  0.42530882010E+02  0.73479525335E+02  0.86434461827E+02  0.00000000000E+00 0.  1.
          5    1    4    4  501    0  0.39676244704E+02  0.24993211597E+01 -0.23160908098E+02  0.46199037479E+02  0.41800000000E+01 0. -1.
         -5    1    4    4    0  501 -0.97053374953E+02 -0.12109879014E+01 -0.78482515290E+02  0.12489115937E+03  0.41800000000E+01 0. -1.
</event>
<event>
11    1  0.8299058E-009  0.3033227E+03  0.7561462E-02  0.9987947E-01
         22   -1    0    0    0    0  0.00000000000E+00  0.00000000000E+00  0.12305001350E+04  0.12305001350E+04  0.00000000000E+00 0. -1.
         22   -1    0    0    0    0 -0.00000000000E+00 -0.00000000000E+00 -0.13057307121E+03  0.13057307121E+03  0.00000000000E+00 0.  1.
         24    2    1    2    0    0 -0.97988943620E-01 -0.15163690924E+02  0.42258597719E+02  0.91270954710E+02  0.79464778162E+02 0.  0.
         25    2    1    2    0    0  0.13731728951E+03 -0.22806819256E+03  0.18041314813E+03  0.34506161564E+03  0.12508987214E+03 0.  0.
        -24    2    1    2    0    0 -0.13721930057E+03  0.24323188349E+03  0.87725531796E+03  0.92474063588E+03  0.87048636781E+02 0.  0.
        -13    1    3    3    0    0 -0.38875576697E+02 -0.61062620053E+01  0.11635396626E+02  0.41036317499E+02  0.00000000000E+00 0.  1.
         14    1    3    3    0    0  0.38777587754E+02 -0.90574289183E+01  0.30623201093E+02  0.50234637211E+02  0.00000000000E+00 0. -1.
         13    1    5    5    0    0 -0.14549331179E+03  0.22165914942E+03  0.84047294168E+03  0.88130349369E+03  0.00000000000E+00 0. -1.
        -14    1    5    5    0    0  0.82740112189E+01  0.21572734064E+02  0.36782376282E+02  0.43437142189E+02  0.00000000000E+00 0.  1.
          5    1    4    4  501    0  0.11258921613E+03 -0.74514941904E+02  0.57617594407E+02  0.14685389930E+03  0.41800000000E+01 0. -1.
         -5    1    4    4    0  501  0.24728073385E+02 -0.15355325066E+03  0.12279555372E+03  0.19820771634E+03  0.41800000000E+01 0. -1.
</event>
<event>
11    1  0.8299058E-009  0.1583029E+03  0.7561462E-02  0.1088684E+00
         22   -1    0    0    0    0  0.00000000000E+00  0.00000000000E+00  0.29416228396E+03  0.29416228396E+03  0.00000000000E+00 0.  1.
         22   -1    0    0    0    0 -0.00000000000E+00 -0.00000000000E+00 -0.10010262539E+04  0.10010262539E+04  0.00000000000E+00 0. -1.
         24    2    1    2    0    0 -0.65816543984E+02  0.68658153075E+02 -0.89144682094E+03  0.90001855030E+03  0.79436747700E+02 0.  0.
         25    2    1    2    0    0  0.14220514767E+03 -0.69105829772E+02  0.28239054763E+02  0.20357122772E+03  0.12508349535E+03 0.  0.
        -24    2    1    2    0    0 -0.76388603681E+02  0.44767669741E+00  0.15634379626E+03  0.19159875981E+03  0.80195280079E+02 0.  0.
        -13    1    3    3    0    0 -0.42862273848E+02  0.53702314581E+02 -0.29314727877E+03  0.30109207921E+03  0.00000000000E+00 0.  1.
         14    1    3    3    0    0 -0.22954270136E+02  0.14955838493E+02 -0.59829954216E+03  0.59892647109E+03  0.00000000000E+00 0. -1.
         11    1    5    5    0    0 -0.35165236114E+02 -0.31538035324E+02  0.32853007182E+02  0.57537479819E+02  0.00000000000E+00 0. -1.
        -12    1    5    5    0    0 -0.41223367568E+02  0.31985712022E+02  0.12349078907E+03  0.13406127999E+03  0.00000000000E+00 0.  1.
          5    1    4    4  501    0  0.16063651595E+03 -0.38734878196E+02  0.28862681486E+02  0.16779454052E+03  0.41800000000E+01 0. -1.
         -5    1    4    4    0  501 -0.18431368287E+02 -0.30370951576E+02 -0.62362672254E+00  0.35776687198E+02  0.41800000000E+01 0. -1.
</event>
<event>
11    1  0.8299058E-009  0.1643620E+03  0.7561462E-02  0.1083045E+00
         22   -1    0    0    0    0  0.00000000000E+00  0.00000000000E+00  0.20359833002E+04  0.20359833002E+04  0.00000000000E+00 0. -1.
         22   -1    0    0    0    0 -0.00000000000E+00 -0.00000000000E+00 -0.67279836707E+02  0.67279836707E+02  0.00000000000E+00 0. -1.
        -24    2    1    2    0    0 -0.51442024229E+02  0.18272904462E+02  0.39428121821E+02  0.10624818553E+03  0.82182231926E+02 0.  0.
         25    2    1    2    0    0  0.98991340890E+02 -0.11030543380E+03  0.26883605149E+03  0.33149211018E+03  0.12509045620E+03 0.  0.
         24    2    1    2    0    0 -0.47549316661E+02  0.92032529335E+02  0.16604392902E+04  0.16655228412E+04  0.78592456380E+02 0.  0.
        -13    1    5    5    0    0 -0.56485399853E+02  0.24733549840E+02  0.86177500382E+03  0.86397830186E+03  0.00000000000E+00 0.  1.
         14    1    5    5    0    0  0.89360831922E+01  0.67298979496E+02  0.79866428634E+03  0.80154453931E+03  0.00000000000E+00 0. -1.
         11    1    3    3    0    0 -0.28306996444E+02  0.11539906010E+02 -0.23698716963E+02  0.38679253665E+02  0.00000000000E+00 0. -1.
        -12    1    3    3    0    0 -0.23135027785E+02  0.67329984522E+01  0.63126838784E+02  0.67568931867E+02  0.00000000000E+00 0.  1.
          5    1    4    4  501    0  0.49414597432E+02 -0.12942008841E+03  0.21449527007E+03  0.25537630079E+03  0.41800000000E+01 0. -1.
         -5    1    4    4    0  501  0.49576743458E+02  0.19114654616E+02  0.54340781423E+02  0.76115809387E+02  0.41800000000E+01 0. -1.
</event>
<event>
11    1  0.8299058E-009  0.1347217E+03  0.7561462E-02  0.1113600E+00
         22   -1    0    0    0    0  0.00000000000E+00  0.00000000000E+00  0.79171716155E+03  0.79171716155E+03  0.00000000000E+00 0.  1.
         22   -1    0    0    0    0 -0.00000000000E+00 -0.00000000000E+00 -0.10306676905E+03  0.10306676905E+03  0.00000000000E+00 0.  1.
        -24    2    1    2    0    0 -0.23570111677E+02 -0.45150670848E+02 -0.56973645466E+02  0.11431330638E+03  0.85014131152E+02 0.  0.
         25    2    1    2    0    0  0.54107514955E+02  0.10729799852E+02  0.43878511116E+03  0.45959050713E+03  0.12509320001E+03 0.  0.
         24    2    1    2    0    0 -0.30537403278E+02  0.34420870996E+02  0.30683892681E+03  0.32088011709E+03  0.81832714594E+02 0.  0.
        -13    1    5    5    0    0  0.23177609932E+02  0.14448489416E+02  0.17508345733E+03  0.17720095225E+03  0.00000000000E+00 0.  1.
         14    1    5    5    0    0 -0.53715013210E+02  0.19972381580E+02  0.13175546948E+03  0.14367916484E+03  0.00000000000E+00 0. -1.
         13    1    3    3    0    0  0.18857831302E+01 -0.25238376345E+02  0.19068519104E+02  0.31688171916E+02  0.00000000000E+00 0. -1.
        -14    1    3    3    0    0 -0.25455894807E+02 -0.19912294503E+02 -0.76042164570E+02  0.82625134464E+02  0.00000000000E+00 0.  1.
          5    1    4    4  501    0 -0.28603986872E+02  0.81990041930E+01  0.26893773242E+03  0.27061113808E+03  0.41800000000E+01 0.  1.
         -5    1    4    4    0  501  0.82711501827E+02  0.25307956590E+01  0.16984737874E+03  0.18897936905E+03  0.41800000000E+01 0.  1.
</event>
<event>
11    1  0.8299058E-009  0.1473682E+03  0.7561462E-02  0.1099599E+00
         22   -1    0    0    0    0  0.00000000000E+00  0.00000000000E+00  0.65932158594E+03  0.65932158594E+03  0.00000000000E+00 0. -1.
         22   -1    0    0    0    0 -0.00000000000E+00 -0.00000000000E+00 -0.10497603308E+04  0.10497603308E+04  0.00000000000E+00 0. -1.
        -24    2    1    2    0    0 -0.33302303623E+02  0.11272173679E+02 -0.79551155420E+03  0.80041562144E+03  0.81181456305E+02 0.  0.
         25    2    1    2    0    0 -0.32251714937E+02  0.31794312218E+02 -0.23004058569E+03  0.26573966174E+03  0.12509134802E+03 0.  0.
         24    2    1    2    0    0  0.65554018560E+02 -0.43066485897E+02  0.63511339499E+03  0.64292663361E+03  0.61915911996E+02 0.  0.
        -11    1    5    5    0    0  0.19280083086E+02  0.15124588876E+02  0.20165864322E+03  0.20314202711E+03  0.00000000000E+00 0.  1.
         12    1    5    5    0    0  0.46273935474E+02 -0.58191074773E+02  0.43345475177E+03  0.43978460651E+03  0.00000000000E+00 0. -1.
         11    1    3    3    0    0 -0.19153200152E+02  0.13535604965E+01 -0.76583056441E+03  0.76607123076E+03  0.00000000000E+00 0. -1.
        -12    1    3    3    0    0 -0.14149103471E+02  0.99186131824E+01 -0.29680989785E+02  0.34344390679E+02  0.00000000000E+00 0.  1.
          5    1    4    4  501    0 -0.23654061751E+02 -0.44215507411E+02 -0.13235295212E+03  0.14159555808E+03  0.41800000000E+01 0. -1.
         -5    1    4    4    0  501 -0.85976531864E+01  0.76009819629E+02 -0.97687633572E+02  0.12414410366E+03  0.41800000000E+01 0. -1.
</event>
<event>
11    1  0.8299058E-009  0.1288481E+03  0.7561462E-02  0.1120692E+00
         22   -1    0    0    0    0  0.00000000000E+00  0.00000000000E+00  0.50626640306E+03  0.50626640306E+03  0.00000000000E+00 0.  1.
         22   -1    0    0    0    0 -0.00000000000E+00 -0.00000000000E+00 -0.55444249296E+03  0.55444249296E+03  0.00000000000E+00 0. -1.
         24    2    1    2    0    0 -0.40970215868E+01  0.46320186405E+01 -0.47526922721E+03  0.48258183815E+03  0.83463471066E+02 0.  0.
         25    2    1    2    0    0  0.15708225251E+01  0.26449410848E+02 -0.14009717749E+02  0.12862644010E+03  0.12508577091E+03 0.  0.
        -24    2    1    2    0    0  0.25261990617E+01 -0.31081429489E+02  0.44110285506E+03  0.44950061776E+03  0.80663744569E+02 0.  0.
        -11    1    3    3    0    0 -0.61258722872E+01 -0.13616090608E+02 -0.12567009538E+02  0.19515480098E+02  0.00000000000E+00 0.  1.
         12    1    3    3    0    0  0.20288507004E+01  0.18248109249E+02 -0.46270221767E+03  0.46306635806E+03  0.00000000000E+00 0. -1.
         13    1    5    5    0    0 -0.11847373495E+02 -0.23376451244E+02  0.38532899696E+02  0.46600462342E+02  0.00000000000E+00 0. -1.
        -14    1    5    5    0    0  0.14373572557E+02 -0.77049782447E+01  0.40256995536E+03  0.40290015542E+03  0.00000000000E+00 0.  1.
          5    1    4    4  501    0  0.10665047990E+02  0.68645741428E+02  0.21214469904E+02  0.72756492481E+02  0.41800000000E+01 0. -1.
         -5    1    4    4    0  501 -0.90942254650E+01 -0.42196330580E+02 -0.35224187653E+02  0.55869947620E+02  0.41800000000E+01 0. -1.
</event>
<event>
11    1  0.8299058E-009  0.1299086E+03  0.7561462E-02  0.1119381E+00
         22   -1    0    0    0    0  0.00000000000E+00  0.00000000000E+00  0.19657457921E+03  0.19657457921E+03  0.00000000000E+00 0. -1.
         22   -1    0    0    0    0 -0.00000000000E+00 -0.00000000000E+00 -0.12625282826E+04  0.12625282826E+04  0.00000000000E+00 0. -1.
         24    2    1    2    0    0 -0.26897799220E+02 -0.31615779666E+02 -0.10191454844E+04  0.10258301187E+04  0.10930171518E+03 0.  0.
         25    2    1    2    0    0  0.22205074433E+02 -0.22252600426E+02 -0.20834808838E+03  0.24504027168E+03  0.12509022848E+03 0.  0.
        -24    2    1    2    0    0  0.46927247868E+01  0.53868380092E+02  0.16153986940E+03  0.18823247142E+03  0.80078148391E+02 0.  0.
        -11    1    3    3    0    0 -0.53954086448E+02  0.67556628306E+01 -0.28222362695E+03  0.28741408810E+03  0.00000000000E+00 0.  1.
         12    1    3    3    0    0  0.27056287229E+02 -0.38371442497E+02 -0.73692185743E+03  0.73841603059E+03  0.00000000000E+00 0. -1.
         13    1    5    5    0    0 -0.12479914715E+02  0.61285800257E+02  0.15697727366E+03  0.16897799273E+03  0.00000000000E+00 0. -1.
        -14    1    5    5    0    0  0.17172639502E+02 -0.74174201643E+01  0.45625957460E+01  0.19254478682E+02  0.00000000000E+00 0.  1.
          5    1    4    4  501    0 -0.72981299436E+01 -0.63562577569E+02 -0.16876016114E+03  0.18052957751E+03  0.41800000000E+01 0. -1.
         -5    1    4    4    0  501  0.29503204376E+02  0.41309977143E+02 -0.39587927240E+02  0.64510694177E+02  0.41800000000E+01 0. -1.
</event>
<event>
11    1  0.8299058E-009  0.1800457E+03  0.7561462E-02  0.1069606E+00
         22   -1    0    0    0    0  0.00000000000E+00  0.00000000000E+00  0.12880294263E+04  0.12880294263E+04  0.00000000000E+00 0. -1.
         22   -1    0    0    0    0 -0.00000000000E+00 -0.00000000000E+00 -0.15578061155E+04  0.15578061155E+04  0.00000000000E+00 0.  1.
        -24    2    1    2    0    0 -0.10651646820E+03  0.69151046723E+02 -0.14180203723E+04  0.14261100082E+04  0.82947899757E+02 0.  0.
         25    2    1    2    0    0  0.14893561885E+03 -0.11882352363E+03 -0.36601655120E+02  0.23083876658E+03  0.12508399845E+03 0.  0.
         24    2    1    2    0    0 -0.42419150652E+02  0.49672476907E+02  0.11848453382E+04  0.11888867670E+04  0.72983080352E+02 0.  0.
        -13    1    5    5    0    0 -0.24757375935E+02 -0.12089568972E+02  0.57679184097E+03  0.57744948970E+03  0.00000000000E+00 0.  1.
         14    1    5    5    0    0 -0.17661774717E+02  0.61762045879E+02  0.60805349720E+03  0.61143727728E+03  0.00000000000E+00 0. -1.
         13    1    3    3    0    0 -0.14756633438E+02  0.31120120882E+02 -0.13768275726E+03  0.14192519790E+03  0.00000000000E+00 0. -1.
        -14    1    3    3    0    0 -0.91759834765E+02  0.38030925841E+02 -0.12803376150E+04  0.12841848103E+04  0.00000000000E+00 0.  1.
          5    1    4    4  501    0  0.55121106296E+02 -0.41007110449E+02 -0.76132428168E+02  0.10263302824E+03  0.41800000000E+01 0. -1.
         -5    1    4    4    0  501  0.93814512559E+02 -0.77816413181E+02  0.39530773048E+02  0.12820573835E+03  0.41800000000E+01 0. -1.
</event>
<event>
11    1  0.8299058E-009  0.1351890E+03  0.7561462E-02  0.1113053E+00
         22   -1    0    0    0    0  0.00000000000E+00  0.00000000000E+00  0.16640523380E+04  0.16640523380E+04  0.00000000000E+00 0.  1.
         22   -1    0    0    0    0 -0.00000000000E+00 -0.00000000000E+00 -0.42926152465E+02  0.42926152465E+02  0.00000000000E+00 0.  1.
        -24    2    1    2    0    0 -0.49163939793E+02 -0.12642635775E+02  0.55591407555E+02  0.10904554335E+03  0.78889775739E+02 0.  0.
         25    2    1    2    0    0 -0.32897902322E+01  0.32241963562E+02  0.27724476236E+03  0.30587962118E+03  0.12508923799E+03 0.  0.
         24    2    1    2    0    0  0.52453730025E+02 -0.19599327787E+02  0.12882900157E+04  0.12920533260E+04  0.81087022815E+02 0.  0.
        -13    1    5    5    0    0  0.44615157956E+02 -0.41450615394E+02  0.11653849739E+04  0.11669750654E+04  0.00000000000E+00 0.  1.
         14    1    5    5    0    0  0.78385720693E+01  0.21851287606E+02  0.12290504172E+03  0.12507826055E+03  0.00000000000E+00 0. -1.
         13    1    3    3    0    0 -0.52460887269E+02  0.10615382499E+02  0.64594779640E+02  0.83888715542E+02  0.00000000000E+00 0. -1.
        -14    1    3    3    0    0  0.32969474763E+01 -0.23258018274E+02 -0.90033720843E+01  0.25156827812E+02  0.00000000000E+00 0.  1.
          5    1    4    4  501    0 -0.10379311756E+02  0.56593301178E+00  0.27259277694E+03  0.27282291845E+03  0.41800000000E+01 0. -1.
         -5    1    4    4    0  501  0.70895215236E+01  0.31676030551E+02  0.46519854236E+01  0.33056702728E+02  0.41800000000E+01 0. -1.
</event>
<event>
11    1  0.8299058E-009  0.1332960E+03  0.7561462E-02  0.1115284E+00
         22   -1    0    0    0    0  0.00000000000E+00  0.00000000000E+00  0.32444929989E+03  0.32444929989E+03  0.00000000000E+00 0.  1.
         22   -1    0    0    0    0 -0.00000000000E+00 -0.00000000000E+00 -0.18343971849E+04  0.18343971849E+04  0.00000000000E+00 0.  1.
         24    2    1    2    0    0  0.18847069994E+02  0.15976172372E+02 -0.17746296769E+04  0.17766439848E+04  0.80888246909E+02 0.  0.
         25    2    1    2    0    0 -0.56069424378E+02 -0.36083386783E+02  0.51400944837E+02  0.15078335473E+03  0.12509105397E+03 0.  0.
        -24    2    1    2    0    0  0.37222354385E+02  0.20107214411E+02  0.21328084700E+03  0.23141914530E+03  0.79223086121E+02 0.  0.
        -13    1    3    3    0    0  0.76292635623E+00  0.57294351321E+01 -0.16678551719E+04  0.16678651872E+04  0.00000000000E+00 0.  1.
         14    1    3    3    0    0  0.18084143637E+02  0.10246737240E+02 -0.10677450502E+03  0.10877879755E+03  0.00000000000E+00 0. -1.
         11    1    5    5    0    0 -0.19380493215E+02  0.23039149389E+02  0.47702212470E+02  0.56408394733E+02  0.00000000000E+00 0. -1.
        -12    1    5    5    0    0  0.56602847600E+02 -0.29319349778E+01  0.16557863453E+03  0.17501075056E+03  0.00000000000E+00 0.  1.
          5    1    4    4  501    0 -0.28140835260E+02 -0.29591253550E+02 -0.38530272063E+02  0.56299228778E+02  0.41800000000E+01 0.  1.
         -5    1    4    4    0  501 -0.27928589119E+02 -0.64921332330E+01  0.89931216900E+02  0.94484125954E+02  0.41800000000E+01 0.  1.
</event>
<event>
11    1  0.8299058E-009  0.1368598E+03  0.7561462E-02  0.1111116E+00
         22   -1    0    0    0    0  0.00000000000E+00  0.00000000000E+00  0.19653112160E+04  0.19653112160E+04  0.00000000000E+00 0. -1.
         22   -1    0    0    0    0 -0.00000000000E+00 -0.00000000000E+00 -0.82113650984E+02  0.82113650984E+02  0.00000000000E+00 0. -1.
        -24    2    1    2    0    0  0.16518514285E+02 -0.13973086280E+02 -0.48221888697E+02  0.96230164292E+02  0.80416326176E+02 0.  0.
         25    2    1    2    0    0  0.95186166264E+01 -0.38861593918E+02  0.51843276623E+03  0.53481042975E+03  0.12509530419E+03 0.  0.
         24    2    1    2    0    0 -0.26037130912E+02  0.52834680198E+02  0.14129866875E+04  0.14163842729E+04  0.78381081877E+02 0.  0.
        -11    1    5    5    0    0 -0.20146888337E+01  0.27848136923E+02  0.13162050535E+03  0.13454937804E+03  0.00000000000E+00 0.  1.
         12    1    5    5    0    0 -0.24022442078E+02  0.24986543275E+02  0.12813661821E+04  0.12818348949E+04  0.00000000000E+00 0. -1.
         11    1    3    3    0    0 -0.30759104156E+02 -0.10804420633E+02 -0.33179797274E+02  0.46516200843E+02  0.00000000000E+00 0. -1.
        -12    1    3    3    0    0  0.47277618441E+02 -0.31686656465E+01 -0.15042091423E+02  0.49713963449E+02  0.00000000000E+00 0.  1.
          5    1    4    4  501    0 -0.22748054462E+02 -0.74493063632E+02  0.24388400756E+03  0.25605384601E+03  0.41800000000E+01 0. -1.
         -5    1    4    4    0  501  0.32266671089E+02  0.35631469714E+02  0.27454875866E+03  0.27875658375E+03  0.41800000000E+01 0. -1.
</event>
<event>
11    1  0.8299058E-009  0.1528518E+03  0.7561462E-02  0.1094000E+00
         22   -1    0    0    0    0  0.00000000000E+00  0.00000000000E+00  0.15397291165E+03  0.15397291165E+03  0.00000000000E+00 0. -1.
         22   -1    0    0    0    0 -0.00000000000E+00 -0.00000000000E+00 -0.11047051262E+04  0.11047051262E+04  0.00000000000E+00 0.  1.
         24    2    1    2    0    0 -0.85061453571E+02 -0.14492490856E+02 -0.92248881256E+03  0.92982029204E+03  0.78324217249E+02 0.  0.
         25    2    1    2    0    0  0.10424460861E+03  0.15207315192E+02 -0.12125860027E+03  0.20359032861E+03  0.12508866016E+03 0.  0.
        -24    2    1    2    0    0 -0.19183155040E+02 -0.71482433609E+00  0.93015198327E+02  0.12526741716E+03  0.81679827811E+02 0.  0.
        -13    1    3    3    0    0 -0.34209098151E+02 -0.73463023169E+01 -0.72240227479E+03  0.72324911142E+03  0.00000000000E+00 0.  1.
         14    1    3    3    0    0 -0.50852355420E+02 -0.71461885388E+01 -0.20008653777E+03  0.20657118062E+03  0.00000000000E+00 0. -1.
         11    1    5    5    0    0  0.86932509095E+01 -0.33420418469E+02  0.66054333345E+02  0.74536379947E+02  0.00000000000E+00 0. -1.
        -12    1    5    5    0    0 -0.27876405950E+02  0.32705594133E+02  0.26960864983E+02  0.50731037214E+02  0.00000000000E+00 0.  1.
          5    1    4    4  501    0  0.86751189368E+02 -0.17238664115E+02 -0.13430275482E+02  0.89558835950E+02  0.41800000000E+01 0. -1.
         -5    1    4    4    0  501  0.17493419243E+02  0.32445979307E+02 -0.10782832479E+03  0.11403149266E+03  0.41800000000E+01 0. -1.
</event>
<event>
11    1  0.8299058E-009  0.1309357E+03  0.7561462E-02  0.1118125E+00
         22   -1    0    0    0    0  0.00000000000E+00  0.00000000000E+00  0.21119917462E+03  0.21119917462E+03  0.00000000000E+00 0. -1.
         22   -1    0    0    0    0 -0.00000000000E+00 -0.00000000000E+00 -0.72939380346E+03  0.72939380346E+03  0.00000000000E+00 0.  1.
         24    2    1    2    0    0  0.53741014830E+01  0.54399534798E+01 -0.45649003838E+03  0.46348748506E+03  0.79868764875E+02 0.  0.
         25    2    1    2    0    0  0.99821170096E+01  0.30385227016E+02 -0.24269653931E+03  0.27490210931E+03  0.12508658932E+03 0.  0.
        -24    2    1    2    0    0 -0.15356218493E+02 -0.35825180496E+02  0.18099194884E+03  0.20220338371E+03  0.81294931171E+02 0.  0.
        -13    1    3    3    0    0  0.45049420951E+01  0.40992280090E+02 -0.31058684208E+03  0.31331270004E+03  0.00000000000E+00 0.  1.
         14    1    3    3    0    0  0.86915938787E+00 -0.35552326610E+02 -0.14590319630E+03  0.15017478502E+03  0.00000000000E+00 0. -1.
         13    1    5    5    0    0 -0.57554745242E+01 -0.29160907640E+02  0.18680188365E+03  0.18915186427E+03  0.00000000000E+00 0. -1.
        -14    1    5    5    0    0 -0.96007439684E+01 -0.66642728552E+01 -0.58099348023E+01  0.13051519446E+02  0.00000000000E+00 0.  1.
          5    1    4    4  501    0  0.19291206971E+02 -0.21953261505E+02 -0.21060922216E+03  0.21266831737E+03  0.41800000000E+01 0.  1.
         -5    1    4    4    0  501 -0.93090899618E+01  0.52338488521E+02 -0.32087317153E+02  0.62233791935E+02  0.41800000000E+01 0.  1.
</event>
<event>
11    1  0.8299058E-009  0.1390608E+03  0.7561462E-02  0.1108612E+00
         22   -1    0    0    0    0  0.00000000000E+00  0.00000000000E+00  0.40476588469E+03  0.40476588469E+03  0.00000000000E+00 0.  1.
         22   -1    0    0    0    0 -0.00000000000E+00 -0.00000000000E+00 -0.45060381555E+03  0.45060381555E+03  0.00000000000E+00 0.  1.
         24    2    1    2    0    0  0.24522228630E+02 -0.15788294572E+02 -0.31399941057E+03  0.32656285182E+03  0.84835466685E+02 0.  0.
         25    2    1    2    0    0  0.99989679290E+00 -0.40992645550E+02 -0.86847491306E+02  0.15770566688E+03  0.12508874385E+03 0.  0.
        -24    2    1    2    0    0 -0.25522125423E+02  0.56780940122E+02  0.35500897101E+03  0.37110118154E+03  0.88370036756E+02 0.  0.
        -13    1    3    3    0    0  0.24624212784E+02  0.17786836658E+02 -0.26744274867E+03  0.26916230648E+03  0.00000000000E+00 0.  1.
         14    1    3    3    0    0 -0.10198415336E+00 -0.33575131231E+02 -0.46556661897E+02  0.57400545337E+02  0.00000000000E+00 0. -1.
         13    1    5    5    0    0 -0.60666874506E+01 -0.24075284592E+02  0.88654554761E+02  0.92065488130E+02  0.00000000000E+00 0. -1.
        -14    1    5    5    0    0 -0.19455437973E+02  0.80856224715E+02  0.26635441625E+03  0.27903569341E+03  0.00000000000E+00 0.  1.
          5    1    4    4  501    0 -0.31999266418E+02 -0.62701392212E+02 -0.10032346819E+02  0.71228772412E+02  0.41800000000E+01 0.  1.
         -5    1    4    4    0  501  0.32999163211E+02  0.21708746662E+02 -0.76815144486E+02  0.86476894467E+02  0.41800000000E+01 0.  1.
</event>
<event>
11    1  0.8299058E-009  0.1536310E+03  0.7561462E-02  0.1093225E+00
         22   -1    0    0    0    0  0.00000000000E+00  0.00000000000E+00  0.27205484952E+03  0.27205484952E+03  0.00000000000E+00 0.  1.
         22   -1    0    0    0    0 -0.00000000000E+00 -0.00000000000E+00 -0.91349692806E+03  0.91349692806E+03  0.00000000000E+00 0.  1.
         24    2    1    2    0    0  0.31482953630E+02 -0.74293707056E+02 -0.39185904681E+03  0.40808774644E+03  0.80444794407E+02 0.  0.
         25    2    1    2    0    0  0.50783550728E+02  0.36159072810E+02 -0.49088960011E+03  0.51039929191E+03  0.12509352544E+03 0.  0.
        -24    2    1    2    0    0 -0.82266504357E+02  0.38134634246E+02  0.24130656839E+03  0.26706473924E+03  0.69804634016E+02 0.  0.
        -13    1    3    3    0    0  0.34559416664E+02 -0.25804823595E+02 -0.30930234362E+03  0.31229502393E+03  0.00000000000E+00 0.  1.
         14    1    3    3    0    0 -0.30764630346E+01 -0.48488883460E+02 -0.82556703190E+02  0.95792722509E+02  0.00000000000E+00 0. -1.
         11    1    5    5    0    0 -0.32661630116E+02  0.49942014857E+02  0.95623644054E+02  0.11271587391E+03  0.00000000000E+00 0. -1.
        -12    1    5    5    0    0 -0.49604874242E+02 -0.11807380611E+02  0.14568292433E+03  0.15434886533E+03  0.00000000000E+00 0.  1.
          5    1    4    4  501    0 -0.15661653700E+02 -0.21138583551E+00 -0.35006781270E+03  0.35044297392E+03  0.41800000000E+01 0.  1.
         -5    1    4    4    0  501  0.66445204427E+02  0.36370458645E+02 -0.14082178741E+03  0.15995631799E+03  0.41800000000E+01 0.  1.
</event>
<event>
11    1  0.8299058E-009  0.2372960E+03  0.7561462E-02  0.1030893E+00
         22   -1    0    0    0    0  0.00000000000E+00  0.00000000000E+00  0.37946476119E+03  0.37946476119E+03  0.00000000000E+00 0. -1.
         22   -1    0    0    0    0 -0.00000000000E+00 -0.00000000000E+00 -0.19557539867E+04  0.19557539867E+04  0.00000000000E+00 0. -1.
         24    2    1    2    0    0  0.27097979458E+02  0.34359505134E+02 -0.17029195520E+04  0.17054263657E+04  0.81419974861E+02 0.  0.
         25    2    1    2    0    0  0.70761894053E+02  0.14936766035E+03 -0.16322078006E+03  0.26382665328E+03  0.12508211836E+03 0.  0.
        -24    2    1    2    0    0 -0.97859873511E+02 -0.18372716548E+03  0.28985110655E+03  0.36596572886E+03  0.81148164231E+02 0.  0.
        -11    1    3    3    0    0  0.80070774025E+01 -0.23501669452E+02 -0.25001033134E+03  0.25124013918E+03  0.00000000000E+00 0.  1.
         12    1    3    3    0    0  0.19090902055E+02  0.57861174586E+02 -0.14529092206E+04  0.14541862265E+04  0.00000000000E+00 0. -1.
         11    1    5    5    0    0 -0.38428422332E+02 -0.71533039791E+02  0.18231865930E+03  0.19958409995E+03  0.00000000000E+00 0. -1.
        -12    1    5    5    0    0 -0.59431451179E+02 -0.11219412569E+03  0.10753244724E+03  0.16638162891E+03  0.00000000000E+00 0.  1.
          5    1    4    4  501    0  0.32805863600E+02  0.14110539636E+03 -0.17082805995E+03  0.22402378453E+03  0.41800000000E+01 0. -1.
         -5    1    4    4    0  501  0.37956030453E+02  0.82622639879E+01  0.76072798925E+01  0.39802868757E+02  0.41800000000E+01 0. -1.
</event>
<event>
11    1  0.8299058E-009  0.1321516E+03  0.7561462E-02  0.1116653E+00
         22   -1    0    0    0    0  0.00000000000E+00  0.00000000000E+00  0.16302088121E+03  0.16302088121E+03  0.00000000000E+00 0. -1.
         22   -1    0    0    0    0 -0.00000000000E+00 -0.00000000000E+00 -0.58036040079E+03  0.58036040079E+03  0.00000000000E+00 0.  1.
        -24    2    1    2    0    0  0.92076148860E+01  0.48188125665E+02 -0.34612182195E+03  0.35888969091E+03  0.81207259427E+02 0.  0.
         25    2    1    2    0    0  0.65805370835E+01 -0.24768508964E+02 -0.19574248071E+03  0.23370868977E+03  0.12509136828E+03 0.  0.
         24    2    1    2    0    0 -0.15788151970E+02 -0.23419616701E+02  0.12452478307E+03  0.15078290132E+03  0.80195495773E+02 0.  0.
        -13    1    5    5    0    0  0.32333346856E+02 -0.73014025943E+01  0.61514507757E+02  0.69876966615E+02  0.00000000000E+00 0.  1.
         14    1    5    5    0    0 -0.48121498825E+02 -0.16118214107E+02  0.63010275311E+02  0.80905934701E+02  0.00000000000E+00 0. -1.
         11    1    3    3    0    0  0.14505974031E+02 -0.11823113810E+02 -0.20563254377E+02  0.27803897808E+02  0.00000000000E+00 0. -1.
        -12    1    3    3    0    0 -0.52983591450E+01  0.60011239475E+02 -0.32555856757E+03  0.33108579310E+03  0.00000000000E+00 0.  1.
          5    1    4    4  501    0  0.54411288664E+02 -0.15713420432E+02 -0.16840286164E+03  0.17772027494E+03  0.41800000000E+01 0. -1.
         -5    1    4    4    0  501 -0.47830751580E+02 -0.90550885321E+01 -0.27339619066E+02  0.55988414835E+02  0.41800000000E+01 0. -1.
</event>
<event>
11    1  0.8299058E-009  0.1299143E+03  0.7561462E-02  0.1119374E+00
         22   -1    0    0    0    0  0.00000000000E+00  0.00000000000E+00  0.56395889553E+02  0.56395889553E+02  0.00000000000E+00 0.  1.
         22   -1    0    0    0    0 -0.00000000000E+00 -0.00000000000E+00 -0.30315325773E+04  0.30315325773E+04  0.00000000000E+00 0. -1.
         24    2    1    2    0    0  0.17674960085E+01 -0.26909411083E+02 -0.28129377306E+04  0.28140831814E+04  0.75619014480E+02 0.  0.
         25    2    1    2    0    0 -0.26773451629E+02 -0.54713830557E+01 -0.12254131098E+03  0.17723707964E+03  0.12509938352E+03 0.  0.
        -24    2    1    2    0    0  0.25005955620E+02  0.32380794139E+02 -0.39657646160E+02  0.96608205770E+02  0.78016683329E+02 0.  0.
        -13    1    3    3    0    0  0.26279343423E+02 -0.41344643665E+02 -0.13945443582E+04  0.13954045830E+04  0.00000000000E+00 0.  1.
         14    1    3    3    0    0 -0.24511847415E+02  0.14435232582E+02 -0.14183933724E+04  0.14186785984E+04  0.00000000000E+00 0. -1.
         13    1    5    5    0    0 -0.94384224189E+01  0.35067659649E+02 -0.48838002769E+02  0.60860291534E+02  0.00000000000E+00 0. -1.
        -14    1    5    5    0    0  0.34444378039E+02 -0.26868655109E+01  0.91803566098E+01  0.35747914236E+02  0.00000000000E+00 0.  1.
          5    1    4    4  501    0 -0.47636545324E+02 -0.55564866120E+02 -0.76431877308E+02  0.10590561395E+03  0.41800000000E+01 0. -1.
         -5    1    4    4    0  501  0.20863093695E+02  0.50093483064E+02 -0.46109433672E+02  0.71331465690E+02  0.41800000000E+01 0. -1.
</event>
<event>
11    1  0.8299058E-009  0.1414695E+03  0.7561462E-02  0.1105928E+00
         22   -1    0    0    0    0  0.00000000000E+00  0.00000000000E+00  0.40614552119E+02  0.40614552119E+02  0.00000000000E+00 0. -1.
         22   -1    0    0    0    0 -0.00000000000E+00 -0.00000000000E+00 -0.23033309061E+04  0.23033309061E+04  0.00000000000E+00 0. -1.
         24    2    1    2    0    0 -0.40196023863E+02  0.36823729509E+02 -0.11715788221E+04  0.11756019230E+04  0.80444003449E+02 0.  0.
         25    2    1    2    0    0  0.74585697175E+02 -0.68549767327E+02 -0.10509914748E+04  0.10632462533E+04  0.12508964138E+03 0.  0.
        -24    2    1    2    0    0 -0.34389673312E+02  0.31726037818E+02 -0.40146057088E+02  0.10509728181E+03  0.85114873187E+02 0.  0.
        -11    1    3    3    0    0  0.10554793712E+02  0.16063402557E+02 -0.68069518194E+02  0.70731152113E+02  0.00000000000E+00 0.  1.
         12    1    3    3    0    0 -0.50750817575E+02  0.20760326951E+02 -0.11035093039E+04  0.11048707709E+04  0.00000000000E+00 0. -1.
         11    1    5    5    0    0 -0.53569409422E+02 -0.55678396810E+01 -0.13893652880E+02  0.55621183509E+02  0.00000000000E+00 0. -1.
        -12    1    5    5    0    0  0.19179736111E+02  0.37293877499E+02 -0.26252404209E+02  0.49476098299E+02  0.00000000000E+00 0.  1.
          5    1    4    4  501    0  0.77167973818E+01  0.12438695507E+02 -0.59902917067E+03  0.59922257118E+03  0.41800000000E+01 0. -1.
         -5    1    4    4    0  501  0.66868899793E+02 -0.80988462834E+02 -0.45196230411E+03  0.46402368216E+03  0.41800000000E+01 0. -1.
</event>
<event>
11    1  0.8299058E-009  0.1470340E+03  0.7561462E-02  0.1099949E+00
         22   -1    0    0    0    0  0.00000000000E+00  0.00000000000E+00  0.18537402421E+04  0.18537402421E+04  0.00000000000E+00 0.  1.
         22   -1    0    0    0    0 -0.00000000000E+00 -0.00000000000E+00 -0.73116069515E+02  0.73116069515E+02  0.00000000000E+00 0. -1.
         24    2    1    2    0    0 -0.69745950235E+02 -0.73916420742E+01  0.88506377250E+01  0.10773006561E+03  0.81291446667E+02 0.  0.
         25    2    1    2    0    0  0.11580182992E+03  0.32906315079E+02  0.31883547176E+03  0.36303803962E+03  0.12509065021E+03 0.  0.
        -24    2    1    2    0    0 -0.46055879683E+02 -0.25514673005E+02  0.14529380631E+04  0.14560882064E+04  0.79948151914E+02 0.  0.
        -11    1    3    3    0    0 -0.43940417490E+02  0.30158797252E+02  0.25679596982E+02  0.59158727523E+02  0.00000000000E+00 0.  1.
         12    1    3    3    0    0 -0.25805532745E+02 -0.37550439326E+02 -0.16828959257E+02  0.48571338086E+02  0.00000000000E+00 0. -1.
         13    1    5    5    0    0 -0.23657138251E+01  0.18416767397E+02  0.98566442776E+02  0.10030013741E+03  0.00000000000E+00 0. -1.
        -14    1    5    5    0    0 -0.43690165858E+02 -0.43931440401E+02  0.13543716203E+04  0.13557880690E+04  0.00000000000E+00 0.  1.
          5    1    4    4  501    0  0.12668035726E+02  0.38593324033E+02  0.20599904810E+03  0.21000715228E+03  0.41800000000E+01 0.  1.
         -5    1    4    4    0  501  0.10313379419E+03 -0.56870089544E+01  0.11283642366E+03  0.15303088734E+03  0.41800000000E+01 0.  1.
</event>
<event>
11    1  0.8299058E-009  0.1429116E+03  0.7561462E-02  0.1104350E+00
         22   -1    0    0    0    0  0.00000000000E+00  0.00000000000E+00  0.43924345463E+03  0.43924345463E+03  0.00000000000E+00 0. -1.
         22   -1    0    0    0    0 -0.00000000000E+00 -0.00000000000E+00 -0.65623527607E+03  0.65623527607E+03  0.00000000000E+00 0. -1.
         24    2    1    2    0    0 -0.66356225102E+02  0.13956309416E+01 -0.51690929585E+03  0.52784919387E+03  0.83812021422E+02 0.  0.
         25    2    1    2    0    0  0.93194437085E+02  0.20609742214E+02 -0.80805509103E+02  0.17688329854E+03  0.12509279126E+03 0.  0.
        -24    2    1    2    0    0 -0.26838211983E+02 -0.22005373156E+02  0.38072298351E+03  0.39074623828E+03  0.80796698471E+02 0.  0.
        -13    1    3    3    0    0 -0.43160138187E+02  0.14153954790E+02 -0.97019688361E+02  0.10712586940E+03  0.00000000000E+00 0.  1.
         14    1    3    3    0    0 -0.23196086914E+02 -0.12758323848E+02 -0.41988960749E+03  0.42072332447E+03  0.00000000000E+00 0. -1.
         11    1    5    5    0    0  0.13883829837E+02  0.12269851932E+02  0.23284071217E+03  0.23357676948E+03  0.00000000000E+00 0. -1.
        -12    1    5    5    0    0 -0.40722041820E+02 -0.34275225087E+02  0.14788227135E+03  0.15716946880E+03  0.00000000000E+00 0.  1.
          5    1    4    4  501    0  0.73111547107E+02  0.31550049607E+02 -0.11230486627E+03  0.13773365362E+03  0.41800000000E+01 0.  1.
         -5    1    4    4    0  501  0.20082889977E+02 -0.10940307393E+02  0.31499357169E+02  0.39149644925E+02  0.41800000000E+01 0.  1.
</event>
<event>
11    1  0.8299058E-009  0.1616226E+03  0.7561462E-02  0.1085561E+00
         22   -1    0    0    0    0  0.00000000000E+00  0.00000000000E+00  0.23410187620E+03  0.23410187620E+03  0.00000000000E+00 0. -1.
         22   -1    0    0    0    0 -0.00000000000E+00 -0.00000000000E+00 -0.88452407625E+03  0.88452407625E+03  0.00000000000E+00 0. -1.
         24    2    1    2    0    0  0.10062269261E+03  0.10667197732E+02 -0.77300291837E+03  0.78359689911E+03  0.79068787218E+02 0.  0.
         25    2    1    2    0    0 -0.12667504229E+03  0.38260805175E+02  0.52721446649E+01  0.18217568174E+03  0.12509887273E+03 0.  0.
        -24    2    1    2    0    0  0.26052349676E+02 -0.48928002906E+02  0.11730857366E+03  0.15285337160E+03  0.80809512824E+02 0.  0.
        -13    1    3    3    0    0  0.16358318607E+02  0.93299344036E+01 -0.27407467605E+02  0.33253744814E+02  0.00000000000E+00 0.  1.
         14    1    3    3    0    0  0.84264374005E+02  0.13372633281E+01 -0.74559545077E+03  0.75034315430E+03  0.00000000000E+00 0. -1.
         11    1    5    5    0    0  0.25983751652E+01 -0.16920724339E+02  0.11143272008E+03  0.11274002647E+03  0.00000000000E+00 0. -1.
        -12    1    5    5    0    0  0.23453974511E+02 -0.32007278567E+02  0.58758535815E+01  0.40113345123E+02  0.00000000000E+00 0.  1.
          5    1    4    4  501    0 -0.12654151209E+03 -0.18843078837E+00  0.37266573216E+02  0.13198128530E+03  0.41800000000E+01 0.  1.
         -5    1    4    4    0  501 -0.13353019452E+00  0.38449235963E+02 -0.31994428551E+02  0.50194396448E+02  0.41800000000E+01 0.  1.
</event>
<event>
11    1  0.8299058E-009  0.1193476E+04  0.7561462E-02  0.8514039E-01
         22   -1    0    0    0    0  0.00000000000E+00  0.00000000000E+00  0.19706321076E+03  0.19706321076E+03  0.00000000000E+00 0. -1.
         22   -1    0    0    0    0 -0.00000000000E+00 -0.00000000000E+00 -0.18070166320E+04  0.18070166320E+04  0.00000000000E+00 0. -1.
         24    2    1    2    0    0  0.10743481214E+03  0.42577624680E+02 -0.30447520630E+03  0.33542576337E+03  0.80313127818E+02 0.  0.
         25    2    1    2    0    0 -0.50997752655E+03 -0.23705010780E+03 -0.83217315513E+03  0.10121404451E+04  0.12508512858E+03 0.  0.
        -24    2    1    2    0    0  0.40254271440E+03  0.19447248312E+03 -0.47330505976E+03  0.65651363419E+03  0.84452878403E+02 0.  0.
        -11    1    3    3    0    0 -0.57841893126E+01  0.20791902424E+02 -0.24556961065E+02  0.32692573915E+02  0.00000000000E+00 0.  1.
         12    1    3    3    0    0  0.11321900146E+03  0.21785722256E+02 -0.27991824523E+03  0.30273318946E+03  0.00000000000E+00 0. -1.
         13    1    5    5    0    0  0.27062280869E+03  0.15008550915E+03 -0.37455767640E+03  0.48585575801E+03  0.00000000000E+00 0. -1.
        -14    1    5    5    0    0  0.13191990571E+03  0.44386973974E+02 -0.98747383361E+02  0.17065787618E+03  0.00000000000E+00 0.  1.
          5    1    4    4  501    0 -0.90764202137E+01  0.12868319407E+02 -0.25189122317E+02  0.29998988839E+02  0.41800000000E+01 0. -1.
         -5    1    4    4    0  501 -0.50090110633E+03 -0.24991842721E+03 -0.80698403281E+03  0.98214145631E+03  0.41800000000E+01 0. -1.
</event>
<event>
11    1  0.8299058E-009  0.1343919E+03  0.7561462E-02  0.1113987E+00
         22   -1    0    0    0    0  0.00000000000E+00  0.00000000000E+00  0.91455901953E+03  0.91455901953E+03  0.00000000000E+00 0.  1.
         22   -1    0    0    0    0 -0.00000000000E+00 -0.00000000000E+00 -0.36084841006E+03  0.36084841006E+03  0.00000000000E+00 0. -1.
        -24    2    1    2    0    0  0.12948440033E+02  0.53704617180E+02 -0.33694706224E+03  0.35227850797E+03  0.86688963667E+02 0.  0.
         25    2    1    2    0    0 -0.15736130067E+02  0.11080812372E+02  0.34074569519E+03  0.36348809634E+03  0.12508220176E+03 0.  0.
         24    2    1    2    0    0  0.27876900341E+01 -0.64785429551E+02  0.54991197652E+03  0.55964082528E+03  0.81177264722E+02 0.  0.
        -13    1    5    5    0    0  0.25412548636E+02 -0.46947756869E+01  0.31665594549E+03  0.31770871307E+03  0.00000000000E+00 0.  1.
         14    1    5    5    0    0 -0.22624858602E+02 -0.60090653865E+02  0.23325603103E+03  0.24193211221E+03  0.00000000000E+00 0. -1.
         13    1    3    3    0    0 -0.11639681102E+01  0.35426751765E+02 -0.32374365384E+03  0.32567831209E+03  0.00000000000E+00 0. -1.
        -14    1    3    3    0    0  0.14112408143E+02  0.18277865414E+02 -0.13203408397E+02  0.26600195883E+02  0.00000000000E+00 0.  1.
          5    1    4    4  501    0  0.38783265836E+02  0.24563135732E+01  0.27400498092E+03  0.27677857062E+03  0.41800000000E+01 0. -1.
         -5    1    4    4    0  501 -0.54519395902E+02  0.86244987986E+01  0.66740714264E+02  0.86709525714E+02  0.41800000000E+01 0. -1.
</event>
<event>
11    1  0.8299058E-009  0.1899000E+03  0.7561462E-02  0.1061905E+00
         22   -1    0    0    0    0  0.00000000000E+00  0.00000000000E+00  0.10092694790E+04  0.10092694790E+04  0.00000000000E+00 0.  1.
         22   -1    0    0    0    0 -0.00000000000E+00 -0.00000000000E+00 -0.62867072528E+03  0.62867072528E+03  0.00000000000E+00 0. -1.
         24    2    1    2    0    0  0.78930134362E+01 -0.36336513753E+02 -0.54700449088E+03  0.55451137393E+03  0.82983786884E+02 0.  0.
         25    2    1    2    0    0 -0.72295673982E+02 -0.94369520996E+02  0.35648368909E+02  0.17621238039E+03  0.12509087029E+03 0.  0.
        -24    2    1    2    0    0  0.64402660546E+02  0.13070603475E+03  0.89195487569E+03  0.90721644995E+03  0.78907645938E+02 0.  0.
        -11    1    3    3    0    0  0.16711202372E+02 -0.38661502923E+02 -0.11598954841E+03  0.12339996529E+03  0.00000000000E+00 0.  1.
         12    1    3    3    0    0 -0.88181889361E+01  0.23249891706E+01 -0.43101494247E+03  0.43111140864E+03  0.00000000000E+00 0. -1.
         13    1    5    5    0    0 -0.87257064144E+01  0.25387804401E+02  0.64148572576E+02  0.69539326487E+02  0.00000000000E+00 0. -1.
        -14    1    5    5    0    0  0.73128366961E+02  0.10531823035E+03  0.82780630311E+03  0.83767712346E+03  0.00000000000E+00 0.  1.
          5    1    4    4  501    0 -0.52618782587E+02  0.65298219587E+01  0.49181909003E+02  0.72441061760E+02  0.41800000000E+01 0. -1.
         -5    1    4    4    0  501 -0.19676891396E+02 -0.10089934295E+03 -0.13533540094E+02  0.10377131863E+03  0.41800000000E+01 0. -1.
</event>
<event>
11    1  0.8299058E-009  0.1422471E+03  0.7561462E-02  0.1105075E+00
         22   -1    0    0    0    0  0.00000000000E+00  0.00000000000E+00  0.33268514309E+03  0.33268514309E+03  0.00000000000E+00 0. -1.
         22   -1    0    0    0    0 -0.00000000000E+00 -0.00000000000E+00 -0.36289817906E+03  0.36289817906E+03  0.00000000000E+00 0.  1.
         24    2    1    2    0    0  0.38586029075E+02  0.59959418437E+02 -0.25847453029E+03  0.28013737751E+03  0.81140951249E+02 0.  0.
         25    2    1    2    0    0 -0.25136600117E+02 -0.43760684395E+02 -0.34992315998E+02  0.13935836317E+03  0.12509774196E+03 0.  0.
        -24    2    1    2    0    0 -0.13449428958E+02 -0.16198734042E+02  0.26325381032E+03  0.27608758146E+03  0.80489116429E+02 0.  0.
        -13    1    3    3    0    0  0.52542761575E+02  0.60688181128E+02 -0.25247359703E+03  0.26492775302E+03  0.00000000000E+00 0.  1.
         14    1    3    3    0    0 -0.13956732500E+02 -0.72876269100E+00 -0.60009332615E+01  0.15209624491E+02  0.00000000000E+00 0. -1.
         11    1    5    5    0    0 -0.19357959198E+02 -0.33115841793E+02  0.25205425085E+03  0.25495633927E+03  0.00000000000E+00 0. -1.
        -12    1    5    5    0    0  0.59085302395E+01  0.16917107750E+02  0.11199559475E+02  0.21131242194E+02  0.00000000000E+00 0.  1.
          5    1    4    4  501    0  0.50330806235E+02 -0.96594229298E+01 -0.72915389073E+01  0.51933933485E+02  0.41800000000E+01 0. -1.
         -5    1    4    4    0  501 -0.75467406351E+02 -0.34101261465E+02 -0.27700777090E+02  0.87424429688E+02  0.41800000000E+01 0. -1.
</event>
<event>
11    1  0.8299058E-009  0.1794701E+03  0.7561462E-02  0.1070072E+00
         22   -1    0    0    0    0  0.00000000000E+00  0.00000000000E+00  0.13324057680E+04  0.13324057680E+04  0.00000000000E+00 0. -1.
         22   -1    0    0    0    0 -0.00000000000E+00 -0.00000000000E+00 -0.33662570403E+03  0.33662570403E+03  0.00000000000E+00 0.  1.
        -24    2    1    2    0    0  0.68070343562E+02  0.67040486194E+02 -0.29053925279E+03  0.31628989663E+03  0.80611679275E+02 0.  0.
         25    2    1    2    0    0  0.64556073704E+02 -0.81987933139E+01  0.15661916627E+03  0.21074306056E+03  0.12509343496E+03 0.  0.
         24    2    1    2    0    0 -0.13262641727E+03 -0.58841692881E+02  0.11297001504E+04  0.11419985148E+04  0.82982326537E+02 0.  0.
        -13    1    5    5    0    0  0.66261585986E+01 -0.13634296099E+02  0.45523119424E+02  0.47980771253E+02  0.00000000000E+00 0.  1.
         14    1    5    5    0    0 -0.13925257586E+03 -0.45207396782E+02  0.10841770310E+04  0.10940177435E+04  0.00000000000E+00 0. -1.
         13    1    3    3    0    0  0.43008497799E+02 -0.41891871423E+01 -0.15744760294E+03  0.16326980077E+03  0.00000000000E+00 0. -1.
        -14    1    3    3    0    0  0.25061845762E+02  0.71229673337E+02 -0.13309164985E+03  0.15302009586E+03  0.00000000000E+00 0.  1.
          5    1    4    4  501    0  0.31283342178E+02 -0.48792147003E+02  0.14584960046E+03  0.15699967981E+03  0.41800000000E+01 0.  1.
         -5    1    4    4    0  501  0.33272731526E+02  0.40593353690E+02  0.10769565811E+02  0.53743380753E+02  0.41800000000E+01 0.  1.
</event>
<event>
11    1  0.8299058E-009  0.1334174E+03  0.7561462E-02  0.1115140E+00
         22   -1    0    0    0    0  0.00000000000E+00  0.00000000000E+00  0.20599611066E+03  0.20599611066E+03  0.00000000000E+00 0. -1.
         22   -1    0    0    0    0 -0.00000000000E+00 -0.00000000000E+00 -0.13942360514E+04  0.13942360514E+04  0.00000000000E+00 0.  1.
         24    2    1    2    0    0 -0.29612806413E+02  0.34767252239E+02 -0.12345800336E+04  0.12380398011E+04  0.80430153684E+02 0.  0.
         25    2    1    2    0    0  0.77030601261E+02 -0.14439124968E+02 -0.10915083252E+03  0.18358493625E+03  0.12508925900E+03 0.  0.
        -24    2    1    2    0    0 -0.47417794848E+02 -0.20328127271E+02  0.15549092542E+03  0.17860742468E+03  0.71144249475E+02 0.  0.
        -11    1    3    3    0    0 -0.38844879372E+02 -0.14519237940E+02 -0.47522292886E+03  0.47702889329E+03  0.00000000000E+00 0.  1.
         12    1    3    3    0    0  0.92320729599E+01  0.49286490178E+02 -0.75935710476E+03  0.76101090783E+03  0.00000000000E+00 0. -1.
         13    1    5    5    0    0 -0.50476344288E+02 -0.37415281891E+02  0.14571774638E+03  0.15868656610E+03  0.00000000000E+00 0. -1.
        -14    1    5    5    0    0  0.30585494401E+01  0.17087154620E+02  0.97731790481E+01  0.19920858576E+02  0.00000000000E+00 0.  1.
          5    1    4    4  501    0  0.79498938471E+02  0.38716399820E+02 -0.42506845460E+02  0.98200535355E+02  0.41800000000E+01 0. -1.
         -5    1    4    4    0  501 -0.24683372105E+01 -0.53155524788E+02 -0.66643987064E+02  0.85384400893E+02  0.41800000000E+01 0. -1.
</event>
<event>
11    1  0.8299058E-009  0.1366172E+03  0.7561462E-02  0.1111396E+00
         22   -1    0    0    0    0  0.00000000000E+00  0.00000000000E+00  0.11869580469E+04  0.11869580469E+04  0.00000000000E+00 0.  1.
         22   -1    0    0    0    0 -0.00000000000E+00 -0.00000000000E+00 -0.44083704214E+03  0.44083704214E+03  0.00000000000E+00 0. -1.
        -24    2    1    2    0    0  0.30979594212E+02  0.44077307409E+02 -0.37859796040E+03  0.39018345189E+03  0.77486555140E+02 0.  0.
         25    2    1    2    0    0 -0.53311556360E+02 -0.50889774262E+02  0.41234685044E+02  0.15092814291E+03  0.12508842435E+03 0.  0.
         24    2    1    2    0    0  0.22331962148E+02  0.68124668525E+01  0.10834842801E+04  0.10866834942E+04  0.79985655934E+02 0.  0.
        -11    1    5    5    0    0 -0.29524021240E+02 -0.89493212466E+00  0.30133979089E+03  0.30278397961E+03  0.00000000000E+00 0.  1.
         12    1    5    5    0    0  0.51855983388E+02  0.77073989772E+01  0.78214448924E+03  0.78389951464E+03  0.00000000000E+00 0. -1.
         11    1    3    3    0    0  0.39823164762E+02 -0.87199781882E+01 -0.17146262155E+03  0.17624231348E+03  0.00000000000E+00 0. -1.
        -12    1    3    3    0    0 -0.88435705497E+01  0.52797285598E+02 -0.20713533885E+03  0.21394113841E+03  0.00000000000E+00 0.  1.
          5    1    4    4  501    0  0.94012010284E+01 -0.59982894468E+02  0.59227957997E+02  0.84922044358E+02  0.41800000000E+01 0.  1.
         -5    1    4    4    0  501 -0.62712757388E+02  0.90931202061E+01 -0.17993272953E+02  0.66006098551E+02  0.41800000000E+01 0.  1.
</event>
<event>
11    1  0.8299058E-009  0.1805777E+03  0.7561462E-02  0.1069176E+00
         22   -1    0    0    0    0  0.00000000000E+00  0.00000000000E+00  0.91504183323E+03  0.91504183323E+03  0.00000000000E+00 0.  1.
         22   -1    0    0    0    0 -0.00000000000E+00 -0.00000000000E+00 -0.31878933397E+03  0.31878933397E+03  0.00000000000E+00 0.  1.
         24    2    1    2    0    0  0.14207231963E+03 -0.24184256934E+02 -0.21796692927E+03  0.27349281748E+03  0.80742285513E+02 0.  0.
         25    2    1    2    0    0 -0.90295373117E+02 -0.22701387705E+02  0.17923823713E+02  0.15696276566E+03  0.12508972355E+03 0.  0.
        -24    2    1    2    0    0 -0.51776946509E+02  0.46885644639E+02  0.79629560481E+03  0.80337558406E+03  0.80290242003E+02 0.  0.
        -11    1    3    3    0    0  0.67928443606E+02  0.28253699722E+02 -0.11111246920E+03  0.13326111890E+03  0.00000000000E+00 0.  1.
         12    1    3    3    0    0  0.74143876019E+02 -0.52437956655E+02 -0.10685446007E+03  0.14023169857E+03  0.00000000000E+00 0. -1.
         13    1    5    5    0    0 -0.27822939127E+02  0.24261392318E+02  0.10509001641E+03  0.11138510964E+03  0.00000000000E+00 0. -1.
        -14    1    5    5    0    0 -0.23954007382E+02  0.22624252321E+02  0.69120558839E+03  0.69199047442E+03  0.00000000000E+00 0.  1.
          5    1    4    4  501    0  0.11548113001E+02  0.74836806771E+01 -0.35271730248E+02  0.38091097976E+02  0.41800000000E+01 0. -1.
         -5    1    4    4    0  501 -0.10184348612E+03 -0.30185068382E+02  0.53195553960E+02  0.11887166769E+03  0.41800000000E+01 0. -1.
</event>
<event>
11    1  0.8299058E-009  0.1309317E+03  0.7561462E-02  0.1118129E+00
         22   -1    0    0    0    0  0.00000000000E+00  0.00000000000E+00  0.15200252561E+04  0.15200252561E+04  0.00000000000E+00 0. -1.
         22   -1    0    0    0    0 -0.00000000000E+00 -0.00000000000E+00 -0.22127447985E+03  0.22127447985E+03  0.00000000000E+00 0.  1.
        -24    2    1    2    0    0 -0.22237922135E+02  0.32299779401E+02 -0.19593471495E+03  0.21537473167E+03  0.80362065612E+02 0.  0.
         25    2    1    2    0    0  0.17032579474E+02 -0.15785526229E+02  0.26810320100E+03  0.29676050357E+03  0.12509267961E+03 0.  0.
         24    2    1    2    0    0  0.52053426606E+01 -0.16514253172E+02  0.12265822902E+04  0.12291645007E+04  0.77726694335E+02 0.  0.
        -13    1    5    5    0    0  0.33431522557E+01  0.18713931061E+02  0.87733255415E+02  0.89769215149E+02  0.00000000000E+00 0.  1.
         14    1    5    5    0    0  0.18621904049E+01 -0.35228184234E+02  0.11388490347E+04  0.11393952855E+04  0.00000000000E+00 0. -1.
         11    1    3    3    0    0 -0.11959077333E+02  0.96995229627E+01  0.23196298115E+01  0.15571800115E+02  0.00000000000E+00 0. -1.
        -12    1    3    3    0    0 -0.10278844802E+02  0.22600256438E+02 -0.19825434476E+03  0.19980293155E+03  0.00000000000E+00 0.  1.
          5    1    4    4  501    0 -0.33360060166E+02 -0.53925498032E+02  0.12334752919E+03  0.13875495778E+03  0.41800000000E+01 0.  1.
         -5    1    4    4    0  501  0.50392639641E+02  0.38139971803E+02  0.14475567181E+03  0.15800554579E+03  0.41800000000E+01 0.  1.
</event>
<event>
11    1  0.8299058E-009  0.2152115E+03  0.7561462E-02  0.1044259E+00
         22   -1    0    0    0    0  0.00000000000E+00  0.00000000000E+00  0.10841937189E+04  0.10841937189E+04  0.00000000000E+00 0.  1.
         22   -1    0    0    0    0 -0.00000000000E+00 -0.00000000000E+00 -0.43480892751E+03  0.43480892751E+03  0.00000000000E+00 0. -1.
        -24    2    1    2    0    0 -0.31453561113E+02  0.63564265750E+02 -0.35457019940E+03  0.37048785606E+03  0.80693759326E+02 0.  0.
         25    2    1    2    0    0  0.18682122848E+03  0.16989900105E+02  0.14466866776E+03  0.26789383358E+03  0.12508898643E+03 0.  0.
         24    2    1    2    0    0 -0.15536766736E+03 -0.80554165854E+02  0.85928632304E+03  0.88062095677E+03  0.80574182267E+02 0.  0.
        -13    1    5    5    0    0 -0.15111208429E+03 -0.73652325530E+02  0.85515376906E+03  0.87152022111E+03  0.00000000000E+00 0.  1.
         14    1    5    5    0    0 -0.42555830711E+01 -0.69018403239E+01  0.41325539794E+01  0.91007356585E+01  0.00000000000E+00 0. -1.
         11    1    3    3    0    0 -0.11787677654E+02  0.41381888537E+02 -0.32759007750E+03  0.33040379677E+03  0.00000000000E+00 0. -1.
        -12    1    3    3    0    0 -0.19665883458E+02  0.22182377213E+02 -0.26980121901E+02  0.40084059286E+02  0.00000000000E+00 0.  1.
          5    1    4    4  501    0  0.20456091577E+01  0.38688329042E+02  0.31366348893E+02  0.50022910389E+02  0.41800000000E+01 0.  1.
         -5    1    4    4    0  501  0.18477561932E+03 -0.21698428937E+02  0.11330231887E+03  0.21787092319E+03  0.41800000000E+01 0.  1.
</event>
<event>
11    1  0.8299058E-009  0.1983229E+03  0.7561462E-02  0.1055716E+00
         22   -1    0    0    0    0  0.00000000000E+00  0.00000000000E+00  0.19330163733E+04  0.19330163733E+04  0.00000000000E+00 0.  1.
         22   -1    0    0    0    0 -0.00000000000E+00 -0.00000000000E+00 -0.32288070734E+03  0.32288070734E+03  0.00000000000E+00 0.  1.
         24    2    1    2    0    0 -0.38945724323E+01 -0.36744007331E+02 -0.23368579148E+03  0.24668220599E+03  0.69841047004E+02 0.  0.
         25    2    1    2    0    0 -0.60003361593E+02  0.17498476868E+03  0.80250658776E+02  0.23729172357E+03  0.12508845338E+03 0.  0.
        -24    2    1    2    0    0  0.63897934026E+02 -0.13824076135E+03  0.17635707987E+04  0.17719231511E+04  0.79600486069E+02 0.  0.
        -11    1    3    3    0    0  0.26704718779E+02  0.44650749600E+01 -0.95817064384E+02  0.99569014892E+02  0.00000000000E+00 0.  1.
         12    1    3    3    0    0 -0.30599291211E+02 -0.41209082291E+02 -0.13786872709E+03  0.14711319110E+03  0.00000000000E+00 0. -1.
         11    1    5    5    0    0  0.25959777222E+02  0.23366365729E+01  0.24062403548E+03  0.24203160197E+03  0.00000000000E+00 0. -1.
        -12    1    5    5    0    0  0.37938156803E+02 -0.14057739792E+03  0.15229467632E+04  0.15298915491E+04  0.00000000000E+00 0.  1.
          5    1    4    4  501    0 -0.30542524068E+01 -0.11636497779E+02  0.34588998420E+02  0.36859296656E+02  0.41800000000E+01 0.  1.
         -5    1    4    4    0  501 -0.56949109186E+02  0.18662126646E+03  0.45661660356E+02  0.20043242691E+03  0.41800000000E+01 0.  1.
</event>
<event>
11    1  0.8299058E-009  0.1482250E+03  0.7561462E-02  0.1098706E+00
         22   -1    0    0    0    0  0.00000000000E+00  0.00000000000E+00  0.77232739521E+03  0.77232739521E+03  0.00000000000E+00 0.  1.
         22   -1    0    0    0    0 -0.00000000000E+00 -0.00000000000E+00 -0.68808414655E+03  0.68808414655E+03  0.00000000000E+00 0. -1.
        -24    2    1    2    0    0 -0.35559467843E+02  0.11265568053E+02 -0.66180649206E+03  0.66798378964E+03  0.82602188283E+02 0.  0.
         25    2    1    2    0    0 -0.18469544256E+02 -0.76177960936E+02  0.43106038711E+03  0.45563849376E+03  0.12509665809E+03 0.  0.
         24    2    1    2    0    0  0.54029012099E+02  0.64912392882E+02  0.31498935362E+03  0.33678925836E+03  0.84118718227E+02 0.  0.
        -11    1    5    5    0    0  0.12054578270E+02  0.57768187112E+02  0.26324789383E+03  0.26978126308E+03  0.00000000000E+00 0.  1.
         12    1    5    5    0    0  0.41974433829E+02  0.71442057705E+01  0.51741459785E+02  0.67007995284E+02  0.00000000000E+00 0. -1.
         11    1    3    3    0    0 -0.44256542902E+02 -0.26366483608E+01 -0.63509291948E+03  0.63663852372E+03  0.00000000000E+00 0. -1.
        -12    1    3    3    0    0  0.86970750588E+01  0.13902216414E+02 -0.26713572582E+02  0.31345265925E+02  0.00000000000E+00 0.  1.
          5    1    4    4  501    0 -0.43116269518E+02 -0.10032481365E+03  0.27856298178E+03  0.29923049335E+03  0.41800000000E+01 0. -1.
         -5    1    4    4    0  501  0.24646725262E+02  0.24146852709E+02  0.15249740532E+03  0.15640800041E+03  0.41800000000E+01 0. -1.
</event>
<event>
11    1  0.8299058E-009  0.1946517E+03  0.7561462E-02  0.1058371E+00
         22   -1    0    0    0    0  0.00000000000E+00  0.00000000000E+00  0.17203380865E+04  0.17203380865E+04  0.00000000000E+00 0. -1.
         22   -1    0    0    0    0 -0.00000000000E+00 -0.00000000000E+00 -0.31308712804E+03  0.31308712804E+03  0.00000000000E+00 0. -1.
         24    2    1    2    0    0  0.19710810632E+02  0.72030896956E+02 -0.24451506961E+03  0.26759475892E+03  0.79008667658E+02 0.  0.
         25    2    1    2    0    0 -0.39711075042E+02 -0.21354115696E+03  0.24838255718E+03  0.35287081633E+03  0.12508846114E+03 0.  0.
        -24    2    1    2    0    0  0.20000264410E+02  0.14151026000E+03  0.14033834709E+04  0.14129596393E+04  0.80898773759E+02 0.  0.
        -11    1    3    3    0    0 -0.83960168416E+01  0.65812244087E+01  0.21228849062E+01  0.10877143644E+02  0.00000000000E+00 0.  1.
         12    1    3    3    0    0  0.28106827474E+02  0.65449672547E+02 -0.24663795452E+03  0.25671761528E+03  0.00000000000E+00 0. -1.
         11    1    5    5    0    0  0.33177580224E+02  0.14924480538E+02  0.26549888785E+03  0.26797975931E+03  0.00000000000E+00 0. -1.
        -12    1    5    5    0    0 -0.13177315815E+02  0.12658577947E+03  0.11378845831E+04  0.11449798800E+04  0.00000000000E+00 0.  1.
          5    1    4    4  501    0 -0.58481771058E+01  0.14285278224E+02  0.29514771988E+01  0.16262040680E+02  0.41800000000E+01 0.  1.
         -5    1    4    4    0  501 -0.33862897936E+02 -0.22782643518E+03  0.24543107998E+03  0.33660877565E+03  0.41800000000E+01 0.  1.
</event>
<event>
11    1  0.8299058E-009  0.1296781E+03  0.7561462E-02  0.1119665E+00
         22   -1    0    0    0    0  0.00000000000E+00  0.00000000000E+00  0.77037335878E+03  0.77037335878E+03  0.00000000000E+00 0.  1.
         22   -1    0    0    0    0 -0.00000000000E+00 -0.00000000000E+00 -0.36118544604E+03  0.36118544604E+03  0.00000000000E+00 0.  1.
         24    2    1    2    0    0  0.26060983910E+02  0.31195185229E+02 -0.33003581725E+03  0.34192668190E+03  0.79610933060E+02 0.  0.
         25    2    1    2    0    0 -0.25517955314E+02  0.71607768433E+01  0.16635492507E+03  0.20981798169E+03  0.12508869485E+03 0.  0.
        -24    2    1    2    0    0 -0.54302859662E+00 -0.38355962072E+02  0.57286880493E+03  0.57981414122E+03  0.80834992389E+02 0.  0.
        -11    1    3    3    0    0  0.25784530793E+02  0.46733086727E+02 -0.31751504028E+03  0.32196991199E+03  0.00000000000E+00 0.  1.
         12    1    3    3    0    0  0.27645311766E+00 -0.15537901498E+02 -0.12520776974E+02  0.19956769912E+02  0.00000000000E+00 0. -1.
         11    1    5    5    0    0 -0.33375705703E+02 -0.19617005053E+02  0.13866857387E+03  0.14397130963E+03  0.00000000000E+00 0. -1.
        -12    1    5    5    0    0  0.32832677106E+02 -0.18738957019E+02  0.43420023106E+03  0.43584283159E+03  0.00000000000E+00 0.  1.
          5    1    4    4  501    0  0.17331910715E+02 -0.40569528733E+02  0.17440358112E+02  0.47622686628E+02  0.41800000000E+01 0. -1.
         -5    1    4    4    0  501 -0.42849866029E+02  0.47730305576E+02  0.14891456696E+03  0.16219529506E+03  0.41800000000E+01 0. -1.
</event>
<event>
11    1  0.8299058E-009  0.1404102E+03  0.7561462E-02  0.1107101E+00
         22   -1    0    0    0    0  0.00000000000E+00  0.00000000000E+00  0.49900517068E+02  0.49900517068E+02  0.00000000000E+00 0.  1.
         22   -1    0    0    0    0 -0.00000000000E+00 -0.00000000000E+00 -0.10554646552E+04  0.10554646552E+04  0.00000000000E+00 0.  1.
         24    2    1    2    0    0  0.60889987198E+02  0.14889431371E+02 -0.68284750569E+03  0.69055890642E+03  0.81618634583E+02 0.  0.
         25    2    1    2    0    0 -0.66191887974E+02 -0.16859975843E+02 -0.29956117006E+03  0.33173918274E+03  0.12509342885E+03 0.  0.
        -24    2    1    2    0    0  0.53019007762E+01  0.19705444723E+01 -0.23155462423E+02  0.83067083136E+02  0.79573687003E+02 0.  0.
        -11    1    3    3    0    0  0.37736428413E+02  0.48242562339E+02 -0.45767435064E+03  0.46175447381E+03  0.00000000000E+00 0.  1.
         12    1    3    3    0    0  0.23153558784E+02 -0.33353130968E+02 -0.22517315504E+03  0.22880443261E+03  0.00000000000E+00 0. -1.
         13    1    5    5    0    0 -0.34334206558E+02 -0.13686329912E+02 -0.13665365704E+02  0.39406796194E+02  0.00000000000E+00 0. -1.
        -14    1    5    5    0    0  0.39636107335E+02  0.15656874384E+02 -0.94900967193E+01  0.43660286942E+02  0.00000000000E+00 0.  1.
          5    1    4    4  501    0  0.76242619676E+01 -0.50393245584E+02 -0.60215409844E+02  0.78999851605E+02  0.41800000000E+01 0. -1.
         -5    1    4    4    0  501 -0.73816149941E+02  0.33533269741E+02 -0.23934576021E+03  0.25273933114E+03  0.41800000000E+01 0. -1.
</event>
<event>
11    1  0.8299058E-009  0.1537055E+03  0.7561462E-02  0.1093152E+00
         22   -1    0    0    0    0  0.00000000000E+00  0.00000000000E+00  0.15244485122E+03  0.15244485122E+03  0.00000000000E+00 0. -1.
         22   -1    0    0    0    0 -0.00000000000E+00 -0.00000000000E+00 -0.11008837806E+04  0.11008837806E+04  0.00000000000E+00 0. -1.
         24    2    1    2    0    0 -0.83958342141E+02 -0.27212058623E+02 -0.95741719647E+03  0.96471664879E+03  0.79000158303E+02 0.  0.
         25    2    1    2    0    0  0.12761964221E+03 -0.26164072637E+02 -0.10563788559E+02  0.18091129914E+03  0.12508386287E+03 0.  0.
        -24    2    1    2    0    0 -0.43661300074E+02  0.53376131260E+02  0.19542055612E+02  0.10770068393E+03  0.80387964703E+02 0.  0.
        -13    1    3    3    0    0  0.10211812092E+02 -0.19110273851E+02 -0.11589677465E+03  0.11790481774E+03  0.00000000000E+00 0.  1.
         14    1    3    3    0    0 -0.94170154233E+02 -0.81017847717E+01 -0.84152042182E+03  0.84681183105E+03  0.00000000000E+00 0. -1.
         13    1    5    5    0    0 -0.64320894618E+02  0.21317462725E+02  0.11707215951E+02  0.68765329976E+02  0.00000000000E+00 0. -1.
        -14    1    5    5    0    0  0.20659594544E+02  0.32058668535E+02  0.78348396617E+01  0.38935353954E+02  0.00000000000E+00 0.  1.
          5    1    4    4  501    0  0.10940091001E+03 -0.32089998868E+02  0.44501404006E+02  0.12245886859E+03  0.41800000000E+01 0.  1.
         -5    1    4    4    0  501  0.18218732208E+02  0.59259262306E+01 -0.55065192565E+02  0.58452430550E+02  0.41800000000E+01 0.  1.
</event>
<event>
11    1  0.8299058E-009  0.1679908E+03  0.7561462E-02  0.1079794E+00
         22   -1    0    0    0    0  0.00000000000E+00  0.00000000000E+00  0.14444483099E+04  0.14444483099E+04  0.00000000000E+00 0.  1.
         22   -1    0    0    0    0 -0.00000000000E+00 -0.00000000000E+00 -0.76920728332E+03  0.76920728332E+03  0.00000000000E+00 0.  1.
         24    2    1    2    0    0  0.11491722342E+03 -0.20630746738E+00 -0.72487108350E+03  0.74208092337E+03  0.10972692617E+03 0.  0.
         25    2    1    2    0    0 -0.64282484911E+02 -0.14524787452E+02  0.11364738600E+03  0.18140315933E+03  0.12509264787E+03 0.  0.
        -24    2    1    2    0    0 -0.50634738505E+02  0.14731094919E+02  0.12864647241E+04  0.12901715106E+04  0.82280972007E+02 0.  0.
        -11    1    3    3    0    0  0.37337623650E+02  0.30261533245E+02 -0.49923270243E+03  0.50154077572E+03  0.00000000000E+00 0.  1.
         12    1    3    3    0    0  0.77579599766E+02 -0.30467840713E+02 -0.22563838108E+03  0.24054014765E+03  0.00000000000E+00 0. -1.
         13    1    5    5    0    0 -0.16315649698E+02 -0.34202386092E+01  0.43261418697E+02  0.46362148406E+02  0.00000000000E+00 0. -1.
        -14    1    5    5    0    0 -0.34319088807E+02  0.18151333529E+02  0.12432033054E+04  0.12438093621E+04  0.00000000000E+00 0.  1.
          5    1    4    4  501    0 -0.34947920713E+02  0.53512792349E+02  0.33899120103E+02  0.72467916011E+02  0.41800000000E+01 0. -1.
         -5    1    4    4    0  501 -0.29334564198E+02 -0.68037579801E+02  0.79748265901E+02  0.10893524332E+03  0.41800000000E+01 0. -1.
</event>
<event>
11    1  0.8299058E-009  0.1619205E+03  0.7561462E-02  0.1085285E+00
         22   -1    0    0    0    0  0.00000000000E+00  0.00000000000E+00  0.29438611805E+03  0.29438611805E+03  0.00000000000E+00 0.  1.
         22   -1    0    0    0    0 -0.00000000000E+00 -0.00000000000E+00 -0.25580297446E+04  0.25580297446E+04  0.00000000000E+00 0. -1.
         24    2    1    2    0    0 -0.58861159024E+02 -0.47123332253E+01 -0.19396820076E+04  0.19422770060E+04  0.81159319719E+02 0.  0.
         25    2    1    2    0    0  0.14206636062E+03 -0.53661617789E+02 -0.58497409570E+03  0.61717341015E+03  0.12508359409E+03 0.  0.
        -24    2    1    2    0    0 -0.83205201595E+02  0.58373951015E+02  0.26101247682E+03  0.29296544647E+03  0.85852291977E+02 0.  0.
        -13    1    3    3    0    0 -0.53283415926E+02 -0.15743934519E+02 -0.60696499974E+03  0.60950267005E+03  0.00000000000E+00 0.  1.
         14    1    3    3    0    0 -0.55777430979E+01  0.11031601293E+02 -0.13327170079E+04  0.13327743360E+04  0.00000000000E+00 0. -1.
         11    1    5    5    0    0 -0.32875130771E+01 -0.21444602747E+00  0.12310014159E+03  0.12314421865E+03  0.00000000000E+00 0. -1.
        -12    1    5    5    0    0 -0.79917688518E+02  0.58588397042E+02  0.13791233524E+03  0.16982122782E+03  0.00000000000E+00 0.  1.
          5    1    4    4  501    0  0.96027299782E+02 -0.63242387915E+02 -0.21188404944E+03  0.24110820131E+03  0.41800000000E+01 0.  1.
         -5    1    4    4    0  501  0.46039060836E+02  0.95807701253E+01 -0.37309004626E+03  0.37606520883E+03  0.41800000000E+01 0.  1.
</event>
<event>
11    1  0.8299058E-009  0.1907507E+03  0.7561462E-02  0.1061264E+00
         22   -1    0    0    0    0  0.00000000000E+00  0.00000000000E+00  0.26733691869E+04  0.26733691869E+04  0.00000000000E+00 0. -1.
         22   -1    0    0    0    0 -0.00000000000E+00 -0.00000000000E+00 -0.18254221606E+03  0.18254221606E+03  0.00000000000E+00 0. -1.
        -24    2    1    2    0    0  0.83238254599E+02 -0.11370162877E+03 -0.12078102595E+03  0.20227306907E+03  0.80434264026E+02 0.  0.
         25    2    1    2    0    0 -0.56754695402E+02  0.24315292512E+03  0.11267225522E+04  0.11608168144E+04  0.12509007358E+03 0.  0.
         24    2    1    2    0    0 -0.26483559197E+02 -0.12945129635E+03  0.14848854446E+04  0.14928215195E+04  0.78563913450E+02 0.  0.
        -11    1    5    5    0    0 -0.46108551627E+02 -0.62077628895E+02  0.98559223574E+03  0.98862110320E+03  0.00000000000E+00 0.  1.
         12    1    5    5    0    0  0.19624992430E+02 -0.67373667459E+02  0.49929320889E+03  0.50420041634E+03  0.00000000000E+00 0. -1.
         13    1    3    3    0    0  0.67209299377E+02 -0.43822527979E+02 -0.27912751264E+02  0.84950724331E+02  0.00000000000E+00 0. -1.
        -14    1    3    3    0    0  0.16028955221E+02 -0.69879100790E+02 -0.92868274683E+02  0.11732234474E+03  0.00000000000E+00 0.  1.
          5    1    4    4  501    0 -0.43383825288E+02  0.22957310878E+03  0.79782798002E+03  0.83134404832E+03  0.41800000000E+01 0. -1.
         -5    1    4    4    0  501 -0.13370870113E+02  0.13579816344E+02  0.32889457216E+03  0.32947276606E+03  0.41800000000E+01 0. -1.
</event>
<event>
11    1  0.8299058E-009  0.1691280E+03  0.7561462E-02  0.1078793E+00
         22   -1    0    0    0    0  0.00000000000E+00  0.00000000000E+00  0.87879563129E+03  0.87879563129E+03  0.00000000000E+00 0.  1.
         22   -1    0    0    0    0 -0.00000000000E+00 -0.00000000000E+00 -0.20234476339E+04  0.20234476339E+04  0.00000000000E+00 0. -1.
         24    2    1    2    0    0  0.15481660892E+02 -0.13619152204E+02 -0.17864579697E+04  0.17883957234E+04  0.80635122505E+02 0.  0.
         25    2    1    2    0    0  0.59907149196E+02 -0.72339144622E+02 -0.20360727848E+03  0.25675886401E+03  0.12508945611E+03 0.  0.
        -24    2    1    2    0    0 -0.75388810088E+02  0.85958296826E+02  0.84541324548E+03  0.85708867782E+03  0.82493300002E+02 0.  0.
        -13    1    3    3    0    0  0.36750090177E+02  0.20771274142E+02 -0.80681488349E+03  0.80791848052E+03  0.00000000000E+00 0.  1.
         14    1    3    3    0    0 -0.21268429285E+02 -0.34390426346E+02 -0.97964308617E+03  0.98047724287E+03  0.00000000000E+00 0. -1.
         13    1    5    5    0    0  0.86014160802E+01  0.95142246358E+01  0.19096739372E+02  0.23004136229E+02  0.00000000000E+00 0. -1.
        -14    1    5    5    0    0 -0.83990226168E+02  0.76444072191E+02  0.82631650611E+03  0.83408454159E+03  0.00000000000E+00 0.  1.
          5    1    4    4  501    0  0.48804837224E+02  0.24615836178E+02 -0.47119067918E+02  0.72287830848E+02  0.41800000000E+01 0. -1.
         -5    1    4    4    0  501  0.11102311972E+02 -0.96954980800E+02 -0.15648821056E+03  0.18447103316E+03  0.41800000000E+01 0. -1.
</event>
<event>
11    1  0.8299058E-009  0.2179784E+03  0.7561462E-02  0.1042491E+00
         22   -1    0    0    0    0  0.00000000000E+00  0.00000000000E+00  0.78091414278E+03  0.78091414278E+03  0.00000000000E+00 0. -1.
         22   -1    0    0    0    0 -0.00000000000E+00 -0.00000000000E+00 -0.21876383856E+03  0.21876383856E+03  0.00000000000E+00 0.  1.
        -24    2    1    2    0    0  0.10166105102E+02  0.21178648201E+02 -0.87488313707E+02  0.11898148434E+03  0.77139508353E+02 0.  0.
         25    2    1    2    0    0  0.16684427857E+03  0.13134541393E+02  0.78857452509E+01  0.20909263457E+03  0.12509202767E+03 0.  0.
         24    2    1    2    0    0 -0.17701038367E+03 -0.34313189595E+02  0.64175287267E+03  0.67160386242E+03  0.81822536789E+02 0.  0.
        -13    1    5    5    0    0 -0.15072240055E+03 -0.40654584006E+02  0.41758497909E+03  0.44581078048E+03  0.00000000000E+00 0.  1.
         14    1    5    5    0    0 -0.26287983117E+02  0.63413944112E+01  0.22416789358E+03  0.22579308194E+03  0.00000000000E+00 0. -1.
         11    1    3    3    0    0  0.21415909292E+02  0.37357908343E+02 -0.17859389096E+02  0.46617724799E+02  0.00000000000E+00 0. -1.
        -12    1    3    3    0    0 -0.11249804190E+02 -0.16179260141E+02 -0.69628924611E+02  0.72363759545E+02  0.00000000000E+00 0.  1.
          5    1    4    4  501    0 -0.22674654699E+01  0.12968510974E+02 -0.32379867779E+02  0.35203010013E+02  0.41800000000E+01 0.  1.
         -5    1    4    4    0  501  0.16911174404E+03  0.16603041868E+00  0.40265613030E+02  0.17388962456E+03  0.41800000000E+01 0.  1.
</event>
<event>
11    1  0.8299058E-009  0.1545094E+03  0.7561462E-02  0.1092358E+00
         22   -1    0    0    0    0  0.00000000000E+00  0.00000000000E+00  0.16965933080E+04  0.16965933080E+04  0.00000000000E+00 0. -1.
         22   -1    0    0    0    0 -0.00000000000E+00 -0.00000000000E+00 -0.10039313428E+03  0.10039313428E+03  0.00000000000E+00 0. -1.
        -24    2    1    2    0    0 -0.56565121965E+02  0.73153205589E+02 -0.70656338909E+01  0.12175947750E+03  0.78895137160E+02 0.  0.
         25    2    1    2    0    0  0.46888220121E+02 -0.71856933574E+02  0.12969469855E+03  0.19957511565E+03  0.12509031884E+03 0.  0.
         24    2    1    2    0    0  0.96769018442E+01 -0.12962720140E+01  0.14735711091E+04  0.14756518491E+04  0.77725437409E+02 0.  0.
        -11    1    5    5    0    0 -0.24843447830E+02  0.24685838913E+02  0.69843855568E+03  0.69931609705E+03  0.00000000000E+00 0.  1.
         12    1    5    5    0    0  0.34520349675E+02 -0.25982110927E+02  0.77513255338E+03  0.77633575206E+03  0.00000000000E+00 0. -1.
         13    1    3    3    0    0 -0.20666329644E+02  0.56073436265E+02 -0.38491378860E+02  0.71083849657E+02  0.00000000000E+00 0. -1.
        -14    1    3    3    0    0 -0.35898792321E+02  0.17079769324E+02  0.31425744969E+02  0.50675627841E+02  0.00000000000E+00 0.  1.
          5    1    4    4  501    0  0.45664942224E+02  0.16717108778E+02  0.90069530376E+02  0.10244384499E+03  0.41800000000E+01 0. -1.
         -5    1    4    4    0  501  0.12232778964E+01 -0.88574042353E+02  0.39625168172E+02  0.97131270661E+02  0.41800000000E+01 0. -1.
</event>
<event>
11    1  0.8299058E-009  0.1536087E+03  0.7561462E-02  0.1093247E+00
         22   -1    0    0    0    0  0.00000000000E+00  0.00000000000E+00  0.15215763785E+04  0.15215763785E+04  0.00000000000E+00 0. -1.
         22   -1    0    0    0    0 -0.00000000000E+00 -0.00000000000E+00 -0.32111934003E+03  0.32111934003E+03  0.00000000000E+00 0. -1.
         24    2    1    2    0    0 -0.40689576251E+02  0.78013904084E+02 -0.28013955446E+03  0.30441311068E+03  0.80295461478E+02 0.  0.
         25    2    1    2    0    0  0.70085361622E+02 -0.92801422367E+02  0.23953453614E+03  0.29419074806E+03  0.12508932942E+03 0.  0.
        -24    2    1    2    0    0 -0.29395785371E+02  0.14787518283E+02  0.12410620568E+04  0.12440918598E+04  0.80291617689E+02 0.  0.
        -13    1    3    3    0    0 -0.19879209379E+02  0.28082893703E+02 -0.22395031357E+02  0.41053249734E+02  0.00000000000E+00 0.  1.
         14    1    3    3    0    0 -0.20810366872E+02  0.49931010381E+02 -0.25774452310E+03  0.26335986094E+03  0.00000000000E+00 0. -1.
         13    1    5    5    0    0 -0.31678216229E+02 -0.78034396761E+01  0.11417973053E+04  0.11422633188E+04  0.00000000000E+00 0. -1.
        -14    1    5    5    0    0  0.22824308583E+01  0.22590957959E+02  0.99264751429E+02  0.10182854093E+03  0.00000000000E+00 0.  1.
          5    1    4    4  501    0 -0.20734922644E+02 -0.68298474475E+02  0.68866101596E+02  0.99270494013E+02  0.41800000000E+01 0. -1.
         -5    1    4    4    0  501  0.90820284266E+02 -0.24502947892E+02  0.17066843454E+03  0.19492025405E+03  0.41800000000E+01 0. -1.
</event>
<event>
11    1  0.8299058E-009  0.1267370E+03  0.7561462E-02  0.1123344E+00
         22   -1    0    0    0    0  0.00000000000E+00  0.00000000000E+00  0.10966339213E+04  0.10966339213E+04  0.00000000000E+00 0. -1.
         22   -1    0    0    0    0 -0.00000000000E+00 -0.00000000000E+00 -0.12017657117E+03  0.12017657117E+03  0.00000000000E+00 0.  1.
         24    2    1    2    0    0  0.33068399452E+01  0.11262984203E+02 -0.59412194619E+02  0.12629473674E+03  0.11082762136E+03 0.  0.
         25    2    1    2    0    0 -0.48315741906E+01 -0.80680112227E+02  0.20606400532E+03  0.25424835039E+03  0.12508886750E+03 0.  0.
        -24    2    1    2    0    0  0.15247342454E+01  0.69417128024E+02  0.82980553941E+03  0.83626740532E+03  0.77103031607E+02 0.  0.
        -13    1    3    3    0    0 -0.91313406459E+01 -0.40640855210E+02 -0.59851493100E+02  0.72919556503E+02  0.00000000000E+00 0.  1.
         14    1    3    3    0    0  0.12438180591E+02  0.51903839413E+02  0.43929848129E+00  0.53375180238E+02  0.00000000000E+00 0. -1.
         13    1    5    5    0    0 -0.14141653262E+02  0.21188991671E+02  0.61616142085E+03  0.61668781103E+03  0.00000000000E+00 0. -1.
        -14    1    5    5    0    0  0.15666387507E+02  0.48228136352E+02  0.21364411856E+03  0.21957959429E+03  0.00000000000E+00 0.  1.
          5    1    4    4  501    0  0.43600156051E+02 -0.59139161032E+02  0.48960947197E+02  0.88391519535E+02  0.41800000000E+01 0. -1.
         -5    1    4    4    0  501 -0.48431730242E+02 -0.21540951195E+02  0.15710305812E+03  0.16585683086E+03  0.41800000000E+01 0. -1.
</event>
<event>
11    1  0.8299058E-009  0.1808211E+03  0.7561462E-02  0.1068981E+00
         22   -1    0    0    0    0  0.00000000000E+00  0.00000000000E+00  0.54336255362E+03  0.54336255362E+03  0.00000000000E+00 0. -1.
         22   -1    0    0    0    0 -0.00000000000E+00 -0.00000000000E+00 -0.49140692977E+03  0.49140692977E+03  0.00000000000E+00 0.  1.
         24    2    1    2    0    0  0.11116298023E+03  0.52529809695E+02 -0.25689151202E+03  0.29612855102E+03  0.81131256021E+02 0.  0.
         25    2    1    2    0    0 -0.13494718270E+03 -0.60164472753E+02 -0.16682413083E+03  0.25556745916E+03  0.12511566510E+03 0.  0.
        -24    2    1    2    0    0  0.23784202465E+02  0.76346630580E+01  0.47567126670E+03  0.48307347320E+03  0.80454025260E+02 0.  0.
        -11    1    3    3    0    0  0.47426569742E+02  0.63884394088E+02 -0.17069298064E+03  0.18832575226E+03  0.00000000000E+00 0.  1.
         12    1    3    3    0    0  0.63736410491E+02 -0.11354584393E+02 -0.86198531379E+02  0.10780279876E+03  0.00000000000E+00 0. -1.
         13    1    5    5    0    0  0.41350875953E+02  0.30618179300E+02  0.36817475889E+03  0.37175263406E+03  0.00000000000E+00 0. -1.
        -14    1    5    5    0    0 -0.17566673488E+02 -0.22983516242E+02  0.10749650781E+03  0.11132083915E+03  0.00000000000E+00 0.  1.
          5    1    4    4  501    0 -0.97156026536E+02 -0.54883195317E+02 -0.33135664564E+02  0.11647705047E+03  0.41800000000E+01 0.  1.
         -5    1    4    4    0  501 -0.37791156162E+02 -0.52812774367E+01 -0.13368846627E+03  0.13909040868E+03  0.41800000000E+01 0.  1.
</event>
<event>
11    1  0.8299058E-009  0.1315765E+03  0.7561462E-02  0.1117347E+00
         22   -1    0    0    0    0  0.00000000000E+00  0.00000000000E+00  0.50263535603E+03  0.50263535603E+03  0.00000000000E+00 0. -1.
         22   -1    0    0    0    0 -0.00000000000E+00 -0.00000000000E+00 -0.46729650398E+03  0.46729650398E+03  0.00000000000E+00 0.  1.
         24    2    1    2    0    0  0.15614035066E+02  0.23952379943E+02 -0.43453250605E+03  0.44313643299E+03  0.82060251194E+02 0.  0.
         25    2    1    2    0    0 -0.51164487585E+02 -0.26282313963E+02  0.20872453041E+03  0.25004237803E+03  0.12508675550E+03 0.  0.
        -24    2    1    2    0    0  0.35550452519E+02  0.23299340203E+01  0.26114682769E+03  0.27675304899E+03  0.84411617954E+02 0.  0.
        -13    1    3    3    0    0  0.37056623611E+02  0.43621760796E+02 -0.26331010284E+03  0.26945920215E+03  0.00000000000E+00 0.  1.
         14    1    3    3    0    0 -0.21442588545E+02 -0.19669380853E+02 -0.17122240322E+03  0.17367723083E+03  0.00000000000E+00 0. -1.
         13    1    5    5    0    0  0.55107720569E+02 -0.14089593885E+02  0.22755959634E+03  0.23456075420E+03  0.00000000000E+00 0. -1.
        -14    1    5    5    0    0 -0.19557268050E+02  0.16419527906E+02  0.33587231348E+02  0.42192294793E+02  0.00000000000E+00 0.  1.
          5    1    4    4  501    0 -0.87511901519E+02 -0.17994751739E+02  0.18545920705E+03  0.20589981514E+03  0.41800000000E+01 0.  1.
         -5    1    4    4    0  501  0.36347413934E+02 -0.82875622242E+01  0.23265323366E+02  0.44142562892E+02  0.41800000000E+01 0.  1.
</event>
<event>
11    1  0.8299058E-009  0.1406589E+03  0.7561462E-02  0.1106825E+00
         22   -1    0    0    0    0  0.00000000000E+00  0.00000000000E+00  0.46627322357E+03  0.46627322357E+03  0.00000000000E+00 0.  1.
         22   -1    0    0    0    0 -0.00000000000E+00 -0.00000000000E+00 -0.81328783575E+03  0.81328783575E+03  0.00000000000E+00 0. -1.
         24    2    1    2    0    0  0.12527071148E+02 -0.13910437841E+02 -0.62258016105E+03  0.62797966962E+03  0.80012378624E+02 0.  0.
         25    2    1    2    0    0  0.25249658579E+02 -0.38884707645E+02 -0.15753576966E+03  0.20643308598E+03  0.12509010560E+03 0.  0.
        -24    2    1    2    0    0 -0.37776729727E+02  0.52795145486E+02  0.43310131853E+03  0.44514830372E+03  0.79786286412E+02 0.  0.
        -13    1    3    3    0    0  0.13187733896E+02  0.27228132766E+02 -0.42951264214E+03  0.43057681928E+03  0.00000000000E+00 0.  1.
         14    1    3    3    0    0 -0.66066274816E+00 -0.41138570607E+02 -0.19306751890E+03  0.19740285034E+03  0.00000000000E+00 0. -1.
         13    1    5    5    0    0 -0.10997352247E+02  0.51756913113E+02  0.12309094774E+03  0.13398171975E+03  0.00000000000E+00 0. -1.
        -14    1    5    5    0    0 -0.26779377480E+02  0.10382323732E+01  0.31001037079E+03  0.31116658397E+03  0.00000000000E+00 0.  1.
          5    1    4    4  501    0 -0.17663410874E+02  0.35158156760E+02 -0.19857339903E+02  0.44270514098E+02  0.41800000000E+01 0.  1.
         -5    1    4    4    0  501  0.42913069453E+02 -0.74042864405E+02 -0.13767842975E+03  0.16216257188E+03  0.41800000000E+01 0.  1.
</event>
<event>
11    1  0.8299058E-009  0.1387328E+03  0.7561462E-02  0.1108982E+00
         22   -1    0    0    0    0  0.00000000000E+00  0.00000000000E+00  0.15911398038E+03  0.15911398038E+03  0.00000000000E+00 0.  1.
         22   -1    0    0    0    0 -0.00000000000E+00 -0.00000000000E+00 -0.61871977502E+03  0.61871977502E+03  0.00000000000E+00 0. -1.
         24    2    1    2    0    0 -0.30269408501E+02  0.27207097856E+01 -0.47592786818E+03  0.48425192734E+03  0.84077072188E+02 0.  0.
         25    2    1    2    0    0 -0.54736629620E+01  0.49185539963E+02 -0.77216099208E+02  0.15510862250E+03  0.12508869041E+03 0.  0.
        -24    2    1    2    0    0  0.35743071463E+02 -0.51906249749E+02  0.93538172743E+02  0.13847320556E+03  0.80334382280E+02 0.  0.
        -13    1    3    3    0    0 -0.40319911665E+02  0.28871308305E+02 -0.17116527553E+03  0.17820437499E+03  0.00000000000E+00 0.  1.
         14    1    3    3    0    0  0.10050503164E+02 -0.26150598520E+02 -0.30476259265E+03  0.30604755234E+03  0.00000000000E+00 0. -1.
         11    1    5    5    0    0  0.38909292731E+01 -0.48968062330E+02  0.11544173345E+02  0.50460661879E+02  0.00000000000E+00 0. -1.
        -12    1    5    5    0    0  0.31852142190E+02 -0.29381874184E+01  0.81993999398E+02  0.88012543678E+02  0.00000000000E+00 0.  1.
          5    1    4    4  501    0  0.10054208536E+02  0.71112533279E+02  0.13667408408E+01  0.71954290207E+02  0.41800000000E+01 0.  1.
         -5    1    4    4    0  501 -0.15527871498E+02 -0.21926993315E+02 -0.78582840048E+02  0.83154332294E+02  0.41800000000E+01 0.  1.
</event>
<event>
11    1  0.8299058E-009  0.9265644E+03  0.7561462E-02  0.8752180E-01
         22   -1    0    0    0    0  0.00000000000E+00  0.00000000000E+00  0.82460643340E+03  0.82460643340E+03  0.00000000000E+00 0. -1.
         22   -1    0    0    0    0 -0.00000000000E+00 -0.00000000000E+00 -0.26028220116E+03  0.26028220116E+03  0.00000000000E+00 0. -1.
        -24    2    1    2    0    0 -0.10440787824E+02 -0.14615967483E+03  0.12672392185E+02  0.16722416078E+03  0.79571790404E+02 0.  0.
         25    2    1    2    0    0 -0.15249616940E+03  0.38167871851E+03  0.38179886250E+03  0.57476174357E+03  0.12508782763E+03 0.  0.
         24    2    1    2    0    0  0.16293695723E+03 -0.23551904368E+03  0.16985297756E+03  0.34290273020E+03  0.81942519045E+02 0.  0.
        -11    1    5    5    0    0  0.74790972461E+02 -0.43622084926E+02  0.53904605385E+02  0.10199157973E+03  0.00000000000E+00 0.  1.
         12    1    5    5    0    0  0.88145984764E+02 -0.19189695875E+03  0.11594837217E+03  0.24091115047E+03  0.00000000000E+00 0. -1.
         13    1    3    3    0    0  0.30583092518E+01 -0.36778950830E+02  0.39227562494E+02  0.53859503700E+02  0.00000000000E+00 0. -1.
        -14    1    3    3    0    0 -0.13499097075E+02 -0.10938072400E+03 -0.26555170309E+02  0.11336465708E+03  0.00000000000E+00 0.  1.
          5    1    4    4  501    0 -0.14260705241E+01  0.87968287029E+02  0.14001426777E+03  0.16541439109E+03  0.41800000000E+01 0. -1.
         -5    1    4    4    0  501 -0.15107009888E+03  0.29371043148E+03  0.24178459473E+03  0.40934735249E+03  0.41800000000E+01 0. -1.
</event>
<event>
11    1  0.8299058E-009  0.2168455E+03  0.7561462E-02  0.1043212E+00
         22   -1    0    0    0    0  0.00000000000E+00  0.00000000000E+00  0.62386922591E+03  0.62386922591E+03  0.00000000000E+00 0. -1.
         22   -1    0    0    0    0 -0.00000000000E+00 -0.00000000000E+00 -0.25330734420E+03  0.25330734420E+03  0.00000000000E+00 0. -1.
        -24    2    1    2    0    0  0.20964107385E+01 -0.50723020285E+02 -0.53466408730E+02  0.10885365758E+03  0.80082720861E+02 0.  0.
         25    2    1    2    0    0 -0.12313090048E+03  0.17435886975E+03 -0.53928979593E+02  0.25321803233E+03  0.12509517553E+03 0.  0.
         24    2    1    2    0    0  0.12103448974E+03 -0.12363584947E+03  0.47795727003E+03  0.51510488021E+03  0.83394931850E+02 0.  0.
        -11    1    5    5    0    0 -0.12657636807E+02 -0.65428871804E+01  0.31347838362E+02  0.34434170706E+02  0.00000000000E+00 0.  1.
         12    1    5    5    0    0  0.13369212655E+03 -0.11709296229E+03  0.44660943167E+03  0.48067070950E+03  0.00000000000E+00 0. -1.
         13    1    3    3    0    0 -0.22048295949E+02 -0.33422600726E+02 -0.65529936065E+02  0.76794336472E+02  0.00000000000E+00 0. -1.
        -14    1    3    3    0    0  0.24144706687E+02 -0.17300419559E+02  0.12063527334E+02  0.32059321104E+02  0.00000000000E+00 0.  1.
          5    1    4    4  501    0 -0.90133952791E+02  0.12422578611E+03 -0.94836399929E+02  0.18046492881E+03  0.41800000000E+01 0. -1.
         -5    1    4    4    0  501 -0.32996947687E+02  0.50133083644E+02  0.40907420336E+02  0.72753103514E+02  0.41800000000E+01 0. -1.
</event>
<event>
11    1  0.8299058E-009  0.1788210E+03  0.7561462E-02  0.1070600E+00
         22   -1    0    0    0    0  0.00000000000E+00  0.00000000000E+00  0.12960031025E+04  0.12960031025E+04  0.00000000000E+00 0.  1.
         22   -1    0    0    0    0 -0.00000000000E+00 -0.00000000000E+00 -0.45934736223E+03  0.45934736223E+03  0.00000000000E+00 0.  1.
         24    2    1    2    0    0  0.16313122482E+01  0.43611826855E+02 -0.34108029740E+03  0.35310012475E+03  0.80245100816E+02 0.  0.
         25    2    1    2    0    0  0.12127792538E+03 -0.65782571354E+01 -0.36907439547E+02  0.17821644965E+03  0.12508930881E+03 0.  0.
        -24    2    1    2    0    0 -0.12290923763E+03 -0.37033569719E+02  0.12146434772E+04  0.12240338903E+04  0.80137519266E+02 0.  0.
        -13    1    3    3    0    0  0.11228181930E+02  0.56789648528E+02 -0.32530286828E+03  0.33041351722E+03  0.00000000000E+00 0.  1.
         14    1    3    3    0    0 -0.95968696817E+01 -0.13177821673E+02 -0.15777429114E+02  0.22686607529E+02  0.00000000000E+00 0. -1.
         11    1    5    5    0    0 -0.12731703576E+02 -0.66828859184E+01  0.24437790579E+02  0.28354238634E+02  0.00000000000E+00 0. -1.
        -12    1    5    5    0    0 -0.11017753405E+03 -0.30350683801E+02  0.11902056866E+04  0.11956796517E+04  0.00000000000E+00 0.  1.
          5    1    4    4  501    0 -0.26899968564E+01 -0.30097757872E+02 -0.41948055406E+02  0.51867358370E+02  0.41800000000E+01 0. -1.
         -5    1    4    4    0  501  0.12396792223E+03  0.23519500736E+02  0.50406158586E+01  0.12634909127E+03  0.41800000000E+01 0. -1.
</event>
<event>
11    1  0.8299058E-009  0.1302197E+03  0.7561462E-02  0.1118999E+00
         22   -1    0    0    0    0  0.00000000000E+00  0.00000000000E+00  0.37925531497E+03  0.37925531497E+03  0.00000000000E+00 0. -1.
         22   -1    0    0    0    0 -0.00000000000E+00 -0.00000000000E+00 -0.56748632196E+03  0.56748632196E+03  0.00000000000E+00 0.  1.
         24    2    1    2    0    0  0.27282140703E+02 -0.63343369808E+01 -0.44747625784E+03  0.45527275610E+03  0.79081237296E+02 0.  0.
         25    2    1    2    0    0 -0.24105987741E+02 -0.30131700931E+02 -0.71499981984E+02  0.14915856562E+03  0.12508801792E+03 0.  0.
        -24    2    1    2    0    0 -0.31761529618E+01  0.36466037912E+02  0.33074523283E+03  0.34231031521E+03  0.80275045874E+02 0.  0.
        -13    1    3    3    0    0  0.41645135018E+02  0.45421948964E+01 -0.42197432837E+03  0.42404867952E+03  0.00000000000E+00 0.  1.
         14    1    3    3    0    0 -0.14362994315E+02 -0.10876531877E+02 -0.25501929475E+02  0.31224076580E+02  0.00000000000E+00 0. -1.
         11    1    5    5    0    0  0.29152275871E+02  0.28763162577E+02  0.26982148307E+03  0.27291172096E+03  0.00000000000E+00 0. -1.
        -12    1    5    5    0    0 -0.32328428832E+02  0.77028753351E+01  0.60923749756E+02  0.69398594247E+02  0.00000000000E+00 0.  1.
          5    1    4    4  501    0 -0.45749822440E+02 -0.66851512755E+02 -0.22702836464E+02  0.84232192150E+02  0.41800000000E+01 0. -1.
         -5    1    4    4    0  501  0.21643834699E+02  0.36719811824E+02 -0.48797145520E+02  0.64926373468E+02  0.41800000000E+01 0. -1.
</event>
<event>
11    1  0.8299058E-009  0.1471956E+03  0.7561462E-02  0.1099779E+00
         22   -1    0    0    0    0  0.00000000000E+00  0.00000000000E+00  0.14684065510E+04  0.14684065510E+04  0.00000000000E+00 0. -1.
         22   -1    0    0    0    0 -0.00000000000E+00 -0.00000000000E+00 -0.58515279470E+02  0.58515279470E+02  0.00000000000E+00 0. -1.
         24    2    1    2    0    0 -0.35621356371E+02  0.60084681557E+02  0.40898677623E+02  0.11371539990E+03  0.79871398862E+02 0.  0.
         25    2    1    2    0    0  0.45510812743E+02 -0.10446225351E+03  0.33743168872E+03  0.37748158610E+03  0.12509439161E+03 0.  0.
        -24    2    1    2    0    0 -0.98894563713E+01  0.44377571957E+02  0.10315609052E+04  0.10357248445E+04  0.80875719969E+02 0.  0.
        -13    1    3    3    0    0 -0.96382356324E+01  0.76772916344E+01  0.52632089031E+02  0.54055279008E+02  0.00000000000E+00 0.  1.
         14    1    3    3    0    0 -0.25983120739E+02  0.52407389923E+02 -0.11733411408E+02  0.59660120894E+02  0.00000000000E+00 0. -1.
         13    1    5    5    0    0 -0.13775688314E+02  0.21708600430E+02  0.96425495047E+03  0.96459765831E+03  0.00000000000E+00 0. -1.
        -14    1    5    5    0    0  0.38862319429E+01  0.22668971526E+02  0.67305954762E+02  0.71127186189E+02  0.00000000000E+00 0.  1.
          5    1    4    4  501    0 -0.38371608610E+02 -0.42929133556E+02  0.17744620250E+03  0.18660095936E+03  0.41800000000E+01 0. -1.
         -5    1    4    4    0  501  0.83882421353E+02 -0.61533119957E+02  0.15998548622E+03  0.19088062674E+03  0.41800000000E+01 0. -1.
</event>
<event>
11    1  0.9970032E-009  0.2492255E+03  0.7561462E-02  0.1024313E+00
         22   -1    0    0    0    0  0.00000000000E+00  0.00000000000E+00  0.11053119950E+04  0.11053119950E+04  0.00000000000E+00 0.  1.
         22   -1    0    0    0    0 -0.00000000000E+00 -0.00000000000E+00 -0.66376004971E+03  0.66376004971E+03  0.00000000000E+00 0. -1.
         24    2    1    2    0    0 -0.12528695957E+03  0.14977647302E+03 -0.33783666252E+03  0.39865151165E+03  0.81606391259E+02 0.  0.
         25    2    1    2    0    0  0.95257279664E+02 -0.26456842192E+03 -0.20877258288E+03  0.37189624915E+03  0.12510167691E+03 0.  0.
        -24    2    1    2    0    0  0.30029679909E+02  0.11479194890E+03  0.98816119070E+03  0.99852428391E+03  0.80679821168E+02 0.  0.
        -13    1    3    3    0    0 -0.62227282691E+02  0.16846336958E+02 -0.10646638897E+03  0.12446335107E+03  0.00000000000E+00 0.  1.
         14    1    3    3    0    0 -0.63059676882E+02  0.13293013606E+03 -0.23137027355E+03  0.27418816058E+03  0.00000000000E+00 0. -1.
         11    1    5    5    0    0  0.17484749220E+02 -0.79371251453E+01  0.98957703610E+02  0.10080347967E+03  0.00000000000E+00 0. -1.
        -12    1    5    5    0    0  0.12544930689E+02  0.12272907405E+03  0.88920348709E+03  0.89772080423E+03  0.00000000000E+00 0.  1.
          5    1    4    4  501    0 -0.25427548789E+02 -0.66880497121E+02 -0.77800421838E+02  0.10578250881E+03  0.41800000000E+01 0. -1.
         -5    1    4    4    0  501  0.12068482845E+03 -0.19768792480E+03 -0.13097216104E+03  0.26611374034E+03  0.41800000000E+01 0. -1.
</event>
<event>
11    1  0.8299058E-009  0.1531167E+03  0.7561462E-02  0.1093736E+00
         22   -1    0    0    0    0  0.00000000000E+00  0.00000000000E+00  0.73634602296E+03  0.73634602296E+03  0.00000000000E+00 0. -1.
         22   -1    0    0    0    0 -0.00000000000E+00 -0.00000000000E+00 -0.83032071757E+03  0.83032071757E+03  0.00000000000E+00 0. -1.
         24    2    1    2    0    0  0.46346990772E+02  0.79541187442E+02 -0.70481521854E+03  0.71501155736E+03  0.77473807315E+02 0.  0.
         25    2    1    2    0    0  0.22397105629E+02 -0.73686381164E+02 -0.69974035560E+02  0.16270939805E+03  0.12508664777E+03 0.  0.
        -24    2    1    2    0    0 -0.68744096401E+02 -0.58548062779E+01  0.68081455949E+03  0.68894578512E+03  0.79861134927E+02 0.  0.
        -13    1    3    3    0    0  0.56640632349E+01  0.18273017224E+02 -0.26298717483E+02  0.32520875019E+02  0.00000000000E+00 0.  1.
         14    1    3    3    0    0  0.40682927537E+02  0.61268170218E+02 -0.67851650106E+03  0.68249068234E+03  0.00000000000E+00 0. -1.
         13    1    5    5    0    0 -0.29857130876E+02 -0.29371010097E+02  0.13757840685E+03  0.14381210843E+03  0.00000000000E+00 0. -1.
        -14    1    5    5    0    0 -0.38886965525E+02  0.23516203819E+02  0.54323615264E+03  0.54513367669E+03  0.00000000000E+00 0.  1.
          5    1    4    4  501    0 -0.47141349983E+02 -0.40630609239E+01 -0.31363915977E+02  0.56920848269E+02  0.41800000000E+01 0.  1.
         -5    1    4    4    0  501  0.69538455612E+02 -0.69623320240E+02 -0.38610119583E+02  0.10578854978E+03  0.41800000000E+01 0.  1.
</event>
<event>
11    1  0.8299058E-009  0.1543488E+03  0.7561462E-02  0.1092516E+00
         22   -1    0    0    0    0  0.00000000000E+00  0.00000000000E+00  0.67964006495E+03  0.67964006495E+03  0.00000000000E+00 0. -1.
         22   -1    0    0    0    0 -0.00000000000E+00 -0.00000000000E+00 -0.51313938823E+03  0.51313938823E+03  0.00000000000E+00 0. -1.
        -24    2    1    2    0    0  0.12193411665E+02  0.90951043042E+02 -0.43474920793E+03  0.45151456308E+03  0.80235624032E+02 0.  0.
         25    2    1    2    0    0 -0.48932465718E+02 -0.69793787750E+02  0.20069250860E+02  0.15270300161E+03  0.12509945188E+03 0.  0.
         24    2    1    2    0    0  0.36739054053E+02 -0.21157255293E+02  0.58118063380E+03  0.58856188849E+03  0.82684822872E+02 0.  0.
        -13    1    5    5    0    0 -0.22036386808E+02 -0.78203050655E+01  0.30432744174E+03  0.30522442778E+03  0.00000000000E+00 0.  1.
         14    1    5    5    0    0  0.58775440860E+02 -0.13336950227E+02  0.27685319205E+03  0.28333746071E+03  0.00000000000E+00 0. -1.
         11    1    3    3    0    0 -0.28001341473E+02  0.72365863743E+02 -0.28046499116E+03  0.29100086705E+03  0.00000000000E+00 0. -1.
        -12    1    3    3    0    0  0.40194753138E+02  0.18585179299E+02 -0.15428421677E+03  0.16051369603E+03  0.00000000000E+00 0.  1.
          5    1    4    4  501    0 -0.65146255148E+02 -0.29934414564E+02 -0.37254170355E+02  0.80903951350E+02  0.41800000000E+01 0. -1.
         -5    1    4    4    0  501  0.16213789430E+02 -0.39859373185E+02  0.57323421215E+02  0.71799050260E+02  0.41800000000E+01 0. -1.
</event>
<event>
11    1  0.8299058E-009  0.1397074E+03  0.7561462E-02  0.1107886E+00
         22   -1    0    0    0    0  0.00000000000E+00  0.00000000000E+00  0.11950181810E+03  0.11950181810E+03  0.00000000000E+00 0.  1.
         22   -1    0    0    0    0 -0.00000000000E+00 -0.00000000000E+00 -0.16914028538E+04  0.16914028538E+04  0.00000000000E+00 0. -1.
         24    2    1    2    0    0  0.34745410939E+02  0.58897050264E+01 -0.90106167772E+03  0.90325460502E+03  0.52103764044E+02 0.  0.
         25    2    1    2    0    0 -0.14963584337E+02 -0.65022680170E+02 -0.75971823946E+03  0.77283405343E+03  0.12509521564E+03 0.  0.
        -24    2    1    2    0    0 -0.19781826602E+02  0.59132975143E+02  0.88878881494E+02  0.13481601344E+03  0.79924167134E+02 0.  0.
        -13    1    3    3    0    0  0.17114229818E+01 -0.18746099257E+02 -0.17149004798E+03  0.17252009089E+03  0.00000000000E+00 0.  1.
         14    1    3    3    0    0  0.33033987957E+02  0.24635804283E+02 -0.72957162974E+03  0.73073451413E+03  0.00000000000E+00 0. -1.
         11    1    5    5    0    0  0.26120310202E+02  0.23801898901E+02  0.95795139520E+01  0.36613769048E+02  0.00000000000E+00 0. -1.
        -12    1    5    5    0    0 -0.45902136804E+02  0.35331076242E+02  0.79299367542E+02  0.98202244395E+02  0.00000000000E+00 0.  1.
          5    1    4    4  501    0 -0.41305237028E+02  0.72379643405E+01 -0.98391410982E+02  0.10703668945E+03  0.41800000000E+01 0.  1.
         -5    1    4    4    0  501  0.26341652691E+02 -0.72260644510E+02 -0.66132682848E+03  0.66579736397E+03  0.41800000000E+01 0.  1.
</event>
<event>
11    1  0.8299058E-009  0.1365111E+03  0.7561462E-02  0.1111518E+00
         22   -1    0    0    0    0  0.00000000000E+00  0.00000000000E+00  0.14100830258E+03  0.14100830258E+03  0.00000000000E+00 0. -1.
         22   -1    0    0    0    0 -0.00000000000E+00 -0.00000000000E+00 -0.19687299351E+04  0.19687299351E+04  0.00000000000E+00 0.  1.
         24    2    1    2    0    0 -0.59851562104E+01  0.21550454393E+02 -0.16174398403E+04  0.16195976203E+04  0.80526831269E+02 0.  0.
         25    2    1    2    0    0  0.48268420694E+02 -0.54559662388E+02 -0.31461272085E+03  0.34631663674E+03  0.12508977402E+03 0.  0.
        -24    2    1    2    0    0 -0.42283264484E+02  0.33009207995E+02  0.10433092864E+03  0.14382398062E+03  0.83204041148E+02 0.  0.
        -11    1    3    3    0    0  0.27327398379E+02  0.67500717000E+01 -0.12578397419E+04  0.12581546672E+04  0.00000000000E+00 0.  1.
         12    1    3    3    0    0 -0.33312554589E+02  0.14800382693E+02 -0.35960009834E+03  0.36144295310E+03  0.00000000000E+00 0. -1.
         11    1    5    5    0    0  0.15663711522E+02 -0.84711068543E+01  0.53237976884E+02  0.56137275430E+02  0.00000000000E+00 0. -1.
        -12    1    5    5    0    0 -0.57946976007E+02  0.41480314849E+02  0.51092951752E+02  0.87686705190E+02  0.00000000000E+00 0.  1.
          5    1    4    4  501    0  0.25432074137E+02  0.24770493703E+02 -0.21371006877E+02  0.41648050233E+02  0.41800000000E+01 0.  1.
         -5    1    4    4    0  501  0.22836346557E+02 -0.79330156092E+02 -0.29324171397E+03  0.30466858651E+03  0.41800000000E+01 0.  1.
</event>
<event>
11    1  0.8299058E-009  0.1520232E+03  0.7561462E-02  0.1094829E+00
         22   -1    0    0    0    0  0.00000000000E+00  0.00000000000E+00  0.11237469894E+04  0.11237469894E+04  0.00000000000E+00 0. -1.
         22   -1    0    0    0    0 -0.00000000000E+00 -0.00000000000E+00 -0.60570557763E+03  0.60570557763E+03  0.00000000000E+00 0. -1.
        -24    2    1    2    0    0  0.46629555550E+02 -0.71197742902E+02 -0.55323139318E+03  0.56509586771E+03  0.77620430629E+02 0.  0.
         25    2    1    2    0    0 -0.22822653974E+02  0.14145740889E+03  0.16612212378E+03  0.25254017142E+03  0.12509558788E+03 0.  0.
         24    2    1    2    0    0 -0.23806901576E+02 -0.70259665987E+02  0.90515068118E+03  0.91181652790E+03  0.81292285487E+02 0.  0.
        -11    1    5    5    0    0 -0.22707986769E+02  0.13395139289E+02  0.20848061999E+03  0.21014102725E+03  0.00000000000E+00 0.  1.
         12    1    5    5    0    0 -0.10989148067E+01 -0.83654805276E+02  0.69667006118E+03  0.70167550065E+03  0.00000000000E+00 0. -1.
         11    1    3    3    0    0  0.64304402591E+02 -0.58665559292E+02 -0.50169459067E+03  0.50918971548E+03  0.00000000000E+00 0. -1.
        -12    1    3    3    0    0 -0.17674847041E+02 -0.12532183610E+02 -0.51536802515E+02  0.55906152232E+02  0.00000000000E+00 0.  1.
          5    1    4    4  501    0  0.16444152890E+02  0.14182785952E+03  0.15651866379E+03  0.21189883534E+03  0.41800000000E+01 0.  1.
         -5    1    4    4    0  501 -0.39266806864E+02 -0.37045063501E+00  0.96034599874E+01  0.40641336084E+02  0.41800000000E+01 0.  1.
</event>
<event>
11    1  0.8299058E-009  0.1308188E+03  0.7561462E-02  0.1118267E+00
         22   -1    0    0    0    0  0.00000000000E+00  0.00000000000E+00  0.34297481994E+03  0.34297481994E+03  0.00000000000E+00 0. -1.
         22   -1    0    0    0    0 -0.00000000000E+00 -0.00000000000E+00 -0.34154945662E+03  0.34154945662E+03  0.00000000000E+00 0. -1.
         24    2    1    2    0    0 -0.29137928209E+02  0.40119906188E+02 -0.23046751805E+03  0.25104367892E+03  0.86307740747E+02 0.  0.
         25    2    1    2    0    0 -0.14769470189E+01  0.94756437926E+01 -0.49629365697E+02  0.13491443328E+03  0.12508741411E+03 0.  0.
        -24    2    1    2    0    0  0.30614875228E+02 -0.49595549981E+02  0.28152224707E+03  0.29856616436E+03  0.80560472582E+02 0.  0.
        -13    1    3    3    0    0  0.12926272126E+02  0.37716471031E+02 -0.41945681284E+02  0.57871071154E+02  0.00000000000E+00 0.  1.
         14    1    3    3    0    0 -0.42064200335E+02  0.24034351573E+01 -0.18852183677E+03  0.19317260776E+03  0.00000000000E+00 0. -1.
         13    1    5    5    0    0  0.39999145197E+01  0.18419308876E+02  0.11770884712E+03  0.11920840132E+03  0.00000000000E+00 0. -1.
        -14    1    5    5    0    0  0.26614960708E+02 -0.68014858857E+02  0.16381339995E+03  0.17935776304E+03  0.00000000000E+00 0.  1.
          5    1    4    4  501    0  0.53727100597E+02 -0.43705159250E+01  0.70006036696E+01  0.54517736561E+02  0.41800000000E+01 0. -1.
         -5    1    4    4    0  501 -0.55204047616E+02  0.13846159718E+02 -0.56629969366E+02  0.80396696714E+02  0.41800000000E+01 0. -1.
</event>
<event>
11    1  0.8299058E-009  0.1484402E+03  0.7561462E-02  0.1098483E+00
         22   -1    0    0    0    0  0.00000000000E+00  0.00000000000E+00  0.20044184381E+04  0.20044184381E+04  0.00000000000E+00 0. -1.
         22   -1    0    0    0    0 -0.00000000000E+00 -0.00000000000E+00 -0.26681667496E+03  0.26681667496E+03  0.00000000000E+00 0. -1.
         24    2    1    2    0    0 -0.75344471139E+02 -0.34223443552E+02 -0.23572617959E+03  0.26234498044E+03  0.80062622977E+02 0.  0.
         25    2    1    2    0    0  0.20874036160E+02  0.18217942123E+02  0.23448377761E+03  0.26720273960E+03  0.12508814207E+03 0.  0.
        -24    2    1    2    0    0  0.54470434979E+02  0.16005501429E+02  0.17388441652E+04  0.17416873931E+04  0.81686841155E+02 0.  0.
        -13    1    3    3    0    0  0.22182016183E+01 -0.13451055691E+02 -0.33659447268E+00  0.13636884302E+02  0.00000000000E+00 0.  1.
         14    1    3    3    0    0 -0.77562672757E+02 -0.20772387861E+02 -0.23538958512E+03  0.24870809614E+03  0.00000000000E+00 0. -1.
         13    1    5    5    0    0  0.71053464919E+02  0.90341064140E+01  0.16101244183E+04  0.16117167407E+04  0.00000000000E+00 0. -1.
        -14    1    5    5    0    0 -0.16583029941E+02  0.69713950152E+01  0.12871974686E+03  0.12997065231E+03  0.00000000000E+00 0.  1.
          5    1    4    4  501    0 -0.32743249434E+02 -0.29701936111E+02  0.39838173773E+02  0.59656331448E+02  0.41800000000E+01 0. -1.
         -5    1    4    4    0  501  0.53617285595E+02  0.47919878234E+02  0.19464560384E+03  0.20754640816E+03  0.41800000000E+01 0. -1.
</event>
<event>
11    1  0.8299058E-009  0.1597745E+03  0.7561462E-02  0.1087290E+00
         22   -1    0    0    0    0  0.00000000000E+00  0.00000000000E+00  0.26084620984E+04  0.26084620984E+04  0.00000000000E+00 0.  1.
         22   -1    0    0    0    0 -0.00000000000E+00 -0.00000000000E+00 -0.79788624395E+02  0.79788624395E+02  0.00000000000E+00 0. -1.
        -24    2    1    2    0    0  0.27789306036E+02 -0.98302427244E+02  0.83374873990E+00  0.14169777965E+03  0.98193446269E+02 0.  0.
         25    2    1    2    0    0  0.11328414805E+02  0.78971897688E+02  0.66059327790E+03  0.67705117948E+03  0.12509966917E+03 0.  0.
         24    2    1    2    0    0 -0.39117720841E+02  0.19330529556E+02  0.18672464474E+04  0.18695017637E+04  0.80769323801E+02 0.  0.
        -13    1    5    5    0    0 -0.48604527614E+02 -0.79647919618E+01  0.15881080653E+04  0.15888716327E+04  0.00000000000E+00 0.  1.
         14    1    5    5    0    0  0.94868067733E+01  0.27295321518E+02  0.27913838204E+03  0.28063013097E+03  0.00000000000E+00 0. -1.
         11    1    3    3    0    0  0.54163551408E+02 -0.22564636310E+02 -0.13548667236E+02  0.60219760019E+02  0.00000000000E+00 0. -1.
        -12    1    3    3    0    0 -0.26374245372E+02 -0.75737790933E+02  0.14382415976E+02  0.81478019636E+02  0.00000000000E+00 0.  1.
          5    1    4    4  501    0 -0.33526510267E+02  0.93500128589E+02  0.39821832295E+03  0.41044074611E+03  0.41800000000E+01 0. -1.
         -5    1    4    4    0  501  0.44854925072E+02 -0.14528230901E+02  0.26237495495E+03  0.26661043337E+03  0.41800000000E+01 0. -1.
</event>
<event>
11    1  0.1102860E-008  0.1486064E+03  0.7561462E-02  0.1098311E+00
         22   -1    0    0    0    0  0.00000000000E+00  0.00000000000E+00  0.67630791109E+03  0.67630791109E+03  0.00000000000E+00 0.  1.
         22   -1    0    0    0    0 -0.00000000000E+00 -0.00000000000E+00 -0.74822798265E+03  0.74822798265E+03  0.00000000000E+00 0. -1.
        -24    2    1    2    0    0  0.24170916059E+02 -0.73682767802E+02 -0.57817579540E+03  0.58897046971E+03  0.81151588753E+02 0.  0.
         25    2    1    2    0    0 -0.79377567163E+02  0.12878055631E+03 -0.98896814031E+02  0.21980043593E+03  0.12508565847E+03 0.  0.
         24    2    1    2    0    0  0.55206651104E+02 -0.55097788511E+02  0.60515253787E+03  0.61576498810E+03  0.82905885512E+02 0.  0.
        -13    1    5    5    0    0  0.62076194704E+02 -0.72117492898E+02  0.48911969516E+03  0.49828953724E+03  0.00000000000E+00 0.  1.
         14    1    5    5    0    0 -0.68695436008E+01  0.17019704387E+02  0.11603284272E+03  0.11747545087E+03  0.00000000000E+00 0. -1.
         13    1    3    3    0    0  0.15147507636E+02 -0.81862102032E+02 -0.56471207618E+03  0.57081571433E+03  0.00000000000E+00 0. -1.
        -14    1    3    3    0    0  0.90234084236E+01  0.81793342296E+01 -0.13463719213E+02  0.18154755384E+02  0.00000000000E+00 0.  1.
          5    1    4    4  501    0 -0.35898976894E+02  0.96986422749E+02 -0.12290536090E+03  0.16068074831E+03  0.41800000000E+01 0.  1.
         -5    1    4    4    0  501 -0.43478590269E+02  0.31794133564E+02  0.24008546870E+02  0.59119687615E+02  0.41800000000E+01 0.  1.
</event>
<event>
11    1  0.8299058E-009  0.1311063E+03  0.7561462E-02  0.1117917E+00
         22   -1    0    0    0    0  0.00000000000E+00  0.00000000000E+00  0.12322105615E+04  0.12322105615E+04  0.00000000000E+00 0.  1.
         22   -1    0    0    0    0 -0.00000000000E+00 -0.00000000000E+00 -0.61354680203E+03  0.61354680203E+03  0.00000000000E+00 0. -1.
         24    2    1    2    0    0  0.73726456926E+01 -0.27642685773E+02 -0.41670795662E+03  0.42526318478E+03  0.79904826122E+02 0.  0.
         25    2    1    2    0    0 -0.33733268919E+02  0.56443060536E+02 -0.16473084381E+03  0.21704197967E+03  0.12508883852E+03 0.  0.
        -24    2    1    2    0    0  0.26360623226E+02 -0.28800374763E+02  0.12001025599E+04  0.12034521991E+04  0.80787976388E+02 0.  0.
        -11    1    3    3    0    0  0.31379363008E+02  0.14364401025E+02 -0.13006721940E+03  0.13456775989E+03  0.00000000000E+00 0.  1.
         12    1    3    3    0    0 -0.24006717316E+02 -0.42007086797E+02 -0.28664073722E+03  0.29069542489E+03  0.00000000000E+00 0. -1.
         13    1    5    5    0    0  0.35212832034E+00  0.18694775642E+02  0.84849309203E+02  0.86885118995E+02  0.00000000000E+00 0. -1.
        -14    1    5    5    0    0  0.26008494906E+02 -0.47495150405E+02  0.11152532507E+04  0.11165670801E+04  0.00000000000E+00 0.  1.
          5    1    4    4  501    0  0.20638108047E+02 -0.31434891033E+02 -0.41352812666E+02  0.56050079335E+02  0.41800000000E+01 0.  1.
         -5    1    4    4    0  501 -0.54371376966E+02  0.87877951569E+02 -0.12337803114E+03  0.16099190034E+03  0.41800000000E+01 0.  1.
</event>
<event>
11    1  0.8299058E-009  0.1607399E+03  0.7561462E-02  0.1086383E+00
         22   -1    0    0    0    0  0.00000000000E+00  0.00000000000E+00  0.13304774916E+03  0.13304774916E+03  0.00000000000E+00 0.  1.
         22   -1    0    0    0    0 -0.00000000000E+00 -0.00000000000E+00 -0.13459791956E+04  0.13459791956E+04  0.00000000000E+00 0.  1.
         24    2    1    2    0    0 -0.52792589529E+02 -0.86597473000E+02 -0.11939030903E+04  0.12009765760E+04  0.81571853334E+02 0.  0.
         25    2    1    2    0    0  0.86078667652E+02  0.56510408119E+02 -0.66277182619E+02  0.17505094500E+03  0.12508878911E+03 0.  0.
        -24    2    1    2    0    0 -0.33286078123E+02  0.30087064881E+02  0.47248826501E+02  0.10299942373E+03  0.79769889134E+02 0.  0.
        -11    1    3    3    0    0 -0.63541011917E+02 -0.69989535491E+02 -0.11330978884E+04  0.11370342211E+04  0.00000000000E+00 0.  1.
         12    1    3    3    0    0  0.10748422388E+02 -0.16607937510E+02 -0.60805201878E+02  0.63942354880E+02  0.00000000000E+00 0. -1.
         11    1    5    5    0    0  0.24028161683E+02 -0.34690361196E+00  0.24279577289E+02  0.34160953870E+02  0.00000000000E+00 0. -1.
        -12    1    5    5    0    0 -0.57314239807E+02  0.30433968493E+02  0.22969249212E+02  0.68838469857E+02  0.00000000000E+00 0.  1.
          5    1    4    4  501    0  0.75633049154E+02  0.25480268601E+02 -0.99900486387E+02  0.12793428701E+03  0.41800000000E+01 0.  1.
         -5    1    4    4    0  501  0.10445618498E+02  0.31030139518E+02  0.33623303768E+02  0.47116657994E+02  0.41800000000E+01 0.  1.
</event>
<event>
11    1  0.8299058E-009  0.1456936E+03  0.7561462E-02  0.1101362E+00
         22   -1    0    0    0    0  0.00000000000E+00  0.00000000000E+00  0.10499120201E+03  0.10499120201E+03  0.00000000000E+00 0. -1.
         22   -1    0    0    0    0 -0.00000000000E+00 -0.00000000000E+00 -0.18514004305E+04  0.18514004305E+04  0.00000000000E+00 0. -1.
         24    2    1    2    0    0 -0.67232115838E+02  0.30999658124E+02 -0.16631638646E+04  0.16669469636E+04  0.84362330226E+02 0.  0.
         25    2    1    2    0    0  0.67980729216E+02 -0.61213512729E+02 -0.12217810298E+03  0.19734427662E+03  0.12509516770E+03 0.  0.
        -24    2    1    2    0    0 -0.74861337804E+00  0.30213854605E+02  0.38932739101E+02  0.92100392281E+02  0.77802870463E+02 0.  0.
        -13    1    3    3    0    0 -0.25500930092E+02  0.99989261537E+01 -0.12042207533E+03  0.12349798455E+03  0.00000000000E+00 0.  1.
         14    1    3    3    0    0 -0.41731185746E+02  0.21000731970E+02 -0.15427417892E+04  0.15434489790E+04  0.00000000000E+00 0. -1.
         11    1    5    5    0    0  0.34056923140E+02  0.11322323896E+02  0.38307947440E+02  0.52493503114E+02  0.00000000000E+00 0. -1.
        -12    1    5    5    0    0 -0.34805536518E+02  0.18891530710E+02  0.62479166098E+00  0.39606889167E+02  0.00000000000E+00 0.  1.
          5    1    4    4  501    0  0.67597584919E+02 -0.87028845528E+02 -0.12958977152E+03  0.17016002681E+03  0.41800000000E+01 0. -1.
         -5    1    4    4    0  501  0.38314429684E+00  0.25815332799E+02  0.74116685442E+01  0.27184249809E+02  0.41800000000E+01 0. -1.
</event>
<event>
11    1  0.8299058E-009  0.4545011E+03  0.7561462E-02  0.9501363E-01
         22   -1    0    0    0    0  0.00000000000E+00  0.00000000000E+00  0.54579442677E+03  0.54579442677E+03  0.00000000000E+00 0. -1.
         22   -1    0    0    0    0 -0.00000000000E+00 -0.00000000000E+00 -0.23533653943E+04  0.23533653943E+04  0.00000000000E+00 0.  1.
         24    2    1    2    0    0  0.92336756250E+02  0.11987187300E+03 -0.11511469565E+04  0.11641136376E+04  0.84415065006E+02 0.  0.
         25    2    1    2    0    0 -0.50373054309E+03 -0.23295181233E+03 -0.10205686435E+04  0.11684258198E+04  0.12509010116E+03 0.  0.
        -24    2    1    2    0    0  0.41139378684E+03  0.11307993933E+03  0.36414463252E+03  0.56662036365E+03  0.80158608927E+02 0.  0.
        -13    1    3    3    0    0  0.19336650132E+02  0.92781081226E+02 -0.68077743776E+03  0.68734282191E+03  0.00000000000E+00 0.  1.
         14    1    3    3    0    0  0.73000106118E+02  0.27090791773E+02 -0.47036951875E+03  0.47677081565E+03  0.00000000000E+00 0. -1.
         11    1    5    5    0    0  0.18850822502E+03  0.93029357677E+02  0.16979722100E+03  0.27022381196E+03  0.00000000000E+00 0. -1.
        -12    1    5    5    0    0  0.22288556182E+03  0.20050581650E+02  0.19434741152E+03  0.29639655169E+03  0.00000000000E+00 0.  1.
          5    1    4    4  501    0 -0.38455943221E+03 -0.23229783935E+03 -0.78899179957E+03  0.90795031541E+03  0.41800000000E+01 0.  1.
         -5    1    4    4    0  501 -0.11917111088E+03 -0.65397297259E+00 -0.23157684393E+03  0.26047550440E+03  0.41800000000E+01 0.  1.
</event>
<event>
11    1  0.8299058E-009  0.1332620E+03  0.7561462E-02  0.1115325E+00
         22   -1    0    0    0    0  0.00000000000E+00  0.00000000000E+00  0.34906619664E+03  0.34906619664E+03  0.00000000000E+00 0.  1.
         22   -1    0    0    0    0 -0.00000000000E+00 -0.00000000000E+00 -0.67111948624E+03  0.67111948624E+03  0.00000000000E+00 0. -1.
         24    2    1    2    0    0  0.44184613557E+02 -0.11127389312E+02 -0.56095602015E+03  0.56775966623E+03  0.74855081173E+02 0.  0.
         25    2    1    2    0    0 -0.43868703936E+02  0.33910296915E+02 -0.54158711590E+02  0.14715675918E+03  0.12509026465E+03 0.  0.
        -24    2    1    2    0    0 -0.31590962015E+00 -0.22782907603E+02  0.29306144215E+03  0.30526925748E+03  0.82372022008E+02 0.  0.
        -11    1    3    3    0    0  0.16196311710E+02 -0.38555421056E+02 -0.18002954816E+03  0.18482283197E+03  0.00000000000E+00 0.  1.
         12    1    3    3    0    0  0.27988301846E+02  0.27428031744E+02 -0.38092647200E+03  0.38293683426E+03  0.00000000000E+00 0. -1.
         13    1    5    5    0    0 -0.25328246884E+02 -0.55376926288E+01  0.26830162426E+02  0.37310102461E+02  0.00000000000E+00 0. -1.
        -14    1    5    5    0    0  0.25012337264E+02 -0.17245214974E+02  0.26623127972E+03  0.26795915502E+03  0.00000000000E+00 0.  1.
          5    1    4    4  501    0 -0.47165388008E+02  0.66819031866E+02  0.19198502900E+01  0.81917733554E+02  0.41800000000E+01 0.  1.
         -5    1    4    4    0  501  0.32966840717E+01 -0.32908734951E+02 -0.56078561880E+02  0.65239025625E+02  0.41800000000E+01 0.  1.
</event>
<event>
11    1  0.8299058E-009  0.1331438E+03  0.7561462E-02  0.1115465E+00
         22   -1    0    0    0    0  0.00000000000E+00  0.00000000000E+00  0.26101186834E+03  0.26101186834E+03  0.00000000000E+00 0. -1.
         22   -1    0    0    0    0 -0.00000000000E+00 -0.00000000000E+00 -0.41677276028E+03  0.41677276028E+03  0.00000000000E+00 0.  1.
        -24    2    1    2    0    0 -0.65176656752E+00 -0.26169346481E+01 -0.31930730377E+03  0.32929060621E+03  0.80423105821E+02 0.  0.
         25    2    1    2    0    0 -0.14556642722E+01 -0.43207915537E+02 -0.29128277500E+02  0.13552473388E+03  0.12509777783E+03 0.  0.
         24    2    1    2    0    0  0.21074308397E+01  0.45824850185E+02  0.19267468933E+03  0.21296928854E+03  0.78281695152E+02 0.  0.
        -11    1    5    5    0    0  0.30712399875E+02  0.46463939693E+02  0.85500631080E+02  0.10204169301E+03  0.00000000000E+00 0.  1.
         12    1    5    5    0    0 -0.28604969035E+02 -0.63908950771E+00  0.10717405824E+03  0.11092759553E+03  0.00000000000E+00 0. -1.
         13    1    3    3    0    0 -0.20830707561E+01  0.47209937494E+01  0.36031480000E+01  0.62936190913E+01  0.00000000000E+00 0. -1.
        -14    1    3    3    0    0  0.14313041886E+01 -0.73379283975E+01 -0.32291045177E+03  0.32299698711E+03  0.00000000000E+00 0.  1.
          5    1    4    4  501    0  0.23264800532E+02 -0.82151657984E+02 -0.12925771251E+02  0.86456311602E+02  0.41800000000E+01 0. -1.
         -5    1    4    4    0  501 -0.24720464805E+02  0.38943742447E+02 -0.16202506249E+02  0.49068422276E+02  0.41800000000E+01 0. -1.
</event>
<event>
11    1  0.8299058E-009  0.2408227E+03  0.7561462E-02  0.1028905E+00
         22   -1    0    0    0    0  0.00000000000E+00  0.00000000000E+00  0.11154197623E+04  0.11154197623E+04  0.00000000000E+00 0.  1.
         22   -1    0    0    0    0 -0.00000000000E+00 -0.00000000000E+00 -0.31402330419E+03  0.31402330419E+03  0.00000000000E+00 0.  1.
         24    2    1    2    0    0 -0.13065888037E+02 -0.13950720411E+02 -0.22279430862E+03  0.23398764673E+03  0.68902647530E+02 0.  0.
         25    2    1    2    0    0  0.17216578164E+03 -0.11621614775E+03  0.13104363369E+03  0.27562342691E+03  0.12509432507E+03 0.  0.
        -24    2    1    2    0    0 -0.15909989360E+03  0.13016686817E+03  0.89314713303E+03  0.91983199285E+03  0.78248987922E+02 0.  0.
        -13    1    3    3    0    0 -0.90371829150E+01 -0.31831010967E+02 -0.20748378581E+03  0.21010570032E+03  0.00000000000E+00 0.  1.
         14    1    3    3    0    0 -0.40287051215E+01  0.17880290556E+02 -0.15310522814E+02  0.23881946407E+02  0.00000000000E+00 0. -1.
         13    1    5    5    0    0 -0.67018668458E+02  0.56357161482E+02  0.22683044153E+03  0.24314539020E+03  0.00000000000E+00 0. -1.
        -14    1    5    5    0    0 -0.92081225141E+02  0.73809706684E+02  0.66631669151E+03  0.67668660265E+03  0.00000000000E+00 0.  1.
          5    1    4    4  501    0  0.16138926365E+02  0.23875836300E+02  0.33289517204E+02  0.44228778628E+02  0.41800000000E+01 0.  1.
         -5    1    4    4    0  501  0.15602685527E+03 -0.14009198405E+03  0.97754116491E+02  0.23139464828E+03  0.41800000000E+01 0.  1.
</event>
<event>
11    1  0.8299058E-009  0.1732699E+03  0.7561462E-02  0.1075221E+00
         22   -1    0    0    0    0  0.00000000000E+00  0.00000000000E+00  0.12224817253E+03  0.12224817253E+03  0.00000000000E+00 0.  1.
         22   -1    0    0    0    0 -0.00000000000E+00 -0.00000000000E+00 -0.24149998623E+04  0.24149998623E+04  0.00000000000E+00 0. -1.
         24    2    1    2    0    0  0.10334033821E+03  0.15199657962E+02 -0.10580442606E+04  0.10661332492E+04  0.79197175139E+02 0.  0.
         25    2    1    2    0    0 -0.73381593390E+02 -0.13163426723E+03 -0.12981300325E+04  0.13128219694E+04  0.12508998126E+03 0.  0.
        -24    2    1    2    0    0 -0.29958744820E+02  0.11643460927E+03  0.63422603429E+02  0.15829281617E+03  0.81115007246E+02 0.  0.
        -13    1    3    3    0    0  0.29178933850E+02 -0.21113674762E+02 -0.14673543127E+03  0.15109097999E+03  0.00000000000E+00 0.  1.
         14    1    3    3    0    0  0.74161404360E+02  0.36313332724E+02 -0.91130882937E+03  0.91504226926E+03  0.00000000000E+00 0. -1.
         13    1    5    5    0    0 -0.36699751944E+02  0.57521443601E+02 -0.41911826642E+01  0.68360473074E+02  0.00000000000E+00 0. -1.
        -14    1    5    5    0    0  0.67410071239E+01  0.58913165664E+02  0.67613786094E+02  0.89932343100E+02  0.00000000000E+00 0.  1.
          5    1    4    4  501    0 -0.71518504473E+02 -0.15440358528E+03 -0.11981282237E+04  0.12101586988E+04  0.41800000000E+01 0.  1.
         -5    1    4    4    0  501 -0.18630889173E+01  0.22769318057E+02 -0.10000180887E+03  0.10266327056E+03  0.41800000000E+01 0.  1.
</event>
<event>
11    1  0.8299058E-009  0.1722426E+03  0.7561462E-02  0.1076096E+00
         22   -1    0    0    0    0  0.00000000000E+00  0.00000000000E+00  0.78592987685E+03  0.78592987685E+03  0.00000000000E+00 0. -1.
         22   -1    0    0    0    0 -0.00000000000E+00 -0.00000000000E+00 -0.40139483521E+03  0.40139483521E+03  0.00000000000E+00 0. -1.
         24    2    1    2    0    0 -0.11796291936E+03 -0.22865914230E+02 -0.24720761954E+03  0.28613849586E+03  0.79533208618E+02 0.  0.
         25    2    1    2    0    0  0.92437088062E+02  0.89651120348E+02 -0.69016819467E+02  0.19233439114E+03  0.12508900038E+03 0.  0.
        -24    2    1    2    0    0  0.25525831298E+02 -0.66785206118E+02  0.70075948065E+03  0.70885182506E+03  0.79342475043E+02 0.  0.
        -13    1    3    3    0    0 -0.36705707962E+01  0.21192904356E+02 -0.40784981368E+02  0.46108860214E+02  0.00000000000E+00 0.  1.
         14    1    3    3    0    0 -0.11429234856E+03 -0.44058818586E+02 -0.20642263817E+03  0.24002963564E+03  0.00000000000E+00 0. -1.
         13    1    5    5    0    0  0.10364110495E+01 -0.56904077671E+02  0.64094960641E+03  0.64347148045E+03  0.00000000000E+00 0. -1.
        -14    1    5    5    0    0  0.24489420249E+02 -0.98811284464E+01  0.59809874242E+02  0.65380344603E+02  0.00000000000E+00 0.  1.
          5    1    4    4  501    0  0.69699871435E+02  0.39217134703E+00 -0.71711075284E+02  0.10009084171E+03  0.41800000000E+01 0. -1.
         -5    1    4    4    0  501  0.22737216627E+02  0.89258949001E+02  0.26942558169E+01  0.92243549428E+02  0.41800000000E+01 0. -1.
</event>
<event>
11    1  0.8299058E-009  0.1257993E+03  0.7561462E-02  0.1124541E+00
         22   -1    0    0    0    0  0.00000000000E+00  0.00000000000E+00  0.29739779510E+03  0.29739779510E+03  0.00000000000E+00 0.  1.
         22   -1    0    0    0    0 -0.00000000000E+00 -0.00000000000E+00 -0.59631680411E+03  0.59631680411E+03  0.00000000000E+00 0.  1.
         24    2    1    2    0    0  0.24454087499E+02  0.16651580022E+02 -0.54001860582E+03  0.54587491849E+03  0.74054402268E+02 0.  0.
         25    2    1    2    0    0 -0.31597462071E+02 -0.61604919820E+01  0.46353556006E+02  0.13722256625E+03  0.12508009139E+03 0.  0.
        -24    2    1    2    0    0  0.71433745723E+01 -0.10491088040E+02  0.19474604080E+03  0.21061711446E+03  0.79198849542E+02 0.  0.
        -11    1    3    3    0    0  0.17151792115E+02  0.15147504816E+02 -0.53752723147E+03  0.53801408481E+03  0.00000000000E+00 0.  1.
         12    1    3    3    0    0  0.73022953843E+01  0.15040752068E+01 -0.24913743465E+01  0.78608336861E+01  0.00000000000E+00 0. -1.
         13    1    5    5    0    0  0.25258258117E+02 -0.13669286282E+02  0.20217726484E+02  0.35122435205E+02  0.00000000000E+00 0. -1.
        -14    1    5    5    0    0 -0.18114883544E+02  0.31781982412E+01  0.17452831432E+03  0.17549467926E+03  0.00000000000E+00 0.  1.
          5    1    4    4  501    0  0.31238170019E+01  0.96894211136E+01  0.83248740672E+02  0.83973021487E+02  0.41800000000E+01 0.  1.
         -5    1    4    4    0  501 -0.34721279073E+02 -0.15849913096E+02 -0.36895184665E+02  0.53249544760E+02  0.41800000000E+01 0.  1.
</event>
<event>
11    1  0.8299058E-009  0.1444237E+03  0.7561462E-02  0.1102717E+00
         22   -1    0    0    0    0  0.00000000000E+00  0.00000000000E+00  0.97028274971E+03  0.97028274971E+03  0.00000000000E+00 0. -1.
         22   -1    0    0    0    0 -0.00000000000E+00 -0.00000000000E+00 -0.37155347899E+03  0.37155347899E+03  0.00000000000E+00 0. -1.
         24    2    1    2    0    0 -0.32689468908E+02 -0.20647664965E+02 -0.27910171904E+03  0.29862898735E+03  0.98927119991E+02 0.  0.
         25    2    1    2    0    0 -0.39479393994E+02  0.33429617734E+02 -0.21826067379E+02  0.13711267714E+03  0.12508935655E+03 0.  0.
        -24    2    1    2    0    0  0.72168862902E+02 -0.12781952769E+02  0.89965705714E+03  0.90609456421E+03  0.79074747795E+02 0.  0.
        -11    1    3    3    0    0  0.23732528702E+02 -0.22561725359E+02 -0.34375814816E+02  0.47475899297E+02  0.00000000000E+00 0.  1.
         12    1    3    3    0    0 -0.56421997610E+02  0.19140603939E+01 -0.24472590422E+03  0.25115308806E+03  0.00000000000E+00 0. -1.
         13    1    5    5    0    0  0.49019530031E+02  0.14281136674E+02  0.76832349525E+03  0.77001808975E+03  0.00000000000E+00 0. -1.
        -14    1    5    5    0    0  0.23149332871E+02 -0.27063089443E+02  0.13133356189E+03  0.13607647446E+03  0.00000000000E+00 0.  1.
          5    1    4    4  501    0 -0.51019850975E+02 -0.37174901661E+02 -0.15724299740E+02  0.65189911101E+02  0.41800000000E+01 0. -1.
         -5    1    4    4    0  501  0.11540456981E+02  0.70604519395E+02 -0.61017676394E+01  0.71922766039E+02  0.41800000000E+01 0. -1.
</event>
<event>
11    1  0.8299058E-009  0.1516082E+03  0.7561462E-02  0.1095247E+00
         22   -1    0    0    0    0  0.00000000000E+00  0.00000000000E+00  0.49337685762E+03  0.49337685762E+03  0.00000000000E+00 0. -1.
         22   -1    0    0    0    0 -0.00000000000E+00 -0.00000000000E+00 -0.61400484865E+03  0.61400484865E+03  0.00000000000E+00 0. -1.
        -24    2    1    2    0    0  0.69379261210E+02 -0.55583300000E+01 -0.48918669490E+03  0.49923408697E+03  0.71320924044E+02 0.  0.
         25    2    1    2    0    0 -0.14519805658E+03 -0.24137904387E+02 -0.28257652733E+02  0.19522083817E+03  0.12509023406E+03 0.  0.
         24    2    1    2    0    0  0.75818795368E+02  0.29696234387E+02  0.39681635661E+03  0.41292678113E+03  0.80093380705E+02 0.  0.
        -13    1    5    5    0    0  0.74997373356E+02  0.28070491332E+02  0.19106738600E+03  0.20716974800E+03  0.00000000000E+00 0.  1.
         14    1    5    5    0    0  0.82142201161E+00  0.16257430549E+01  0.20574897061E+03  0.20575703313E+03  0.00000000000E+00 0. -1.
         13    1    3    3    0    0  0.73884721348E+02  0.74572288105E+01 -0.46870962504E+03  0.47455587123E+03  0.00000000000E+00 0. -1.
        -14    1    3    3    0    0 -0.45054601380E+01 -0.13015558810E+02 -0.20477069859E+02  0.24678215743E+02  0.00000000000E+00 0.  1.
          5    1    4    4  501    0 -0.45781541222E+02 -0.47900743450E+02 -0.58556913206E+02  0.88525788469E+02  0.41800000000E+01 0.  1.
         -5    1    4    4    0  501 -0.99416515355E+02  0.23762839064E+02  0.30299260474E+02  0.10669504970E+03  0.41800000000E+01 0.  1.
</event>
<event>
11    1  0.8299058E-009  0.2483522E+03  0.7561462E-02  0.1024781E+00
         22   -1    0    0    0    0  0.00000000000E+00  0.00000000000E+00  0.27198191181E+03  0.27198191181E+03  0.00000000000E+00 0. -1.
         22   -1    0    0    0    0 -0.00000000000E+00 -0.00000000000E+00 -0.13429252112E+04  0.13429252112E+04  0.00000000000E+00 0.  1.
         24    2    1    2    0    0 -0.22363552092E+01  0.52195803684E+02 -0.10578714673E+04  0.10621139272E+04  0.79148909364E+02 0.  0.
         25    2    1    2    0    0  0.52818764862E+02  0.16849431797E+03 -0.16201315347E+03  0.27032480632E+03  0.12508829644E+03 0.  0.
        -24    2    1    2    0    0 -0.50582409653E+02 -0.22069012166E+03  0.14894132132E+03  0.28246838953E+03  0.79637704162E+02 0.  0.
        -13    1    3    3    0    0  0.25000661561E+02  0.29847680476E+02 -0.87579754704E+03  0.87666256935E+03  0.00000000000E+00 0.  1.
         14    1    3    3    0    0 -0.27237016770E+02  0.22348123208E+02 -0.18207392023E+03  0.18545135783E+03  0.00000000000E+00 0. -1.
         13    1    5    5    0    0 -0.34107845487E+02 -0.21390938931E+03  0.15168799399E+03  0.26444246913E+03  0.00000000000E+00 0. -1.
        -14    1    5    5    0    0 -0.16474564166E+02 -0.67807323482E+01 -0.27466726676E+01  0.18025920403E+02  0.00000000000E+00 0.  1.
          5    1    4    4  501    0  0.36466529605E+02  0.50341288965E+02  0.77741864476E+01  0.62785058183E+02  0.41800000000E+01 0. -1.
         -5    1    4    4    0  501  0.16352235258E+02  0.11815302901E+03 -0.16978733992E+03  0.20753974814E+03  0.41800000000E+01 0. -1.
</event>
<event>
11    1  0.8299058E-009  0.4445951E+03  0.7561462E-02  0.9526631E-01
         22   -1    0    0    0    0  0.00000000000E+00  0.00000000000E+00  0.32989149885E+04  0.32989149885E+04  0.00000000000E+00 0.  1.
         22   -1    0    0    0    0 -0.00000000000E+00 -0.00000000000E+00 -0.49891040792E+03  0.49891040792E+03  0.00000000000E+00 0. -1.
        -24    2    1    2    0    0 -0.18273306728E+03 -0.16781827640E+03 -0.36754945213E+03  0.45042903460E+03  0.78989668169E+02 0.  0.
         25    2    1    2    0    0 -0.21287138936E+03  0.36702168664E+03  0.62823100469E+03  0.76833632635E+03  0.12508944110E+03 0.  0.
         24    2    1    2    0    0  0.39560445664E+03 -0.19920341023E+03  0.25393230280E+04  0.25790600355E+04  0.84878390156E+02 0.  0.
        -11    1    5    5    0    0  0.23914649977E+03 -0.12214778458E+03  0.17671274207E+04  0.17874144597E+04  0.00000000000E+00 0.  1.
         12    1    5    5    0    0  0.15645795687E+03 -0.77055625650E+02  0.77219560733E+03  0.79164557580E+03  0.00000000000E+00 0. -1.
         11    1    3    3    0    0 -0.11531425170E+03 -0.13795361722E+03 -0.20985894741E+03  0.27635005873E+03  0.00000000000E+00 0. -1.
        -12    1    3    3    0    0 -0.67418815578E+02 -0.29864659177E+02 -0.15769050472E+03  0.17407897587E+03  0.00000000000E+00 0.  1.
          5    1    4    4  501    0 -0.67378685171E+02  0.30365298789E+02  0.82903344351E+02  0.11114124118E+03  0.41800000000E+01 0.  1.
         -5    1    4    4    0  501 -0.14549270418E+03  0.33665638785E+03  0.54532766034E+03  0.65719508518E+03  0.41800000000E+01 0.  1.
</event>
<event>
11    1  0.8299058E-009  0.2960654E+03  0.7561462E-02  0.1001870E+00
         22   -1    0    0    0    0  0.00000000000E+00  0.00000000000E+00  0.25227424024E+03  0.25227424024E+03  0.00000000000E+00 0. -1.
         22   -1    0    0    0    0 -0.00000000000E+00 -0.00000000000E+00 -0.21015070936E+04  0.21015070936E+04  0.00000000000E+00 0.  1.
         24    2    1    2    0    0 -0.46555929434E+02 -0.25447642450E+03 -0.15340403377E+04  0.15577553537E+04  0.79976740011E+02 0.  0.
         25    2    1    2    0    0  0.51359406488E+02  0.30594352011E+03 -0.49196279682E+03  0.59490647939E+03  0.12508836735E+03 0.  0.
        -24    2    1    2    0    0 -0.48034770541E+01 -0.51467095605E+02  0.17677028117E+03  0.20111950078E+03  0.80804616005E+02 0.  0.
        -13    1    3    3    0    0 -0.66735222934E+02 -0.16698461173E+03 -0.95288772987E+03  0.96970741787E+03  0.00000000000E+00 0.  1.
         14    1    3    3    0    0  0.20179293500E+02 -0.87491812775E+02 -0.58115260784E+03  0.58804793579E+03  0.00000000000E+00 0. -1.
         13    1    5    5    0    0 -0.17245793584E+02 -0.68378055755E+02  0.15772999678E+03  0.17277652558E+03  0.00000000000E+00 0. -1.
        -14    1    5    5    0    0  0.12442316530E+02  0.16910960150E+02  0.19040284381E+02  0.28342975199E+02  0.00000000000E+00 0.  1.
          5    1    4    4  501    0 -0.46139651268E+01  0.19788639200E+02  0.24649928305E+01  0.20890847403E+02  0.41800000000E+01 0.  1.
         -5    1    4    4    0  501  0.55973371615E+02  0.28615488091E+03 -0.49442778965E+03  0.57401563199E+03  0.41800000000E+01 0.  1.
</event>
<event>
11    1  0.8299058E-009  0.1430686E+03  0.7561462E-02  0.1104179E+00
         22   -1    0    0    0    0  0.00000000000E+00  0.00000000000E+00  0.11121328339E+04  0.11121328339E+04  0.00000000000E+00 0.  1.
         22   -1    0    0    0    0 -0.00000000000E+00 -0.00000000000E+00 -0.25513224833E+03  0.25513224833E+03  0.00000000000E+00 0. -1.
        -24    2    1    2    0    0 -0.36383571779E+02 -0.62456633742E+02 -0.21224681168E+03  0.23902597363E+03  0.82825790714E+02 0.  0.
         25    2    1    2    0    0  0.36250124431E+02  0.20081369131E+02  0.13125870180E+03  0.18598958103E+03  0.12508375013E+03 0.  0.
         24    2    1    2    0    0  0.13344734798E+00  0.42375264612E+02  0.93798869547E+03  0.94224952759E+03  0.78839701687E+02 0.  0.
        -13    1    5    5    0    0  0.96896415467E+01 -0.18375419722E+02  0.43809788491E+03  0.43859012981E+03  0.00000000000E+00 0.  1.
         14    1    5    5    0    0 -0.95561941987E+01  0.60750684334E+02  0.49989081056E+03  0.50365939778E+03  0.00000000000E+00 0. -1.
         11    1    3    3    0    0 -0.34897138378E+02 -0.82155161101E+02 -0.18459236329E+03  0.20504053587E+03  0.00000000000E+00 0. -1.
        -12    1    3    3    0    0 -0.14864334011E+01  0.19698527358E+02 -0.27654448389E+02  0.33985437765E+02  0.00000000000E+00 0.  1.
          5    1    4    4  501    0  0.52631729040E+02  0.45265248865E+02  0.22521277928E+02  0.73100766180E+02  0.41800000000E+01 0. -1.
         -5    1    4    4    0  501 -0.16381604609E+02 -0.25183879735E+02  0.10873742387E+03  0.11288881485E+03  0.41800000000E+01 0. -1.
</event>
<event>
11    1  0.8299058E-009  0.1345738E+03  0.7561462E-02  0.1113774E+00
         22   -1    0    0    0    0  0.00000000000E+00  0.00000000000E+00  0.83605480432E+03  0.83605480432E+03  0.00000000000E+00 0. -1.
         22   -1    0    0    0    0 -0.00000000000E+00 -0.00000000000E+00 -0.35960970085E+03  0.35960970085E+03  0.00000000000E+00 0.  1.
         24    2    1    2    0    0 -0.25236032028E+02  0.28079543002E+02 -0.29053166261E+03  0.30431452762E+03  0.82300465944E+02 0.  0.
         25    2    1    2    0    0  0.57506937742E+02  0.99000789687E+01  0.21180779221E+02  0.13964475052E+03  0.12508785507E+03 0.  0.
        -24    2    1    2    0    0 -0.32270905714E+02 -0.37979621971E+02  0.74579598686E+03  0.75170522702E+03  0.79782399529E+02 0.  0.
        -11    1    3    3    0    0  0.67597943901E+01 -0.53362254708E+01 -0.21872648826E+03  0.21889597253E+03  0.00000000000E+00 0.  1.
         12    1    3    3    0    0 -0.31995826418E+02  0.33415768473E+02 -0.71805174353E+02  0.85418555096E+02  0.00000000000E+00 0. -1.
         11    1    5    5    0    0 -0.46129634626E+02  0.34084597964E-01  0.54017905438E+03  0.54214514214E+03  0.00000000000E+00 0. -1.
        -12    1    5    5    0    0  0.13858728912E+02 -0.38013706569E+02  0.20561693248E+03  0.20956008488E+03  0.00000000000E+00 0.  1.
          5    1    4    4  501    0  0.80920074262E+02  0.31861884489E+02  0.46353050221E+02  0.98637293994E+02  0.41800000000E+01 0. -1.
         -5    1    4    4    0  501 -0.23413136519E+02 -0.21961805521E+02 -0.25172271000E+02  0.41007456525E+02  0.41800000000E+01 0. -1.
</event>
<event>
11    1  0.8299058E-009  0.1513630E+03  0.7561462E-02  0.1095494E+00
         22   -1    0    0    0    0  0.00000000000E+00  0.00000000000E+00  0.58951651369E+03  0.58951651369E+03  0.00000000000E+00 0.  1.
         22   -1    0    0    0    0 -0.00000000000E+00 -0.00000000000E+00 -0.13361715543E+04  0.13361715543E+04  0.00000000000E+00 0. -1.
         24    2    1    2    0    0 -0.19257363852E+02 -0.50656768787E+02 -0.12398936258E+04  0.12433127738E+04  0.74521780448E+02 0.  0.
         25    2    1    2    0    0  0.48395302374E+02  0.12662605013E+03  0.90104307206E+01  0.18467477247E+03  0.12508925558E+03 0.  0.
        -24    2    1    2    0    0 -0.29137938522E+02 -0.75969281343E+02  0.48422815446E+03  0.49770052179E+03  0.81293004923E+02 0.  0.
        -13    1    3    3    0    0  0.24184100540E+02 -0.54546395113E+01 -0.55574013410E+03  0.55629283697E+03  0.00000000000E+00 0.  1.
         14    1    3    3    0    0 -0.43441464392E+02 -0.45202129276E+02 -0.68415349171E+03  0.68701993679E+03  0.00000000000E+00 0. -1.
         13    1    5    5    0    0  0.20405307962E+02 -0.12765531463E+02  0.22587155177E+03  0.22715037593E+03  0.00000000000E+00 0. -1.
        -14    1    5    5    0    0 -0.49543246484E+02 -0.63203749880E+02  0.25835660270E+03  0.27055014587E+03  0.00000000000E+00 0.  1.
          5    1    4    4  501    0 -0.25716912372E+01  0.12499662640E+03  0.31170368500E+02  0.12891793700E+03  0.41800000000E+01 0. -1.
         -5    1    4    4    0  501  0.50966993611E+02  0.16294237306E+01 -0.22159937779E+02  0.55756835471E+02  0.41800000000E+01 0. -1.
</event>
<event>
11    1  0.8299058E-009  0.3147830E+03  0.7561462E-02  0.9941218E-01
         22   -1    0    0    0    0  0.00000000000E+00  0.00000000000E+00  0.24304152318E+03  0.24304152318E+03  0.00000000000E+00 0. -1.
         22   -1    0    0    0    0 -0.00000000000E+00 -0.00000000000E+00 -0.92469986443E+03  0.92469986443E+03  0.00000000000E+00 0. -1.
         24    2    1    2    0    0  0.23341197745E+02  0.76853854795E+02 -0.25168362069E+03  0.27490446433E+03  0.76003243855E+02 0.  0.
         25    2    1    2    0    0 -0.47633840068E+02  0.22487853554E+03 -0.50658693457E+03  0.57019069941E+03  0.12509105862E+03 0.  0.
        -24    2    1    2    0    0  0.24292642323E+02 -0.30173239034E+03  0.76612214012E+02  0.32264622387E+03  0.81231684662E+02 0.  0.
        -11    1    3    3    0    0  0.10205855943E+01 -0.15383433743E+02 -0.42186717205E+02  0.44915595701E+02  0.00000000000E+00 0.  1.
         12    1    3    3    0    0  0.22320612150E+02  0.92237288538E+02 -0.20949690348E+03  0.22998886863E+03  0.00000000000E+00 0. -1.
         13    1    5    5    0    0  0.29022603525E+02 -0.21737194797E+03  0.18461813078E+02  0.22007660899E+03  0.00000000000E+00 0. -1.
        -14    1    5    5    0    0 -0.47299612020E+01 -0.84360442364E+02  0.58150400934E+02  0.10256961488E+03  0.00000000000E+00 0.  1.
          5    1    4    4  501    0 -0.49870064731E+01  0.20871924393E+03 -0.35527408639E+03  0.41209918937E+03  0.41800000000E+01 0.  1.
         -5    1    4    4    0  501 -0.42646833594E+02  0.16159291613E+02 -0.15131284818E+03  0.15809151003E+03  0.41800000000E+01 0.  1.
</event>
<event>
11    1  0.8299058E-009  0.3527844E+03  0.7561462E-02  0.9800359E-01
         22   -1    0    0    0    0  0.00000000000E+00  0.00000000000E+00  0.98947223860E+03  0.98947223860E+03  0.00000000000E+00 0. -1.
         22   -1    0    0    0    0 -0.00000000000E+00 -0.00000000000E+00 -0.33073470401E+03  0.33073470401E+03  0.00000000000E+00 0. -1.
        -24    2    1    2    0    0 -0.25127348168E+03 -0.19381498031E+03 -0.51672341210E+02  0.33149250757E+03  0.80713335602E+02 0.  0.
         25    2    1    2    0    0  0.30420957666E+03  0.18279492097E+03  0.12842747912E+03  0.39761628863E+03  0.12509055091E+03 0.  0.
         24    2    1    2    0    0 -0.52936094986E+02  0.11020059336E+02  0.58198239669E+03  0.59109814641E+03  0.88146677607E+02 0.  0.
        -13    1    5    5    0    0  0.87198404994E+01 -0.81334000978E+01  0.35263787934E+03  0.35283942773E+03  0.00000000000E+00 0.  1.
         14    1    5    5    0    0 -0.61655935485E+02  0.19153459434E+02  0.22934451735E+03  0.23825871868E+03  0.00000000000E+00 0. -1.
         11    1    3    3    0    0 -0.19022935678E+03 -0.16379582636E+03 -0.90031065313E+01  0.25119183275E+03  0.00000000000E+00 0. -1.
        -12    1    3    3    0    0 -0.61044124902E+02 -0.30019153942E+02 -0.42669234679E+02  0.80300674820E+02  0.00000000000E+00 0.  1.
          5    1    4    4  501    0  0.21550468645E+03  0.18832740275E+03  0.84838270234E+02  0.29853724224E+03  0.41800000000E+01 0. -1.
         -5    1    4    4    0  501  0.88704890210E+02 -0.55324817799E+01  0.43589208889E+02  0.99079046389E+02  0.41800000000E+01 0. -1.
</event>
<event>
11    1  0.8299058E-009  0.2160247E+03  0.7561462E-02  0.1043737E+00
         22   -1    0    0    0    0  0.00000000000E+00  0.00000000000E+00  0.11846040141E+04  0.11846040141E+04  0.00000000000E+00 0.  1.
         22   -1    0    0    0    0 -0.00000000000E+00 -0.00000000000E+00 -0.53982237136E+03  0.53982237136E+03  0.00000000000E+00 0. -1.
         24    2    1    2    0    0  0.16451022438E+02 -0.24136506636E+02 -0.46787338161E+03  0.47769556609E+03  0.91838693067E+02 0.  0.
         25    2    1    2    0    0 -0.10656283177E+02  0.19676454097E+03  0.17975221679E+03  0.29459788265E+03  0.12508881673E+03 0.  0.
        -24    2    1    2    0    0 -0.57947392614E+01 -0.17262803433E+03  0.93290280760E+03  0.95213293676E+03  0.80096589201E+02 0.  0.
        -13    1    3    3    0    0  0.32900104197E+02 -0.53169723736E+02 -0.28173147467E+03  0.28858631325E+03  0.00000000000E+00 0.  1.
         14    1    3    3    0    0 -0.16449081758E+02  0.29033217100E+02 -0.18614190695E+03  0.18910925284E+03  0.00000000000E+00 0. -1.
         13    1    5    5    0    0 -0.35554317996E+02 -0.68694312350E+02  0.49929092269E+03  0.50524691345E+03  0.00000000000E+00 0. -1.
        -14    1    5    5    0    0  0.29759578735E+02 -0.10393372198E+03  0.43361188491E+03  0.44688602331E+03  0.00000000000E+00 0.  1.
          5    1    4    4  501    0  0.31483254241E+02  0.17358555502E+03  0.10418563377E+03  0.20492744788E+03  0.41800000000E+01 0.  1.
         -5    1    4    4    0  501 -0.42139537417E+02  0.23178985944E+02  0.75566583021E+02  0.89670434775E+02  0.41800000000E+01 0.  1.
</event>
<event>
11    1  0.8299058E-009  0.2112023E+03  0.7561462E-02  0.1046873E+00
         22   -1    0    0    0    0  0.00000000000E+00  0.00000000000E+00  0.69148527642E+03  0.69148527642E+03  0.00000000000E+00 0.  1.
         22   -1    0    0    0    0 -0.00000000000E+00 -0.00000000000E+00 -0.89186589813E+03  0.89186589813E+03  0.00000000000E+00 0. -1.
         24    2    1    2    0    0 -0.45924149649E+01 -0.19417972306E+02 -0.41106135955E+03  0.42030421713E+03  0.85358337006E+02 0.  0.
         25    2    1    2    0    0  0.11100596186E+03 -0.11382214277E+03 -0.44076229977E+03  0.48497000293E+03  0.12508675025E+03 0.  0.
        -24    2    1    2    0    0 -0.10641354689E+03  0.13324011508E+03  0.65144303762E+03  0.67807695449E+03  0.79583627262E+02 0.  0.
        -11    1    3    3    0    0 -0.14828961013E+02 -0.27032407316E+02 -0.48195313773E+02  0.57213961580E+02  0.00000000000E+00 0.  1.
         12    1    3    3    0    0  0.10236546048E+02  0.76144350104E+01 -0.36286604578E+03  0.36309025555E+03  0.00000000000E+00 0. -1.
         13    1    5    5    0    0 -0.17740358225E+02 -0.85774688397E+01  0.95820052116E+02  0.97825230228E+02  0.00000000000E+00 0. -1.
        -14    1    5    5    0    0 -0.88673188668E+02  0.14181758392E+03  0.55562298550E+03  0.58025172426E+03  0.00000000000E+00 0.  1.
          5    1    4    4  501    0  0.10587183919E+02 -0.51851905748E+02 -0.28288455824E+03  0.28782260906E+03  0.41800000000E+01 0.  1.
         -5    1    4    4    0  501  0.10041877794E+03 -0.61970237025E+02 -0.15787774153E+03  0.19714739387E+03  0.41800000000E+01 0.  1.
</event>
<event>
11    1  0.8299058E-009  0.1255552E+03  0.7561462E-02  0.1124854E+00
         22   -1    0    0    0    0  0.00000000000E+00  0.00000000000E+00  0.10203593010E+04  0.10203593010E+04  0.00000000000E+00 0.  1.
         22   -1    0    0    0    0 -0.00000000000E+00 -0.00000000000E+00 -0.33340503247E+03  0.33340503247E+03  0.00000000000E+00 0.  1.
         24    2    1    2    0    0  0.37411703443E+01  0.62780881605E+01 -0.21333518974E+03  0.22828589674E+03  0.80926736769E+02 0.  0.
         25    2    1    2    0    0 -0.38151585227E+02 -0.90589273629E+00 -0.72497850937E+02  0.14953286315E+03  0.12509106552E+03 0.  0.
        -24    2    1    2    0    0  0.34410414883E+02 -0.53721954242E+01  0.97278730917E+03  0.97594557354E+03  0.70297059012E+02 0.  0.
        -11    1    3    3    0    0  0.51460945741E+01  0.19471832556E+01 -0.22007965870E+03  0.22014842717E+03  0.00000000000E+00 0.  1.
         12    1    3    3    0    0 -0.14049242298E+01  0.43309049049E+01  0.67444689640E+01  0.81374695694E+01  0.00000000000E+00 0. -1.
         11    1    5    5    0    0  0.21735576627E+02 -0.37161757341E+02  0.45664514221E+03  0.45867005288E+03  0.00000000000E+00 0. -1.
        -12    1    5    5    0    0  0.12674838256E+02  0.31789561917E+02  0.51614216695E+03  0.51727552067E+03  0.00000000000E+00 0.  1.
          5    1    4    4  501    0 -0.55766121731E+02  0.32310073141E+02  0.34581741756E+01  0.64677913757E+02  0.41800000000E+01 0. -1.
         -5    1    4    4    0  501  0.17614536504E+02 -0.33215965878E+02 -0.75956025112E+02  0.84854949392E+02  0.41800000000E+01 0. -1.
</event>
<event>
11    1  0.8299058E-009  0.1429709E+03  0.7561462E-02  0.1104286E+00
         22   -1    0    0    0    0  0.00000000000E+00  0.00000000000E+00  0.67931502165E+02  0.67931502165E+02  0.00000000000E+00 0. -1.
         22   -1    0    0    0    0 -0.00000000000E+00 -0.00000000000E+00 -0.13836004334E+04  0.13836004334E+04  0.00000000000E+00 0. -1.
         24    2    1    2    0    0 -0.65360308214E+02  0.17445212175E+02 -0.11445625725E+04  0.11505553328E+04  0.95800761882E+02 0.  0.
         25    2    1    2    0    0  0.77399055467E+02 -0.53176397035E+02 -0.12666985085E+03  0.20127190562E+03  0.12508711320E+03 0.  0.
        -24    2    1    2    0    0 -0.12038747254E+02  0.35731184860E+02 -0.44436507867E+02  0.99704697203E+02  0.80899780012E+02 0.  0.
        -11    1    3    3    0    0 -0.17040073601E+02 -0.10151807270E+02 -0.40548845367E+02  0.45140139120E+02  0.00000000000E+00 0.  1.
         12    1    3    3    0    0 -0.48320234613E+02  0.27597019445E+02 -0.11040137272E+04  0.11054151936E+04  0.00000000000E+00 0. -1.
         11    1    5    5    0    0 -0.38537701548E+02  0.18061793249E+02 -0.51772879731E+02  0.67020995902E+02  0.00000000000E+00 0. -1.
        -12    1    5    5    0    0  0.26498954294E+02  0.17669391611E+02  0.73363718644E+01  0.32683701301E+02  0.00000000000E+00 0.  1.
          5    1    4    4  501    0  0.80956017264E+02 -0.42264742390E+01 -0.19735814591E+02  0.83538701170E+02  0.41800000000E+01 0.  1.
         -5    1    4    4    0  501 -0.35569617962E+01 -0.48949922796E+02 -0.10693403626E+03  0.11773320445E+03  0.41800000000E+01 0.  1.
</event>
<event>
11    1  0.8299058E-009  0.1698474E+03  0.7561462E-02  0.1078164E+00
         22   -1    0    0    0    0  0.00000000000E+00  0.00000000000E+00  0.43523454382E+03  0.43523454382E+03  0.00000000000E+00 0. -1.
         22   -1    0    0    0    0 -0.00000000000E+00 -0.00000000000E+00 -0.41178720847E+03  0.41178720847E+03  0.00000000000E+00 0. -1.
        -24    2    1    2    0    0 -0.24570924642E+02  0.41957066005E+02 -0.96457969367E+02  0.13499616656E+03  0.80967273665E+02 0.  0.
         25    2    1    2    0    0  0.78079397562E+02 -0.14126210276E+03 -0.24649279450E+03  0.32008802061E+03  0.12508504786E+03 0.  0.
         24    2    1    2    0    0 -0.53508472920E+02  0.99305036752E+02  0.36639809922E+03  0.39193756513E+03  0.81503624732E+02 0.  0.
        -13    1    5    5    0    0 -0.19906320324E+02  0.25804277935E+02  0.24919214221E+02  0.41025474841E+02  0.00000000000E+00 0.  1.
         14    1    5    5    0    0 -0.33602152596E+02  0.73500758817E+02  0.34147888500E+03  0.35091209029E+03  0.00000000000E+00 0. -1.
         11    1    3    3    0    0  0.22057483509E+02  0.32749333463E+02 -0.70593099823E+02  0.80885333427E+02  0.00000000000E+00 0. -1.
        -12    1    3    3    0    0 -0.46628408151E+02  0.92077325427E+01 -0.25864869544E+02  0.54110833128E+02  0.00000000000E+00 0.  1.
          5    1    4    4  501    0  0.70984397784E+02 -0.12713477102E+03 -0.26056196604E+03  0.29851640705E+03  0.41800000000E+01 0.  1.
         -5    1    4    4    0  501  0.70949997784E+01 -0.14127331733E+02  0.14069171538E+02  0.21571613559E+02  0.41800000000E+01 0.  1.
</event>
<event>
11    1  0.8299059E-009  0.2110465E+03  0.7561462E-02  0.1046976E+00
         22   -1    0    0    0    0  0.00000000000E+00  0.00000000000E+00  0.12286975441E+04  0.12286975441E+04  0.00000000000E+00 0.  1.
         22   -1    0    0    0    0 -0.00000000000E+00 -0.00000000000E+00 -0.11341770895E+04  0.11341770895E+04  0.00000000000E+00 0.  1.
         24    2    1    2    0    0 -0.12545826966E+02 -0.19588525526E+02 -0.71873616736E+03  0.72359661004E+03  0.80431757845E+02 0.  0.
         25    2    1    2    0    0 -0.13321497397E+03  0.10706191373E+03 -0.37801114167E+03  0.43329856059E+03  0.12508691667E+03 0.  0.
        -24    2    1    2    0    0  0.14576080094E+03 -0.87473388208E+02  0.11912677637E+04  0.12059794629E+04  0.79810873914E+02 0.  0.
        -13    1    3    3    0    0  0.51114746509E+01 -0.38065611908E+02 -0.17081218362E+03  0.17507689755E+03  0.00000000000E+00 0.  1.
         14    1    3    3    0    0 -0.17657301617E+02  0.18477086381E+02 -0.54792398374E+03  0.54851971248E+03  0.00000000000E+00 0. -1.
         11    1    5    5    0    0  0.11162221539E+02  0.44143052671E+00  0.14618117749E+02  0.18397810117E+02  0.00000000000E+00 0. -1.
        -12    1    5    5    0    0  0.13459857940E+03 -0.87914818735E+02  0.11766496459E+04  0.11875816528E+04  0.00000000000E+00 0.  1.
          5    1    4    4  501    0 -0.11100828583E+02  0.76134152713E+02 -0.20687102311E+03  0.22075490982E+03  0.41800000000E+01 0. -1.
         -5    1    4    4    0  501 -0.12211414539E+03  0.30927761021E+02 -0.17114011856E+03  0.21254365078E+03  0.41800000000E+01 0. -1.
</event>
<event>
11    1  0.8299058E-009  0.2420685E+03  0.7561462E-02  0.1028211E+00
         22   -1    0    0    0    0  0.00000000000E+00  0.00000000000E+00  0.32373712160E+03  0.32373712160E+03  0.00000000000E+00 0.  1.
         22   -1    0    0    0    0 -0.00000000000E+00 -0.00000000000E+00 -0.14597325111E+04  0.14597325111E+04  0.00000000000E+00 0. -1.
         24    2    1    2    0    0 -0.19671437112E+03  0.74795131305E+02 -0.12271724479E+04  0.12476468406E+04  0.79872189072E+02 0.  0.
         25    2    1    2    0    0  0.13848354542E+03 -0.15029614995E+03 -0.13711342235E+03  0.27607020186E+03  0.12509212895E+03 0.  0.
        -24    2    1    2    0    0  0.58230825702E+02  0.75501018649E+02  0.22829048073E+03  0.25975259022E+03  0.79143108696E+02 0.  0.
        -11    1    3    3    0    0 -0.19674675441E+03  0.58122535608E+02 -0.10618987065E+04  0.10815342701E+04  0.00000000000E+00 0.  1.
         12    1    3    3    0    0  0.32383290609E-01  0.16672595697E+02 -0.16527374136E+03  0.16611257051E+03  0.00000000000E+00 0. -1.
         13    1    5    5    0    0  0.21824003182E+02  0.42455983730E+02  0.32174648697E+02  0.57567401263E+02  0.00000000000E+00 0. -1.
        -14    1    5    5    0    0  0.36406822521E+02  0.33045034918E+02  0.19611583204E+03  0.20218518896E+03  0.00000000000E+00 0.  1.
          5    1    4    4  501    0  0.56893754298E+02  0.10104390485E+02 -0.47877010820E+02  0.75157691225E+02  0.41800000000E+01 0. -1.
         -5    1    4    4    0  501  0.81589791120E+02 -0.16040054044E+03 -0.89236411530E+02  0.20091251064E+03  0.41800000000E+01 0. -1.
</event>
<event>
11    1  0.8299058E-009  0.3808222E+03  0.7561462E-02  0.9708101E-01
         22   -1    0    0    0    0  0.00000000000E+00  0.00000000000E+00  0.63282953323E+03  0.63282953323E+03  0.00000000000E+00 0.  1.
         22   -1    0    0    0    0 -0.00000000000E+00 -0.00000000000E+00 -0.13198282434E+04  0.13198282434E+04  0.00000000000E+00 0. -1.
         24    2    1    2    0    0 -0.33948314322E+03  0.99537452241E+02 -0.11097766948E+04  0.11682691426E+04  0.89955368545E+02 0.  0.
         25    2    1    2    0    0  0.42698408667E+03 -0.19296029415E+03  0.40349707374E+03  0.63087708444E+03  0.12508765632E+03 0.  0.
        -24    2    1    2    0    0 -0.87500943447E+02  0.93422841912E+02  0.19280910898E+02  0.15351154956E+03  0.82521511298E+02 0.  0.
        -13    1    3    3    0    0 -0.15405074800E+03  0.64449109978E+02 -0.65361614670E+03  0.67461054540E+03  0.00000000000E+00 0.  1.
         14    1    3    3    0    0 -0.18543239522E+03  0.35088342263E+02 -0.45616054808E+03  0.49365859720E+03  0.00000000000E+00 0. -1.
         11    1    5    5    0    0 -0.48664317939E+02  0.10029405676E+03  0.50787393138E+01  0.11159259499E+03  0.00000000000E+00 0. -1.
        -12    1    5    5    0    0 -0.38836625509E+02 -0.68712148531E+01  0.14202171585E+02  0.41918954569E+02  0.00000000000E+00 0.  1.
          5    1    4    4  501    0  0.13133951895E+01 -0.22136093784E+02  0.46619333290E+01  0.23042084917E+02  0.41800000000E+01 0. -1.
         -5    1    4    4    0  501  0.42567069148E+03 -0.17082420037E+03  0.39883514042E+03  0.60783499952E+03  0.41800000000E+01 0. -1.
</event>
<event>
11    1  0.8299058E-009  0.1290792E+03  0.7561462E-02  0.1120406E+00
         22   -1    0    0    0    0  0.00000000000E+00  0.00000000000E+00  0.60274027733E+03  0.60274027733E+03  0.00000000000E+00 0. -1.
         22   -1    0    0    0    0 -0.00000000000E+00 -0.00000000000E+00 -0.59676263708E+03  0.59676263708E+03  0.00000000000E+00 0. -1.
         24    2    1    2    0    0 -0.45469958552E+02  0.19983329796E+02 -0.47948215224E+03  0.48750029955E+03  0.72708714365E+02 0.  0.
         25    2    1    2    0    0  0.44993235666E+02  0.12481280876E+02 -0.69199802003E+02  0.15038253005E+03  0.12508444795E+03 0.  0.
        -24    2    1    2    0    0  0.47672288533E+00 -0.32464610672E+02  0.55465959449E+03  0.56162008481E+03  0.81949226319E+02 0.  0.
        -13    1    3    3    0    0 -0.21727608331E+02 -0.27045943087E+02 -0.16157664474E+03  0.16525914234E+03  0.00000000000E+00 0.  1.
         14    1    3    3    0    0 -0.23742350221E+02  0.47029272884E+02 -0.31790550750E+03  0.32224115721E+03  0.00000000000E+00 0. -1.
         13    1    5    5    0    0 -0.61882408472E+01 -0.28113493738E+02  0.55266535091E+03  0.55341453988E+03  0.00000000000E+00 0. -1.
        -14    1    5    5    0    0  0.66649637325E+01 -0.43511169339E+01  0.19942435765E+01  0.82055449283E+01  0.00000000000E+00 0.  1.
          5    1    4    4  501    0  0.65504563256E+02  0.30750155955E+02 -0.90084353052E+02  0.11562475065E+03  0.41800000000E+01 0. -1.
         -5    1    4    4    0  501 -0.20511327590E+02 -0.18268875080E+02  0.20884551049E+02  0.34757779398E+02  0.41800000000E+01 0. -1.
</event>
<event>
11    1  0.8299058E-009  0.1456077E+03  0.7561462E-02  0.1101453E+00
         22   -1    0    0    0    0  0.00000000000E+00  0.00000000000E+00  0.43576286189E+03  0.43576286189E+03  0.00000000000E+00 0. -1.
         22   -1    0    0    0    0 -0.00000000000E+00 -0.00000000000E+00 -0.73934291011E+03  0.73934291011E+03  0.00000000000E+00 0.  1.
        -24    2    1    2    0    0 -0.13050183849E+02  0.76230597583E+02 -0.59664703148E+03  0.60631109614E+03  0.75126918079E+02 0.  0.
         25    2    1    2    0    0 -0.11918160981E+02 -0.10823556240E+01 -0.98944048086E+02  0.15994177264E+03  0.12509289319E+03 0.  0.
         24    2    1    2    0    0  0.24968344830E+02 -0.75148241959E+02  0.39201103134E+03  0.40885290322E+03  0.84955113214E+02 0.  0.
        -13    1    5    5    0    0  0.86825770676E+01  0.11483744106E+02  0.11970152993E+02  0.18722929415E+02  0.00000000000E+00 0.  1.
         14    1    5    5    0    0  0.16285767763E+02 -0.86631986065E+02  0.38004087835E+03  0.39012997380E+03  0.00000000000E+00 0. -1.
         13    1    3    3    0    0 -0.51564400783E+00  0.47070664539E+02 -0.12455866238E+03  0.13315695146E+03  0.00000000000E+00 0. -1.
        -14    1    3    3    0    0 -0.12534539841E+02  0.29159933044E+02 -0.47208836910E+03  0.47315414468E+03  0.00000000000E+00 0.  1.
          5    1    4    4  501    0 -0.62105307703E+02 -0.24772770352E+02 -0.36487658573E+02  0.76286178459E+02  0.41800000000E+01 0.  1.
         -5    1    4    4    0  501  0.50187146722E+02  0.23690414728E+02 -0.62456389512E+02  0.83655594176E+02  0.41800000000E+01 0.  1.
</event>
<event>
11    1  0.8299058E-009  0.1654966E+03  0.7561462E-02  0.1082019E+00
         22   -1    0    0    0    0  0.00000000000E+00  0.00000000000E+00  0.10168581885E+04  0.10168581885E+04  0.00000000000E+00 0. -1.
         22   -1    0    0    0    0 -0.00000000000E+00 -0.00000000000E+00 -0.87620840891E+03  0.87620840891E+03  0.00000000000E+00 0.  1.
        -24    2    1    2    0    0 -0.10716948008E+03 -0.11616732692E+01 -0.81055156823E+03  0.82102486165E+03  0.74842045319E+02 0.  0.
         25    2    1    2    0    0  0.14455841212E+03 -0.19973666783E+02  0.10185274552E+03  0.21752649175E+03  0.12509081087E+03 0.  0.
         24    2    1    2    0    0 -0.37388932038E+02  0.21135340053E+02  0.84934860234E+03  0.85451524404E+03  0.83418338352E+02 0.  0.
        -11    1    5    5    0    0 -0.51217196175E+02  0.36351544032E+01  0.27615647060E+03  0.28088932302E+03  0.00000000000E+00 0.  1.
         12    1    5    5    0    0  0.13828264137E+02  0.17500185649E+02  0.57319213174E+03  0.57362592103E+03  0.00000000000E+00 0. -1.
         11    1    3    3    0    0 -0.47761492436E+02 -0.26568877571E+02 -0.54465942296E+03  0.54739469529E+03  0.00000000000E+00 0. -1.
        -12    1    3    3    0    0 -0.59407987649E+02  0.25407204301E+02 -0.26589214527E+03  0.27363016636E+03  0.00000000000E+00 0.  1.
          5    1    4    4  501    0 -0.16698054192E+02 -0.35698315836E+00  0.40187874973E+02  0.43720591780E+02  0.41800000000E+01 0. -1.
         -5    1    4    4    0  501  0.16125646631E+03 -0.19616683625E+02  0.61664870542E+02  0.17380589997E+03  0.41800000000E+01 0. -1.
</event>
<event>
11    1  0.8299058E-009  0.1397227E+03  0.7561462E-02  0.1107868E+00
         22   -1    0    0    0    0  0.00000000000E+00  0.00000000000E+00  0.15323233571E+04  0.15323233571E+04  0.00000000000E+00 0. -1.
         22   -1    0    0    0    0 -0.00000000000E+00 -0.00000000000E+00 -0.78786627579E+03  0.78786627579E+03  0.00000000000E+00 0. -1.
        -24    2    1    2    0    0 -0.32518720059E+02  0.53118644124E+02 -0.75822209320E+03  0.76496523867E+03  0.79950086043E+02 0.  0.
         25    2    1    2    0    0  0.74925504698E+02 -0.26084830032E+02  0.19941454534E+03  0.24840473188E+03  0.12507797695E+03 0.  0.
         24    2    1    2    0    0 -0.42406784638E+02 -0.27033814092E+02  0.13032646292E+04  0.13068196623E+04  0.82157006532E+02 0.  0.
        -11    1    5    5    0    0 -0.40034461846E+02 -0.25315173619E+02  0.31416506845E+03  0.31771576352E+03  0.00000000000E+00 0.  1.
         12    1    5    5    0    0 -0.23723227925E+01 -0.17186404730E+01  0.98909956071E+03  0.98910389881E+03  0.00000000000E+00 0. -1.
         13    1    3    3    0    0 -0.23385180412E+02 -0.11237956869E+02 -0.40373669939E+03  0.40456950055E+03  0.00000000000E+00 0. -1.
        -14    1    3    3    0    0 -0.91335396473E+01  0.64356600993E+02 -0.35448539380E+03  0.36039573813E+03  0.00000000000E+00 0.  1.
          5    1    4    4  501    0  0.32152715980E+02 -0.70507547225E+02  0.68008193302E+02  0.10318768394E+03  0.41800000000E+01 0. -1.
         -5    1    4    4    0  501  0.42772788718E+02  0.44422717193E+02  0.13140635204E+03  0.14521704795E+03  0.41800000000E+01 0. -1.
</event>
<event>
11    1  0.8299058E-009  0.1596221E+03  0.7561462E-02  0.1087433E+00
         22   -1    0    0    0    0  0.00000000000E+00  0.00000000000E+00  0.14869010296E+04  0.14869010296E+04  0.00000000000E+00 0.  1.
         22   -1    0    0    0    0 -0.00000000000E+00 -0.00000000000E+00 -0.55237034874E+03  0.55237034874E+03  0.00000000000E+00 0.  1.
        -24    2    1    2    0    0 -0.74782047235E+02 -0.62608505357E+02 -0.47009210512E+03  0.48683996828E+03  0.80711758016E+02 0.  0.
         25    2    1    2    0    0  0.86391429853E+02  0.82419588805E+02  0.30540453913E+02  0.17560291343E+03  0.12508875293E+03 0.  0.
         24    2    1    2    0    0 -0.11609382618E+02 -0.19811083448E+02  0.13740823320E+04  0.13768284966E+04  0.83828378450E+02 0.  0.
        -11    1    5    5    0    0 -0.16711545418E+02 -0.30048421842E+02  0.13468845353E+04  0.13473233223E+04  0.00000000000E+00 0.  1.
         12    1    5    5    0    0  0.51021627998E+01  0.10237338394E+02  0.27197796773E+02  0.29505174325E+02  0.00000000000E+00 0. -1.
         13    1    3    3    0    0 -0.37472823489E+02  0.13052850098E+02 -0.10824021441E+03  0.11528457577E+03  0.00000000000E+00 0. -1.
        -14    1    3    3    0    0 -0.37309223745E+02 -0.75661355455E+02 -0.36185189071E+03  0.37155539250E+03  0.00000000000E+00 0.  1.
          5    1    4    4  501    0 -0.15244331976E+02  0.56300841064E+02 -0.16155212862E+02  0.60668259119E+02  0.41800000000E+01 0. -1.
         -5    1    4    4    0  501  0.10163576183E+03  0.26118747741E+02  0.46695666775E+02  0.11493465431E+03  0.41800000000E+01 0. -1.
</event>
<event>
11    1  0.8299058E-009  0.1489152E+03  0.7561462E-02  0.1097992E+00
         22   -1    0    0    0    0  0.00000000000E+00  0.00000000000E+00  0.11152899698E+04  0.11152899698E+04  0.00000000000E+00 0.  1.
         22   -1    0    0    0    0 -0.00000000000E+00 -0.00000000000E+00 -0.67924689008E+03  0.67924689008E+03  0.00000000000E+00 0.  1.
        -24    2    1    2    0    0 -0.24319865322E+02  0.16951079639E+01 -0.63671910833E+03  0.64184858206E+03  0.77227262970E+02 0.  0.
         25    2    1    2    0    0 -0.25658608766E+02  0.63527450898E+02  0.10267162962E+03  0.17573506956E+03  0.12508896803E+03 0.  0.
         24    2    1    2    0    0  0.49978474088E+02 -0.65222558862E+02  0.97009055847E+03  0.97695320831E+03  0.81302211179E+02 0.  0.
        -11    1    5    5    0    0  0.30931462180E+02 -0.12895535400E+02  0.71817252487E+03  0.71895398021E+03  0.00000000000E+00 0.  1.
         12    1    5    5    0    0  0.19047011908E+02 -0.52327023462E+02  0.25191803360E+03  0.25799922810E+03  0.00000000000E+00 0. -1.
         11    1    3    3    0    0 -0.18857957832E+02  0.19647482059E+02 -0.74584176599E+02  0.79400538561E+02  0.00000000000E+00 0. -1.
        -12    1    3    3    0    0 -0.54619074897E+01 -0.17952374095E+02 -0.56213493173E+03  0.56244804350E+03  0.00000000000E+00 0.  1.
          5    1    4    4  501    0 -0.60005187680E+02  0.74293385385E+02  0.10157608835E+03  0.13948227051E+03  0.41800000000E+01 0.  1.
         -5    1    4    4    0  501  0.34346578913E+02 -0.10765934487E+02  0.10955412668E+01  0.36252799052E+02  0.41800000000E+01 0.  1.
</event>
<event>
11    1  0.8299058E-009  0.1498479E+03  0.7561462E-02  0.1097034E+00
         22   -1    0    0    0    0  0.00000000000E+00  0.00000000000E+00  0.52042084432E+03  0.52042084432E+03  0.00000000000E+00 0. -1.
         22   -1    0    0    0    0 -0.00000000000E+00 -0.00000000000E+00 -0.44260632019E+03  0.44260632019E+03  0.00000000000E+00 0.  1.
        -24    2    1    2    0    0  0.64388707701E+01  0.98663451949E+02 -0.30383493792E+03  0.32960822863E+03  0.80931940960E+02 0.  0.
         25    2    1    2    0    0  0.21032048398E+02 -0.36985470261E+02 -0.83909309159E+02  0.15651748326E+03  0.12508668327E+03 0.  0.
         24    2    1    2    0    0 -0.27470919168E+02 -0.61677981688E+02  0.46555877121E+03  0.47690145262E+03  0.78301987399E+02 0.  0.
        -11    1    5    5    0    0 -0.28474803411E+02  0.70930506152E+01  0.21799435531E+03  0.21996059816E+03  0.00000000000E+00 0.  1.
         12    1    5    5    0    0  0.10038842432E+01 -0.68771032304E+02  0.24756441590E+03  0.25694085446E+03  0.00000000000E+00 0. -1.
         11    1    3    3    0    0 -0.15653273613E+02  0.10021700757E+03 -0.21025010289E+03  0.23343859867E+03  0.00000000000E+00 0. -1.
        -12    1    3    3    0    0  0.22092144383E+02 -0.15535556235E+01 -0.93584835032E+02  0.96169629959E+02  0.00000000000E+00 0.  1.
          5    1    4    4  501    0 -0.52044838506E+02 -0.15614795917E+02 -0.24010720133E+02  0.59552280796E+02  0.41800000000E+01 0. -1.
         -5    1    4    4    0  501  0.73076886904E+02 -0.21370674344E+02 -0.59898589026E+02  0.96965202463E+02  0.41800000000E+01 0. -1.
</event>
<event>
11    1  0.8299058E-009  0.1407836E+03  0.7561462E-02  0.1106687E+00
         22   -1    0    0    0    0  0.00000000000E+00  0.00000000000E+00  0.17215780972E+03  0.17215780972E+03  0.00000000000E+00 0.  1.
         22   -1    0    0    0    0 -0.00000000000E+00 -0.00000000000E+00 -0.44446175005E+03  0.44446175005E+03  0.00000000000E+00 0.  1.
        -24    2    1    2    0    0 -0.53675241054E+02 -0.45644470369E+02 -0.20159271977E+03  0.23021780511E+03  0.86000953171E+02 0.  0.
         25    2    1    2    0    0  0.56721596137E+02  0.16097124484E+02 -0.19229421143E+03  0.23685688160E+03  0.12509061406E+03 0.  0.
         24    2    1    2    0    0 -0.30463550826E+01  0.29547345885E+02  0.12158299087E+03  0.14954487306E+03  0.81846927000E+02 0.  0.
        -13    1    5    5    0    0  0.17970996460E+02  0.52028378090E+02  0.89618350288E+02  0.10517298868E+03  0.00000000000E+00 0.  1.
         14    1    5    5    0    0 -0.21017351543E+02 -0.22481032206E+02  0.31964640585E+02  0.44371884371E+02  0.00000000000E+00 0. -1.
         11    1    3    3    0    0  0.17125483969E+02 -0.87913505179E+01 -0.95675846214E+02  0.97593225144E+02  0.00000000000E+00 0. -1.
        -12    1    3    3    0    0 -0.70800725023E+02 -0.36853119851E+02 -0.10591687356E+03  0.13262457997E+03  0.00000000000E+00 0.  1.
          5    1    4    4  501    0  0.19613346252E+02 -0.33937749180E+02 -0.16335174459E+03  0.16804082549E+03  0.41800000000E+01 0.  1.
         -5    1    4    4    0  501  0.37108249885E+02  0.50034873664E+02 -0.28942466845E+02  0.68816056115E+02  0.41800000000E+01 0.  1.
</event>
<event>
11    1  0.8299058E-009  0.1499850E+03  0.7561462E-02  0.1096894E+00
         22   -1    0    0    0    0  0.00000000000E+00  0.00000000000E+00  0.32903215413E+03  0.32903215413E+03  0.00000000000E+00 0. -1.
         22   -1    0    0    0    0 -0.00000000000E+00 -0.00000000000E+00 -0.43037095190E+03  0.43037095190E+03  0.00000000000E+00 0.  1.
         24    2    1    2    0    0 -0.81081333142E+02  0.43218939665E+02 -0.32190870958E+03  0.34459248072E+03  0.81711083321E+02 0.  0.
         25    2    1    2    0    0  0.25040935546E+02  0.33606639136E+02 -0.29531899189E+02  0.13519095617E+03  0.12509199381E+03 0.  0.
        -24    2    1    2    0    0  0.56040397596E+02 -0.76825578801E+02  0.25010181100E+03  0.27961966913E+03  0.81200663664E+02 0.  0.
        -13    1    3    3    0    0 -0.83011744642E+01  0.24694229033E+02 -0.19796053820E+03  0.19966744635E+03  0.00000000000E+00 0.  1.
         14    1    3    3    0    0 -0.72780158677E+02  0.18524710632E+02 -0.12394817137E+03  0.14492503437E+03  0.00000000000E+00 0. -1.
         13    1    5    5    0    0  0.23726486150E+02 -0.86188456353E+02  0.15757671013E+03  0.18116792136E+03  0.00000000000E+00 0. -1.
        -14    1    5    5    0    0  0.32313911446E+02  0.93628775518E+01  0.92525100873E+02  0.98451747778E+02  0.00000000000E+00 0.  1.
          5    1    4    4  501    0  0.10998542053E+02  0.80896752907E+02 -0.11757151184E+02  0.82589076530E+02  0.41800000000E+01 0. -1.
         -5    1    4    4    0  501  0.14042393493E+02 -0.47290113770E+02 -0.17774748005E+02  0.52601879644E+02  0.41800000000E+01 0. -1.
</event>
<event>
11    1  0.8299058E-009  0.1482577E+03  0.7561462E-02  0.1098672E+00
         22   -1    0    0    0    0  0.00000000000E+00  0.00000000000E+00  0.26001304565E+04  0.26001304565E+04  0.00000000000E+00 0.  1.
         22   -1    0    0    0    0 -0.00000000000E+00 -0.00000000000E+00 -0.10140810040E+04  0.10140810040E+04  0.00000000000E+00 0.  1.
        -24    2    1    2    0    0 -0.14055934333E+02  0.55190915479E+01 -0.99887182884E+03  0.10021249017E+04  0.79255022421E+02 0.  0.
         25    2    1    2    0    0  0.71518297307E+02 -0.58254205668E+02  0.48880577511E+03  0.51292033776E+03  0.12509103794E+03 0.  0.
         24    2    1    2    0    0 -0.57462362974E+02  0.52735114120E+02  0.20961155062E+04  0.20991662210E+04  0.81949329025E+02 0.  0.
        -13    1    5    5    0    0 -0.50639684604E+02  0.73433022540E+02  0.18237855411E+04  0.18259656312E+04  0.00000000000E+00 0.  1.
         14    1    5    5    0    0 -0.68226783697E+01 -0.20697908419E+02  0.27232996518E+03  0.27320058983E+03  0.00000000000E+00 0. -1.
         13    1    3    3    0    0 -0.27783126836E+02  0.19961245811E+02 -0.19311762053E+03  0.19612437083E+03  0.00000000000E+00 0. -1.
        -14    1    3    3    0    0  0.13727192502E+02 -0.14442154263E+02 -0.80575420830E+03  0.80600053091E+03  0.00000000000E+00 0.  1.
          5    1    4    4  501    0  0.43043112703E+02  0.27088830592E+01  0.39650618521E+02  0.58734074843E+02  0.41800000000E+01 0. -1.
         -5    1    4    4    0  501  0.28475184604E+02 -0.60963088728E+02  0.44915515659E+03  0.45418626291E+03  0.41800000000E+01 0. -1.
</event>
<event>
11    1  0.8299058E-009  0.1270673E+03  0.7561462E-02  0.1122926E+00
         22   -1    0    0    0    0  0.00000000000E+00  0.00000000000E+00  0.49667430660E+03  0.49667430660E+03  0.00000000000E+00 0.  1.
         22   -1    0    0    0    0 -0.00000000000E+00 -0.00000000000E+00 -0.23086645421E+03  0.23086645421E+03  0.00000000000E+00 0. -1.
         24    2    1    2    0    0  0.12130972903E+02 -0.65172679029E+01 -0.15100414173E+03  0.17202543548E+03  0.81245703567E+02 0.  0.
         25    2    1    2    0    0 -0.30230602040E+01  0.26818202722E+02 -0.25184573347E+01  0.12799405348E+03  0.12509108764E+03 0.  0.
        -24    2    1    2    0    0 -0.91079126987E+01 -0.20300934819E+02  0.41933045146E+03  0.42752127184E+03  0.80257886420E+02 0.  0.
        -13    1    3    3    0    0 -0.32887704811E+02  0.37086644424E+01 -0.40754029372E+02  0.52499964093E+02  0.00000000000E+00 0.  1.
         14    1    3    3    0    0  0.45018677714E+02 -0.10225932345E+02 -0.11025011236E+03  0.11952547139E+03  0.00000000000E+00 0. -1.
         11    1    5    5    0    0 -0.99533731948E+01  0.74614677436E+01  0.70345121225E+01  0.14290818718E+02  0.00000000000E+00 0. -1.
        -12    1    5    5    0    0  0.84546049602E+00 -0.27762402562E+02  0.41229593933E+03  0.41323045313E+03  0.00000000000E+00 0.  1.
          5    1    4    4  501    0  0.21049125376E+02 -0.39148357772E+02  0.26478676138E+02  0.51906187352E+02  0.41800000000E+01 0. -1.
         -5    1    4    4    0  501 -0.24072185580E+02  0.65966560494E+02 -0.28997133473E+02  0.76087866126E+02  0.41800000000E+01 0. -1.
</event>
<event>
11    1  0.8299058E-009  0.1360769E+03  0.7561462E-02  0.1112020E+00
         22   -1    0    0    0    0  0.00000000000E+00  0.00000000000E+00  0.92095340393E+03  0.92095340393E+03  0.00000000000E+00 0. -1.
         22   -1    0    0    0    0 -0.00000000000E+00 -0.00000000000E+00 -0.99660301306E+03  0.99660301306E+03  0.00000000000E+00 0.  1.
        -24    2    1    2    0    0 -0.26618461906E+02  0.52333196087E+02 -0.82490936632E+03  0.83097920796E+03  0.81263001935E+02 0.  0.
         25    2    1    2    0    0  0.17622847111E+02 -0.63679710997E+01 -0.14211012701E+03  0.19021354449E+03  0.12503914792E+03 0.  0.
         24    2    1    2    0    0  0.89956147952E+01 -0.45965224987E+02  0.89136988420E+03  0.89636366454E+03  0.82059890664E+02 0.  0.
        -13    1    5    5    0    0 -0.24070888379E+02  0.78347435159E+01  0.42286859532E+03  0.42362558915E+03  0.00000000000E+00 0.  1.
         14    1    5    5    0    0  0.33066503175E+02 -0.53799968503E+02  0.46850128888E+03  0.47273807539E+03  0.00000000000E+00 0. -1.
         11    1    3    3    0    0 -0.27609599767E+02 -0.78211041156E+01 -0.11504128819E+03  0.11856625852E+03  0.00000000000E+00 0. -1.
        -12    1    3    3    0    0  0.99113786073E+00  0.60154300202E+02 -0.70986807813E+03  0.71241294944E+03  0.00000000000E+00 0.  1.
          5    1    4    4  501    0  0.56049460346E+02 -0.38499607282E+02 -0.47407226688E+02  0.82998068099E+02  0.41800000000E+01 0.  1.
         -5    1    4    4    0  501 -0.38426613235E+02  0.32131636183E+02 -0.94702900326E+02  0.10721547640E+03  0.41800000000E+01 0.  1.
</event>
<event>
11    1  0.8299058E-009  0.2209711E+03  0.7561462E-02  0.1040611E+00
         22   -1    0    0    0    0  0.00000000000E+00  0.00000000000E+00  0.50474506227E+03  0.50474506227E+03  0.00000000000E+00 0. -1.
         22   -1    0    0    0    0 -0.00000000000E+00 -0.00000000000E+00 -0.88804061914E+03  0.88804061914E+03  0.00000000000E+00 0. -1.
         24    2    1    2    0    0 -0.39896566794E+02 -0.21526074419E+02 -0.79225872546E+03  0.79762149254E+03  0.80442832905E+02 0.  0.
         25    2    1    2    0    0  0.15096688568E+03 -0.11860727544E+03  0.15299254856E+03  0.27552085697E+03  0.12508531629E+03 0.  0.
        -24    2    1    2    0    0 -0.11107031889E+03  0.14013334986E+03  0.25597062003E+03  0.31964333191E+03  0.68388082549E+02 0.  0.
        -13    1    3    3    0    0 -0.30742340605E+02 -0.46218814317E+02 -0.33187682400E+03  0.33648699323E+03  0.00000000000E+00 0.  1.
         14    1    3    3    0    0 -0.91542261891E+01  0.24692739898E+02 -0.46038190146E+03  0.46113449931E+03  0.00000000000E+00 0. -1.
         13    1    5    5    0    0 -0.93368377494E+02  0.67210726294E+02  0.17313885663E+03  0.20787496078E+03  0.00000000000E+00 0. -1.
        -14    1    5    5    0    0 -0.17701941392E+02  0.72922623561E+02  0.82831763408E+02  0.11176837113E+03  0.00000000000E+00 0.  1.
          5    1    4    4  501    0  0.14715025826E+03 -0.13866383503E+03  0.15468964461E+03  0.25461189328E+03  0.41800000000E+01 0. -1.
         -5    1    4    4    0  501  0.38166274203E+01  0.20056559590E+02 -0.16970960529E+01  0.20908963687E+02  0.41800000000E+01 0. -1.
</event>
<event>
11    1  0.8299058E-009  0.2411752E+03  0.7561462E-02  0.1028708E+00
         22   -1    0    0    0    0  0.00000000000E+00  0.00000000000E+00  0.57467934734E+03  0.57467934734E+03  0.00000000000E+00 0.  1.
         22   -1    0    0    0    0 -0.00000000000E+00 -0.00000000000E+00 -0.24585081309E+03  0.24585081309E+03  0.00000000000E+00 0. -1.
        -24    2    1    2    0    0 -0.28647551687E+02 -0.75163840792E+01 -0.63654059247E+02  0.10511053052E+03  0.78225354715E+02 0.  0.
         25    2    1    2    0    0 -0.13629133381E+03  0.13625735599E+03 -0.35210573909E+02  0.23244009778E+03  0.12508884765E+03 0.  0.
         24    2    1    2    0    0  0.16493888550E+03 -0.12874097192E+03  0.42769316741E+03  0.48297953213E+03  0.81047573728E+02 0.  0.
        -11    1    5    5    0    0  0.11168714557E+03 -0.10295981957E+03  0.37160949471E+03  0.40145779291E+03  0.00000000000E+00 0.  1.
         12    1    5    5    0    0  0.53251739924E+02 -0.25781152344E+02  0.56083672699E+02  0.81521739214E+02  0.00000000000E+00 0. -1.
         13    1    3    3    0    0 -0.36098692528E+01 -0.38989242804E+02 -0.48021927334E+02  0.61962066745E+02  0.00000000000E+00 0. -1.
        -14    1    3    3    0    0 -0.25037682434E+02  0.31472858725E+02 -0.15632131913E+02  0.43148463775E+02  0.00000000000E+00 0.  1.
          5    1    4    4  501    0 -0.15673870599E+03  0.94862366822E+02 -0.24812761570E+02  0.18492981406E+03  0.41800000000E+01 0.  1.
         -5    1    4    4    0  501  0.20447372174E+02  0.41394989173E+02 -0.10397812339E+02  0.47510283717E+02  0.41800000000E+01 0.  1.
</event>
<event>
11    1  0.8299058E-009  0.1520864E+03  0.7561462E-02  0.1094766E+00
         22   -1    0    0    0    0  0.00000000000E+00  0.00000000000E+00  0.27243770891E+03  0.27243770891E+03  0.00000000000E+00 0. -1.
         22   -1    0    0    0    0 -0.00000000000E+00 -0.00000000000E+00 -0.51945077521E+03  0.51945077521E+03  0.00000000000E+00 0.  1.
        -24    2    1    2    0    0 -0.26834030903E+02  0.39491698557E+02 -0.40597878033E+03  0.41665843436E+03  0.80658672048E+02 0.  0.
         25    2    1    2    0    0  0.90067188084E+02 -0.87539613798E+02 -0.52370844189E+01  0.17734439986E+03  0.12509327222E+03 0.  0.
         24    2    1    2    0    0 -0.63233157181E+02  0.48047915241E+02  0.16420279845E+03  0.19788564990E+03  0.76740713408E+02 0.  0.
        -11    1    5    5    0    0 -0.32581873479E+02  0.64589125108E+02  0.86704325236E+02  0.11292020889E+03  0.00000000000E+00 0.  1.
         12    1    5    5    0    0 -0.30651283702E+02 -0.16541209867E+02  0.77498473210E+02  0.84965441012E+02  0.00000000000E+00 0. -1.
         13    1    3    3    0    0 -0.34415091602E+02 -0.15130322503E+02 -0.13570016627E+03  0.14081143531E+03  0.00000000000E+00 0. -1.
        -14    1    3    3    0    0  0.75810606989E+01  0.54622021060E+02 -0.27027861406E+03  0.27584699905E+03  0.00000000000E+00 0.  1.
          5    1    4    4  501    0  0.37888066641E+02 -0.78154891383E+02  0.50296645838E+02  0.10045355954E+03  0.41800000000E+01 0. -1.
         -5    1    4    4    0  501  0.52179121443E+02 -0.93847224152E+01 -0.55533730257E+02  0.76890840324E+02  0.41800000000E+01 0. -1.
</event>
<event>
11    1  0.8299058E-009  0.1745173E+03  0.7561462E-02  0.1074166E+00
         22   -1    0    0    0    0  0.00000000000E+00  0.00000000000E+00  0.20410233800E+03  0.20410233800E+03  0.00000000000E+00 0.  1.
         22   -1    0    0    0    0 -0.00000000000E+00 -0.00000000000E+00 -0.16943815946E+04  0.16943815946E+04  0.00000000000E+00 0.  1.
         24    2    1    2    0    0  0.12039385917E+03 -0.23865877814E+01 -0.15416744369E+04  0.15484523694E+04  0.80276358756E+02 0.  0.
         25    2    1    2    0    0 -0.14791935909E+03 -0.93483085472E+01 -0.66333169335E+02  0.20497626173E+03  0.12509057059E+03 0.  0.
        -24    2    1    2    0    0  0.27525499922E+02  0.11734896329E+02  0.11772834965E+03  0.14505530146E+03  0.79282502683E+02 0.  0.
        -11    1    3    3    0    0  0.10170375723E+03  0.27394643998E+02 -0.12962312741E+04  0.13005036089E+04  0.00000000000E+00 0.  1.
         12    1    3    3    0    0  0.18690101943E+02 -0.29781231780E+02 -0.24544316273E+03  0.24794876045E+03  0.00000000000E+00 0. -1.
         11    1    5    5    0    0 -0.13154857280E+02  0.34493152569E+02  0.40086586028E+02  0.54495524804E+02  0.00000000000E+00 0. -1.
        -12    1    5    5    0    0  0.40680357202E+02 -0.22758256241E+02  0.77641763625E+02  0.90559776656E+02  0.00000000000E+00 0.  1.
          5    1    4    4  501    0 -0.37925801419E+02 -0.42137237849E+02 -0.69864649556E+02  0.90069167224E+02  0.41800000000E+01 0. -1.
         -5    1    4    4    0  501 -0.10999355767E+03  0.32788929302E+02  0.35314802208E+01  0.11490709450E+03  0.41800000000E+01 0. -1.
</event>
<event>
11    1  0.8299058E-009  0.3794311E+03  0.7561462E-02  0.9712476E-01
         22   -1    0    0    0    0  0.00000000000E+00  0.00000000000E+00  0.98102861845E+03  0.98102861845E+03  0.00000000000E+00 0.  1.
         22   -1    0    0    0    0 -0.00000000000E+00 -0.00000000000E+00 -0.22422183567E+04  0.22422183567E+04  0.00000000000E+00 0. -1.
         24    2    1    2    0    0 -0.65468408223E+02 -0.49608692661E+02 -0.12755590478E+04  0.12807483812E+04  0.80736587957E+02 0.  0.
         25    2    1    2    0    0  0.38935127945E+03  0.19551695035E+03 -0.87275351334E+03  0.98344654865E+03  0.12508845800E+03 0.  0.
        -24    2    1    2    0    0 -0.32388287122E+03 -0.14590825769E+03  0.88712282288E+03  0.95905204532E+03  0.81268621382E+02 0.  0.
        -11    1    3    3    0    0  0.23743792274E+00 -0.49445383822E+02 -0.56072373565E+03  0.56289964477E+03  0.00000000000E+00 0.  1.
         12    1    3    3    0    0 -0.65705846146E+02 -0.16330883895E+00 -0.71483531216E+03  0.71784873644E+03  0.00000000000E+00 0. -1.
         11    1    5    5    0    0 -0.28278150885E+03 -0.15259134117E+03  0.80997755872E+03  0.87138576117E+03  0.00000000000E+00 0. -1.
        -12    1    5    5    0    0 -0.41101362373E+02  0.66830834717E+01  0.77145264166E+02  0.87666284151E+02  0.00000000000E+00 0.  1.
          5    1    4    4  501    0  0.34000267385E+03  0.12516751142E+03 -0.75675117635E+03  0.83902237125E+03  0.41800000000E+01 0.  1.
         -5    1    4    4    0  501  0.49348605594E+02  0.70349438937E+02 -0.11600233699E+03  0.14442417741E+03  0.41800000000E+01 0.  1.
</event>
<event>
11    1  0.8299058E-009  0.1948301E+03  0.7561462E-02  0.1058241E+00
         22   -1    0    0    0    0  0.00000000000E+00  0.00000000000E+00  0.92031721845E+03  0.92031721845E+03  0.00000000000E+00 0.  1.
         22   -1    0    0    0    0 -0.00000000000E+00 -0.00000000000E+00 -0.14585567035E+04  0.14585567035E+04  0.00000000000E+00 0. -1.
         24    2    1    2    0    0 -0.25621897833E+02  0.14853581948E+03 -0.11093101660E+04  0.11223778906E+04  0.80272745231E+02 0.  0.
         25    2    1    2    0    0  0.12677293152E+03 -0.11646848513E+03 -0.30447072911E+03  0.37146601366E+03  0.12509312621E+03 0.  0.
        -24    2    1    2    0    0 -0.10115103369E+03 -0.32067334351E+02  0.87554141003E+03  0.88503001771E+03  0.73793807418E+02 0.  0.
        -11    1    3    3    0    0  0.68064717318E+00  0.13599268978E+03 -0.77870398948E+03  0.79048996083E+03  0.00000000000E+00 0.  1.
         12    1    3    3    0    0 -0.26302545006E+02  0.12543129701E+02 -0.33060617653E+03  0.33188792979E+03  0.00000000000E+00 0. -1.
         13    1    5    5    0    0 -0.46064977780E+02 -0.50532911597E+02  0.38096398399E+03  0.38705182396E+03  0.00000000000E+00 0. -1.
        -14    1    5    5    0    0 -0.55086055907E+02  0.18465577245E+02  0.49457742604E+03  0.49797819374E+03  0.00000000000E+00 0.  1.
          5    1    4    4  501    0  0.23316627817E+02 -0.10556533335E+03 -0.16784302377E+03  0.19969090556E+03  0.41800000000E+01 0.  1.
         -5    1    4    4    0  501  0.10345630370E+03 -0.10903151781E+02 -0.13662770534E+03  0.17177510810E+03  0.41800000000E+01 0.  1.
</event>
<event>
11    1  0.8299058E-009  0.1888418E+03  0.7561462E-02  0.1062707E+00
         22   -1    0    0    0    0  0.00000000000E+00  0.00000000000E+00  0.10488272021E+04  0.10488272021E+04  0.00000000000E+00 0.  1.
         22   -1    0    0    0    0 -0.00000000000E+00 -0.00000000000E+00 -0.19368600465E+03  0.19368600465E+03  0.00000000000E+00 0.  1.
        -24    2    1    2    0    0  0.55586042686E+02 -0.11208170827E+03 -0.34652708101E+02  0.15221579802E+03  0.79477805187E+02 0.  0.
         25    2    1    2    0    0 -0.11146895621E+01  0.19134457737E+03  0.40897744354E+02  0.23223688963E+03  0.12508939838E+03 0.  0.
         24    2    1    2    0    0 -0.54471353123E+02 -0.79262869104E+02  0.84889616116E+03  0.85806051907E+03  0.79958934606E+02 0.  0.
        -13    1    5    5    0    0 -0.26286177577E+02 -0.54335525594E+02  0.74707625808E+03  0.74951067228E+03  0.00000000000E+00 0.  1.
         14    1    5    5    0    0 -0.28185175546E+02 -0.24927343510E+02  0.10181990309E+03  0.10854984680E+03  0.00000000000E+00 0. -1.
         13    1    3    3    0    0  0.63296521735E+02 -0.42032115129E+02 -0.29664791050E+02  0.81566832683E+02  0.00000000000E+00 0. -1.
        -14    1    3    3    0    0 -0.77104790492E+01 -0.70049593139E+02 -0.49879170504E+01  0.70648965332E+02  0.00000000000E+00 0.  1.
          5    1    4    4  501    0  0.31059627280E+02  0.19267677547E+03  0.42281315458E+02  0.19973538066E+03  0.41800000000E+01 0.  1.
         -5    1    4    4    0  501 -0.32174316842E+02 -0.13321980956E+01 -0.13835711035E+01  0.32501508965E+02  0.41800000000E+01 0.  1.
</event>
<event>
11    1  0.8299058E-009  0.1497254E+03  0.7561462E-02  0.1097160E+00
         22   -1    0    0    0    0  0.00000000000E+00  0.00000000000E+00  0.43194071944E+03  0.43194071944E+03  0.00000000000E+00 0.  1.
         22   -1    0    0    0    0 -0.00000000000E+00 -0.00000000000E+00 -0.47248562436E+03  0.47248562436E+03  0.00000000000E+00 0.  1.
        -24    2    1    2    0    0 -0.18416492860E+02 -0.74335506531E+01 -0.39908179326E+03  0.40764904496E+03  0.80728193691E+02 0.  0.
         25    2    1    2    0    0  0.25202861446E+02 -0.75387282124E+02  0.33935059738E+02  0.15204247906E+03  0.12508757184E+03 0.  0.
         24    2    1    2    0    0 -0.67863685858E+01  0.82820832777E+02  0.32460182860E+03  0.34473481978E+03  0.81058026706E+02 0.  0.
        -11    1    5    5    0    0 -0.17198460648E+01  0.53818676591E+01  0.18441242757E+03  0.18449895883E+03  0.00000000000E+00 0.  1.
         12    1    5    5    0    0 -0.50665225210E+01  0.77438965118E+02  0.14018940104E+03  0.16023586094E+03  0.00000000000E+00 0. -1.
         11    1    3    3    0    0 -0.38903842323E+02 -0.13672549961E+02 -0.10528094121E+03  0.11306867007E+03  0.00000000000E+00 0. -1.
        -12    1    3    3    0    0  0.20487349463E+02  0.62389993078E+01 -0.29380085206E+03  0.29458037489E+03  0.00000000000E+00 0.  1.
          5    1    4    4  501    0  0.41148739480E+02 -0.45756297983E+02  0.76085963833E+02  0.97945923133E+02  0.41800000000E+01 0. -1.
         -5    1    4    4    0  501 -0.15945878034E+02 -0.29630984140E+02 -0.42150904096E+02  0.54096555930E+02  0.41800000000E+01 0. -1.
</event>
<event>
11    1  0.8299058E-009  0.1513109E+03  0.7561462E-02  0.1095547E+00
         22   -1    0    0    0    0  0.00000000000E+00  0.00000000000E+00  0.31282708849E+03  0.31282708849E+03  0.00000000000E+00 0.  1.
         22   -1    0    0    0    0 -0.00000000000E+00 -0.00000000000E+00 -0.57402401068E+03  0.57402401068E+03  0.00000000000E+00 0. -1.
        -24    2    1    2    0    0 -0.41916725410E+01  0.21216601759E+02 -0.32798038551E+03  0.33732728152E+03  0.75834340971E+02 0.  0.
         25    2    1    2    0    0 -0.10974194268E+01 -0.10513699699E+03 -0.20017003126E+03  0.25839925381E+03  0.12508853060E+03 0.  0.
         24    2    1    2    0    0  0.52890919678E+01  0.83920395231E+02  0.26695349458E+03  0.29112456385E+03  0.80117015534E+02 0.  0.
        -11    1    5    5    0    0  0.35157283536E+02  0.59047689184E+02  0.21824292947E+03  0.22880699388E+03  0.00000000000E+00 0.  1.
         12    1    5    5    0    0 -0.29868191568E+02  0.24872706047E+02  0.48710565103E+02  0.62317569965E+02  0.00000000000E+00 0. -1.
         13    1    3    3    0    0 -0.38545743829E+02  0.21060702777E+02 -0.20400074777E+03  0.20867590340E+03  0.00000000000E+00 0. -1.
        -14    1    3    3    0    0  0.34354071288E+02  0.15589898162E+00 -0.12397963774E+03  0.12865137813E+03  0.00000000000E+00 0.  1.
          5    1    4    4  501    0  0.42479852066E+02 -0.19741605744E+02 -0.14193846432E+02  0.49124398270E+02  0.41800000000E+01 0.  1.
         -5    1    4    4    0  501 -0.43577271493E+02 -0.85395391246E+02 -0.18597618483E+03  0.20927485554E+03  0.41800000000E+01 0.  1.
</event>
<event>
11    1  0.8299058E-009  0.1400202E+03  0.7561462E-02  0.1107536E+00
         22   -1    0    0    0    0  0.00000000000E+00  0.00000000000E+00  0.70765313025E+03  0.70765313025E+03  0.00000000000E+00 0.  1.
         22   -1    0    0    0    0 -0.00000000000E+00 -0.00000000000E+00 -0.46035677918E+03  0.46035677918E+03  0.00000000000E+00 0.  1.
        -24    2    1    2    0    0  0.60232530757E+02 -0.17504140188E+02 -0.38010797782E+03  0.39357027347E+03  0.80505482216E+02 0.  0.
         25    2    1    2    0    0 -0.61740435843E+02  0.20371040479E+02 -0.88374170891E+00  0.14097569578E+03  0.12508599080E+03 0.  0.
         24    2    1    2    0    0  0.15079050861E+01 -0.28669002913E+01  0.62828807060E+03  0.63346394018E+03  0.80747575518E+02 0.  0.
        -13    1    5    5    0    0  0.32543649593E+02 -0.83487480775E+01  0.50819280729E+03  0.50930218938E+03  0.00000000000E+00 0.  1.
         14    1    5    5    0    0 -0.31035744507E+02  0.54818477862E+01  0.12009526331E+03  0.12416175080E+03  0.00000000000E+00 0. -1.
         13    1    3    3    0    0  0.38424941007E+02  0.11430954045E+02 -0.64876834493E+02  0.76263664058E+02  0.00000000000E+00 0. -1.
        -14    1    3    3    0    0  0.21807589749E+02 -0.28935094233E+02 -0.31523114333E+03  0.31730660941E+03  0.00000000000E+00 0.  1.
          5    1    4    4  501    0  0.28495500161E+02 -0.94250182565E+01  0.28316827185E+02  0.41474565705E+02  0.41800000000E+01 0. -1.
         -5    1    4    4    0  501 -0.90235936004E+02  0.29796058736E+02 -0.29200568894E+02  0.99501130076E+02  0.41800000000E+01 0. -1.
</event>
<event>
11    1  0.8299058E-009  0.1356512E+03  0.7561462E-02  0.1112514E+00
         22   -1    0    0    0    0  0.00000000000E+00  0.00000000000E+00  0.34886697139E+03  0.34886697139E+03  0.00000000000E+00 0.  1.
         22   -1    0    0    0    0 -0.00000000000E+00 -0.00000000000E+00 -0.46748376104E+03  0.46748376104E+03  0.00000000000E+00 0.  1.
        -24    2    1    2    0    0 -0.39772682169E+02  0.32821330614E+02 -0.33037709987E+03  0.34395259495E+03  0.80593135363E+02 0.  0.
         25    2    1    2    0    0  0.15210652637E+02 -0.68764444261E+02 -0.81593186852E+02  0.16512348125E+03  0.12509357765E+03 0.  0.
         24    2    1    2    0    0  0.24562029532E+02  0.35943113648E+02  0.29335349707E+03  0.30727465623E+03  0.80412930594E+02 0.  0.
        -13    1    5    5    0    0  0.51784919977E+02  0.21207445289E+02  0.13887905577E+03  0.14972917486E+03  0.00000000000E+00 0.  1.
         14    1    5    5    0    0 -0.27222890446E+02  0.14735668359E+02  0.15447444130E+03  0.15754548137E+03  0.00000000000E+00 0. -1.
         11    1    3    3    0    0  0.24773940804E+02  0.45112283702E+01 -0.84309263901E+02  0.87989495418E+02  0.00000000000E+00 0. -1.
        -12    1    3    3    0    0 -0.64546622973E+02  0.28310102244E+02 -0.24606783597E+03  0.25596309954E+03  0.00000000000E+00 0.  1.
          5    1    4    4  501    0  0.22786868341E+02 -0.14692102118E+01 -0.93411456408E+02  0.96252649499E+02  0.41800000000E+01 0. -1.
         -5    1    4    4    0  501 -0.75762157035E+01 -0.67295234050E+02  0.11818269556E+02  0.68870831747E+02  0.41800000000E+01 0. -1.
</event>
<event>
11    1  0.8299058E-009  0.1290734E+03  0.7561462E-02  0.1120413E+00
         22   -1    0    0    0    0  0.00000000000E+00  0.00000000000E+00  0.21566141268E+04  0.21566141268E+04  0.00000000000E+00 0.  1.
         22   -1    0    0    0    0 -0.00000000000E+00 -0.00000000000E+00 -0.30589472932E+02  0.30589472932E+02  0.00000000000E+00 0. -1.
        -24    2    1    2    0    0 -0.12685628818E+02  0.29715029236E+02  0.54886233105E+02  0.10241005351E+03  0.80196086783E+02 0.  0.
         25    2    1    2    0    0  0.17679049541E+02 -0.21895069213E+02  0.73015679169E+03  0.74132904909E+03  0.12509146939E+03 0.  0.
         24    2    1    2    0    0 -0.49934207223E+01 -0.78199600234E+01  0.13409816291E+04  0.13434644972E+04  0.81111278661E+02 0.  0.
        -11    1    5    5    0    0 -0.18227049189E+02 -0.24297570061E+02  0.12361855482E+04  0.12365586548E+04  0.00000000000E+00 0.  1.
         12    1    5    5    0    0  0.13233628467E+02  0.16477610037E+02  0.10479608094E+03  0.10690584239E+03  0.00000000000E+00 0. -1.
         11    1    3    3    0    0 -0.90724540454E+01 -0.55435012726E+01 -0.18259627265E+02  0.21129453770E+02  0.00000000000E+00 0. -1.
        -12    1    3    3    0    0 -0.36131747729E+01  0.35258530509E+02  0.73145860370E+02  0.81280599745E+02  0.00000000000E+00 0.  1.
          5    1    4    4  501    0 -0.27782186901E+02 -0.36735539284E+02  0.61267539832E+03  0.61441839642E+03  0.41800000000E+01 0. -1.
         -5    1    4    4    0  501  0.45461236441E+02  0.14840470071E+02  0.11748139338E+03  0.12691065267E+03  0.41800000000E+01 0. -1.
</event>
<event>
11    1  0.8299058E-009  0.1316702E+03  0.7561462E-02  0.1117234E+00
         22   -1    0    0    0    0  0.00000000000E+00  0.00000000000E+00  0.25122103922E+03  0.25122103922E+03  0.00000000000E+00 0. -1.
         22   -1    0    0    0    0 -0.00000000000E+00 -0.00000000000E+00 -0.60162595976E+03  0.60162595976E+03  0.00000000000E+00 0. -1.
         24    2    1    2    0    0 -0.22862980234E+02  0.21035885904E+02 -0.45172256656E+03  0.45971798709E+03  0.79511798785E+02 0.  0.
         25    2    1    2    0    0  0.51632651424E+02 -0.47730514274E+02 -0.99670932584E+02  0.17471727126E+03  0.12509075660E+03 0.  0.
        -24    2    1    2    0    0 -0.28769671191E+02  0.26694628369E+02  0.20098857861E+03  0.21841174063E+03  0.75940651510E+02 0.  0.
        -13    1    3    3    0    0 -0.51407518919E+02  0.70333774539E+01 -0.23379774190E+03  0.23948608628E+03  0.00000000000E+00 0.  1.
         14    1    3    3    0    0  0.28544538686E+02  0.14002508450E+02 -0.21792482466E+03  0.22023190081E+03  0.00000000000E+00 0. -1.
         11    1    5    5    0    0 -0.22912783947E+02  0.44115784594E+02  0.19126337289E+03  0.19761800507E+03  0.00000000000E+00 0. -1.
        -12    1    5    5    0    0 -0.58568872438E+01 -0.17421156225E+02  0.97252057143E+01  0.20793735561E+02  0.00000000000E+00 0.  1.
          5    1    4    4  501    0  0.48298272917E+02 -0.45207630477E+02 -0.12887376583E+03  0.14492195464E+03  0.41800000000E+01 0.  1.
         -5    1    4    4    0  501  0.33343785070E+01 -0.25228837971E+01  0.29202833241E+02  0.29795316612E+02  0.41800000000E+01 0.  1.
</event>
<event>
11    1  0.8299058E-009  0.1346726E+03  0.7561462E-02  0.1113658E+00
         22   -1    0    0    0    0  0.00000000000E+00  0.00000000000E+00  0.74812430363E+03  0.74812430363E+03  0.00000000000E+00 0.  1.
         22   -1    0    0    0    0 -0.00000000000E+00 -0.00000000000E+00 -0.40652899719E+03  0.40652899719E+03  0.00000000000E+00 0. -1.
         24    2    1    2    0    0  0.42389252388E+02  0.24677877838E+02 -0.35022391316E+03  0.36311600206E+03  0.82405067978E+02 0.  0.
         25    2    1    2    0    0 -0.57119914713E+02 -0.27675435548E+02  0.56884505574E+02  0.15137081723E+03  0.12509461598E+03 0.  0.
        -24    2    1    2    0    0  0.14730662325E+02  0.29975577101E+01  0.63493471402E+03  0.64016648153E+03  0.80281101396E+02 0.  0.
        -13    1    3    3    0    0 -0.60528003529E+01 -0.10400379053E+02 -0.54800599950E+01  0.13222531305E+02  0.00000000000E+00 0.  1.
         14    1    3    3    0    0  0.48442052741E+02  0.35078256891E+02 -0.34474385317E+03  0.34989347075E+03  0.00000000000E+00 0. -1.
         13    1    5    5    0    0  0.45618056297E+02  0.14460617067E+02  0.32884669370E+03  0.33231049406E+03  0.00000000000E+00 0. -1.
        -14    1    5    5    0    0 -0.30887393972E+02 -0.11463059357E+02  0.30608802032E+03  0.30785598747E+03  0.00000000000E+00 0.  1.
          5    1    4    4  501    0 -0.60396490372E+02 -0.37371729321E+01 -0.25214531286E+02  0.65688259976E+02  0.41800000000E+01 0.  1.
         -5    1    4    4    0  501  0.32765756582E+01 -0.23938262616E+02  0.82099036859E+02  0.85682557259E+02  0.41800000000E+01 0.  1.
</event>
<event>
11    1  0.8299058E-009  0.1452519E+03  0.7561462E-02  0.1101832E+00
         22   -1    0    0    0    0  0.00000000000E+00  0.00000000000E+00  0.30729609648E+03  0.30729609648E+03  0.00000000000E+00 0.  1.
         22   -1    0    0    0    0 -0.00000000000E+00 -0.00000000000E+00 -0.34444893963E+03  0.34444893963E+03  0.00000000000E+00 0. -1.
        -24    2    1    2    0    0  0.27349941300E+02 -0.64910544656E+02 -0.22301452818E+03  0.24733176197E+03  0.80474359921E+02 0.  0.
         25    2    1    2    0    0  0.58804342969E+01  0.10018047757E+03 -0.32524342135E+02  0.16363307189E+03  0.12508893553E+03 0.  0.
         24    2    1    2    0    0 -0.33230375597E+02 -0.35269932912E+02  0.21838602717E+03  0.24078020225E+03  0.89075377650E+02 0.  0.
        -11    1    5    5    0    0  0.25885520514E+02 -0.12708779285E+02  0.12285896325E+03  0.12619785297E+03  0.00000000000E+00 0.  1.
         12    1    5    5    0    0 -0.59115896111E+02 -0.22561153628E+02  0.95527063919E+02  0.11458234928E+03  0.00000000000E+00 0. -1.
         13    1    3    3    0    0  0.51426481415E+02 -0.60892461814E+02 -0.14342494612E+03  0.16408318032E+03  0.00000000000E+00 0. -1.
        -14    1    3    3    0    0 -0.24076540115E+02 -0.40180828420E+01 -0.79589582064E+02  0.83248581650E+02  0.00000000000E+00 0.  1.
          5    1    4    4  501    0  0.43048177158E+02  0.11263008598E+03 -0.28794406423E+02  0.12403738173E+03  0.41800000000E+01 0.  1.
         -5    1    4    4    0  501 -0.37167742861E+02 -0.12449608410E+02 -0.37299357118E+01  0.39595690162E+02  0.41800000000E+01 0.  1.
</event>
<event>
11    1  0.8299058E-009  0.1430729E+03  0.7561462E-02  0.1104175E+00
         22   -1    0    0    0    0  0.00000000000E+00  0.00000000000E+00  0.33985157854E+03  0.33985157854E+03  0.00000000000E+00 0. -1.
         22   -1    0    0    0    0 -0.00000000000E+00 -0.00000000000E+00 -0.12310297480E+04  0.12310297480E+04  0.00000000000E+00 0.  1.
        -24    2    1    2    0    0  0.22667818087E+02  0.28217898615E+02 -0.11187083379E+04  0.11221954423E+04  0.80648531572E+02 0.  0.
         25    2    1    2    0    0 -0.46361605302E+02 -0.90098390799E+02 -0.35860186573E+02  0.16492612975E+03  0.12509019475E+03 0.  0.
         24    2    1    2    0    0  0.23693787215E+02  0.61880492184E+02  0.26339035501E+03  0.28375975450E+03  0.82185937317E+02 0.  0.
        -11    1    5    5    0    0  0.18197789518E+02 -0.23527771882E+01  0.74147236499E+01  0.19790735980E+02  0.00000000000E+00 0.  1.
         12    1    5    5    0    0  0.54959976971E+01  0.64233269372E+02  0.25597563136E+03  0.26396901851E+03  0.00000000000E+00 0. -1.
         11    1    3    3    0    0  0.42086684280E+02 -0.11181888808E+01 -0.32607792921E+03  0.32878466396E+03  0.00000000000E+00 0. -1.
        -12    1    3    3    0    0 -0.19418866193E+02  0.29336087496E+02 -0.79263040873E+03  0.79341077837E+03  0.00000000000E+00 0.  1.
          5    1    4    4  501    0 -0.67335357655E+02 -0.22158263211E+02 -0.56526327619E+02  0.90761980659E+02  0.41800000000E+01 0. -1.
         -5    1    4    4    0  501  0.20973752353E+02 -0.67940127588E+02  0.20666141046E+02  0.74164149089E+02  0.41800000000E+01 0. -1.
</event>
<event>
11    1  0.8299058E-009  0.1597058E+03  0.7561462E-02  0.1087354E+00
         22   -1    0    0    0    0  0.00000000000E+00  0.00000000000E+00  0.21927872091E+04  0.21927872091E+04  0.00000000000E+00 0. -1.
         22   -1    0    0    0    0 -0.00000000000E+00 -0.00000000000E+00 -0.62754594779E+03  0.62754594779E+03  0.00000000000E+00 0.  1.
         24    2    1    2    0    0 -0.91456240523E+02 -0.37974475821E+02 -0.60335204689E+03  0.61666678371E+03  0.80236680507E+02 0.  0.
         25    2    1    2    0    0  0.81398721752E+02  0.12649763898E+03  0.61426291956E+03  0.64466580707E+03  0.12509062269E+03 0.  0.
        -24    2    1    2    0    0  0.10057518771E+02 -0.88523163157E+02  0.15543303886E+04  0.15590005661E+04  0.81254562959E+02 0.  0.
        -13    1    3    3    0    0 -0.10091013822E+03 -0.39826410517E+02 -0.44540550339E+03  0.45842672415E+03  0.00000000000E+00 0.  1.
         14    1    3    3    0    0  0.94538976952E+01  0.18519346959E+01 -0.15794654350E+03  0.15824005956E+03  0.00000000000E+00 0. -1.
         11    1    5    5    0    0  0.14163578837E+02 -0.76002468353E+02  0.15236512492E+04  0.15256113893E+04  0.00000000000E+00 0. -1.
        -12    1    5    5    0    0 -0.41060600656E+01 -0.12520694804E+02  0.30679139453E+02  0.33389176768E+02  0.00000000000E+00 0.  1.
          5    1    4    4  501    0 -0.32584399454E+02  0.42990536174E+02  0.15813348691E+03  0.16713348369E+03  0.41800000000E+01 0. -1.
         -5    1    4    4    0  501  0.11398312121E+03  0.83507102804E+02  0.45612943265E+03  0.47753232338E+03  0.41800000000E+01 0. -1.
</event>
<event>
11    1  0.8299058E-009  0.1325578E+03  0.7561462E-02  0.1116166E+00
         22   -1    0    0    0    0  0.00000000000E+00  0.00000000000E+00  0.16701427561E+04  0.16701427561E+04  0.00000000000E+00 0.  1.
         22   -1    0    0    0    0 -0.00000000000E+00 -0.00000000000E+00 -0.16467070609E+03  0.16467070609E+03  0.00000000000E+00 0.  1.
         24    2    1    2    0    0  0.31247604335E+02 -0.24024188818E+02 -0.88543452941E+02  0.12380377836E+03  0.77031539335E+02 0.  0.
         25    2    1    2    0    0  0.20449181901E+01 -0.59607263165E+01  0.11587883503E+02  0.12578322900E+03  0.12508968665E+03 0.  0.
        -24    2    1    2    0    0 -0.33292522525E+02  0.29984915135E+02  0.15824276194E+04  0.15852264548E+04  0.82814582798E+02 0.  0.
        -13    1    3    3    0    0  0.47918833484E+02  0.17744147155E+01 -0.77553275603E+02  0.91180445858E+02  0.00000000000E+00 0.  1.
         14    1    3    3    0    0 -0.16671229148E+02 -0.25798603534E+02 -0.10990177337E+02  0.32623332502E+02  0.00000000000E+00 0. -1.
         13    1    5    5    0    0 -0.42257483567E+02 -0.15512265956E+02  0.58927872326E+03  0.59099554905E+03  0.00000000000E+00 0. -1.
        -14    1    5    5    0    0  0.89649610414E+01  0.45497181091E+02  0.99314889617E+03  0.99423090577E+03  0.00000000000E+00 0.  1.
          5    1    4    4  501    0 -0.14539303028E+02  0.25507219727E+02  0.59195011286E+02  0.66208242326E+02  0.41800000000E+01 0.  1.
         -5    1    4    4    0  501  0.16584221218E+02 -0.31467946043E+02 -0.47607127784E+02  0.59574986676E+02  0.41800000000E+01 0.  1.
</event>
<event>
11    1  0.8299058E-009  0.1329366E+03  0.7561462E-02  0.1115713E+00
         22   -1    0    0    0    0  0.00000000000E+00  0.00000000000E+00  0.10942420956E+04  0.10942420956E+04  0.00000000000E+00 0. -1.
         22   -1    0    0    0    0 -0.00000000000E+00 -0.00000000000E+00 -0.96885776273E+03  0.96885776273E+03  0.00000000000E+00 0. -1.
         24    2    1    2    0    0 -0.36033545175E+02  0.27196793599E+02 -0.94893051605E+03  0.95335568617E+03  0.79874014008E+02 0.  0.
         25    2    1    2    0    0  0.92445054434E+01 -0.31200903436E+02  0.24862757627E+03  0.28021928321E+03  0.12509283651E+03 0.  0.
        -24    2    1    2    0    0  0.26789039731E+02  0.40041098375E+01  0.82568727266E+03  0.82952488897E+03  0.74955877977E+02 0.  0.
        -11    1    3    3    0    0  0.45593032467E+01 -0.11594639845E+02 -0.27210979929E+02  0.29927585067E+02  0.00000000000E+00 0.  1.
         12    1    3    3    0    0 -0.40592848421E+02  0.38791433444E+02 -0.92171953612E+03  0.92342810111E+03  0.00000000000E+00 0. -1.
         11    1    5    5    0    0  0.22161046423E+02  0.10879119015E+02  0.81750845705E+03  0.81788113107E+03  0.00000000000E+00 0. -1.
        -12    1    5    5    0    0  0.46279933083E+01 -0.68750091771E+01  0.81788156019E+01  0.11643757894E+02  0.00000000000E+00 0.  1.
          5    1    4    4  501    0  0.35468200561E+01  0.58878612317E+01  0.24169901335E+03  0.24183286025E+03  0.41800000000E+01 0. -1.
         -5    1    4    4    0  501  0.56976853873E+01 -0.37088764668E+02  0.69285629156E+01  0.38386422957E+02  0.41800000000E+01 0. -1.
</event>
<event>
11    1  0.8299058E-009  0.1672716E+03  0.7561462E-02  0.1080431E+00
         22   -1    0    0    0    0  0.00000000000E+00  0.00000000000E+00  0.35937348247E+04  0.35937348247E+04  0.00000000000E+00 0.  1.
         22   -1    0    0    0    0 -0.00000000000E+00 -0.00000000000E+00 -0.49686784669E+02  0.49686784669E+02  0.00000000000E+00 0. -1.
         24    2    1    2    0    0 -0.56033137915E+02  0.31061428249E+02  0.57323347008E+02  0.11806567355E+03  0.80925967946E+02 0.  0.
         25    2    1    2    0    0  0.10239651945E+03 -0.12731316477E+03  0.57776532492E+03  0.61331441727E+03  0.12509242436E+03 0.  0.
        -24    2    1    2    0    0 -0.46363381536E+02  0.96251736521E+02  0.29089593681E+04  0.29120415186E+04  0.80791339657E+02 0.  0.
        -11    1    3    3    0    0  0.40257787106E+01  0.37314898592E+02  0.40853460776E+02  0.55476245444E+02  0.00000000000E+00 0.  1.
         12    1    3    3    0    0 -0.60058916626E+02 -0.62534703424E+01  0.16469886232E+02  0.62589428101E+02  0.00000000000E+00 0. -1.
         13    1    5    5    0    0 -0.26803091057E+02  0.15993689711E+02  0.16890848176E+04  0.16893731751E+04  0.00000000000E+00 0. -1.
        -14    1    5    5    0    0 -0.19560290479E+02  0.80258046810E+02  0.12198745505E+04  0.12226683434E+04  0.00000000000E+00 0.  1.
          5    1    4    4  501    0 -0.26494130746E+02 -0.38480621498E+02  0.98144071579E+02  0.10877696622E+03  0.41800000000E+01 0. -1.
         -5    1    4    4    0  501  0.12889065020E+03 -0.88832543273E+02  0.47962125334E+03  0.50453745105E+03  0.41800000000E+01 0. -1.
</event>
<event>
11    1  0.8299058E-009  0.1329886E+03  0.7561462E-02  0.1115651E+00
         22   -1    0    0    0    0  0.00000000000E+00  0.00000000000E+00  0.13178077493E+03  0.13178077493E+03  0.00000000000E+00 0. -1.
         22   -1    0    0    0    0 -0.00000000000E+00 -0.00000000000E+00 -0.12814985966E+04  0.12814985966E+04  0.00000000000E+00 0. -1.
        -24    2    1    2    0    0  0.41279404202E+02 -0.23146558616E+02 -0.11580055353E+04  0.11621872412E+04  0.86386408151E+02 0.  0.
         25    2    1    2    0    0  0.70386871247E+01  0.16658405126E+02 -0.55415348810E+02  0.13800479668E+03  0.12508963765E+03 0.  0.
         24    2    1    2    0    0 -0.48318091327E+02  0.64881534894E+01  0.63703062436E+02  0.11308733361E+03  0.79711547313E+02 0.  0.
        -11    1    5    5    0    0 -0.21767876149E+02 -0.28003334062E+02 -0.55733970466E+00  0.35473057074E+02  0.00000000000E+00 0.  1.
         12    1    5    5    0    0 -0.26550215178E+02  0.34491487552E+02  0.64260402141E+02  0.77614276540E+02  0.00000000000E+00 0. -1.
         11    1    3    3    0    0  0.62926772120E+02 -0.64046524240E+01 -0.56094123118E+03  0.56449611430E+03  0.00000000000E+00 0. -1.
        -12    1    3    3    0    0 -0.21647367917E+02 -0.16741906192E+02 -0.59706430412E+03  0.59769112693E+03  0.00000000000E+00 0.  1.
          5    1    4    4  501    0 -0.22661436798E+02  0.61494771738E+02 -0.52335126841E+02  0.83973719522E+02  0.41800000000E+01 0. -1.
         -5    1    4    4    0  501  0.29700123922E+02 -0.44836366612E+02 -0.30802219682E+01  0.54031077163E+02  0.41800000000E+01 0. -1.
</event>
<event>
11    1  0.8299058E-009  0.1916267E+03  0.7561462E-02  0.1060608E+00
         22   -1    0    0    0    0  0.00000000000E+00  0.00000000000E+00  0.24079580462E+03  0.24079580462E+03  0.00000000000E+00 0.  1.
         22   -1    0    0    0    0 -0.00000000000E+00 -0.00000000000E+00 -0.64701029350E+03  0.64701029350E+03  0.00000000000E+00 0. -1.
         24    2    1    2    0    0 -0.95140772408E+02  0.58433158063E+02 -0.20640803857E+03  0.24860918939E+03  0.82073443501E+02 0.  0.
         25    2    1    2    0    0  0.15688324495E+03 -0.12772686258E+03 -0.36365389619E+03  0.43453296942E+03  0.12509293077E+03 0.  0.
        -24    2    1    2    0    0 -0.61742472538E+02  0.69293704517E+02  0.16384744589E+03  0.20466393931E+03  0.80172265345E+02 0.  0.
        -11    1    3    3    0    0 -0.51432285813E+01 -0.14011740621E+02 -0.38423018676E+01  0.15412493605E+02  0.00000000000E+00 0.  1.
         12    1    3    3    0    0 -0.89997543827E+02  0.72444898684E+02 -0.20256573670E+03  0.23319669579E+03  0.00000000000E+00 0. -1.
         13    1    5    5    0    0 -0.38457990928E+02  0.64382382624E+02  0.54368405902E+02  0.92628461171E+02  0.00000000000E+00 0. -1.
        -14    1    5    5    0    0 -0.23284481610E+02  0.49113218936E+01  0.10947903998E+03  0.11203547814E+03  0.00000000000E+00 0.  1.
          5    1    4    4  501    0  0.22028561270E+02 -0.73412627561E+02 -0.20699056808E+03  0.22076512195E+03  0.41800000000E+01 0.  1.
         -5    1    4    4    0  501  0.13485468368E+03 -0.54314235019E+02 -0.15666332811E+03  0.21376784746E+03  0.41800000000E+01 0.  1.
</event>
<event>
11    1  0.8299058E-009  0.3900493E+03  0.7561462E-02  0.9679583E-01
         22   -1    0    0    0    0  0.00000000000E+00  0.00000000000E+00  0.20682650788E+03  0.20682650788E+03  0.00000000000E+00 0.  1.
         22   -1    0    0    0    0 -0.00000000000E+00 -0.00000000000E+00 -0.24872101630E+04  0.24872101630E+04  0.00000000000E+00 0.  1.
        -24    2    1    2    0    0 -0.22423118933E+03  0.32295179125E+03 -0.16616942861E+04  0.17094906556E+04  0.80950080274E+02 0.  0.
         25    2    1    2    0    0  0.37930782700E+03 -0.71685782373E+02 -0.52749318324E+03  0.66551602299E+03  0.12509692032E+03 0.  0.
         24    2    1    2    0    0 -0.15507663767E+03 -0.25126600888E+03 -0.91196185802E+02  0.31902999228E+03  0.79246582903E+02 0.  0.
        -13    1    5    5    0    0 -0.11873131947E+03 -0.18099727360E+03 -0.10180517788E+03  0.23921001968E+03  0.00000000000E+00 0.  1.
         14    1    5    5    0    0 -0.36345318203E+02 -0.70268735282E+02  0.10608992078E+02  0.79819972603E+02  0.00000000000E+00 0. -1.
         11    1    3    3    0    0 -0.42155804358E+02  0.91214779375E+02 -0.56619847688E+03  0.57504605297E+03  0.00000000000E+00 0. -1.
        -12    1    3    3    0    0 -0.18207538498E+03  0.23173701188E+03 -0.10954958092E+04  0.11344446026E+04  0.00000000000E+00 0.  1.
          5    1    4    4  501    0  0.35077839451E+03 -0.45307993945E+02 -0.40896020225E+03  0.54070714421E+03  0.41800000000E+01 0. -1.
         -5    1    4    4    0  501  0.28529432487E+02 -0.26377788427E+02 -0.11853298099E+03  0.12480887878E+03  0.41800000000E+01 0. -1.
</event>
<event>
11    1  0.8299058E-009  0.1343412E+03  0.7561462E-02  0.1114047E+00
         22   -1    0    0    0    0  0.00000000000E+00  0.00000000000E+00  0.26309993346E+03  0.26309993346E+03  0.00000000000E+00 0.  1.
         22   -1    0    0    0    0 -0.00000000000E+00 -0.00000000000E+00 -0.92289012132E+03  0.92289012132E+03  0.00000000000E+00 0. -1.
        -24    2    1    2    0    0 -0.20258242643E+02 -0.51011789169E+02 -0.73387532620E+03  0.74025928737E+03  0.79988868616E+02 0.  0.
         25    2    1    2    0    0  0.23685554929E+02 -0.32509024133E+01 -0.15308959123E+03  0.19913884117E+03  0.12509309030E+03 0.  0.
         24    2    1    2    0    0 -0.34273122867E+01  0.54262691582E+02  0.22717472956E+03  0.24659192624E+03  0.79012873436E+02 0.  0.
        -11    1    5    5    0    0 -0.23668232224E+02  0.67526263223E+02  0.17574651797E+03  0.18975463109E+03  0.00000000000E+00 0.  1.
         12    1    5    5    0    0  0.20240919937E+02 -0.13263571641E+02  0.51428211595E+02  0.56837295154E+02  0.00000000000E+00 0. -1.
         11    1    3    3    0    0 -0.24904961022E+02 -0.30638449809E+02 -0.69502528666E+03  0.69614590481E+03  0.00000000000E+00 0. -1.
        -12    1    3    3    0    0  0.46467183793E+01 -0.20373339360E+02 -0.38850039538E+02  0.44113382556E+02  0.00000000000E+00 0.  1.
          5    1    4    4  501    0 -0.24132851127E+02  0.23505346042E+02 -0.13805182741E+03  0.14216425447E+03  0.41800000000E+01 0. -1.
         -5    1    4    4    0  501  0.47818406057E+02 -0.26756248455E+02 -0.15037763818E+02  0.56974586702E+02  0.41800000000E+01 0. -1.
</event>
<event>
11    1  0.8299058E-009  0.3163709E+03  0.7561462E-02  0.9934912E-01
         22   -1    0    0    0    0  0.00000000000E+00  0.00000000000E+00  0.11388668807E+04  0.11388668807E+04  0.00000000000E+00 0. -1.
         22   -1    0    0    0    0 -0.00000000000E+00 -0.00000000000E+00 -0.42421761348E+03  0.42421761348E+03  0.00000000000E+00 0. -1.
         24    2    1    2    0    0  0.98292818273E+01  0.46387291999E+02 -0.13910674161E+03  0.16803837267E+03  0.81472777604E+02 0.  0.
         25    2    1    2    0    0 -0.66270825017E+02 -0.32747225426E+03 -0.12031374877E+03  0.37650021348E+03  0.12508842092E+03 0.  0.
        -24    2    1    2    0    0  0.56441543189E+02  0.28108496226E+03  0.97406975756E+03  0.10185459080E+04  0.80183977829E+02 0.  0.
        -13    1    3    3    0    0  0.22831693624E+02  0.43910419630E+02 -0.29460890951E+02  0.57596486711E+02  0.00000000000E+00 0.  1.
         14    1    3    3    0    0 -0.13002411797E+02  0.24768723696E+01 -0.10964585066E+03  0.11044188596E+03  0.00000000000E+00 0. -1.
         11    1    5    5    0    0  0.56802250330E+02  0.11379849961E+03  0.49620294626E+03  0.51224404148E+03  0.00000000000E+00 0. -1.
        -12    1    5    5    0    0 -0.36070714092E+00  0.16728646266E+03  0.47786681129E+03  0.50630186651E+03  0.00000000000E+00 0.  1.
          5    1    4    4  501    0  0.18096034886E+01 -0.26181814167E+03 -0.82374786336E+02  0.27450881916E+03  0.41800000000E+01 0.  1.
         -5    1    4    4    0  501 -0.68080428505E+02 -0.65654112597E+02 -0.37938962431E+02  0.10199139433E+03  0.41800000000E+01 0.  1.
</event>
<event>
11    1  0.8299058E-009  0.1372833E+03  0.7561462E-02  0.1110631E+00
         22   -1    0    0    0    0  0.00000000000E+00  0.00000000000E+00  0.15895773328E+03  0.15895773328E+03  0.00000000000E+00 0. -1.
         22   -1    0    0    0    0 -0.00000000000E+00 -0.00000000000E+00 -0.23753050526E+04  0.23753050526E+04  0.00000000000E+00 0. -1.
         24    2    1    2    0    0  0.99117839551E+02  0.47641101496E+02 -0.21342052124E+04  0.21385901570E+04  0.81498162268E+02 0.  0.
         25    2    1    2    0    0  0.31241753873E+02  0.74377853492E+01 -0.16791137223E+03  0.21183080340E+03  0.12508673995E+03 0.  0.
        -24    2    1    2    0    0 -0.13035959342E+03 -0.55078886846E+02  0.85769265253E+02  0.18384182549E+03  0.80088342256E+02 0.  0.
        -13    1    3    3    0    0  0.35205423210E+02 -0.35958357501E+01 -0.23801679749E+03  0.24063322245E+03  0.00000000000E+00 0.  1.
         14    1    3    3    0    0  0.63912416341E+02  0.51236937246E+02 -0.18961884149E+04  0.18979569346E+04  0.00000000000E+00 0. -1.
         13    1    5    5    0    0 -0.11465169716E+03 -0.11674096423E+02  0.71077313409E+02  0.13540044560E+03  0.00000000000E+00 0. -1.
        -14    1    5    5    0    0 -0.15707896267E+02 -0.43404790422E+02  0.14691951844E+02  0.48441379891E+02  0.00000000000E+00 0.  1.
          5    1    4    4  501    0 -0.21290158023E+02  0.54391286714E+02 -0.76902966310E+02  0.96660341021E+02  0.41800000000E+01 0. -1.
         -5    1    4    4    0  501  0.52531911896E+02 -0.46953501365E+02 -0.91008405915E+02  0.11517046238E+03  0.41800000000E+01 0. -1.
</event>
<event>
11    1  0.8299058E-009  0.1320189E+03  0.7561462E-02  0.1116813E+00
         22   -1    0    0    0    0  0.00000000000E+00  0.00000000000E+00  0.39984266194E+03  0.39984266194E+03  0.00000000000E+00 0. -1.
         22   -1    0    0    0    0 -0.00000000000E+00 -0.00000000000E+00 -0.92483482678E+03  0.92483482678E+03  0.00000000000E+00 0. -1.
         24    2    1    2    0    0 -0.11749796575E+01  0.42791552208E+02 -0.80114653777E+03  0.80688160868E+03  0.85963119568E+02 0.  0.
         25    2    1    2    0    0  0.18858841844E+02 -0.31995711420E+02 -0.79270724538E+02  0.15271338112E+03  0.12513251992E+03 0.  0.
        -24    2    1    2    0    0 -0.17683862186E+02 -0.10795840788E+02  0.35542509747E+03  0.36508249892E+03  0.80801992203E+02 0.  0.
        -11    1    3    3    0    0  0.11773628937E+02  0.61121909200E+02 -0.37387994234E+03  0.37902601152E+03  0.00000000000E+00 0.  1.
         12    1    3    3    0    0 -0.12948608595E+02 -0.18330356993E+02 -0.42726659543E+03  0.42785559716E+03  0.00000000000E+00 0. -1.
         11    1    5    5    0    0 -0.24755702757E+02 -0.14954355212E+02  0.35570009763E+03  0.35687397917E+03  0.00000000000E+00 0. -1.
        -12    1    5    5    0    0  0.70718405707E+01  0.41585144246E+01 -0.27500015883E+00  0.82085197426E+01  0.00000000000E+00 0.  1.
          5    1    4    4  501    0  0.30181687417E+02  0.43961382197E+02 -0.29186279078E+02  0.60933149159E+02  0.41800000000E+01 0.  1.
         -5    1    4    4    0  501 -0.11322845573E+02 -0.75957093617E+02 -0.50084445460E+02  0.91780231965E+02  0.41800000000E+01 0.  1.
</event>
<event>
11    1  0.8299058E-009  0.1485340E+03  0.7561462E-02  0.1098386E+00
         22   -1    0    0    0    0  0.00000000000E+00  0.00000000000E+00  0.46346770414E+03  0.46346770414E+03  0.00000000000E+00 0.  1.
         22   -1    0    0    0    0 -0.00000000000E+00 -0.00000000000E+00 -0.56993726926E+03  0.56993726926E+03  0.00000000000E+00 0. -1.
         24    2    1    2    0    0 -0.58840358337E+02 -0.16227037551E+02 -0.41589038284E+03  0.42821993957E+03  0.81743510973E+02 0.  0.
         25    2    1    2    0    0  0.13360688337E+03  0.33964325360E+02 -0.78128344449E+02  0.20188170611E+03  0.12509120823E+03 0.  0.
        -24    2    1    2    0    0 -0.74766525033E+02 -0.17737287809E+02  0.38754916217E+03  0.40330332773E+03  0.80960338525E+02 0.  0.
        -13    1    3    3    0    0 -0.19728409837E+02 -0.42513000815E+02 -0.12422282478E+03  0.13277001012E+03  0.00000000000E+00 0.  1.
         14    1    3    3    0    0 -0.39111948501E+02  0.26285963265E+02 -0.29166755807E+03  0.29544992944E+03  0.00000000000E+00 0. -1.
         13    1    5    5    0    0 -0.46158663908E+02  0.30177427184E+02  0.17061860495E+03  0.17930980933E+03  0.00000000000E+00 0. -1.
        -14    1    5    5    0    0 -0.28607861125E+02 -0.47914714993E+02  0.21693055722E+03  0.22399351840E+03  0.00000000000E+00 0.  1.
          5    1    4    4  501    0  0.11196520341E+03 -0.31188986019E+02 -0.38544873352E+02  0.12252403554E+03  0.41800000000E+01 0. -1.
         -5    1    4    4    0  501  0.21641679964E+02  0.65153311378E+02 -0.39583471097E+02  0.79357670576E+02  0.41800000000E+01 0. -1.
</event>
<event>
11    1  0.8299058E-009  0.1697244E+03  0.7561462E-02  0.1078272E+00
         22   -1    0    0    0    0  0.00000000000E+00  0.00000000000E+00  0.68513906008E+03  0.68513906008E+03  0.00000000000E+00 0.  1.
         22   -1    0    0    0    0 -0.00000000000E+00 -0.00000000000E+00 -0.13859086457E+04  0.13859086457E+04  0.00000000000E+00 0. -1.
        -24    2    1    2    0    0 -0.87153446850E+02  0.48686394288E+02 -0.12801586254E+04  0.12865395241E+04  0.80073420444E+02 0.  0.
         25    2    1    2    0    0  0.71356602033E+01 -0.13324671036E+03 -0.57206002843E+01  0.18298833951E+03  0.12508558534E+03 0.  0.
         24    2    1    2    0    0  0.80017786647E+02  0.84560316072E+02  0.58510964003E+03  0.60151984219E+03  0.76938523850E+02 0.  0.
        -13    1    5    5    0    0  0.76536025200E+02  0.77820618796E+02  0.35767776342E+03  0.37396148774E+03  0.00000000000E+00 0.  1.
         14    1    5    5    0    0  0.34817614474E+01  0.67396972756E+01  0.22743187661E+03  0.22755835445E+03  0.00000000000E+00 0. -1.
         13    1    3    3    0    0 -0.88386307231E+02  0.10436689395E+02 -0.95436070807E+03  0.95850165618E+03  0.00000000000E+00 0. -1.
        -14    1    3    3    0    0  0.12328603810E+01  0.38249704893E+02 -0.32579791735E+03  0.32803786796E+03  0.00000000000E+00 0.  1.
          5    1    4    4  501    0 -0.39117468766E+02 -0.38352894995E+01  0.18055733713E+02  0.43455353273E+02  0.41800000000E+01 0. -1.
         -5    1    4    4    0  501  0.46253128969E+02 -0.12941142086E+03 -0.23776333998E+02  0.13953298623E+03  0.41800000000E+01 0. -1.
</event>
<event>
11    1  0.8299058E-009  0.1515059E+03  0.7561462E-02  0.1095350E+00
         22   -1    0    0    0    0  0.00000000000E+00  0.00000000000E+00  0.27986268025E+04  0.27986268025E+04  0.00000000000E+00 0. -1.
         22   -1    0    0    0    0 -0.00000000000E+00 -0.00000000000E+00 -0.16028906757E+03  0.16028906757E+03  0.00000000000E+00 0. -1.
         24    2    1    2    0    0 -0.88546041662E+02 -0.11832484525E+02 -0.12081394403E+03  0.17058636161E+03  0.80766877570E+02 0.  0.
         25    2    1    2    0    0  0.37066856614E+02 -0.35087950574E+02  0.32694202165E+03  0.35375717402E+03  0.12509171242E+03 0.  0.
        -24    2    1    2    0    0  0.51479185048E+02  0.46920435099E+02  0.24322096573E+04  0.24345723344E+04  0.81529140448E+02 0.  0.
        -13    1    3    3    0    0 -0.68564702175E+02 -0.44762585340E+02 -0.80368190421E+02  0.11473383748E+03  0.00000000000E+00 0.  1.
         14    1    3    3    0    0 -0.19981339487E+02  0.32930100815E+02 -0.40445753609E+02  0.55852524136E+02  0.00000000000E+00 0. -1.
         11    1    5    5    0    0  0.70033064808E+02  0.40002810321E+02  0.22132770207E+04  0.22147460408E+04  0.00000000000E+00 0. -1.
        -12    1    5    5    0    0 -0.18553879760E+02  0.69176247780E+01  0.21893263658E+03  0.21982629358E+03  0.00000000000E+00 0.  1.
          5    1    4    4  501    0 -0.31080593433E+02 -0.47948466617E+02  0.88725892129E+02  0.10561635798E+03  0.41800000000E+01 0. -1.
         -5    1    4    4    0  501  0.68147450048E+02  0.12860516043E+02  0.23821612952E+03  0.24814081604E+03  0.41800000000E+01 0. -1.
</event>
<event>
11    1  0.8299058E-009  0.2823697E+03  0.7561462E-02  0.1007942E+00
         22   -1    0    0    0    0  0.00000000000E+00  0.00000000000E+00  0.13783093946E+03  0.13783093946E+03  0.00000000000E+00 0.  1.
         22   -1    0    0    0    0 -0.00000000000E+00 -0.00000000000E+00 -0.23239077035E+04  0.23239077035E+04  0.00000000000E+00 0. -1.
        -24    2    1    2    0    0  0.70366825052E+02 -0.23202232822E+03 -0.17719418606E+04  0.17903377379E+04  0.82130431869E+02 0.  0.
         25    2    1    2    0    0 -0.15093878207E+03  0.30247115455E+03 -0.39730376276E+03  0.53644253042E+03  0.12509593627E+03 0.  0.
         24    2    1    2    0    0  0.80571957022E+02 -0.70448826332E+02 -0.16831140694E+02  0.13495837456E+03  0.80471101501E+02 0.  0.
        -11    1    5    5    0    0  0.16941845221E+02 -0.61636389908E+02  0.11156584041E+02  0.64888674265E+02  0.00000000000E+00 0.  1.
         12    1    5    5    0    0  0.63630111801E+02 -0.88124364241E+01 -0.27987724735E+02  0.70069700295E+02  0.00000000000E+00 0. -1.
         13    1    3    3    0    0  0.61350747420E+02 -0.23097313300E+03 -0.17542477287E+04  0.17704512408E+04  0.00000000000E+00 0. -1.
        -14    1    3    3    0    0  0.90160776326E+01 -0.10491952213E+01 -0.17694131823E+02  0.19886497114E+02  0.00000000000E+00 0.  1.
          5    1    4    4  501    0 -0.51237028822E+02  0.43162441539E+02 -0.15057619246E+03  0.16486021842E+03  0.41800000000E+01 0. -1.
         -5    1    4    4    0  501 -0.99701753252E+02  0.25930871301E+03 -0.24672757030E+03  0.37158231200E+03  0.41800000000E+01 0. -1.
</event>
<event>
11    1  0.8299058E-009  0.2269889E+03  0.7561462E-02  0.1036926E+00
         22   -1    0    0    0    0  0.00000000000E+00  0.00000000000E+00  0.17088782017E+04  0.17088782017E+04  0.00000000000E+00 0. -1.
         22   -1    0    0    0    0 -0.00000000000E+00 -0.00000000000E+00 -0.91349327787E+03  0.91349327787E+03  0.00000000000E+00 0. -1.
        -24    2    1    2    0    0  0.32662817743E+02  0.41840507470E+02 -0.79984158682E+03  0.80742493178E+03  0.96803764037E+02 0.  0.
         25    2    1    2    0    0 -0.19291200886E+03  0.58471994248E+02  0.33224342576E+02  0.23954636804E+03  0.12507832838E+03 0.  0.
         24    2    1    2    0    0  0.16024919111E+03 -0.10031250172E+03  0.15620021681E+04  0.15754001797E+04  0.79325607387E+02 0.  0.
        -13    1    5    5    0    0 -0.58049083966E+01 -0.15738635509E+02  0.20111995995E+03  0.20181833391E+03  0.00000000000E+00 0.  1.
         14    1    5    5    0    0  0.16605409951E+03 -0.84573866209E+02  0.13608822081E+04  0.13735818458E+04  0.00000000000E+00 0. -1.
         13    1    3    3    0    0  0.19579053770E+02 -0.77241047574E+01 -0.62165179737E+03  0.62200800502E+03  0.00000000000E+00 0. -1.
        -14    1    3    3    0    0  0.13083763972E+02  0.49564612228E+02 -0.17818978946E+03  0.18541692677E+03  0.00000000000E+00 0.  1.
          5    1    4    4  501    0 -0.18776651995E+03  0.69605139884E+02 -0.37873042673E+01  0.20033211821E+03  0.41800000000E+01 0.  1.
         -5    1    4    4    0  501 -0.51454889043E+01 -0.11133145635E+02  0.37011646843E+02  0.39214249831E+02  0.41800000000E+01 0.  1.
</event>
<event>
11    1  0.8299058E-009  0.1759899E+03  0.7561462E-02  0.1072933E+00
         22   -1    0    0    0    0  0.00000000000E+00  0.00000000000E+00  0.15765677997E+03  0.15765677997E+03  0.00000000000E+00 0.  1.
         22   -1    0    0    0    0 -0.00000000000E+00 -0.00000000000E+00 -0.70011318014E+03  0.70011318014E+03  0.00000000000E+00 0.  1.
        -24    2    1    2    0    0 -0.35494187432E+02 -0.11787709260E+03 -0.41041652682E+03  0.43522793996E+03  0.76333399857E+02 0.  0.
         25    2    1    2    0    0 -0.17673831670E+01  0.12980420977E+03 -0.22872674095E+03  0.29122981543E+03  0.12508647750E+03 0.  0.
         24    2    1    2    0    0  0.37261570599E+02 -0.11927117163E+02  0.96686867597E+02  0.13131220472E+03  0.79773830144E+02 0.  0.
        -11    1    5    5    0    0  0.46928353287E+02  0.70059685852E+01  0.99143455870E+02  0.10991259609E+03  0.00000000000E+00 0.  1.
         12    1    5    5    0    0 -0.96667826884E+01 -0.18933085749E+02 -0.24565882731E+01  0.21399608628E+02  0.00000000000E+00 0. -1.
         13    1    3    3    0    0 -0.35112984516E+02 -0.14843865191E+02 -0.71934676709E+02  0.81411668259E+02  0.00000000000E+00 0. -1.
        -14    1    3    3    0    0 -0.38120291516E+00 -0.10303322741E+03 -0.33848185011E+03  0.35381627170E+03  0.00000000000E+00 0.  1.
          5    1    4    4  501    0 -0.34976140219E+02  0.14577573950E+02 -0.64915840453E+01  0.38671037099E+02  0.41800000000E+01 0.  1.
         -5    1    4    4    0  501  0.33208757052E+02  0.11522663582E+03 -0.22223515691E+03  0.25255877833E+03  0.41800000000E+01 0.  1.
</event>
<event>
11    1  0.8299058E-009  0.1449379E+03  0.7561462E-02  0.1102166E+00
         22   -1    0    0    0    0  0.00000000000E+00  0.00000000000E+00  0.14655100921E+03  0.14655100921E+03  0.00000000000E+00 0. -1.
         22   -1    0    0    0    0 -0.00000000000E+00 -0.00000000000E+00 -0.18924383148E+04  0.18924383148E+04  0.00000000000E+00 0.  1.
         24    2    1    2    0    0 -0.67812601110E+02  0.25088578581E+02 -0.11285643789E+04  0.11338038890E+04  0.81398499960E+02 0.  0.
         25    2    1    2    0    0  0.85502080597E+02  0.28774977042E+02 -0.73504718867E+03  0.75106022053E+03  0.12513384915E+03 0.  0.
        -24    2    1    2    0    0 -0.17689479487E+02 -0.53863555623E+02  0.11772426201E+03  0.15412521442E+03  0.81739706048E+02 0.  0.
        -13    1    3    3    0    0 -0.73121127609E+02  0.39549859921E+02 -0.69318837058E+03  0.69815543243E+03  0.00000000000E+00 0.  1.
         14    1    3    3    0    0  0.53085264987E+01 -0.14461281340E+02 -0.43537600833E+03  0.43564845660E+03  0.00000000000E+00 0. -1.
         11    1    5    5    0    0 -0.35838738929E+02 -0.29621134739E+02  0.11460979672E+03  0.12368198065E+03  0.00000000000E+00 0. -1.
        -12    1    5    5    0    0  0.18149259443E+02 -0.24242420884E+02  0.31144652890E+01  0.30443233775E+02  0.00000000000E+00 0.  1.
          5    1    4    4  501    0  0.51937172630E+02 -0.31891247317E+02 -0.55042112118E+03  0.55380087089E+03  0.41800000000E+01 0.  1.
         -5    1    4    4    0  501  0.33564907967E+02  0.60666224359E+02 -0.18462606749E+03  0.19725934964E+03  0.41800000000E+01 0.  1.
</event>
<event>
11    1  0.8299058E-009  0.1521456E+03  0.7561462E-02  0.1094706E+00
         22   -1    0    0    0    0  0.00000000000E+00  0.00000000000E+00  0.23072744376E+03  0.23072744376E+03  0.00000000000E+00 0.  1.
         22   -1    0    0    0    0 -0.00000000000E+00 -0.00000000000E+00 -0.40527554542E+03  0.40527554542E+03  0.00000000000E+00 0.  1.
         24    2    1    2    0    0  0.64800106524E+02  0.72942938788E+02 -0.27832466086E+03  0.30472167792E+03  0.76622177129E+02 0.  0.
         25    2    1    2    0    0 -0.46874892805E+02 -0.21324874396E+02 -0.50379238569E+02  0.14434672548E+03  0.12508358659E+03 0.  0.
        -24    2    1    2    0    0 -0.17925213719E+02 -0.51618064392E+02  0.15415579777E+03  0.18693458578E+03  0.90525087767E+02 0.  0.
        -13    1    3    3    0    0  0.46872339194E+00  0.38030634959E+01 -0.12217108266E+03  0.12223115982E+03  0.00000000000E+00 0.  1.
         14    1    3    3    0    0  0.64331383132E+02  0.69139875292E+02 -0.15615357820E+03  0.18249051810E+03  0.00000000000E+00 0. -1.
         11    1    5    5    0    0 -0.48681840037E+02 -0.55100706562E+01  0.57749710401E+02  0.75731839271E+02  0.00000000000E+00 0. -1.
        -12    1    5    5    0    0  0.30756626318E+02 -0.46107993736E+02  0.96406087368E+02  0.11120274651E+03  0.00000000000E+00 0.  1.
          5    1    4    4  501    0  0.16390093977E+02  0.48088008508E+01 -0.70674135445E+02  0.72829015969E+02  0.41800000000E+01 0.  1.
         -5    1    4    4    0  501 -0.63264986782E+02 -0.26133675246E+02  0.20294896876E+02  0.71517709510E+02  0.41800000000E+01 0.  1.
</event>
<event>
11    1  0.8299058E-009  0.1581792E+03  0.7561462E-02  0.1088802E+00
         22   -1    0    0    0    0  0.00000000000E+00  0.00000000000E+00  0.84385730975E+02  0.84385730975E+02  0.00000000000E+00 0.  1.
         22   -1    0    0    0    0 -0.00000000000E+00 -0.00000000000E+00 -0.10357725058E+04  0.10357725058E+04  0.00000000000E+00 0. -1.
        -24    2    1    2    0    0  0.18400927865E+02 -0.11159474363E+02 -0.62271311321E+03  0.62839290888E+03  0.81503978773E+02 0.  0.
         25    2    1    2    0    0 -0.84187975225E+02 -0.58870007949E+02 -0.32858547389E+03  0.36628968009E+03  0.12508566297E+03 0.  0.
         24    2    1    2    0    0  0.65787047360E+02  0.70029482312E+02 -0.88187734449E-01  0.12547564781E+03  0.80697375568E+02 0.  0.
        -11    1    5    5    0    0  0.25605161421E+02 -0.14184479732E+02  0.11500510378E+02  0.31449729658E+02  0.00000000000E+00 0.  1.
         12    1    5    5    0    0  0.40181885940E+02  0.84213962044E+02 -0.11588698112E+02  0.94025918154E+02  0.00000000000E+00 0. -1.
         11    1    3    3    0    0 -0.22197471238E+02  0.14216372631E+02 -0.38529433884E+03  0.38619497734E+03  0.00000000000E+00 0. -1.
        -12    1    3    3    0    0  0.40598399102E+02 -0.25375846995E+02 -0.23741877437E+03  0.24219793154E+03  0.00000000000E+00 0.  1.
          5    1    4    4  501    0 -0.90502250024E+01  0.19282352880E+02 -0.15895787051E+01  0.21764991745E+02  0.41800000000E+01 0.  1.
         -5    1    4    4    0  501 -0.75137750223E+02 -0.78152360829E+02 -0.32699589518E+03  0.34452468834E+03  0.41800000000E+01 0.  1.
</event>
<event>
11    1  0.8299058E-009  0.1686094E+03  0.7561462E-02  0.1079248E+00
         22   -1    0    0    0    0  0.00000000000E+00  0.00000000000E+00  0.60509663905E+03  0.60509663905E+03  0.00000000000E+00 0.  1.
         22   -1    0    0    0    0 -0.00000000000E+00 -0.00000000000E+00 -0.27865562645E+04  0.27865562645E+04  0.00000000000E+00 0.  1.
        -24    2    1    2    0    0 -0.57988533028E+02 -0.95599580722E+02 -0.26541717414E+04  0.26580807042E+04  0.90903507618E+02 0.  0.
         25    2    1    2    0    0  0.13337332086E+03  0.12468233171E+03 -0.24853907399E+02  0.22270937034E+03  0.12509044875E+03 0.  0.
         24    2    1    2    0    0 -0.75384787835E+02 -0.29082750984E+02  0.49756602329E+03  0.51086282901E+03  0.82947030607E+02 0.  0.
        -11    1    5    5    0    0 -0.42340277494E+02 -0.52013472001E+02  0.39570352390E+03  0.40134695613E+03  0.00000000000E+00 0.  1.
         12    1    5    5    0    0 -0.33044510341E+02  0.22930721018E+02  0.10186249939E+03  0.10951587288E+03  0.00000000000E+00 0. -1.
         11    1    3    3    0    0 -0.19144373090E+02  0.49839889603E+01 -0.12028373222E+03  0.12189964481E+03  0.00000000000E+00 0. -1.
        -12    1    3    3    0    0 -0.38844159939E+02 -0.10058356968E+03 -0.25338880092E+04  0.25361810594E+04  0.00000000000E+00 0.  1.
          5    1    4    4  501    0  0.20088079775E+01 -0.49364242666E+01 -0.37096097654E+02  0.37709368268E+02  0.41800000000E+01 0. -1.
         -5    1    4    4    0  501  0.13136451289E+03  0.12961875597E+03  0.12242190254E+02  0.18500000207E+03  0.41800000000E+01 0. -1.
</event>
<event>
11    1  0.8299058E-009  0.2432400E+03  0.7561462E-02  0.1027563E+00
         22   -1    0    0    0    0  0.00000000000E+00  0.00000000000E+00  0.12953147996E+04  0.12953147996E+04  0.00000000000E+00 0.  1.
         22   -1    0    0    0    0 -0.00000000000E+00 -0.00000000000E+00 -0.68959659869E+03  0.68959659869E+03  0.00000000000E+00 0.  1.
        -24    2    1    2    0    0  0.12752539571E+02 -0.13072156415E+02 -0.52751355480E+03  0.53376529068E+03  0.79380895054E+02 0.  0.
         25    2    1    2    0    0 -0.17852756270E+03 -0.11332972506E+03 -0.46765230081E+02  0.25009395235E+03  0.12507710034E+03 0.  0.
         24    2    1    2    0    0  0.16577502313E+03  0.12640188148E+03  0.11799969858E+04  0.12010521553E+04  0.81698220551E+02 0.  0.
        -13    1    5    5    0    0  0.12534801360E+03  0.57018579271E+02  0.86960781907E+03  0.88044363924E+03  0.00000000000E+00 0.  1.
         14    1    5    5    0    0  0.40427009533E+02  0.69383302205E+02  0.31038916675E+03  0.32060851605E+03  0.00000000000E+00 0. -1.
         13    1    3    3    0    0  0.13286849759E+02 -0.37716379545E+02 -0.14367620586E+03  0.14913724482E+03  0.00000000000E+00 0. -1.
        -14    1    3    3    0    0 -0.53431018796E+00  0.24644223130E+02 -0.38383734894E+03  0.38462804586E+03  0.00000000000E+00 0.  1.
          5    1    4    4  501    0 -0.75150165405E+02 -0.11373148765E+03  0.41415267160E+00  0.13638197302E+03  0.41800000000E+01 0. -1.
         -5    1    4    4    0  501 -0.10337739730E+03  0.40176258680E+00 -0.47179382753E+02  0.11371197933E+03  0.41800000000E+01 0. -1.
</event>
<event>
11    1  0.8299058E-009  0.1583446E+03  0.7561462E-02  0.1088645E+00
         22   -1    0    0    0    0  0.00000000000E+00  0.00000000000E+00  0.29668772522E+03  0.29668772522E+03  0.00000000000E+00 0. -1.
         22   -1    0    0    0    0 -0.00000000000E+00 -0.00000000000E+00 -0.70743077138E+03  0.70743077138E+03  0.00000000000E+00 0.  1.
         24    2    1    2    0    0 -0.98626360660E+02 -0.28619990009E+01 -0.63602806441E+03  0.64833085885E+03  0.77883591152E+02 0.  0.
         25    2    1    2    0    0  0.72474761671E+02  0.14812238297E+02  0.37686563936E+02  0.15013237757E+03  0.12508980858E+03 0.  0.
        -24    2    1    2    0    0  0.26151598988E+02 -0.11950239296E+02  0.18759845432E+03  0.20565526018E+03  0.79209795026E+02 0.  0.
        -11    1    3    3    0    0 -0.97043530737E+02  0.21126800482E+02 -0.45498471554E+03  0.46569827134E+03  0.00000000000E+00 0.  1.
         12    1    3    3    0    0 -0.15828299223E+01 -0.23988799483E+02 -0.18104334887E+03  0.18263258751E+03  0.00000000000E+00 0. -1.
         13    1    5    5    0    0  0.30912972120E+01  0.26553644094E+02  0.12955213383E+03  0.13228154639E+03  0.00000000000E+00 0. -1.
        -14    1    5    5    0    0  0.23060301776E+02 -0.38503883391E+02  0.58046320483E+02  0.73373713793E+02  0.00000000000E+00 0.  1.
          5    1    4    4  501    0  0.89454134141E+02 -0.30555695363E+02  0.12709488486E+02  0.95470917727E+02  0.41800000000E+01 0. -1.
         -5    1    4    4    0  501 -0.16979372470E+02  0.45367933660E+02  0.24977075450E+02  0.54661459842E+02  0.41800000000E+01 0. -1.
</event>
<event>
11    1  0.8299058E-009  0.1897385E+03  0.7561462E-02  0.1062027E+00
         22   -1    0    0    0    0  0.00000000000E+00  0.00000000000E+00  0.11950140957E+04  0.11950140957E+04  0.00000000000E+00 0.  1.
         22   -1    0    0    0    0 -0.00000000000E+00 -0.00000000000E+00 -0.11915341010E+03  0.11915341010E+03  0.00000000000E+00 0.  1.
         24    2    1    2    0    0  0.63391189657E+01  0.81610857543E+01 -0.37179976277E+02  0.88697125629E+02  0.79862642761E+02 0.  0.
         25    2    1    2    0    0  0.64849661001E+02  0.11691969869E+03  0.12039610969E+03  0.21912496472E+03  0.12507930470E+03 0.  0.
        -24    2    1    2    0    0 -0.71188779967E+02 -0.12508078444E+03  0.99264455221E+03  0.10063454155E+04  0.81699713294E+02 0.  0.
        -13    1    3    3    0    0  0.41942971580E+02  0.11071033726E+02 -0.28598696966E+02  0.51958311374E+02  0.00000000000E+00 0.  1.
         14    1    3    3    0    0 -0.35603852614E+02 -0.29099479722E+01 -0.85812793117E+01  0.36738814254E+02  0.00000000000E+00 0. -1.
         13    1    5    5    0    0 -0.66218658139E+02 -0.34308049382E+02  0.44320628359E+03  0.44943716219E+03  0.00000000000E+00 0. -1.
        -14    1    5    5    0    0 -0.49701218272E+01 -0.90772735060E+02  0.54943826862E+03  0.55690825327E+03  0.00000000000E+00 0.  1.
          5    1    4    4  501    0 -0.29211757069E+02  0.32924734535E+02 -0.73075224026E+00  0.44219580438E+02  0.41800000000E+01 0.  1.
         -5    1    4    4    0  501  0.94061418070E+02  0.83994964153E+02  0.12112686193E+03  0.17490538429E+03  0.41800000000E+01 0.  1.
</event>
<event>
11    1  0.8299058E-009  0.3010064E+03  0.7561462E-02  0.9997662E-01
         22   -1    0    0    0    0  0.00000000000E+00  0.00000000000E+00  0.41630128107E+03  0.41630128107E+03  0.00000000000E+00 0.  1.
         22   -1    0    0    0    0 -0.00000000000E+00 -0.00000000000E+00 -0.55918542072E+03  0.55918542072E+03  0.00000000000E+00 0.  1.
         24    2    1    2    0    0 -0.93711472539E+02 -0.24930291773E+03 -0.37019814113E+03  0.46339633775E+03  0.82193170451E+02 0.  0.
         25    2    1    2    0    0  0.55012652592E+02  0.31319829897E+03  0.13135708738E+03  0.36609272928E+03  0.12509850360E+03 0.  0.
        -24    2    1    2    0    0  0.38698819947E+02 -0.63895381237E+02  0.95956914106E+02  0.14599763476E+03  0.80792088614E+02 0.  0.
        -13    1    3    3    0    0 -0.78794403569E+02 -0.24146121768E+03 -0.36687895660E+03  0.44621995302E+03  0.00000000000E+00 0.  1.
         14    1    3    3    0    0 -0.14917068970E+02 -0.78417000500E+01 -0.33191845266E+01  0.17176384726E+02  0.00000000000E+00 0. -1.
         13    1    5    5    0    0 -0.54019190268E+01 -0.36425246622E+02  0.85370318693E+02  0.92973494257E+02  0.00000000000E+00 0. -1.
        -14    1    5    5    0    0  0.44100738974E+02 -0.27470134615E+02  0.10586595413E+02  0.53024140504E+02  0.00000000000E+00 0.  1.
          5    1    4    4  501    0  0.44915757456E+02  0.79815112505E+02  0.90659040870E+02  0.12893568763E+03  0.41800000000E+01 0.  1.
         -5    1    4    4    0  501  0.10096895136E+02  0.23338318646E+03  0.40698046505E+02  0.23715704165E+03  0.41800000000E+01 0.  1.
</event>
<event>
11    1  0.8299058E-009  0.1908085E+03  0.7561462E-02  0.1061221E+00
         22   -1    0    0    0    0  0.00000000000E+00  0.00000000000E+00  0.44241001145E+03  0.44241001145E+03  0.00000000000E+00 0. -1.
         22   -1    0    0    0    0 -0.00000000000E+00 -0.00000000000E+00 -0.12701952504E+04  0.12701952504E+04  0.00000000000E+00 0.  1.
        -24    2    1    2    0    0 -0.19983623707E+02 -0.40916086136E+02 -0.97193060292E+03  0.97642732994E+03  0.81778740696E+02 0.  0.
         25    2    1    2    0    0 -0.11823814334E+03 -0.56992865594E+01 -0.25286228522E+03  0.30594010321E+03  0.12508905252E+03 0.  0.
         24    2    1    2    0    0  0.13822176705E+03  0.46615372695E+02  0.39700764920E+03  0.43023782869E+03  0.78811584563E+02 0.  0.
        -11    1    5    5    0    0  0.59265522987E+02  0.57214752210E+02  0.24721473721E+03  0.26057831141E+03  0.00000000000E+00 0.  1.
         12    1    5    5    0    0  0.78956244062E+02 -0.10599379515E+02  0.14979291199E+03  0.16965951728E+03  0.00000000000E+00 0. -1.
         13    1    3    3    0    0  0.27146170535E+02 -0.29082486579E+02 -0.28265265072E+03  0.28543865639E+03  0.00000000000E+00 0. -1.
        -14    1    3    3    0    0 -0.47129794242E+02 -0.11833599557E+02 -0.68927795220E+03  0.69098867355E+03  0.00000000000E+00 0.  1.
          5    1    4    4  501    0  0.17987435728E+02  0.70779725529E+01 -0.16402855880E+01  0.19844608243E+02  0.41800000000E+01 0. -1.
         -5    1    4    4    0  501 -0.13622557907E+03 -0.12777259112E+02 -0.25122199963E+03  0.28609549497E+03  0.41800000000E+01 0. -1.
</event>
<event>
11    1  0.8299058E-009  0.1479396E+03  0.7561462E-02  0.1099003E+00
         22   -1    0    0    0    0  0.00000000000E+00  0.00000000000E+00  0.26519528583E+04  0.26519528583E+04  0.00000000000E+00 0. -1.
         22   -1    0    0    0    0 -0.00000000000E+00 -0.00000000000E+00 -0.72711252307E+02  0.72711252307E+02  0.00000000000E+00 0.  1.
         24    2    1    2    0    0  0.77981374720E+02 -0.18118713685E+02 -0.18997384462E+02  0.11475023784E+03  0.79983335015E+02 0.  0.
         25    2    1    2    0    0 -0.58806324415E+02 -0.53520545061E+01  0.10098177819E+04  0.10192481368E+04  0.12509190038E+03 0.  0.
        -24    2    1    2    0    0 -0.19175050305E+02  0.23470768191E+02  0.15884212086E+04  0.15906657360E+04  0.78847879644E+02 0.  0.
        -11    1    3    3    0    0  0.47509647652E+02 -0.49686093039E+02 -0.60811494223E+01  0.69013439559E+02  0.00000000000E+00 0.  1.
         12    1    3    3    0    0  0.30471727068E+02  0.31567379354E+02 -0.12916235040E+02  0.45736798285E+02  0.00000000000E+00 0. -1.
         13    1    5    5    0    0  0.21703637848E+02  0.30273378578E+02  0.10463313492E+04  0.10469941822E+04  0.00000000000E+00 0. -1.
        -14    1    5    5    0    0 -0.40878688153E+02 -0.68026103865E+01  0.54208985945E+03  0.54367155376E+03  0.00000000000E+00 0.  1.
          5    1    4    4  501    0 -0.89522815541E+02  0.26751920918E+02  0.65934570114E+03  0.66594611328E+03  0.41800000000E+01 0. -1.
         -5    1    4    4    0  501  0.30716491126E+02 -0.32103975424E+02  0.35047208073E+03  0.35330202354E+03  0.41800000000E+01 0. -1.
</event>
<event>
11    1  0.8299058E-009  0.1629586E+03  0.7561462E-02  0.1084327E+00
         22   -1    0    0    0    0  0.00000000000E+00  0.00000000000E+00  0.62829004937E+03  0.62829004937E+03  0.00000000000E+00 0.  1.
         22   -1    0    0    0    0 -0.00000000000E+00 -0.00000000000E+00 -0.20039128220E+03  0.20039128220E+03  0.00000000000E+00 0. -1.
         24    2    1    2    0    0 -0.91388607497E+02 -0.48831434266E+02 -0.12344638393E+03  0.17954546744E+03  0.79127609726E+02 0.  0.
         25    2    1    2    0    0  0.12616082347E+03 -0.89803559959E+01  0.14234708909E+03  0.22783067899E+03  0.12508766664E+03 0.  0.
        -24    2    1    2    0    0 -0.34772215973E+02  0.57811790262E+02  0.40899806200E+03  0.42130518514E+03  0.75281698991E+02 0.  0.
        -11    1    3    3    0    0 -0.86146753862E+02 -0.43319337775E+02 -0.55666234558E+02  0.11133983068E+03  0.00000000000E+00 0.  1.
         12    1    3    3    0    0 -0.52418536344E+01 -0.55120964911E+01 -0.67780149368E+02  0.68205636758E+02  0.00000000000E+00 0. -1.
         11    1    5    5    0    0 -0.29778885533E+01  0.16159663890E+02  0.10775290454E+02  0.19649667723E+02  0.00000000000E+00 0. -1.
        -12    1    5    5    0    0 -0.31794327420E+02  0.41652126372E+02  0.39822277155E+03  0.40165551741E+03  0.00000000000E+00 0.  1.
          5    1    4    4  501    0  0.10689365356E+03 -0.20714408686E+02  0.16359446332E+03  0.19656032338E+03  0.41800000000E+01 0. -1.
         -5    1    4    4    0  501  0.19267169910E+02  0.11734052690E+02 -0.21247374223E+02  0.31270355615E+02  0.41800000000E+01 0. -1.
</event>
<event>
11    1  0.8299058E-009  0.1591094E+03  0.7561462E-02  0.1087918E+00
         22   -1    0    0    0    0  0.00000000000E+00  0.00000000000E+00  0.31855871745E+03  0.31855871745E+03  0.00000000000E+00 0. -1.
         22   -1    0    0    0    0 -0.00000000000E+00 -0.00000000000E+00 -0.10347887300E+04  0.10347887300E+04  0.00000000000E+00 0. -1.
        -24    2    1    2    0    0 -0.54792359839E+02  0.78890815287E+02 -0.88056170864E+03  0.89157446334E+03  0.10144031515E+03 0.  0.
         25    2    1    2    0    0  0.89306443725E+02 -0.84833398358E+02 -0.86179435962E+02  0.19556866677E+03  0.12509141407E+03 0.  0.
         24    2    1    2    0    0 -0.34514083886E+02  0.59425830704E+01  0.25051113201E+03  0.26620431738E+03  0.82960081075E+02 0.  0.
        -11    1    5    5    0    0  0.12153162130E+02  0.60601078245E+01  0.24598180654E+01  0.13801266663E+02  0.00000000000E+00 0.  1.
         12    1    5    5    0    0 -0.46667246016E+02 -0.11752475408E+00  0.24805131394E+03  0.25240305072E+03  0.00000000000E+00 0. -1.
         13    1    3    3    0    0 -0.66044188814E+02  0.32136265779E+02 -0.72596502729E+03  0.72967101854E+03  0.00000000000E+00 0. -1.
        -14    1    3    3    0    0  0.11251828975E+02  0.46754549508E+02 -0.15459668135E+03  0.16190344480E+03  0.00000000000E+00 0.  1.
          5    1    4    4  501    0  0.83035885348E+02 -0.90191544907E+02 -0.14757344667E+02  0.12355049433E+03  0.41800000000E+01 0. -1.
         -5    1    4    4    0  501  0.62705583772E+01  0.53581465491E+01 -0.71422091295E+02  0.72018172441E+02  0.41800000000E+01 0. -1.
</event>
<event>
11    1  0.8299058E-009  0.1343712E+03  0.7561462E-02  0.1114012E+00
         22   -1    0    0    0    0  0.00000000000E+00  0.00000000000E+00  0.31408069538E+03  0.31408069538E+03  0.00000000000E+00 0. -1.
         22   -1    0    0    0    0 -0.00000000000E+00 -0.00000000000E+00 -0.81482054956E+03  0.81482054956E+03  0.00000000000E+00 0.  1.
        -24    2    1    2    0    0  0.92925669529E+01 -0.13174062926E+02 -0.50124145579E+03  0.50786736926E+03  0.80164580846E+02 0.  0.
         25    2    1    2    0    0 -0.21867930087E+02 -0.34512213046E+02 -0.28832525304E+03  0.31693729213E+03  0.12509395022E+03 0.  0.
         24    2    1    2    0    0  0.12575363134E+02  0.47686275972E+02  0.28882685466E+03  0.30409658356E+03  0.81373579770E+02 0.  0.
        -13    1    5    5    0    0 -0.25089405844E+02  0.52012321530E+01  0.31623321785E+02  0.40700928518E+02  0.00000000000E+00 0.  1.
         14    1    5    5    0    0  0.37664768978E+02  0.42485043819E+02  0.25720353287E+03  0.26339565504E+03  0.00000000000E+00 0. -1.
         13    1    3    3    0    0  0.17513973279E+02 -0.16403678067E+02 -0.40744206951E+02  0.47285413334E+02  0.00000000000E+00 0. -1.
        -14    1    3    3    0    0 -0.82214063263E+01  0.32296151413E+01 -0.46049724884E+03  0.46058195593E+03  0.00000000000E+00 0.  1.
          5    1    4    4  501    0 -0.39688986833E+02  0.71354345154E+01 -0.20789092005E+02  0.45560825804E+02  0.41800000000E+01 0. -1.
         -5    1    4    4    0  501  0.17821056746E+02 -0.41647647561E+02 -0.26753616104E+03  0.27137646632E+03  0.41800000000E+01 0. -1.
</event>
<event>
11    1  0.8299058E-009  0.1516169E+03  0.7561462E-02  0.1095238E+00
         22   -1    0    0    0    0  0.00000000000E+00  0.00000000000E+00  0.26369778760E+03  0.26369778760E+03  0.00000000000E+00 0.  1.
         22   -1    0    0    0    0 -0.00000000000E+00 -0.00000000000E+00 -0.12673841758E+04  0.12673841758E+04  0.00000000000E+00 0.  1.
        -24    2    1    2    0    0 -0.74792679552E+02  0.25213118503E+00 -0.11210500016E+04  0.11264304934E+04  0.80613535069E+02 0.  0.
         25    2    1    2    0    0 -0.97603847789E+01 -0.39869486547E+02 -0.93029248952E+02  0.16120500174E+03  0.12509104826E+03 0.  0.
         24    2    1    2    0    0  0.84553064331E+02  0.39617355362E+02  0.21039286231E+03  0.24344646824E+03  0.79260777516E+02 0.  0.
        -11    1    5    5    0    0  0.93805052040E+02  0.50165889713E+02  0.16852875607E+03  0.19929361731E+03  0.00000000000E+00 0.  1.
         12    1    5    5    0    0 -0.92519877091E+01 -0.10548534351E+02  0.41864106238E+02  0.44152850923E+02  0.00000000000E+00 0. -1.
         13    1    3    3    0    0 -0.79955199050E+02 -0.26420258711E+01 -0.59575850062E+03  0.60110565230E+03  0.00000000000E+00 0. -1.
        -14    1    3    3    0    0  0.51625194978E+01  0.28941570561E+01 -0.52529150094E+03  0.52532484113E+03  0.00000000000E+00 0.  1.
          5    1    4    4  501    0 -0.52165765683E+02 -0.37869071660E+02 -0.67406628022E+01  0.64947999451E+02  0.41800000000E+01 0. -1.
         -5    1    4    4    0  501  0.42405380904E+02 -0.20004148867E+01 -0.86288586149E+02  0.96257002285E+02  0.41800000000E+01 0. -1.
</event>
<event>
11    1  0.8299058E-009  0.3530048E+03  0.7561462E-02  0.9799598E-01
         22   -1    0    0    0    0  0.00000000000E+00  0.00000000000E+00  0.47416953143E+03  0.47416953143E+03  0.00000000000E+00 0. -1.
         22   -1    0    0    0    0 -0.00000000000E+00 -0.00000000000E+00 -0.13774618463E+04  0.13774618463E+04  0.00000000000E+00 0.  1.
         24    2    1    2    0    0 -0.48282372076E+02 -0.21821010072E+03 -0.83168641656E+03  0.86497846129E+03  0.80861656605E+02 0.  0.
         25    2    1    2    0    0 -0.19607564984E+02  0.51006711334E+03 -0.29660057965E+03  0.60346628171E+03  0.12508690016E+03 0.  0.
        -24    2    1    2    0    0  0.67889937060E+02 -0.29185701263E+03  0.22499468139E+03  0.38318663468E+03  0.80123847702E+02 0.  0.
        -11    1    3    3    0    0 -0.69469894074E+02 -0.17190620453E+03 -0.61212858993E+03  0.63959301118E+03  0.00000000000E+00 0.  1.
         12    1    3    3    0    0  0.21187521998E+02 -0.46303896183E+02 -0.21955782662E+03  0.22538545011E+03  0.00000000000E+00 0. -1.
         11    1    5    5    0    0  0.29649169219E+02 -0.17610031683E+03  0.17911926268E+03  0.25293102832E+03  0.00000000000E+00 0. -1.
        -12    1    5    5    0    0  0.38240767841E+02 -0.11575669579E+03  0.45875418705E+02  0.13025560636E+03  0.00000000000E+00 0.  1.
          5    1    4    4  501    0 -0.36510521351E+02  0.29544673424E+03 -0.10639597543E+03  0.31616351296E+03  0.41800000000E+01 0.  1.
         -5    1    4    4    0  501  0.16902956367E+02  0.21462037910E+03 -0.19020460423E+03  0.28730276875E+03  0.41800000000E+01 0.  1.
</event>
<event>
11    1  0.8299058E-009  0.1458871E+03  0.7561462E-02  0.1101157E+00
         22   -1    0    0    0    0  0.00000000000E+00  0.00000000000E+00  0.10419843838E+03  0.10419843838E+03  0.00000000000E+00 0.  1.
         22   -1    0    0    0    0 -0.00000000000E+00 -0.00000000000E+00 -0.14365758318E+04  0.14365758318E+04  0.00000000000E+00 0.  1.
        -24    2    1    2    0    0  0.60324973917E+02 -0.40670743831E+02 -0.10950243853E+04  0.11012004460E+04  0.90943972231E+02 0.  0.
         25    2    1    2    0    0 -0.82341905944E+02  0.37124281888E+02 -0.29826913799E+03  0.33580987294E+03  0.12508153464E+03 0.  0.
         24    2    1    2    0    0  0.22016932028E+02  0.35464619439E+01  0.60916129847E+02  0.10376395122E+03  0.80986789098E+02 0.  0.
        -11    1    5    5    0    0  0.40244747107E+02  0.18003303897E+02  0.64761206375E+01  0.44561179960E+02  0.00000000000E+00 0.  1.
         12    1    5    5    0    0 -0.18227815079E+02 -0.14456841953E+02  0.54440009209E+02  0.59202771257E+02  0.00000000000E+00 0. -1.
         11    1    3    3    0    0  0.13386470350E+02 -0.22969617135E+02 -0.68911006368E+02  0.73861544110E+02  0.00000000000E+00 0. -1.
        -12    1    3    3    0    0  0.46938503567E+02 -0.17701126696E+02 -0.10261133789E+04  0.10273389019E+04  0.00000000000E+00 0.  1.
          5    1    4    4  501    0 -0.16209983194E+02  0.75753356644E+02 -0.14905261100E+03  0.16803418654E+03  0.41800000000E+01 0. -1.
         -5    1    4    4    0  501 -0.66131922751E+02 -0.38629074756E+02 -0.14921652698E+03  0.16777568640E+03  0.41800000000E+01 0. -1.
</event>
<event>
11    1  0.8299058E-009  0.1509799E+03  0.7561462E-02  0.1095882E+00
         22   -1    0    0    0    0  0.00000000000E+00  0.00000000000E+00  0.33566648033E+03  0.33566648033E+03  0.00000000000E+00 0. -1.
         22   -1    0    0    0    0 -0.00000000000E+00 -0.00000000000E+00 -0.26998972603E+03  0.26998972603E+03  0.00000000000E+00 0. -1.
         24    2    1    2    0    0  0.96470792511E+02 -0.16442011999E+01 -0.19091284714E+03  0.22869475748E+03  0.80896598757E+02 0.  0.
         25    2    1    2    0    0 -0.24601170185E+02  0.29696803005E+02  0.46421543275E+02  0.13888753246E+03  0.12509064438E+03 0.  0.
        -24    2    1    2    0    0 -0.71869622325E+02 -0.28052601805E+02  0.21016805817E+03  0.23807391642E+03  0.80971513048E+02 0.  0.
        -11    1    3    3    0    0  0.72003537712E+02  0.14634956871E+02 -0.60993118020E+02  0.95492679570E+02  0.00000000000E+00 0.  1.
         12    1    3    3    0    0  0.24467254799E+02 -0.16279158071E+02 -0.12991972912E+03  0.13320207791E+03  0.00000000000E+00 0. -1.
         13    1    5    5    0    0  0.60693760301E+01 -0.99843757902E+01  0.10642308546E+03  0.10706259013E+03  0.00000000000E+00 0. -1.
        -14    1    5    5    0    0 -0.77938998356E+02 -0.18068226015E+02  0.10374497270E+03  0.13101132629E+03  0.00000000000E+00 0.  1.
          5    1    4    4  501    0  0.22254636371E+02 -0.32058688609E+02  0.47026464759E+02  0.61253482702E+02  0.41800000000E+01 0. -1.
         -5    1    4    4    0  501 -0.46855806557E+02  0.61755491614E+02 -0.60492148371E+00  0.77634049763E+02  0.41800000000E+01 0. -1.
</event>
<event>
11    1  0.8299058E-009  0.1575395E+03  0.7561462E-02  0.1089415E+00
         22   -1    0    0    0    0  0.00000000000E+00  0.00000000000E+00  0.88023814109E+03  0.88023814109E+03  0.00000000000E+00 0.  1.
         22   -1    0    0    0    0 -0.00000000000E+00 -0.00000000000E+00 -0.16773900149E+04  0.16773900149E+04  0.00000000000E+00 0. -1.
         24    2    1    2    0    0 -0.43024952172E+02 -0.84298390597E+02 -0.16027215780E+04  0.16076996479E+04  0.83811312535E+02 0.  0.
         25    2    1    2    0    0  0.64489508240E+02  0.16037430565E+03  0.10051077965E+03  0.23585428719E+03  0.12508402525E+03 0.  0.
        -24    2    1    2    0    0 -0.21464556067E+02 -0.76075915058E+02  0.70505892458E+03  0.71407422087E+03  0.80905091108E+02 0.  0.
        -11    1    3    3    0    0 -0.68945835048E+01  0.16570739566E+02 -0.15958283257E+03  0.16058893219E+03  0.00000000000E+00 0.  1.
         12    1    3    3    0    0 -0.36130368668E+02 -0.10086913016E+03 -0.14431387454E+04  0.14471107157E+04  0.00000000000E+00 0. -1.
         11    1    5    5    0    0 -0.39505834021E+02 -0.70211005298E+01  0.19879192008E+03  0.20280097205E+03  0.00000000000E+00 0. -1.
        -12    1    5    5    0    0  0.18041277954E+02 -0.69054814528E+02  0.50626700450E+03  0.51127324882E+03  0.00000000000E+00 0.  1.
          5    1    4    4  501    0 -0.84662304641E+01  0.90847172438E+02 -0.29197303631E+01  0.91383165975E+02  0.41800000000E+01 0. -1.
         -5    1    4    4    0  501  0.72955738704E+02  0.69527133217E+02  0.10343051001E+03  0.14447112121E+03  0.41800000000E+01 0. -1.
</event>
<event>
11    1  0.8299058E-009  0.1647903E+03  0.7561462E-02  0.1082656E+00
         22   -1    0    0    0    0  0.00000000000E+00  0.00000000000E+00  0.14503307192E+04  0.14503307192E+04  0.00000000000E+00 0.  1.
         22   -1    0    0    0    0 -0.00000000000E+00 -0.00000000000E+00 -0.53206698763E+03  0.53206698763E+03  0.00000000000E+00 0. -1.
        -24    2    1    2    0    0  0.45039869539E+02 -0.47060597719E+02 -0.51028389090E+03  0.52084671609E+03  0.81537492249E+02 0.  0.
         25    2    1    2    0    0 -0.28346120845E+02  0.13600669415E+03  0.85824957167E+03  0.87836865434E+03  0.12505135838E+03 0.  0.
         24    2    1    2    0    0 -0.16693748694E+02 -0.88946096436E+02  0.57029805078E+03  0.58318233639E+03  0.81680361421E+02 0.  0.
        -13    1    5    5    0    0 -0.30212876946E+02 -0.90178068162E+02  0.35693932910E+03  0.36939218531E+03  0.00000000000E+00 0.  1.
         14    1    5    5    0    0  0.13519128252E+02  0.12319717263E+01  0.21335872168E+03  0.21379015108E+03  0.00000000000E+00 0. -1.
         11    1    3    3    0    0 -0.19117434405E+02 -0.33321440579E+02 -0.20899998445E+03  0.21250126635E+03  0.00000000000E+00 0. -1.
        -12    1    3    3    0    0  0.64157303944E+02 -0.13739157140E+02 -0.30128390644E+03  0.30834544973E+03  0.00000000000E+00 0.  1.
          5    1    4    4  501    0  0.12577954024E+01  0.65721729798E+02  0.69522881253E+03  0.69834196637E+03  0.41800000000E+01 0.  1.
         -5    1    4    4    0  501 -0.29603916248E+02  0.70284964356E+02  0.16302075913E+03  0.18002668797E+03  0.41800000000E+01 0.  1.
</event>
<event>
11    1  0.8299058E-009  0.1424386E+03  0.7561462E-02  0.1104866E+00
         22   -1    0    0    0    0  0.00000000000E+00  0.00000000000E+00  0.76806390614E+03  0.76806390614E+03  0.00000000000E+00 0.  1.
         22   -1    0    0    0    0 -0.00000000000E+00 -0.00000000000E+00 -0.14100523867E+03  0.14100523867E+03  0.00000000000E+00 0. -1.
        -24    2    1    2    0    0 -0.33009403258E+01  0.40248580046E+01 -0.48055018317E+02  0.94336782927E+02  0.81012641844E+02 0.  0.
         25    2    1    2    0    0  0.65852938731E+02 -0.30331178100E+02  0.13950119117E+02  0.14525098520E+03  0.12508658191E+03 0.  0.
         24    2    1    2    0    0 -0.62551998406E+02  0.26306320096E+02  0.66116356667E+03  0.66948137667E+03  0.80394507541E+02 0.  0.
        -13    1    5    5    0    0 -0.74790565045E+02  0.26089780529E+02  0.38588898107E+03  0.39393478011E+03  0.00000000000E+00 0.  1.
         14    1    5    5    0    0  0.12238566639E+02  0.21653956660E+00  0.27527458560E+03  0.27554659657E+03  0.00000000000E+00 0. -1.
         13    1    3    3    0    0 -0.26657413340E+02  0.14538544109E+02 -0.59099396566E+02  0.66443401668E+02  0.00000000000E+00 0. -1.
        -14    1    3    3    0    0  0.23356473014E+02 -0.10513686104E+02  0.11044378249E+02  0.27893381259E+02  0.00000000000E+00 0.  1.
          5    1    4    4  501    0  0.89879889804E+02  0.37350389231E+01  0.37085345151E+02  0.97391685127E+02  0.41800000000E+01 0.  1.
         -5    1    4    4    0  501 -0.24026951073E+02 -0.34066217023E+02 -0.23135226034E+02  0.47859300076E+02  0.41800000000E+01 0.  1.
</event>
<event>
11    1  0.8299058E-009  0.4457501E+03  0.7561462E-02  0.9523649E-01
         22   -1    0    0    0    0  0.00000000000E+00  0.00000000000E+00  0.56086090135E+03  0.56086090135E+03  0.00000000000E+00 0.  1.
         22   -1    0    0    0    0 -0.00000000000E+00 -0.00000000000E+00 -0.23048103709E+04  0.23048103709E+04  0.00000000000E+00 0.  1.
         24    2    1    2    0    0  0.11391479478E+03 -0.40025867321E+03 -0.18653653894E+04  0.19128797165E+04  0.79606456996E+02 0.  0.
         25    2    1    2    0    0 -0.21161633523E+03  0.47505947569E+03 -0.22259088069E+03  0.57935872504E+03  0.12508738283E+03 0.  0.
        -24    2    1    2    0    0  0.97701540443E+02 -0.74800802473E+02  0.34400680054E+03  0.37343283068E+03  0.77269975774E+02 0.  0.
        -11    1    3    3    0    0  0.11764517965E+03 -0.36914362759E+03 -0.17862346371E+04  0.18277695656E+04  0.00000000000E+00 0.  1.
         12    1    3    3    0    0 -0.37303848701E+01 -0.31115045622E+02 -0.79130752288E+02  0.85110150940E+02  0.00000000000E+00 0. -1.
         13    1    5    5    0    0  0.40581919777E+02 -0.59141379507E+01  0.43066250023E+02  0.59469077103E+02  0.00000000000E+00 0. -1.
        -14    1    5    5    0    0  0.57119620665E+02 -0.68886664522E+02  0.30094055052E+03  0.31396375358E+03  0.00000000000E+00 0.  1.
          5    1    4    4  501    0 -0.14803925980E+03  0.21997215244E+03 -0.15776023225E+03  0.30855977309E+03  0.41800000000E+01 0. -1.
         -5    1    4    4    0  501 -0.63577075423E+02  0.25508732324E+03 -0.64830648444E+02  0.27079895195E+03  0.41800000000E+01 0. -1.
</event>
<event>
11    1  0.8299058E-009  0.1428281E+03  0.7561462E-02  0.1104441E+00
         22   -1    0    0    0    0  0.00000000000E+00  0.00000000000E+00  0.19071880821E+04  0.19071880821E+04  0.00000000000E+00 0.  1.
         22   -1    0    0    0    0 -0.00000000000E+00 -0.00000000000E+00 -0.64707620232E+02  0.64707620232E+02  0.00000000000E+00 0. -1.
        -24    2    1    2    0    0  0.66030542671E+02  0.17264473277E+02  0.50560265253E+01  0.10688280683E+03  0.82099186291E+02 0.  0.
         25    2    1    2    0    0 -0.81663880566E+02  0.22858980395E+02  0.45175546546E+03  0.47636300109E+03  0.12508871195E+03 0.  0.
         24    2    1    2    0    0  0.15633337895E+02 -0.40123453672E+02  0.13856689699E+04  0.13886498944E+04  0.80098329332E+02 0.  0.
        -11    1    5    5    0    0  0.20022222919E+02 -0.62559474708E+02  0.11501008831E+04  0.11519750946E+04  0.00000000000E+00 0.  1.
         12    1    5    5    0    0 -0.43888850241E+01  0.22436021036E+02  0.23556808677E+03  0.23667479979E+03  0.00000000000E+00 0. -1.
         13    1    3    3    0    0 -0.94534983644E+01  0.31727827295E+00 -0.22778830457E+02  0.24664638935E+02  0.00000000000E+00 0. -1.
        -14    1    3    3    0    0  0.75484041035E+02  0.16947195004E+02  0.27834856982E+02  0.82218167899E+02  0.00000000000E+00 0.  1.
          5    1    4    4  501    0  0.18676440158E+02  0.59454376311E+01  0.88643897183E+01  0.21913636181E+02  0.41800000000E+01 0.  1.
         -5    1    4    4    0  501 -0.10034032072E+03  0.16913542764E+02  0.44289107575E+03  0.45444936491E+03  0.41800000000E+01 0.  1.
</event>
<event>
11    1  0.8299058E-009  0.1703413E+03  0.7561462E-02  0.1077735E+00
         22   -1    0    0    0    0  0.00000000000E+00  0.00000000000E+00  0.56138663135E+03  0.56138663135E+03  0.00000000000E+00 0. -1.
         22   -1    0    0    0    0 -0.00000000000E+00 -0.00000000000E+00 -0.32874036625E+04  0.32874036625E+04  0.00000000000E+00 0.  1.
         24    2    1    2    0    0  0.97838281204E+01 -0.11561957499E+03 -0.29647410022E+04  0.29681880086E+04  0.83589679840E+02 0.  0.
         25    2    1    2    0    0  0.37017390850E+02  0.11290025104E+03 -0.29338624500E+03  0.34035295041E+03  0.12509151926E+03 0.  0.
        -24    2    1    2    0    0 -0.46801218970E+02  0.27193239541E+01  0.53211021604E+03  0.54024933490E+03  0.80810352232E+02 0.  0.
        -11    1    3    3    0    0  0.34406093902E+02 -0.10018190612E+03 -0.18212400914E+04  0.18243178627E+04  0.00000000000E+00 0.  1.
         12    1    3    3    0    0 -0.24622265782E+02 -0.15437668868E+02 -0.11435009108E+04  0.11438701458E+04  0.00000000000E+00 0. -1.
         13    1    5    5    0    0  0.13545246196E+01 -0.12215463074E+02  0.37596778839E+03  0.37616861935E+03  0.00000000000E+00 0. -1.
        -14    1    5    5    0    0 -0.48155743590E+02  0.14934787028E+02  0.15614242764E+03  0.16408071555E+03  0.00000000000E+00 0.  1.
          5    1    4    4  501    0 -0.18928581204E+02  0.51778912669E+02 -0.22831334339E+03  0.23491232865E+03  0.41800000000E+01 0. -1.
         -5    1    4    4    0  501  0.55945972054E+02  0.61121338369E+02 -0.65072901606E+02  0.10544062176E+03  0.41800000000E+01 0. -1.
</event>
<event>
11    1  0.8299058E-009  0.1541525E+03  0.7561462E-02  0.1092710E+00
         22   -1    0    0    0    0  0.00000000000E+00  0.00000000000E+00  0.16268673236E+04  0.16268673236E+04  0.00000000000E+00 0. -1.
         22   -1    0    0    0    0 -0.00000000000E+00 -0.00000000000E+00 -0.80387109366E+03  0.80387109366E+03  0.00000000000E+00 0.  1.
        -24    2    1    2    0    0  0.13627470448E+02 -0.60854734883E+01 -0.78786634777E+03  0.79196051715E+03  0.79027449882E+02 0.  0.
         25    2    1    2    0    0 -0.62011460074E+02 -0.69063989050E+02  0.58828780323E+03  0.60855976984E+03  0.12508876162E+03 0.  0.
         24    2    1    2    0    0  0.48383989626E+02  0.75149462538E+02  0.10225747745E+04  0.10302181303E+04  0.87759753523E+02 0.  0.
        -11    1    5    5    0    0 -0.11181313185E+02  0.77955938999E+01  0.23977275651E+02  0.27580841112E+02  0.00000000000E+00 0.  1.
         12    1    5    5    0    0  0.59565302811E+02  0.67353868638E+02  0.99859749887E+03  0.10026372892E+04  0.00000000000E+00 0. -1.
         11    1    3    3    0    0 -0.50353135402E+01  0.27432377670E+02 -0.57423364794E+03  0.57491057753E+03  0.00000000000E+00 0. -1.
        -12    1    3    3    0    0  0.18662783988E+02 -0.33517851158E+02 -0.21363269983E+03  0.21704993962E+03  0.00000000000E+00 0.  1.
          5    1    4    4  501    0  0.36418836740E+01 -0.12301977286E+02  0.41003954976E+03  0.41026151017E+03  0.41800000000E+01 0. -1.
         -5    1    4    4    0  501 -0.65653343748E+02 -0.56762011764E+02  0.17824825346E+03  0.19829825967E+03  0.41800000000E+01 0. -1.
</event>
<event>
11    1  0.1168532E-008  0.2278896E+03  0.7561462E-02  0.1036385E+00
         22   -1    0    0    0    0  0.00000000000E+00  0.00000000000E+00  0.25132222128E+04  0.25132222128E+04  0.00000000000E+00 0. -1.
         22   -1    0    0    0    0 -0.00000000000E+00 -0.00000000000E+00 -0.85611907856E+03  0.85611907856E+03  0.00000000000E+00 0.  1.
         24    2    1    2    0    0  0.15400974680E+03 -0.85474105567E+02 -0.60835699496E+03  0.63807831174E+03  0.77594289509E+02 0.  0.
         25    2    1    2    0    0 -0.28394573406E+03  0.11867729514E+03 -0.11046761141E+03  0.35008509247E+03  0.12508796316E+03 0.  0.
        -24    2    1    2    0    0  0.12993598726E+03 -0.33203189571E+02  0.23759277406E+04  0.23811778871E+04  0.83604360364E+02 0.  0.
        -13    1    3    3    0    0  0.15270679626E+03 -0.57137856989E+02 -0.53973954903E+03  0.56382876932E+03  0.00000000000E+00 0.  1.
         14    1    3    3    0    0  0.13029505364E+01 -0.28336248578E+02 -0.68617445931E+02  0.74249542421E+02  0.00000000000E+00 0. -1.
         11    1    5    5    0    0  0.13755528818E+03 -0.17937454551E+02  0.22173378586E+04  0.22216728807E+04  0.00000000000E+00 0. -1.
        -12    1    5    5    0    0 -0.76193009185E+01 -0.15265735019E+02  0.15858988194E+03  0.15950500639E+03  0.00000000000E+00 0.  1.
          5    1    4    4  501    0 -0.15147967225E+03  0.11244680544E+03 -0.20567741766E+02  0.18981801696E+03  0.41800000000E+01 0. -1.
         -5    1    4    4    0  501 -0.13246606181E+03  0.62304896971E+01 -0.89899869642E+02  0.16026707551E+03  0.41800000000E+01 0. -1.
</event>
<event>
11    1  0.8299058E-009  0.1574095E+03  0.7561462E-02  0.1089539E+00
         22   -1    0    0    0    0  0.00000000000E+00  0.00000000000E+00  0.15262829765E+03  0.15262829765E+03  0.00000000000E+00 0. -1.
         22   -1    0    0    0    0 -0.00000000000E+00 -0.00000000000E+00 -0.10724240249E+04  0.10724240249E+04  0.00000000000E+00 0. -1.
        -24    2    1    2    0    0  0.35761887980E+02 -0.57587605074E+02 -0.90102212345E+03  0.90710657711E+03  0.80038930603E+02 0.  0.
         25    2    1    2    0    0  0.67456342372E+02  0.53467106179E+02 -0.86067516413E+02  0.17454135821E+03  0.12509188133E+03 0.  0.
         24    2    1    2    0    0 -0.10321823035E+03  0.41204988945E+01  0.67293912623E+02  0.14340438721E+03  0.73248658735E+02 0.  0.
        -11    1    5    5    0    0  0.49552059635E+00 -0.88127601595E+00 -0.12444452631E+02  0.12485455112E+02  0.00000000000E+00 0.  1.
         12    1    5    5    0    0 -0.10371375095E+03  0.50017749105E+01  0.79738365254E+02  0.13091893210E+03  0.00000000000E+00 0. -1.
         11    1    3    3    0    0  0.56940023505E+02 -0.52853861226E+02 -0.80092536631E+03  0.80468449676E+03  0.00000000000E+00 0. -1.
        -12    1    3    3    0    0 -0.21178135525E+02 -0.47337438475E+01 -0.10009675714E+03  0.10242208036E+03  0.00000000000E+00 0.  1.
          5    1    4    4  501    0  0.10098385323E+03  0.34112424722E+02 -0.39287982917E+02  0.11367679682E+03  0.41800000000E+01 0.  1.
         -5    1    4    4    0  501 -0.33527510858E+02  0.19354681457E+02 -0.46779533496E+02  0.60864561387E+02  0.41800000000E+01 0.  1.
</event>
<event>
11    1  0.8299058E-009  0.1427100E+03  0.7561462E-02  0.1104569E+00
         22   -1    0    0    0    0  0.00000000000E+00  0.00000000000E+00  0.17524032794E+04  0.17524032794E+04  0.00000000000E+00 0. -1.
         22   -1    0    0    0    0 -0.00000000000E+00 -0.00000000000E+00 -0.43731194863E+03  0.43731194863E+03  0.00000000000E+00 0. -1.
        -24    2    1    2    0    0  0.11749791349E+02 -0.16102310946E+02 -0.42399893144E+03  0.43239921387E+03  0.82441762978E+02 0.  0.
         25    2    1    2    0    0 -0.33100180009E+02 -0.52778830418E+02  0.76288602381E+03  0.77558126073E+03  0.12509987932E+03 0.  0.
         24    2    1    2    0    0  0.21350388659E+02  0.68881141364E+02  0.97620423841E+03  0.98173475345E+03  0.75019732896E+02 0.  0.
        -11    1    5    5    0    0  0.43788716077E+02  0.33738221109E+02  0.37096410025E+03  0.37506010570E+03  0.00000000000E+00 0.  1.
         12    1    5    5    0    0 -0.22438327418E+02  0.35142920256E+02  0.60524013816E+03  0.60667464775E+03  0.00000000000E+00 0. -1.
         13    1    3    3    0    0 -0.10495338131E+02  0.22734379502E+02 -0.29092211632E+03  0.29199774297E+03  0.00000000000E+00 0. -1.
        -14    1    3    3    0    0  0.22245129481E+02 -0.38836690448E+02 -0.13307681512E+03  0.14040147091E+03  0.00000000000E+00 0.  1.
          5    1    4    4  501    0  0.45331712222E+02 -0.26568796203E+02  0.39441418337E+03  0.39792070254E+03  0.41800000000E+01 0.  1.
         -5    1    4    4    0  501 -0.78431892230E+02 -0.26210034215E+02  0.36847184044E+03  0.37766055819E+03  0.41800000000E+01 0.  1.
</event>
<event>
11    1  0.8299058E-009  0.1448014E+03  0.7561462E-02  0.1102312E+00
         22   -1    0    0    0    0  0.00000000000E+00  0.00000000000E+00  0.62736079956E+03  0.62736079956E+03  0.00000000000E+00 0.  1.
         22   -1    0    0    0    0 -0.00000000000E+00 -0.00000000000E+00 -0.73389175141E+02  0.73389175141E+02  0.00000000000E+00 0.  1.
         24    2    1    2    0    0 -0.56333908247E+02  0.38178604354E+02  0.13808126041E+02  0.10681208882E+03  0.81160599582E+02 0.  0.
         25    2    1    2    0    0  0.84051575808E+02 -0.60490301408E+02  0.36030158844E+03  0.39520732441E+03  0.12509136930E+03 0.  0.
        -24    2    1    2    0    0 -0.27717667561E+02  0.22311697054E+02  0.17986190994E+03  0.19873056148E+03  0.76664519152E+02 0.  0.
        -11    1    3    3    0    0 -0.61385473248E+02  0.34440198265E+02 -0.19402528723E+02  0.73012065463E+02  0.00000000000E+00 0.  1.
         12    1    3    3    0    0  0.50515650010E+01  0.37384060891E+01  0.33210654764E+02  0.33800023356E+02  0.00000000000E+00 0. -1.
         11    1    5    5    0    0  0.14126686437E+02  0.37418280300E+02  0.82277068627E+02  0.91483370031E+02  0.00000000000E+00 0. -1.
        -12    1    5    5    0    0 -0.41844353998E+02 -0.15106583246E+02  0.97584841313E+02  0.10724719145E+03  0.00000000000E+00 0.  1.
          5    1    4    4  501    0  0.45127748479E+02 -0.86566134017E+02  0.31536311894E+03  0.33015387084E+03  0.41800000000E+01 0. -1.
         -5    1    4    4    0  501  0.38923827329E+02  0.26075832608E+02  0.44938469494E+02  0.65053453564E+02  0.41800000000E+01 0. -1.
</event>
<event>
11    1  0.8299058E-009  0.1320294E+03  0.7561462E-02  0.1116800E+00
         22   -1    0    0    0    0  0.00000000000E+00  0.00000000000E+00  0.26059464179E+03  0.26059464179E+03  0.00000000000E+00 0. -1.
         22   -1    0    0    0    0 -0.00000000000E+00 -0.00000000000E+00 -0.16901925220E+04  0.16901925220E+04  0.00000000000E+00 0. -1.
         24    2    1    2    0    0  0.25733742777E+02  0.32492823199E+01 -0.50651844534E+03  0.51404701052E+03  0.83729386738E+02 0.  0.
         25    2    1    2    0    0 -0.60261083731E+02  0.19001329607E+01 -0.11684754929E+04  0.11766975579E+04  0.12508859455E+03 0.  0.
        -24    2    1    2    0    0  0.34527340954E+02 -0.51494152806E+01  0.24539605805E+03  0.26004259537E+03  0.78640144620E+02 0.  0.
        -11    1    3    3    0    0 -0.18293015327E+02 -0.26766349719E+02 -0.14195720875E+03  0.14561222821E+03  0.00000000000E+00 0.  1.
         12    1    3    3    0    0  0.44026758104E+02  0.30015632039E+02 -0.36456123659E+03  0.36843478231E+03  0.00000000000E+00 0. -1.
         11    1    5    5    0    0  0.24875795225E+02 -0.26198516412E+02  0.22859783031E+03  0.23143494868E+03  0.00000000000E+00 0. -1.
        -12    1    5    5    0    0  0.96515457290E+01  0.21049101131E+02  0.16798227744E+02  0.28607646683E+02  0.00000000000E+00 0.  1.
          5    1    4    4  501    0 -0.72444674307E+02  0.28227224519E+01 -0.32052215592E+03  0.32864589368E+03  0.41800000000E+01 0.  1.
         -5    1    4    4    0  501  0.12183590576E+02 -0.92258949124E+00 -0.84795333696E+03  0.84805166417E+03  0.41800000000E+01 0.  1.
</event>
<event>
11    1  0.8299058E-009  0.2265525E+03  0.7561462E-02  0.1037189E+00
         22   -1    0    0    0    0  0.00000000000E+00  0.00000000000E+00  0.19153101959E+04  0.19153101959E+04  0.00000000000E+00 0. -1.
         22   -1    0    0    0    0 -0.00000000000E+00 -0.00000000000E+00 -0.16797326328E+03  0.16797326328E+03  0.00000000000E+00 0.  1.
        -24    2    1    2    0    0  0.18231714437E+03  0.11120348726E+02 -0.65168478309E+02  0.20992029681E+03  0.80351709150E+02 0.  0.
         25    2    1    2    0    0 -0.24743516178E+03 -0.16211558589E+02  0.65882529035E+03  0.71497388477E+03  0.12509963543E+03 0.  0.
         24    2    1    2    0    0  0.65118017418E+02  0.50912098628E+01  0.11536801205E+04  0.11583892776E+04  0.81373344550E+02 0.  0.
        -13    1    5    5    0    0 -0.16373818871E+02  0.92022712410E+01  0.36911485148E+03  0.36959242055E+03  0.00000000000E+00 0.  1.
         14    1    5    5    0    0  0.81491836289E+02 -0.41110613782E+01  0.78456526906E+03  0.78879685701E+03  0.00000000000E+00 0. -1.
         13    1    3    3    0    0  0.70146486627E+02  0.18366926831E+02  0.12107702621E+02  0.73515100830E+02  0.00000000000E+00 0. -1.
        -14    1    3    3    0    0  0.11217065774E+03 -0.72465781048E+01 -0.77276180930E+02  0.13640519598E+03  0.00000000000E+00 0.  1.
          5    1    4    4  501    0 -0.55424316395E+01 -0.33918007046E+02  0.97987524063E+02  0.10392390015E+03  0.41800000000E+01 0. -1.
         -5    1    4    4    0  501 -0.24189273014E+03  0.17706448457E+02  0.56083776629E+03  0.61104998462E+03  0.41800000000E+01 0. -1.
</event>
<event>
11    1  0.8299058E-009  0.1579489E+03  0.7561462E-02  0.1089022E+00
         22   -1    0    0    0    0  0.00000000000E+00  0.00000000000E+00  0.14467893783E+04  0.14467893783E+04  0.00000000000E+00 0. -1.
         22   -1    0    0    0    0 -0.00000000000E+00 -0.00000000000E+00 -0.10622406480E+04  0.10622406480E+04  0.00000000000E+00 0.  1.
         24    2    1    2    0    0  0.28721327189E+01  0.48362051870E+02 -0.10232499743E+04  0.10276745436E+04  0.82020243587E+02 0.  0.
         25    2    1    2    0    0  0.50513410802E+02 -0.12474413051E+03  0.21708659045E+03  0.28440337522E+03  0.12508392909E+03 0.  0.
        -24    2    1    2    0    0 -0.53385543521E+02  0.76382078635E+02  0.11907121142E+04  0.11969521075E+04  0.78833815979E+02 0.  0.
        -11    1    3    3    0    0  0.26483580504E+02  0.14209055137E+02 -0.80196678700E+03  0.80252975317E+03  0.00000000000E+00 0.  1.
         12    1    3    3    0    0 -0.23611447785E+02  0.34152996733E+02 -0.22128318731E+03  0.22514479038E+03  0.00000000000E+00 0. -1.
         13    1    5    5    0    0 -0.58647745084E+02  0.18613246904E+02  0.73318286912E+03  0.73576023984E+03  0.00000000000E+00 0. -1.
        -14    1    5    5    0    0  0.52622015627E+01  0.57768831731E+02  0.45752924510E+03  0.46119186767E+03  0.00000000000E+00 0.  1.
          5    1    4    4  501    0  0.69195264813E+02 -0.22929114147E+02  0.52516988774E+02  0.89940177107E+02  0.41800000000E+01 0. -1.
         -5    1    4    4    0  501 -0.18681854010E+02 -0.10181501636E+03  0.16456960167E+03  0.19446319811E+03  0.41800000000E+01 0. -1.
</event>
<event>
11    1  0.8299058E-009  0.1546259E+03  0.7561462E-02  0.1092244E+00
         22   -1    0    0    0    0  0.00000000000E+00  0.00000000000E+00  0.24223709135E+03  0.24223709135E+03  0.00000000000E+00 0. -1.
         22   -1    0    0    0    0 -0.00000000000E+00 -0.00000000000E+00 -0.11872171551E+04  0.11872171551E+04  0.00000000000E+00 0. -1.
         24    2    1    2    0    0  0.31477040165E+02  0.19930796845E+01 -0.10155675755E+04  0.10207578678E+04  0.97848597107E+02 0.  0.
         25    2    1    2    0    0  0.28943478237E+02 -0.72683097700E+02 -0.11432090680E+03  0.18661841113E+03  0.12504640746E+03 0.  0.
        -24    2    1    2    0    0 -0.60420518402E+02  0.70690018015E+02  0.18490841850E+03  0.22207796751E+03  0.80497097658E+02 0.  0.
        -13    1    3    3    0    0 -0.12878208021E+02 -0.11966845952E+02 -0.35761002015E+02  0.39848499457E+02  0.00000000000E+00 0.  1.
         14    1    3    3    0    0  0.44355248186E+02  0.13959925636E+02 -0.97980657346E+03  0.98090936837E+03  0.00000000000E+00 0. -1.
         13    1    5    5    0    0 -0.34650102141E+02  0.70157048120E+02  0.17939757221E+03  0.19571951843E+03  0.00000000000E+00 0. -1.
        -14    1    5    5    0    0 -0.25770416261E+02  0.53296989496E+00  0.55108462878E+01  0.26358449081E+02  0.00000000000E+00 0.  1.
          5    1    4    4  501    0  0.19233184753E+02 -0.76560478915E+02 -0.13876710691E+03  0.15970348991E+03  0.41800000000E+01 0. -1.
         -5    1    4    4    0  501  0.97102934839E+01  0.38773812159E+01  0.24446200111E+02  0.26914921224E+02  0.41800000000E+01 0. -1.
</event>
<event>
11    1  0.8299058E-009  0.2659267E+03  0.7561462E-02  0.1015741E+00
         22   -1    0    0    0    0  0.00000000000E+00  0.00000000000E+00  0.13150436725E+04  0.13150436725E+04  0.00000000000E+00 0.  1.
         22   -1    0    0    0    0 -0.00000000000E+00 -0.00000000000E+00 -0.45014623801E+03  0.45014623801E+03  0.00000000000E+00 0. -1.
         24    2    1    2    0    0  0.52604077188E+02  0.81858715615E+02 -0.35074123276E+03  0.37265629782E+03  0.79907857469E+02 0.  0.
         25    2    1    2    0    0 -0.24110892111E+03  0.58881403589E+02  0.18897940829E+03  0.33609651199E+03  0.12508843707E+03 0.  0.
        -24    2    1    2    0    0  0.18850484393E+03 -0.14074011920E+03  0.10266592590E+04  0.10564371007E+04  0.81781760506E+02 0.  0.
        -11    1    3    3    0    0  0.47780917445E+02  0.12549764595E+02 -0.20958267434E+03  0.21532628740E+03  0.00000000000E+00 0.  1.
         12    1    3    3    0    0  0.48231597425E+01  0.69308951020E+02 -0.14115855842E+03  0.15733001041E+03  0.00000000000E+00 0. -1.
         11    1    5    5    0    0  0.92498325153E+02 -0.10620021206E+03  0.47568747248E+03  0.49609776927E+03  0.00000000000E+00 0. -1.
        -12    1    5    5    0    0  0.96006518774E+02 -0.34539907144E+02  0.55097178653E+03  0.56033933146E+03  0.00000000000E+00 0.  1.
          5    1    4    4  501    0 -0.25831273950E+02  0.56858929269E+02  0.44055913156E+02  0.76541416472E+02  0.41800000000E+01 0. -1.
         -5    1    4    4    0  501 -0.21527764717E+03  0.20224743196E+01  0.14492349513E+03  0.25955509552E+03  0.41800000000E+01 0. -1.
</event>
<event>
11    1  0.8299058E-009  0.1306302E+03  0.7561462E-02  0.1118497E+00
         22   -1    0    0    0    0  0.00000000000E+00  0.00000000000E+00  0.40971378675E+03  0.40971378675E+03  0.00000000000E+00 0. -1.
         22   -1    0    0    0    0 -0.00000000000E+00 -0.00000000000E+00 -0.34806976436E+03  0.34806976436E+03  0.00000000000E+00 0.  1.
         24    2    1    2    0    0  0.10259622936E+02 -0.31530688772E+01 -0.30539113717E+03  0.31596988310E+03  0.80361798475E+02 0.  0.
         25    2    1    2    0    0  0.13955027174E+02  0.32958511571E+02  0.11214223476E+03  0.17176808899E+03  0.12508952519E+03 0.  0.
        -24    2    1    2    0    0 -0.24214650110E+02 -0.29805442693E+02  0.25489292480E+03  0.27004557902E+03  0.80495328685E+02 0.  0.
        -13    1    3    3    0    0  0.39071450984E+02  0.84085265175E+00 -0.25339354642E+03  0.25638949799E+03  0.00000000000E+00 0.  1.
         14    1    3    3    0    0 -0.28811828048E+02 -0.39939215289E+01 -0.51997590754E+02  0.59580385101E+02  0.00000000000E+00 0. -1.
         11    1    5    5    0    0 -0.46584254509E+02 -0.23668990317E+02  0.23064338276E+03  0.23648823201E+03  0.00000000000E+00 0. -1.
        -12    1    5    5    0    0  0.22369604399E+02 -0.61364523766E+01  0.24249542039E+02  0.33557347003E+02  0.00000000000E+00 0.  1.
          5    1    4    4  501    0 -0.55365173113E+02  0.92673397996E+01  0.41718500092E+02  0.70064910124E+02  0.41800000000E+01 0. -1.
         -5    1    4    4    0  501  0.69320200287E+02  0.23691171771E+02  0.70423734669E+02  0.10170317887E+03  0.41800000000E+01 0. -1.
</event>
<event>
11    1  0.8299058E-009  0.1390930E+03  0.7561462E-02  0.1108575E+00
         22   -1    0    0    0    0  0.00000000000E+00  0.00000000000E+00  0.30710585408E+03  0.30710585408E+03  0.00000000000E+00 0. -1.
         22   -1    0    0    0    0 -0.00000000000E+00 -0.00000000000E+00 -0.11534749794E+04  0.11534749794E+04  0.00000000000E+00 0.  1.
        -24    2    1    2    0    0 -0.76497530060E+01  0.28957019393E+02 -0.11020222156E+04  0.11052542457E+04  0.78974402166E+02 0.  0.
         25    2    1    2    0    0 -0.42342761592E+02 -0.57387883392E+02  0.12245191204E+03  0.18901912360E+03  0.12508988650E+03 0.  0.
         24    2    1    2    0    0  0.49992514598E+02  0.28430863999E+02  0.13320117823E+03  0.16630746422E+03  0.81289933141E+02 0.  0.
        -11    1    5    5    0    0 -0.11244175459E+02  0.34924397876E+02  0.37167955597E+02  0.52226448970E+02  0.00000000000E+00 0.  1.
         12    1    5    5    0    0  0.61236690057E+02 -0.64935338769E+01  0.96033222631E+02  0.11408101525E+03  0.00000000000E+00 0. -1.
         13    1    3    3    0    0 -0.17759952323E+02  0.29036059662E+02 -0.18076490079E+03  0.18394145271E+03  0.00000000000E+00 0. -1.
        -14    1    3    3    0    0  0.10110199317E+02 -0.79040269107E-01 -0.92125731484E+03  0.92131279299E+03  0.00000000000E+00 0.  1.
          5    1    4    4  501    0 -0.47004767371E+02 -0.74236411577E+02  0.13905981900E+03  0.16454664573E+03  0.41800000000E+01 0. -1.
         -5    1    4    4    0  501  0.46620057788E+01  0.16848528184E+02 -0.16607906956E+02  0.24472477875E+02  0.41800000000E+01 0. -1.
</event>
<event>
11    1  0.8299058E-009  0.1405580E+03  0.7561462E-02  0.1106937E+00
         22   -1    0    0    0    0  0.00000000000E+00  0.00000000000E+00  0.19473709195E+03  0.19473709195E+03  0.00000000000E+00 0. -1.
         22   -1    0    0    0    0 -0.00000000000E+00 -0.00000000000E+00 -0.56074423782E+03  0.56074423782E+03  0.00000000000E+00 0. -1.
         24    2    1    2    0    0 -0.59943680588E+02  0.31092548305E+02 -0.34522980776E+03  0.36166078346E+03  0.83993515948E+02 0.  0.
         25    2    1    2    0    0  0.64874414793E+02  0.18118425194E+02 -0.16727930680E+03  0.21946945760E+03  0.12509000484E+03 0.  0.
        -24    2    1    2    0    0 -0.49307342049E+01 -0.49210973499E+02  0.14650196869E+03  0.17435108872E+03  0.80557080723E+02 0.  0.
        -11    1    3    3    0    0 -0.20511133553E+02  0.46133857765E+02 -0.92044343016E+02  0.10498190565E+03  0.00000000000E+00 0.  1.
         12    1    3    3    0    0 -0.39432547035E+02 -0.15041309459E+02 -0.25318546474E+03  0.25667887781E+03  0.00000000000E+00 0. -1.
         13    1    5    5    0    0  0.11081890802E+02 -0.48338424837E+02  0.14995879659E+03  0.15794635891E+03  0.00000000000E+00 0. -1.
        -14    1    5    5    0    0 -0.16012625007E+02 -0.87254866172E+00 -0.34568279013E+01  0.16404729803E+02  0.00000000000E+00 0.  1.
          5    1    4    4  501    0  0.92922363182E+02  0.57595582069E+01 -0.16364714872E+03  0.18832312597E+03  0.41800000000E+01 0.  1.
         -5    1    4    4    0  501 -0.28047948389E+02  0.12358866987E+02 -0.36321580784E+01  0.31146331635E+02  0.41800000000E+01 0.  1.
</event>
<event>
11    1  0.8299058E-009  0.2323895E+03  0.7561462E-02  0.1033723E+00
         22   -1    0    0    0    0  0.00000000000E+00  0.00000000000E+00  0.25026753643E+04  0.25026753643E+04  0.00000000000E+00 0.  1.
         22   -1    0    0    0    0 -0.00000000000E+00 -0.00000000000E+00 -0.66823685662E+03  0.66823685662E+03  0.00000000000E+00 0.  1.
        -24    2    1    2    0    0 -0.13314328699E+03  0.14140368569E+03 -0.61842430632E+03  0.65364209843E+03  0.84126291961E+02 0.  0.
         25    2    1    2    0    0  0.17445372013E+03 -0.30799351460E+03  0.15764284955E+04  0.16205144063E+04  0.12508410765E+03 0.  0.
         24    2    1    2    0    0 -0.41310433142E+02  0.16658982891E+03  0.87643431847E+03  0.89675571619E+03  0.81086231556E+02 0.  0.
        -11    1    5    5    0    0  0.10240460707E+02  0.11692213731E+03  0.50179170287E+03  0.51533539205E+03  0.00000000000E+00 0.  1.
         12    1    5    5    0    0 -0.51550893849E+02  0.49667691593E+02  0.37464261561E+03  0.38142032415E+03  0.00000000000E+00 0. -1.
         13    1    3    3    0    0 -0.10516683847E+03  0.80856005110E+02 -0.29563306817E+03  0.32403189422E+03  0.00000000000E+00 0. -1.
        -14    1    3    3    0    0 -0.27976448519E+02  0.60547680579E+02 -0.32279123814E+03  0.32961020421E+03  0.00000000000E+00 0.  1.
          5    1    4    4  501    0  0.62567909480E+01 -0.14391411207E+01  0.22807755139E+01  0.79933032644E+01  0.41800000000E+01 0.  1.
         -5    1    4    4    0  501  0.16819692918E+03 -0.30655437348E+03  0.15741477200E+04  0.16125211030E+04  0.41800000000E+01 0.  1.
</event>
<event>
11    1  0.8299058E-009  0.1589405E+03  0.7561462E-02  0.1088078E+00
         22   -1    0    0    0    0  0.00000000000E+00  0.00000000000E+00  0.33211260966E+03  0.33211260966E+03  0.00000000000E+00 0. -1.
         22   -1    0    0    0    0 -0.00000000000E+00 -0.00000000000E+00 -0.66389352648E+03  0.66389352648E+03  0.00000000000E+00 0. -1.
        -24    2    1    2    0    0  0.84016155794E+02  0.51267075299E+02 -0.60924611302E+03  0.62234392878E+03  0.80275226655E+02 0.  0.
         25    2    1    2    0    0 -0.64813318370E+02 -0.64805650147E+02  0.11988399514E+03  0.19601046257E+03  0.12508953041E+03 0.  0.
         24    2    1    2    0    0 -0.19202837425E+02  0.13538574849E+02  0.15758120106E+03  0.17765174479E+03  0.78589220161E+02 0.  0.
        -13    1    5    5    0    0 -0.30949719309E+02 -0.25728222863E+02  0.65766754772E+02  0.77104426658E+02  0.00000000000E+00 0.  1.
         14    1    5    5    0    0  0.11746881884E+02  0.39266797711E+02  0.91814446289E+02  0.10054731813E+03  0.00000000000E+00 0. -1.
         13    1    3    3    0    0  0.76918179715E+02  0.16192676104E+02 -0.52442308277E+03  0.53028122622E+03  0.00000000000E+00 0. -1.
        -14    1    3    3    0    0  0.70979760790E+01  0.35074399195E+02 -0.84823030243E+02  0.92062702561E+02  0.00000000000E+00 0.  1.
          5    1    4    4  501    0 -0.65714181164E+01 -0.94916941379E+01  0.11476106420E+03  0.11541598698E+03  0.41800000000E+01 0.  1.
         -5    1    4    4    0  501 -0.58241900253E+02 -0.55313956009E+02  0.51229309391E+01  0.80594475592E+02  0.41800000000E+01 0.  1.
</event>
<event>
11    1  0.8299058E-009  0.3520648E+03  0.7561462E-02  0.9802847E-01
         22   -1    0    0    0    0  0.00000000000E+00  0.00000000000E+00  0.13609453787E+03  0.13609453787E+03  0.00000000000E+00 0.  1.
         22   -1    0    0    0    0 -0.00000000000E+00 -0.00000000000E+00 -0.11327757715E+04  0.11327757715E+04  0.00000000000E+00 0.  1.
         24    2    1    2    0    0 -0.13370720052E+03 -0.55370169436E+02 -0.39559222991E+03  0.42872476860E+03  0.79801276399E+02 0.  0.
         25    2    1    2    0    0 -0.13639665965E+03  0.20025199395E+02 -0.50813891127E+03  0.54116161057E+03  0.12508268560E+03 0.  0.
        -24    2    1    2    0    0  0.27010386017E+03  0.35344970041E+02 -0.92950092466E+02  0.29898393021E+03  0.80909261834E+02 0.  0.
        -11    1    3    3    0    0 -0.86094458517E+02  0.77584789258E+00 -0.15731208676E+03  0.17933195579E+03  0.00000000000E+00 0.  1.
         12    1    3    3    0    0 -0.47612742007E+02 -0.56146017329E+02 -0.23828014315E+03  0.24939281281E+03  0.00000000000E+00 0. -1.
         11    1    5    5    0    0  0.20863088893E+03 -0.81869357734E+01 -0.65791998470E+02  0.21891199327E+03  0.00000000000E+00 0. -1.
        -12    1    5    5    0    0  0.61472971237E+02  0.43531905814E+02 -0.27158093996E+02  0.80071936944E+02  0.00000000000E+00 0.  1.
          5    1    4    4  501    0 -0.10719367231E+03 -0.43625221867E+02 -0.30458848220E+03  0.32586079736E+03  0.41800000000E+01 0. -1.
         -5    1    4    4    0  501 -0.29202987341E+02  0.63650421262E+02 -0.20355042907E+03  0.21530081321E+03  0.41800000000E+01 0. -1.
</event>
<event>
11    1  0.8299058E-009  0.1440498E+03  0.7561462E-02  0.1103119E+00
         22   -1    0    0    0    0  0.00000000000E+00  0.00000000000E+00  0.20849452512E+03  0.20849452512E+03  0.00000000000E+00 0. -1.
         22   -1    0    0    0    0 -0.00000000000E+00 -0.00000000000E+00 -0.13681538108E+04  0.13681538108E+04  0.00000000000E+00 0. -1.
         24    2    1    2    0    0 -0.70533998396E+01 -0.73535429275E+02 -0.11949759987E+04  0.12001831175E+04  0.83753616193E+02 0.  0.
         25    2    1    2    0    0  0.36242070626E+02  0.40101650006E+02 -0.12925734489E+03  0.18782164499E+03  0.12509148292E+03 0.  0.
        -24    2    1    2    0    0 -0.29188670786E+02  0.33433779268E+02  0.16457405795E+03  0.18864357342E+03  0.80820672757E+02 0.  0.
        -11    1    3    3    0    0  0.33392406884E+02 -0.57958712541E+02 -0.62775282954E+03  0.63130648673E+03  0.00000000000E+00 0.  1.
         12    1    3    3    0    0 -0.40445806724E+02 -0.15576716734E+02 -0.56722316915E+03  0.56887663075E+03  0.00000000000E+00 0. -1.
         13    1    5    5    0    0  0.17403310094E+02  0.39581296854E+02  0.98387164969E+02  0.10746901178E+03  0.00000000000E+00 0. -1.
        -14    1    5    5    0    0 -0.46591980880E+02 -0.61475175863E+01  0.66186892978E+02  0.81174561636E+02  0.00000000000E+00 0.  1.
          5    1    4    4  501    0  0.58524650441E+02  0.23967681439E+02 -0.85569522263E+01  0.63955283552E+02  0.41800000000E+01 0. -1.
         -5    1    4    4    0  501 -0.22282579815E+02  0.16133968568E+02 -0.12070039267E+03  0.12386636143E+03  0.41800000000E+01 0. -1.
</event>
<event>
11    1  0.8299058E-009  0.1428259E+03  0.7561462E-02  0.1104443E+00
         22   -1    0    0    0    0  0.00000000000E+00  0.00000000000E+00  0.10354194648E+03  0.10354194648E+03  0.00000000000E+00 0.  1.
         22   -1    0    0    0    0 -0.00000000000E+00 -0.00000000000E+00 -0.20140785917E+04  0.20140785917E+04  0.00000000000E+00 0. -1.
        -24    2    1    2    0    0  0.38320558658E+02 -0.53184125969E+02 -0.16884755585E+04  0.16916543391E+04  0.80297414325E+02 0.  0.
         25    2    1    2    0    0 -0.67265225568E+02  0.10883781508E+03 -0.26253996415E+03  0.31771807528E+03  0.12508901639E+03 0.  0.
         24    2    1    2    0    0  0.28944666910E+02 -0.55653689112E+02  0.40478877479E+02  0.10824812380E+03  0.78383607529E+02 0.  0.
        -13    1    5    5    0    0  0.42714972614E+02 -0.42007359154E+02  0.57062303989E+02  0.82736289771E+02  0.00000000000E+00 0.  1.
         14    1    5    5    0    0 -0.13770305704E+02 -0.13646329957E+02 -0.16583426510E+02  0.25511834025E+02  0.00000000000E+00 0. -1.
         11    1    3    3    0    0  0.53398274963E+02 -0.27699171207E+02 -0.65548897217E+03  0.65824342950E+03  0.00000000000E+00 0. -1.
        -12    1    3    3    0    0 -0.15077716305E+02 -0.25484954762E+02 -0.10329865864E+04  0.10334109096E+04  0.00000000000E+00 0.  1.
          5    1    4    4  501    0  0.99163333735E+01 -0.22080800170E+02 -0.21015588895E+02  0.32326812097E+02  0.41800000000E+01 0. -1.
         -5    1    4    4    0  501 -0.77181558942E+02  0.13091861525E+03 -0.24152437526E+03  0.28539126319E+03  0.41800000000E+01 0. -1.
</event>
<event>
11    1  0.8299058E-009  0.1434334E+03  0.7561462E-02  0.1103784E+00
         22   -1    0    0    0    0  0.00000000000E+00  0.00000000000E+00  0.30883148011E+03  0.30883148011E+03  0.00000000000E+00 0. -1.
         22   -1    0    0    0    0 -0.00000000000E+00 -0.00000000000E+00 -0.65345037496E+03  0.65345037496E+03  0.00000000000E+00 0.  1.
         24    2    1    2    0    0 -0.36517660331E+02 -0.51355873170E+02 -0.51190486097E+03  0.52265103563E+03  0.84537288444E+02 0.  0.
         25    2    1    2    0    0 -0.35887252080E+02  0.57712755884E+02 -0.84317903955E+02  0.16545484765E+03  0.12508853117E+03 0.  0.
        -24    2    1    2    0    0  0.72404912411E+02 -0.63568827140E+01  0.25160387007E+03  0.27417597179E+03  0.81148473654E+02 0.  0.
        -13    1    3    3    0    0 -0.53968222434E+02 -0.43508767040E+02 -0.23308023323E+03  0.24317067455E+03  0.00000000000E+00 0.  1.
         14    1    3    3    0    0  0.17450562102E+02 -0.78471061305E+01 -0.27882462774E+03  0.27948036108E+03  0.00000000000E+00 0. -1.
         11    1    5    5    0    0  0.67532529717E+01 -0.34411304253E+02  0.11221436751E+03  0.11756618801E+03  0.00000000000E+00 0. -1.
        -12    1    5    5    0    0  0.65651659440E+02  0.28054421539E+02  0.13938950255E+03  0.15660978378E+03  0.00000000000E+00 0.  1.
          5    1    4    4  501    0  0.37814281667E+01 -0.70155331774E+00 -0.93902705582E+02  0.94074342366E+02  0.41800000000E+01 0.  1.
         -5    1    4    4    0  501 -0.39668680247E+02  0.58414309202E+02  0.95848016264E+01  0.71380505282E+02  0.41800000000E+01 0.  1.
</event>
<event>
11    1  0.8299058E-009  0.1341490E+03  0.7561462E-02  0.1114274E+00
         22   -1    0    0    0    0  0.00000000000E+00  0.00000000000E+00  0.76133211973E+03  0.76133211973E+03  0.00000000000E+00 0.  1.
         22   -1    0    0    0    0 -0.00000000000E+00 -0.00000000000E+00 -0.23835429589E+03  0.23835429589E+03  0.00000000000E+00 0. -1.
         24    2    1    2    0    0 -0.32947470081E+01  0.35240696282E+02 -0.20431402285E+03  0.22462748478E+03  0.86374330397E+02 0.  0.
         25    2    1    2    0    0 -0.33871077020E+02  0.29482763961E+01  0.19529148815E+03  0.23439755068E+03  0.12508998453E+03 0.  0.
        -24    2    1    2    0    0  0.37165824028E+02 -0.38188972678E+02  0.53200035854E+03  0.54066138017E+03  0.80315941194E+02 0.  0.
        -11    1    3    3    0    0  0.36841003999E+02  0.13394570883E+02 -0.49113510175E+02  0.62839565455E+02  0.00000000000E+00 0.  1.
         12    1    3    3    0    0 -0.40135751008E+02  0.21846125398E+02 -0.15520051267E+03  0.16178791932E+03  0.00000000000E+00 0. -1.
         13    1    5    5    0    0  0.35800465913E+02  0.17082189767E+02  0.17772914356E+03  0.18210195781E+03  0.00000000000E+00 0. -1.
        -14    1    5    5    0    0  0.13653581147E+01 -0.55271162445E+02  0.35427121498E+03  0.35855942236E+03  0.00000000000E+00 0.  1.
          5    1    4    4  501    0 -0.43763996286E+02  0.45578453115E+02  0.17475558859E+03  0.18587541770E+03  0.41800000000E+01 0.  1.
         -5    1    4    4    0  501  0.98929192665E+01 -0.42630176719E+02  0.20535899555E+02  0.48522132983E+02  0.41800000000E+01 0.  1.
</event>
<event>
11    1  0.8299058E-009  0.1961286E+03  0.7561462E-02  0.1057296E+00
         22   -1    0    0    0    0  0.00000000000E+00  0.00000000000E+00  0.92728228764E+02  0.92728228764E+02  0.00000000000E+00 0.  1.
         22   -1    0    0    0    0 -0.00000000000E+00 -0.00000000000E+00 -0.15105569993E+04  0.15105569993E+04  0.00000000000E+00 0. -1.
        -24    2    1    2    0    0 -0.65707222405E+02 -0.12323709068E+03 -0.92516362676E+03  0.94051315401E+03  0.95563785007E+02 0.  0.
         25    2    1    2    0    0  0.53675793853E+02  0.18196658443E+03 -0.51216154877E+03  0.56030037385E+03  0.12503650748E+03 0.  0.
         24    2    1    2    0    0  0.12031428552E+02 -0.58729493754E+02  0.19496405033E+02  0.10247170016E+03  0.80786328142E+02 0.  0.
        -11    1    5    5    0    0 -0.86938787176E+01 -0.71821756501E+02  0.26386274701E+02  0.77007686153E+02  0.00000000000E+00 0.  1.
         12    1    5    5    0    0  0.20725307270E+02  0.13092262747E+02 -0.68898696676E+01  0.25464014006E+02  0.00000000000E+00 0. -1.
         13    1    3    3    0    0 -0.84122902285E+02 -0.89834931901E+02 -0.80740963719E+03  0.81673575892E+03  0.00000000000E+00 0. -1.
        -14    1    3    3    0    0  0.18415679880E+02 -0.33402158774E+02 -0.11775398957E+03  0.12377739509E+03  0.00000000000E+00 0.  1.
          5    1    4    4  501    0  0.60443473877E+02  0.31928365325E+02 -0.96623075736E+02  0.11843278774E+03  0.41800000000E+01 0.  1.
         -5    1    4    4    0  501 -0.67676800234E+01  0.15003821910E+03 -0.41553847303E+03  0.44186758611E+03  0.41800000000E+01 0.  1.
</event>
<event>
11    1  0.8299058E-009  0.1509967E+03  0.7561462E-02  0.1095865E+00
         22   -1    0    0    0    0  0.00000000000E+00  0.00000000000E+00  0.55923016235E+02  0.55923016235E+02  0.00000000000E+00 0. -1.
         22   -1    0    0    0    0 -0.00000000000E+00 -0.00000000000E+00 -0.27932457322E+04  0.27932457322E+04  0.00000000000E+00 0.  1.
        -24    2    1    2    0    0 -0.47748730494E+02  0.44799937398E+02 -0.17747560076E+04  0.17777928735E+04  0.80632741111E+02 0.  0.
         25    2    1    2    0    0 -0.36967801810E+02 -0.64868953047E+02 -0.93868452804E+03  0.94992173781E+03  0.12509222733E+03 0.  0.
         24    2    1    2    0    0  0.84716532304E+02  0.20069015649E+02 -0.23882180332E+02  0.12145413712E+03  0.81247108578E+02 0.  0.
        -11    1    5    5    0    0  0.55850940630E+02  0.16822127521E+02 -0.54088002261E+02  0.79547618017E+02  0.00000000000E+00 0.  1.
         12    1    5    5    0    0  0.28865591674E+02  0.32468881283E+01  0.30205821929E+02  0.41906519107E+02  0.00000000000E+00 0. -1.
         13    1    3    3    0    0 -0.52308153369E+02  0.60748583447E+02 -0.11376560210E+04  0.11404769859E+04  0.00000000000E+00 0. -1.
        -14    1    3    3    0    0  0.45594228749E+01 -0.15948646049E+02 -0.63709998661E+03  0.63731588760E+03  0.00000000000E+00 0.  1.
          5    1    4    4  501    0 -0.40381584711E+02 -0.16297968162E+02 -0.82524054670E+03  0.82639925488E+03  0.41800000000E+01 0.  1.
         -5    1    4    4    0  501  0.34137829012E+01 -0.48570984885E+02 -0.11344398134E+03  0.12352248293E+03  0.41800000000E+01 0.  1.
</event>
<event>
11    1  0.8299058E-009  0.2046259E+03  0.7561462E-02  0.1051300E+00
         22   -1    0    0    0    0  0.00000000000E+00  0.00000000000E+00  0.27767114530E+03  0.27767114530E+03  0.00000000000E+00 0.  1.
         22   -1    0    0    0    0 -0.00000000000E+00 -0.00000000000E+00 -0.21122280736E+04  0.21122280736E+04  0.00000000000E+00 0. -1.
         24    2    1    2    0    0  0.50436584836E+02  0.15003085318E+03 -0.18355659569E+04  0.18437607297E+04  0.71401261884E+02 0.  0.
         25    2    1    2    0    0 -0.49732253056E+02 -0.21063956206E+03 -0.20009726943E+03  0.32019967472E+03  0.12508633962E+03 0.  0.
        -24    2    1    2    0    0 -0.70433178001E+00  0.60608708877E+02  0.20110629811E+03  0.22593881442E+03  0.83250784080E+02 0.  0.
        -11    1    3    3    0    0 -0.12524370367E+02  0.21833922757E+01 -0.11171141497E+03  0.11243250104E+03  0.00000000000E+00 0.  1.
         12    1    3    3    0    0  0.62960955203E+02  0.14784746090E+03 -0.17238545420E+04  0.17313282287E+04  0.00000000000E+00 0. -1.
         11    1    5    5    0    0 -0.95080870058E+01  0.23140536584E+02  0.42757514176E+01  0.25380508311E+02  0.00000000000E+00 0. -1.
        -12    1    5    5    0    0  0.88037552258E+01  0.37468172293E+02  0.19683054669E+03  0.20055830611E+03  0.00000000000E+00 0.  1.
          5    1    4    4  501    0 -0.72924716880E+02 -0.20032998540E+03 -0.20288110103E+03  0.29432691167E+03  0.41800000000E+01 0. -1.
         -5    1    4    4    0  501  0.23192463824E+02 -0.10309576659E+02  0.27838315994E+01  0.25872763043E+02  0.41800000000E+01 0. -1.
</event>
<event>
11    1  0.8299058E-009  0.1509838E+03  0.7561462E-02  0.1095878E+00
         22   -1    0    0    0    0  0.00000000000E+00  0.00000000000E+00  0.26361822197E+03  0.26361822197E+03  0.00000000000E+00 0.  1.
         22   -1    0    0    0    0 -0.00000000000E+00 -0.00000000000E+00 -0.65763063168E+03  0.65763063168E+03  0.00000000000E+00 0. -1.
         24    2    1    2    0    0  0.51678385919E+02  0.59745589825E+02 -0.45678941519E+03  0.47021823835E+03  0.78793596027E+02 0.  0.
         25    2    1    2    0    0 -0.11500137175E+03 -0.58665110122E+02 -0.13672257235E+03  0.22584732695E+03  0.12508813952E+03 0.  0.
        -24    2    1    2    0    0  0.63322985829E+02 -0.10804797030E+01  0.19949957783E+03  0.22518328835E+03  0.83044950649E+02 0.  0.
        -13    1    3    3    0    0  0.84592494854E+01  0.15650997514E+02 -0.12703696233E+02  0.21860844517E+02  0.00000000000E+00 0.  1.
         14    1    3    3    0    0  0.43219136433E+02  0.44094592311E+02 -0.44408571896E+03  0.44835739384E+03  0.00000000000E+00 0. -1.
         11    1    5    5    0    0 -0.14832862146E+02  0.10081723617E+02  0.79813749040E+02  0.81803969869E+02  0.00000000000E+00 0. -1.
        -12    1    5    5    0    0  0.78155847975E+02 -0.11162203320E+02  0.11968582879E+03  0.14337931848E+03  0.00000000000E+00 0.  1.
          5    1    4    4  501    0 -0.65642503666E+02  0.30016652091E+01  0.23152334127E+01  0.65884603568E+02  0.41800000000E+01 0.  1.
         -5    1    4    4    0  501 -0.49358868082E+02 -0.61666775331E+02 -0.13903780577E+03  0.15996272338E+03  0.41800000000E+01 0.  1.
</event>
<event>
11    1  0.8299058E-009  0.1840674E+03  0.7561462E-02  0.1066399E+00
         22   -1    0    0    0    0  0.00000000000E+00  0.00000000000E+00  0.27148404462E+03  0.27148404462E+03  0.00000000000E+00 0.  1.
         22   -1    0    0    0    0 -0.00000000000E+00 -0.00000000000E+00 -0.29309301908E+03  0.29309301908E+03  0.00000000000E+00 0. -1.
         24    2    1    2    0    0  0.52465055068E+02  0.11722699504E+03 -0.10511660817E+03  0.18449003835E+03  0.80574950007E+02 0.  0.
         25    2    1    2    0    0 -0.60484171356E+02 -0.13311250206E+03 -0.70732722623E+02  0.20500346317E+03  0.12508408640E+03 0.  0.
        -24    2    1    2    0    0  0.80191162878E+01  0.15885507027E+02  0.15424035633E+03  0.17508356218E+03  0.80916689652E+02 0.  0.
        -13    1    3    3    0    0 -0.55427725108E+01  0.82261352775E+02 -0.45006119991E+02  0.93931907913E+02  0.00000000000E+00 0.  1.
         14    1    3    3    0    0  0.58007827579E+02  0.34965642262E+02 -0.60110488178E+02  0.90558130437E+02  0.00000000000E+00 0. -1.
         13    1    5    5    0    0  0.35203898731E+01 -0.11986940744E+02  0.14476457525E+03  0.14530265703E+03  0.00000000000E+00 0. -1.
        -14    1    5    5    0    0  0.44987264147E+01  0.27872447771E+02  0.94757810775E+01  0.29780905143E+02  0.00000000000E+00 0.  1.
          5    1    4    4  501    0  0.38185315280E+02 -0.49187580594E+02 -0.16829366108E+02  0.64639278704E+02  0.41800000000E+01 0.  1.
         -5    1    4    4    0  501 -0.98669486636E+02 -0.83924921470E+02 -0.53903356515E+02  0.14036418446E+03  0.41800000000E+01 0.  1.
</event>
<event>
11    1  0.8299058E-009  0.1409311E+03  0.7561462E-02  0.1106523E+00
         22   -1    0    0    0    0  0.00000000000E+00  0.00000000000E+00  0.52638575688E+03  0.52638575688E+03  0.00000000000E+00 0. -1.
         22   -1    0    0    0    0 -0.00000000000E+00 -0.00000000000E+00 -0.13334416414E+04  0.13334416414E+04  0.00000000000E+00 0.  1.
         24    2    1    2    0    0  0.12350125595E+02  0.17125024227E+02 -0.97034294762E+03  0.97393539255E+03  0.80863593783E+02 0.  0.
         25    2    1    2    0    0  0.21948273200E+02 -0.72084135444E+02 -0.34057674233E+03  0.37056515033E+03  0.12509262145E+03 0.  0.
        -24    2    1    2    0    0 -0.34298398795E+02  0.54959111217E+02  0.50386380548E+03  0.51532685535E+03  0.86522536453E+02 0.  0.
        -13    1    3    3    0    0 -0.26326558902E+01 -0.14226810506E+02 -0.79765311229E+03  0.79778431958E+03  0.00000000000E+00 0.  1.
         14    1    3    3    0    0  0.14982781486E+02  0.31351834733E+02 -0.17268983533E+03  0.17615107297E+03  0.00000000000E+00 0. -1.
         13    1    5    5    0    0 -0.41815707910E+02  0.57473958127E+02  0.50222869831E+03  0.50723315615E+03  0.00000000000E+00 0. -1.
        -14    1    5    5    0    0  0.75173091150E+01 -0.25148469104E+01  0.16351071615E+01  0.80936992001E+01  0.00000000000E+00 0.  1.
          5    1    4    4  501    0 -0.88078806905E+01 -0.94870501402E+02 -0.16290055188E+03  0.18876454381E+03  0.41800000000E+01 0.  1.
         -5    1    4    4    0  501  0.30756153890E+02  0.22786365959E+02 -0.17767619045E+03  0.18180060652E+03  0.41800000000E+01 0.  1.
</event>
<event>
11    1  0.8299058E-009  0.1548709E+03  0.7561462E-02  0.1092003E+00
         22   -1    0    0    0    0  0.00000000000E+00  0.00000000000E+00  0.64040870879E+03  0.64040870879E+03  0.00000000000E+00 0.  1.
         22   -1    0    0    0    0 -0.00000000000E+00 -0.00000000000E+00 -0.10550350528E+04  0.10550350528E+04  0.00000000000E+00 0. -1.
         24    2    1    2    0    0  0.42691486513E+01  0.53380780759E+02 -0.10220241957E+04  0.10270837930E+04  0.86602123504E+02 0.  0.
         25    2    1    2    0    0 -0.93525413433E+02 -0.38941548034E+02  0.34206389713E+03  0.37804610247E+03  0.12509076206E+03 0.  0.
        -24    2    1    2    0    0  0.89256264782E+02 -0.14439232725E+02  0.26533395453E+03  0.29031386618E+03  0.75530531745E+02 0.  0.
        -13    1    3    3    0    0  0.14838026210E+02  0.73907525459E+00 -0.28769711912E+02  0.32379153441E+02  0.00000000000E+00 0.  1.
         14    1    3    3    0    0 -0.10568877558E+02  0.52641705505E+02 -0.99325448377E+03  0.99470463951E+03  0.00000000000E+00 0. -1.
         13    1    5    5    0    0  0.15603473041E+02  0.16081289384E+02  0.13992829749E+03  0.14171098997E+03  0.00000000000E+00 0. -1.
        -14    1    5    5    0    0  0.73652791741E+02 -0.30520522109E+02  0.12540565704E+03  0.14860287621E+03  0.00000000000E+00 0.  1.
          5    1    4    4  501    0 -0.59038987561E+02 -0.83376084563E+02  0.24968858630E+03  0.26981296495E+03  0.41800000000E+01 0.  1.
         -5    1    4    4    0  501 -0.34486425872E+02  0.44434536529E+02  0.92375310831E+02  0.10823313752E+03  0.41800000000E+01 0.  1.
</event>
<event>
11    1  0.8299058E-009  0.1664348E+03  0.7561462E-02  0.1081177E+00
         22   -1    0    0    0    0  0.00000000000E+00  0.00000000000E+00  0.66328165678E+03  0.66328165678E+03  0.00000000000E+00 0.  1.
         22   -1    0    0    0    0 -0.00000000000E+00 -0.00000000000E+00 -0.95893549433E+02  0.95893549433E+02  0.00000000000E+00 0.  1.
         24    2    1    2    0    0 -0.27511369044E+01 -0.10542162196E+03 -0.16386314849E+00  0.12957695567E+03  0.75291921609E+02 0.  0.
         25    2    1    2    0    0  0.18919768149E+02  0.13628102602E+03  0.38358373222E+03  0.42627977044E+03  0.12508991717E+03 0.  0.
        -24    2    1    2    0    0 -0.16168631245E+02 -0.30859404057E+02  0.18396823827E+03  0.20331848010E+03  0.79248748903E+02 0.  0.
        -13    1    3    3    0    0 -0.14096179217E+02 -0.11301818772E+03  0.70934294131E+01  0.11411454669E+03  0.00000000000E+00 0.  1.
         14    1    3    3    0    0  0.11345042312E+02  0.75965657606E+01 -0.72572925616E+01  0.15462408989E+02  0.00000000000E+00 0. -1.
         13    1    5    5    0    0  0.11600514929E+02 -0.42365496281E+01 -0.27718068604E+01  0.12657140776E+02  0.00000000000E+00 0. -1.
        -14    1    5    5    0    0 -0.27769146174E+02 -0.26622854429E+02  0.18674004513E+03  0.19066133932E+03  0.00000000000E+00 0.  1.
          5    1    4    4  501    0 -0.35743314595E+02 -0.19458209176E+01  0.95663075452E+02  0.10222654823E+03  0.41800000000E+01 0. -1.
         -5    1    4    4    0  501  0.54663082744E+02  0.13822684694E+03  0.28792065677E+03  0.32405322221E+03  0.41800000000E+01 0. -1.
</event>
<event>
11    1  0.8299058E-009  0.1744594E+03  0.7561462E-02  0.1074215E+00
         22   -1    0    0    0    0  0.00000000000E+00  0.00000000000E+00  0.96977536550E+02  0.96977536550E+02  0.00000000000E+00 0.  1.
         22   -1    0    0    0    0 -0.00000000000E+00 -0.00000000000E+00 -0.12559438505E+04  0.12559438505E+04  0.00000000000E+00 0. -1.
         24    2    1    2    0    0 -0.10287582343E+03 -0.66875371215E+02 -0.87993602951E+03  0.89246179080E+03  0.84527401976E+02 0.  0.
         25    2    1    2    0    0  0.37152280418E+02  0.14333030053E+03 -0.26887361179E+03  0.33145786934E+03  0.12508969999E+03 0.  0.
        -24    2    1    2    0    0  0.65723543009E+02 -0.76454929312E+02 -0.10156672664E+02  0.12900172692E+03  0.79833246379E+02 0.  0.
        -13    1    3    3    0    0 -0.95602849697E+01  0.13006469254E+02 -0.25839614504E+03  0.25889985528E+03  0.00000000000E+00 0.  1.
         14    1    3    3    0    0 -0.93315538457E+02 -0.79881840469E+02 -0.62153988447E+03  0.63356193552E+03  0.00000000000E+00 0. -1.
         13    1    5    5    0    0  0.21383230669E+02  0.13413046847E+02  0.93343004547E+01  0.26912479346E+02  0.00000000000E+00 0. -1.
        -14    1    5    5    0    0  0.44340312340E+02 -0.89867976160E+02 -0.19490973119E+02  0.10208924758E+03  0.00000000000E+00 0.  1.
          5    1    4    4  501    0  0.45187279457E+02  0.14490041024E+03 -0.27908606032E+03  0.31771767433E+03  0.41800000000E+01 0.  1.
         -5    1    4    4    0  501 -0.80349990390E+01 -0.15701097160E+01  0.10212448532E+02  0.13740195017E+02  0.41800000000E+01 0.  1.
</event>
<event>
11    1  0.8299058E-009  0.1259273E+03  0.7561462E-02  0.1124377E+00
         22   -1    0    0    0    0  0.00000000000E+00  0.00000000000E+00  0.13701655161E+04  0.13701655161E+04  0.00000000000E+00 0.  1.
         22   -1    0    0    0    0 -0.00000000000E+00 -0.00000000000E+00 -0.52994632988E+02  0.52994632988E+02  0.00000000000E+00 0.  1.
         24    2    1    2    0    0 -0.16199559851E+02  0.15842113490E+02  0.10117863943E+03  0.14140965714E+03  0.96157036965E+02 0.  0.
         25    2    1    2    0    0 -0.85849708360E+00 -0.84141228082E+01  0.94076292071E+02  0.15674793997E+03  0.12509209997E+03 0.  0.
        -24    2    1    2    0    0  0.17058056935E+02 -0.74279906823E+01  0.11219159516E+04  0.11250025519E+04  0.81173808028E+02 0.  0.
        -11    1    3    3    0    0 -0.81935744803E+01  0.36351062058E+02 -0.60921468993E+00  0.37268022728E+02  0.00000000000E+00 0.  1.
         12    1    3    3    0    0 -0.80059853707E+01 -0.20508948567E+02  0.10178785412E+03  0.10414163442E+03  0.00000000000E+00 0. -1.
         13    1    5    5    0    0 -0.15169822448E+02  0.95944428086E+01  0.64286230357E+02  0.66745009247E+02  0.00000000000E+00 0. -1.
        -14    1    5    5    0    0  0.32227879383E+02 -0.17022433491E+02  0.10576297212E+04  0.10582575427E+04  0.00000000000E+00 0.  1.
          5    1    4    4  501    0 -0.56275817096E+02 -0.29986658259E+02  0.35182977828E+02  0.72948485880E+02  0.41800000000E+01 0.  1.
         -5    1    4    4    0  501  0.55417320012E+02  0.21572535451E+02  0.58893314242E+02  0.83799454089E+02  0.41800000000E+01 0.  1.
</event>
<event>
11    1  0.8299058E-009  0.1680616E+03  0.7561462E-02  0.1079731E+00
         22   -1    0    0    0    0  0.00000000000E+00  0.00000000000E+00  0.56766807843E+03  0.56766807843E+03  0.00000000000E+00 0. -1.
         22   -1    0    0    0    0 -0.00000000000E+00 -0.00000000000E+00 -0.10916588014E+03  0.10916588014E+03  0.00000000000E+00 0.  1.
         24    2    1    2    0    0  0.11909965767E+03  0.88018022444E+02  0.75064176049E+02  0.18367691695E+03  0.78553666769E+02 0.  0.
         25    2    1    2    0    0 -0.15533900321E+02 -0.86861000282E+02  0.10502704708E+03  0.18564528952E+03  0.12508939793E+03 0.  0.
        -24    2    1    2    0    0 -0.10356575735E+03 -0.11570221628E+01  0.27841097516E+03  0.30751175209E+03  0.79521077628E+02 0.  0.
        -13    1    3    3    0    0  0.69309186733E+02  0.64392461856E+02  0.85581583406E+02  0.12757099956E+03  0.00000000000E+00 0.  1.
         14    1    3    3    0    0  0.49790470938E+02  0.23625560588E+02 -0.10517407357E+02  0.56105917396E+02  0.00000000000E+00 0. -1.
         11    1    5    5    0    0  0.90736407355E+01 -0.30488670856E+01  0.69551532930E+02  0.70207138381E+02  0.00000000000E+00 0. -1.
        -12    1    5    5    0    0 -0.11263939809E+03  0.18918449228E+01  0.20885944223E+03  0.23730461371E+03  0.00000000000E+00 0.  1.
          5    1    4    4  501    0  0.10231236368E+01 -0.11677413674E+03  0.92356878198E+02  0.14894465799E+03  0.41800000000E+01 0.  1.
         -5    1    4    4    0  501 -0.16557023958E+02  0.29913136460E+02  0.12670168886E+02  0.36700631532E+02  0.41800000000E+01 0.  1.
</event>
<event>
11    1  0.8299058E-009  0.1662033E+03  0.7561462E-02  0.1081384E+00
         22   -1    0    0    0    0  0.00000000000E+00  0.00000000000E+00  0.31127772348E+04  0.31127772348E+04  0.00000000000E+00 0.  1.
         22   -1    0    0    0    0 -0.00000000000E+00 -0.00000000000E+00 -0.10891651183E+04  0.10891651183E+04  0.00000000000E+00 0. -1.
        -24    2    1    2    0    0 -0.57095757023E+02 -0.92989856884E+02 -0.10520538406E+04  0.10602713580E+04  0.73831091814E+02 0.  0.
         25    2    1    2    0    0  0.26366178219E+02  0.13770095450E+03  0.24230074860E+03  0.30661270744E+03  0.12507985996E+03 0.  0.
         24    2    1    2    0    0  0.30729578804E+02 -0.44711097613E+02  0.28333652085E+04  0.28350582877E+04  0.81570219866E+02 0.  0.
        -13    1    5    5    0    0  0.28317666095E+02 -0.26302993251E+02  0.27125169520E+04  0.27127922796E+04  0.00000000000E+00 0.  1.
         14    1    5    5    0    0  0.24119127091E+01 -0.18408104362E+02  0.12084825649E+03  0.12226600806E+03  0.00000000000E+00 0. -1.
         11    1    3    3    0    0 -0.47268300595E+02 -0.50089703889E+02 -0.87952681534E+03  0.88221918454E+03  0.00000000000E+00 0. -1.
        -12    1    3    3    0    0 -0.98274564282E+01 -0.42900152995E+02 -0.17252702528E+03  0.17805217347E+03  0.00000000000E+00 0.  1.
          5    1    4    4  501    0  0.36495986675E+02  0.15687573908E+03  0.23144430426E+03  0.28200335623E+03  0.41800000000E+01 0.  1.
         -5    1    4    4    0  501 -0.10129808456E+02 -0.19174784580E+02  0.10856444348E+02  0.24609351209E+02  0.41800000000E+01 0.  1.
</event>
<event>
11    1  0.8299058E-009  0.1291409E+03  0.7561462E-02  0.1120329E+00
         22   -1    0    0    0    0  0.00000000000E+00  0.00000000000E+00  0.36573711147E+03  0.36573711147E+03  0.00000000000E+00 0. -1.
         22   -1    0    0    0    0 -0.00000000000E+00 -0.00000000000E+00 -0.27841708147E+03  0.27841708147E+03  0.00000000000E+00 0. -1.
         24    2    1    2    0    0 -0.30506524411E+01 -0.35930855173E+02 -0.17400143768E+03  0.19493415064E+03  0.80140438836E+02 0.  0.
         25    2    1    2    0    0 -0.15369755388E+02  0.15642883715E+02 -0.42752700225E+02  0.13398756657E+03  0.12507575875E+03 0.  0.
        -24    2    1    2    0    0  0.18420407829E+02  0.20287971458E+02  0.30407416790E+03  0.31523247573E+03  0.78482488235E+02 0.  0.
        -13    1    3    3    0    0  0.20703537578E+02 -0.16779733971E+02 -0.10554415831E+02  0.28663419787E+02  0.00000000000E+00 0.  1.
         14    1    3    3    0    0 -0.23754190019E+02 -0.19151121202E+02 -0.16344702185E+03  0.16627073085E+03  0.00000000000E+00 0. -1.
         13    1    5    5    0    0  0.21751134172E+02  0.39435695889E+02  0.28301353064E+03  0.28657450074E+03  0.00000000000E+00 0. -1.
        -14    1    5    5    0    0 -0.33307263425E+01 -0.19147724431E+02  0.21060637266E+02  0.28657974997E+02  0.00000000000E+00 0.  1.
          5    1    4    4  501    0 -0.25376641042E+02 -0.39583968141E+02 -0.58855809912E+02  0.75447618947E+02  0.41800000000E+01 0.  1.
         -5    1    4    4    0  501  0.10006885654E+02  0.55226851856E+02  0.16103109687E+02  0.58539947626E+02  0.41800000000E+01 0.  1.
</event>
<event>
11    1  0.8299058E-009  0.2104474E+03  0.7561462E-02  0.1047372E+00
         22   -1    0    0    0    0  0.00000000000E+00  0.00000000000E+00  0.17889526365E+03  0.17889526365E+03  0.00000000000E+00 0.  1.
         22   -1    0    0    0    0 -0.00000000000E+00 -0.00000000000E+00 -0.75450157137E+03  0.75450157137E+03  0.00000000000E+00 0. -1.
         24    2    1    2    0    0  0.38978868586E+01  0.19715647833E+02 -0.25118666534E+03  0.26498347856E+03  0.81960983258E+02 0.  0.
         25    2    1    2    0    0 -0.16819105140E+03  0.21305856383E+02 -0.41094681567E+03  0.46180880131E+03  0.12509162388E+03 0.  0.
        -24    2    1    2    0    0  0.16429316454E+03 -0.41021504215E+02  0.86527173290E+02  0.20660455516E+03  0.80768080159E+02 0.  0.
        -13    1    3    3    0    0 -0.37343777146E+02  0.21456680181E+02 -0.12410296031E+03  0.13136396604E+03  0.00000000000E+00 0.  1.
         14    1    3    3    0    0  0.41241664004E+02 -0.17410323489E+01 -0.12708370502E+03  0.13361951252E+03  0.00000000000E+00 0. -1.
         13    1    5    5    0    0  0.13695449905E+03  0.13622512335E+01  0.67584271496E+02  0.15272859684E+03  0.00000000000E+00 0. -1.
        -14    1    5    5    0    0  0.27338665489E+02 -0.42383755449E+02  0.18942901794E+02  0.53875958321E+02  0.00000000000E+00 0.  1.
          5    1    4    4  501    0 -0.56812695247E+02 -0.17292883111E+02 -0.27702656466E+03  0.28335122388E+03  0.41800000000E+01 0. -1.
         -5    1    4    4    0  501 -0.11137835615E+03  0.38598739494E+02 -0.13392025102E+03  0.17845757743E+03  0.41800000000E+01 0. -1.
</event>
<event>
11    1  0.8299058E-009  0.1441176E+03  0.7561462E-02  0.1103046E+00
         22   -1    0    0    0    0  0.00000000000E+00  0.00000000000E+00  0.19458962264E+04  0.19458962264E+04  0.00000000000E+00 0.  1.
         22   -1    0    0    0    0 -0.00000000000E+00 -0.00000000000E+00 -0.14031310828E+03  0.14031310828E+03  0.00000000000E+00 0. -1.
         24    2    1    2    0    0  0.16144299525E+02  0.67475188173E+01 -0.14833818576E+02  0.84844592543E+02  0.81684731088E+02 0.  0.
         25    2    1    2    0    0 -0.86275568830E+02 -0.19459015558E+02 -0.22915467913E+02  0.15490299999E+03  0.12509074176E+03 0.  0.
        -24    2    1    2    0    0  0.70131269304E+02  0.12711496740E+02  0.18433324046E+04  0.18464617421E+04  0.80415385595E+02 0.  0.
        -13    1    3    3    0    0 -0.32005858159E+02  0.85919286589E+01  0.34253559703E+01  0.33315600822E+02  0.00000000000E+00 0.  1.
         14    1    3    3    0    0  0.48150157685E+02 -0.18444098416E+01 -0.18259174546E+02  0.51528991721E+02  0.00000000000E+00 0. -1.
         13    1    5    5    0    0  0.53920300171E+02  0.10380042684E+02  0.49606734826E+03  0.49909714291E+03  0.00000000000E+00 0. -1.
        -14    1    5    5    0    0  0.16210969133E+02  0.23314540559E+01  0.13472650563E+04  0.13473645992E+04  0.00000000000E+00 0.  1.
          5    1    4    4  501    0  0.28684211460E+02  0.12011706821E+02  0.65509683846E+01  0.32053902643E+02  0.41800000000E+01 0.  1.
         -5    1    4    4    0  501 -0.11495978029E+03 -0.31470722379E+02 -0.29466436297E+02  0.12284909735E+03  0.41800000000E+01 0.  1.
</event>
<event>
11    1  0.8299058E-009  0.1296653E+03  0.7561462E-02  0.1119681E+00
         22   -1    0    0    0    0  0.00000000000E+00  0.00000000000E+00  0.76787355671E+03  0.76787355671E+03  0.00000000000E+00 0. -1.
         22   -1    0    0    0    0 -0.00000000000E+00 -0.00000000000E+00 -0.98245355586E+03  0.98245355586E+03  0.00000000000E+00 0. -1.
         24    2    1    2    0    0 -0.18886013058E+01 -0.33777393900E+02 -0.93185110999E+03  0.93588731590E+03  0.79963102221E+02 0.  0.
         25    2    1    2    0    0  0.12257627003E+02  0.48507191968E+02  0.52509389193E+02  0.14459655422E+03  0.12509088874E+03 0.  0.
        -24    2    1    2    0    0 -0.10369025697E+02 -0.14729798068E+02  0.66476172164E+03  0.66984324245E+03  0.80357571235E+02 0.  0.
        -13    1    3    3    0    0  0.73271328438E+00  0.20838055315E+01  0.94206426473E+00  0.24013744667E+01  0.00000000000E+00 0.  1.
         14    1    3    3    0    0 -0.26213145902E+01 -0.35861199432E+02 -0.93279317426E+03  0.93348594143E+03  0.00000000000E+00 0. -1.
         13    1    5    5    0    0 -0.45924353816E+01 -0.40471563899E+02  0.18845469182E+03  0.19280614310E+03  0.00000000000E+00 0. -1.
        -14    1    5    5    0    0 -0.57765903157E+01  0.25741765831E+02  0.47630702982E+03  0.47703709936E+03  0.00000000000E+00 0.  1.
          5    1    4    4  501    0  0.15306485806E+02 -0.28887021348E+02 -0.19887344321E+02  0.38493212054E+02  0.41800000000E+01 0.  1.
         -5    1    4    4    0  501 -0.30488588028E+01  0.77394213316E+02  0.72396733515E+02  0.10610334216E+03  0.41800000000E+01 0.  1.
</event>
<event>
11    1  0.8299058E-009  0.2147670E+03  0.7561462E-02  0.1044546E+00
         22   -1    0    0    0    0  0.00000000000E+00  0.00000000000E+00  0.21787237527E+03  0.21787237527E+03  0.00000000000E+00 0.  1.
         22   -1    0    0    0    0 -0.00000000000E+00 -0.00000000000E+00 -0.30723369132E+04  0.30723369132E+04  0.00000000000E+00 0. -1.
         24    2    1    2    0    0 -0.48246784022E+02  0.27181589360E+02 -0.26553384982E+04  0.26571219901E+04  0.80050852376E+02 0.  0.
         25    2    1    2    0    0  0.21563876523E+03 -0.22019101997E+01 -0.32331432803E+03  0.40826969417E+03  0.12508822083E+03 0.  0.
        -24    2    1    2    0    0 -0.16739198121E+03 -0.24979679161E+02  0.12418828828E+03  0.22481760427E+03  0.80474620211E+02 0.  0.
        -13    1    3    3    0    0  0.11811225974E+02  0.28167611408E+02 -0.49031914501E+03  0.49126956282E+03  0.00000000000E+00 0.  1.
         14    1    3    3    0    0 -0.60058009996E+02 -0.98602204794E+00 -0.21650193532E+04  0.21658524272E+04  0.00000000000E+00 0. -1.
         13    1    5    5    0    0 -0.15845523231E+02 -0.68270625412E+01 -0.11384398292E+02  0.20671088841E+02  0.00000000000E+00 0. -1.
        -14    1    5    5    0    0 -0.15154645798E+03 -0.18152616619E+02  0.13557268657E+03  0.20414651543E+03  0.00000000000E+00 0.  1.
          5    1    4    4  501    0  0.29035423104E+00  0.30123096523E+02 -0.28108952836E+02  0.41413414243E+02  0.41800000000E+01 0.  1.
         -5    1    4    4    0  501  0.21534841100E+03 -0.32325006723E+02 -0.29520537519E+03  0.36685627993E+03  0.41800000000E+01 0.  1.
</event>
<event>
11    1  0.8299058E-009  0.1687047E+03  0.7561462E-02  0.1079164E+00
         22   -1    0    0    0    0  0.00000000000E+00  0.00000000000E+00  0.59494287736E+03  0.59494287736E+03  0.00000000000E+00 0.  1.
         22   -1    0    0    0    0 -0.00000000000E+00 -0.00000000000E+00 -0.96596497765E+03  0.96596497765E+03  0.00000000000E+00 0.  1.
        -24    2    1    2    0    0  0.10375562624E+03 -0.44209730637E+02 -0.92226819358E+03  0.93243684577E+03  0.78358919018E+02 0.  0.
         25    2    1    2    0    0 -0.14426857864E+03  0.98412855642E+01  0.25720546144E+03  0.32048832492E+03  0.12509133997E+03 0.  0.
         24    2    1    2    0    0  0.40512952397E+02  0.34368445073E+02  0.29404063186E+03  0.30798268433E+03  0.74638805813E+02 0.  0.
        -11    1    5    5    0    0  0.26766852594E+02 -0.42747611943E+01  0.23220005853E+03  0.23377682769E+03  0.00000000000E+00 0.  1.
         12    1    5    5    0    0  0.13746099803E+02  0.38643206267E+02  0.61840573326E+02  0.74205856640E+02  0.00000000000E+00 0. -1.
         13    1    3    3    0    0 -0.89563493135E+00  0.38464721609E+01 -0.27343728228E+03  0.27346580197E+03  0.00000000000E+00 0. -1.
        -14    1    3    3    0    0  0.10465126117E+03 -0.48056202798E+02 -0.64883091131E+03  0.65897104379E+03  0.00000000000E+00 0.  1.
          5    1    4    4  501    0 -0.67091146884E+02  0.43473591204E+02  0.20802976455E+03  0.22290139179E+03  0.41800000000E+01 0. -1.
         -5    1    4    4    0  501 -0.77177431752E+02 -0.33632305640E+02  0.49175696888E+02  0.97586933136E+02  0.41800000000E+01 0. -1.
</event>
<event>
11    1  0.8299058E-009  0.1843934E+03  0.7561462E-02  0.1066143E+00
         22   -1    0    0    0    0  0.00000000000E+00  0.00000000000E+00  0.33353981651E+03  0.33353981651E+03  0.00000000000E+00 0.  1.
         22   -1    0    0    0    0 -0.00000000000E+00 -0.00000000000E+00 -0.10141386758E+04  0.10141386758E+04  0.00000000000E+00 0. -1.
        -24    2    1    2    0    0 -0.49061504119E+02 -0.90972734325E+02 -0.85631765543E+03  0.86631890407E+03  0.80903936661E+02 0.  0.
         25    2    1    2    0    0  0.16052281092E+03  0.12246038351E+02 -0.46342435848E+02  0.20907580133E+03  0.12509009179E+03 0.  0.
         24    2    1    2    0    0 -0.11146130680E+03  0.78726695974E+02  0.22206123197E+03  0.27228378693E+03  0.78776610143E+02 0.  0.
        -13    1    5    5    0    0 -0.12272403536E+02  0.52899556789E+02  0.64471548598E+02  0.84294457562E+02  0.00000000000E+00 0.  1.
         14    1    5    5    0    0 -0.99188903262E+02  0.25827139185E+02  0.15758968337E+03  0.18798932936E+03  0.00000000000E+00 0. -1.
         11    1    3    3    0    0 -0.13533852585E+01 -0.42988542842E+02 -0.58907482219E+03  0.59064286384E+03  0.00000000000E+00 0. -1.
        -12    1    3    3    0    0 -0.47708118860E+02 -0.47984191483E+02 -0.26724283324E+03  0.27567604023E+03  0.00000000000E+00 0.  1.
          5    1    4    4  501    0 -0.27210669638E+01 -0.27825958295E+02 -0.28246222012E+02  0.39962602748E+02  0.41800000000E+01 0. -1.
         -5    1    4    4    0  501  0.16324387788E+03  0.40071996646E+02 -0.18096213836E+02  0.16911319859E+03  0.41800000000E+01 0. -1.
</event>
<event>
11    1  0.8299058E-009  0.1529171E+03  0.7561462E-02  0.1093935E+00
         22   -1    0    0    0    0  0.00000000000E+00  0.00000000000E+00  0.17795619410E+04  0.17795619410E+04  0.00000000000E+00 0.  1.
         22   -1    0    0    0    0 -0.00000000000E+00 -0.00000000000E+00 -0.10078034176E+03  0.10078034176E+03  0.00000000000E+00 0. -1.
         24    2    1    2    0    0 -0.70969557364E+02 -0.50365903009E+02 -0.49679561933E+02  0.12825724471E+03  0.80052855584E+02 0.  0.
         25    2    1    2    0    0  0.75932539924E+02  0.73492582526E+02  0.69522408826E+03  0.71424919804E+03  0.12509385957E+03 0.  0.
        -24    2    1    2    0    0 -0.49629825604E+01 -0.23126679517E+02  0.10332370729E+04  0.10378358400E+04  0.94683195391E+02 0.  0.
        -13    1    3    3    0    0  0.13486962104E+02  0.51307598686E+01  0.23040468501E+01  0.14612716226E+02  0.00000000000E+00 0.  1.
         14    1    3    3    0    0 -0.84456519468E+02 -0.55496662878E+02 -0.51983608783E+02  0.11364452848E+03  0.00000000000E+00 0. -1.
         11    1    5    5    0    0  0.43495106088E+02 -0.64400837739E+00  0.40392893672E+03  0.40626447657E+03  0.00000000000E+00 0. -1.
        -12    1    5    5    0    0 -0.48458088648E+02 -0.22482671140E+02  0.62930813616E+03  0.63157136342E+03  0.00000000000E+00 0.  1.
          5    1    4    4  501    0  0.74974513994E+02  0.28485266144E+02  0.18071297204E+03  0.19775550258E+03  0.41800000000E+01 0. -1.
         -5    1    4    4    0  501  0.95802593071E+00  0.45007316382E+02  0.51451111622E+03  0.51649369546E+03  0.41800000000E+01 0. -1.
</event>
<event>
11    1  0.8299058E-009  0.1439020E+03  0.7561462E-02  0.1103278E+00
         22   -1    0    0    0    0  0.00000000000E+00  0.00000000000E+00  0.14504423942E+04  0.14504423942E+04  0.00000000000E+00 0. -1.
         22   -1    0    0    0    0 -0.00000000000E+00 -0.00000000000E+00 -0.43457676335E+03  0.43457676335E+03  0.00000000000E+00 0. -1.
         24    2    1    2    0    0  0.10207574561E+02 -0.98560912751E+01 -0.39676025241E+03  0.40716254058E+03  0.90339910566E+02 0.  0.
         25    2    1    2    0    0 -0.69419719617E+02 -0.29142901330E+02  0.14563962355E+03  0.20622249987E+03  0.12509361828E+03 0.  0.
        -24    2    1    2    0    0  0.59212145056E+02  0.38998992605E+02  0.12669862597E+04  0.12716341171E+04  0.82293049220E+02 0.  0.
        -11    1    3    3    0    0 -0.28659459074E+02 -0.33049832489E+02 -0.24189288756E+03  0.24581664930E+03  0.00000000000E+00 0.  1.
         12    1    3    3    0    0  0.38867033634E+02  0.23193741214E+02 -0.15486736485E+03  0.16134589128E+03  0.00000000000E+00 0. -1.
         11    1    5    5    0    0  0.62190205217E+02  0.52247780149E+02  0.73497722360E+03  0.73945180462E+03  0.00000000000E+00 0. -1.
        -12    1    5    5    0    0 -0.29780601614E+01 -0.13248787544E+02  0.53200903610E+03  0.53218231247E+03  0.00000000000E+00 0.  1.
          5    1    4    4  501    0 -0.47313720711E+02 -0.73918031936E+02  0.58036408508E+02  0.10530033583E+03  0.41800000000E+01 0.  1.
         -5    1    4    4    0  501 -0.22105998906E+02  0.44775130606E+02  0.87603215046E+02  0.10092216404E+03  0.41800000000E+01 0.  1.
</event>
<event>
11    1  0.8299058E-009  0.1630868E+03  0.7561462E-02  0.1084209E+00
         22   -1    0    0    0    0  0.00000000000E+00  0.00000000000E+00  0.14242095886E+03  0.14242095886E+03  0.00000000000E+00 0. -1.
         22   -1    0    0    0    0 -0.00000000000E+00 -0.00000000000E+00 -0.19682601565E+04  0.19682601565E+04  0.00000000000E+00 0. -1.
        -24    2    1    2    0    0  0.63874209469E+02  0.38894745355E+02 -0.17575743536E+04  0.17609470931E+04  0.79210735904E+02 0.  0.
         25    2    1    2    0    0 -0.21947680158E+02 -0.13110147566E+03 -0.11060043720E+03  0.21341973511E+03  0.12508488734E+03 0.  0.
         24    2    1    2    0    0 -0.41926529311E+02  0.92206730304E+02  0.42335593133E+02  0.13631428710E+03  0.80804501418E+02 0.  0.
        -11    1    5    5    0    0 -0.77288512552E+01  0.86921118799E+01 -0.22408174348E+02  0.25247063755E+02  0.00000000000E+00 0.  1.
         12    1    5    5    0    0 -0.34197678055E+02  0.83514618424E+02  0.64743767481E+02  0.11106722335E+03  0.00000000000E+00 0. -1.
         13    1    3    3    0    0  0.41136621275E+02  0.39341746887E+02 -0.16506420186E+04  0.16516231617E+04  0.00000000000E+00 0. -1.
        -14    1    3    3    0    0  0.22737588194E+02 -0.44700153200E+00 -0.10693233496E+03  0.10932393145E+03  0.00000000000E+00 0.  1.
          5    1    4    4  501    0 -0.38988568450E+02  0.24024585993E+01 -0.55346698273E+02  0.67872009597E+02  0.41800000000E+01 0. -1.
         -5    1    4    4    0  501  0.17040888292E+02 -0.13350393426E+03 -0.55253738923E+02  0.14554772551E+03  0.41800000000E+01 0. -1.
</event>
<event>
11    1  0.8299058E-009  0.1701930E+03  0.7561462E-02  0.1077864E+00
         22   -1    0    0    0    0  0.00000000000E+00  0.00000000000E+00  0.31304949618E+02  0.31304949618E+02  0.00000000000E+00 0.  1.
         22   -1    0    0    0    0 -0.00000000000E+00 -0.00000000000E+00 -0.18167314319E+04  0.18167314319E+04  0.00000000000E+00 0.  1.
        -24    2    1    2    0    0 -0.11201435241E+03 -0.20494401865E+02 -0.10534034889E+04  0.10641919347E+04  0.99389777355E+02 0.  0.
         25    2    1    2    0    0  0.11422842086E+03  0.33911917940E+02 -0.63085960863E+03  0.65408720516E+03  0.12509226930E+03 0.  0.
         24    2    1    2    0    0 -0.22140684501E+01 -0.13417516075E+02 -0.10116338478E+03  0.12975724166E+03  0.80112293117E+02 0.  0.
        -13    1    5    5    0    0  0.28469866169E+02 -0.33610923012E+02 -0.48112062800E+02  0.65230345793E+02  0.00000000000E+00 0.  1.
         14    1    5    5    0    0 -0.30683934619E+02  0.20193406937E+02 -0.53051321976E+02  0.64526895872E+02  0.00000000000E+00 0. -1.
         13    1    3    3    0    0 -0.78102486271E+02  0.34671145822E+02 -0.53968580781E+03  0.54640905727E+03  0.00000000000E+00 0. -1.
        -14    1    3    3    0    0 -0.33911866136E+02 -0.55165547687E+02 -0.51371768105E+03  0.51778287741E+03  0.00000000000E+00 0.  1.
          5    1    4    4  501    0 -0.80665707482E+01 -0.27832492177E+02 -0.56915876908E+02  0.64004739110E+02  0.41800000000E+01 0. -1.
         -5    1    4    4    0  501  0.12229499160E+03  0.61744410117E+02 -0.57394373172E+03  0.59008246605E+03  0.41800000000E+01 0. -1.
</event>
<event>
11    1  0.8299058E-009  0.2010111E+03  0.7561462E-02  0.1053811E+00
         22   -1    0    0    0    0  0.00000000000E+00  0.00000000000E+00  0.20285294390E+04  0.20285294390E+04  0.00000000000E+00 0.  1.
         22   -1    0    0    0    0 -0.00000000000E+00 -0.00000000000E+00 -0.83835933459E+03  0.83835933459E+03  0.00000000000E+00 0. -1.
        -24    2    1    2    0    0 -0.15487542316E+03 -0.19946192337E+02 -0.77347734441E+03  0.79379434224E+03  0.86359760130E+02 0.  0.
         25    2    1    2    0    0  0.20642622047E+03 -0.88903800894E+02  0.26726732160E+03  0.37093961980E+03  0.12509480418E+03 0.  0.
         24    2    1    2    0    0 -0.51550797306E+02  0.10884999323E+03  0.16963801272E+04  0.17021548116E+04  0.71551804037E+02 0.  0.
        -11    1    5    5    0    0 -0.29901897413E+02  0.11358122788E+03  0.14747468105E+04  0.14794164302E+04  0.00000000000E+00 0.  1.
         12    1    5    5    0    0 -0.21648899894E+02 -0.47312346534E+01  0.22163331673E+03  0.22273838136E+03  0.00000000000E+00 0. -1.
         11    1    3    3    0    0 -0.65344272681E+02 -0.25753524712E+02 -0.52376726933E+03  0.52845555199E+03  0.00000000000E+00 0. -1.
        -12    1    3    3    0    0 -0.89531150479E+02  0.58073323757E+01 -0.24971007508E+03  0.26533879026E+03  0.00000000000E+00 0.  1.
          5    1    4    4  501    0  0.27382752885E+02  0.29822128174E+02  0.59166588361E+02  0.71814567204E+02  0.41800000000E+01 0. -1.
         -5    1    4    4    0  501  0.17904346758E+03 -0.11872592907E+03  0.20810073323E+03  0.29912505259E+03  0.41800000000E+01 0. -1.
</event>
<event>
11    1  0.8299058E-009  0.1459641E+03  0.7561462E-02  0.1101076E+00
         22   -1    0    0    0    0  0.00000000000E+00  0.00000000000E+00  0.25264375621E+03  0.25264375621E+03  0.00000000000E+00 0.  1.
         22   -1    0    0    0    0 -0.00000000000E+00 -0.00000000000E+00 -0.34966366211E+03  0.34966366211E+03  0.00000000000E+00 0.  1.
        -24    2    1    2    0    0  0.28237418119E+02  0.67213711568E+02 -0.22458567990E+03  0.24872019073E+03  0.78153508259E+02 0.  0.
         25    2    1    2    0    0 -0.83430954631E+02 -0.56631150784E+02 -0.34525732298E+02  0.16433820377E+03  0.12508879886E+03 0.  0.
         24    2    1    2    0    0  0.55193536512E+02 -0.10582560783E+02  0.16209150629E+03  0.18924902382E+03  0.79895053284E+02 0.  0.
        -13    1    5    5    0    0  0.18405221841E+02 -0.17715819737E+02  0.14641789245E+03  0.14862974699E+03  0.00000000000E+00 0.  1.
         14    1    5    5    0    0  0.36788314671E+02  0.71332589532E+01  0.15673613844E+02  0.40619276835E+02  0.00000000000E+00 0. -1.
         13    1    3    3    0    0 -0.20330951433E+02  0.42400924166E+02 -0.14342394763E+03  0.15093579665E+03  0.00000000000E+00 0. -1.
        -14    1    3    3    0    0  0.48568369552E+02  0.24812787401E+02 -0.81161732270E+02  0.97784394076E+02  0.00000000000E+00 0.  1.
          5    1    4    4  501    0 -0.10603214959E+03 -0.75966245326E+01 -0.25999197885E+02  0.10951692171E+03  0.41800000000E+01 0.  1.
         -5    1    4    4    0  501  0.22601194954E+02 -0.49034526252E+02 -0.85265344128E+01  0.54821282064E+02  0.41800000000E+01 0.  1.
</event>
<event>
11    1  0.8299058E-009  0.1280954E+03  0.7561462E-02  0.1121631E+00
         22   -1    0    0    0    0  0.00000000000E+00  0.00000000000E+00  0.75177347841E+03  0.75177347841E+03  0.00000000000E+00 0.  1.
         22   -1    0    0    0    0 -0.00000000000E+00 -0.00000000000E+00 -0.29931172574E+04  0.29931172574E+04  0.00000000000E+00 0.  1.
         24    2    1    2    0    0  0.26690482686E+02  0.70922332895E+01 -0.29696225380E+04  0.29708947353E+04  0.82430750412E+02 0.  0.
         25    2    1    2    0    0 -0.21374223904E+02  0.12459716057E+02  0.18695319882E+03  0.22629865388E+03  0.12508988860E+03 0.  0.
        -24    2    1    2    0    0 -0.53162587825E+01 -0.19551949346E+02  0.54132556022E+03  0.54769734657E+03  0.80799009621E+02 0.  0.
        -11    1    3    3    0    0  0.14071572849E+02  0.44111013887E+02 -0.18813057059E+04  0.18818753811E+04  0.00000000000E+00 0.  1.
         12    1    3    3    0    0  0.12618909838E+02 -0.37018780598E+02 -0.10883168321E+04  0.10890193542E+04  0.00000000000E+00 0. -1.
         11    1    5    5    0    0  0.36109662680E+02  0.83590937154E+00  0.19618719020E+03  0.19948438556E+03  0.00000000000E+00 0. -1.
        -12    1    5    5    0    0 -0.41425921462E+02 -0.20387858718E+02  0.34513837003E+03  0.34821296101E+03  0.00000000000E+00 0.  1.
          5    1    4    4  501    0 -0.37664828731E+02  0.54521160235E+02  0.53197062351E+02  0.85079939348E+02  0.41800000000E+01 0. -1.
         -5    1    4    4    0  501  0.16290604827E+02 -0.42061444178E+02  0.13375613647E+03  0.14121871453E+03  0.41800000000E+01 0. -1.
</event>
<event>
11    1  0.9893473E-009  0.1824800E+03  0.7561462E-02  0.1067654E+00
         22   -1    0    0    0    0  0.00000000000E+00  0.00000000000E+00  0.30370111757E+04  0.30370111757E+04  0.00000000000E+00 0.  1.
         22   -1    0    0    0    0 -0.00000000000E+00 -0.00000000000E+00 -0.18328396962E+03  0.18328396962E+03  0.00000000000E+00 0.  1.
         24    2    1    2    0    0  0.71527504271E+02  0.38019926333E+02 -0.55611589088E+02  0.12832743481E+03  0.82544430568E+02 0.  0.
         25    2    1    2    0    0 -0.18962067486E+03  0.20448127113E+02  0.56509216654E+02  0.23497855835E+03  0.12508998794E+03 0.  0.
        -24    2    1    2    0    0  0.11809317059E+03 -0.58468053446E+02  0.28528295785E+04  0.28569891522E+04  0.79911834306E+02 0.  0.
        -11    1    3    3    0    0  0.79080386141E+02  0.17535733038E+02 -0.65681671809E+02  0.10428466530E+03  0.00000000000E+00 0.  1.
         12    1    3    3    0    0 -0.75528818705E+01  0.20484193295E+02  0.10070082721E+02  0.24042769505E+02  0.00000000000E+00 0. -1.
         11    1    5    5    0    0  0.70352796897E+02  0.43247833737E+01  0.99985636607E+03  0.10023377537E+04  0.00000000000E+00 0. -1.
        -12    1    5    5    0    0  0.47740373691E+02 -0.62792836820E+02  0.18529732125E+04  0.18546513984E+04  0.00000000000E+00 0.  1.
          5    1    4    4  501    0 -0.68999116728E+02  0.27949178971E+02  0.82593154309E+02  0.11127055430E+03  0.41800000000E+01 0.  1.
         -5    1    4    4    0  501 -0.12062155813E+03 -0.75010518580E+01 -0.26083937655E+02  0.12370800406E+03  0.41800000000E+01 0.  1.
</event>
<event>
11    1  0.8299058E-009  0.1522804E+03  0.7561462E-02  0.1094571E+00
         22   -1    0    0    0    0  0.00000000000E+00  0.00000000000E+00  0.32469380602E+03  0.32469380602E+03  0.00000000000E+00 0. -1.
         22   -1    0    0    0    0 -0.00000000000E+00 -0.00000000000E+00 -0.40127187083E+03  0.40127187083E+03  0.00000000000E+00 0.  1.
        -24    2    1    2    0    0  0.68380208023E+02 -0.68964720102E+02 -0.27000950899E+03  0.29770714943E+03  0.79324815863E+02 0.  0.
         25    2    1    2    0    0 -0.40537732277E+02  0.37550744675E+02 -0.67013645244E+02  0.15228752399E+03  0.12508914881E+03 0.  0.
         24    2    1    2    0    0 -0.27842475746E+02  0.31413975427E+02  0.26044508942E+03  0.27597100343E+03  0.81032763868E+02 0.  0.
        -13    1    5    5    0    0  0.28650079716E+01 -0.19988626671E+02  0.20921492362E+02  0.29076834586E+02  0.00000000000E+00 0.  1.
         14    1    5    5    0    0 -0.30707483717E+02  0.51402602098E+02  0.23952359706E+03  0.24689416884E+03  0.00000000000E+00 0. -1.
         11    1    3    3    0    0 -0.12304259830E+02 -0.22670027014E+02 -0.26253337225E+02  0.36804383574E+02  0.00000000000E+00 0. -1.
        -12    1    3    3    0    0  0.80684467853E+02 -0.46294693088E+02 -0.24375617176E+03  0.26090276586E+03  0.00000000000E+00 0.  1.
          5    1    4    4  501    0 -0.60075515968E+02  0.57468149236E+02 -0.41048943882E+01  0.83342536279E+02  0.41800000000E+01 0.  1.
         -5    1    4    4    0  501  0.19537783691E+02 -0.19917404561E+02 -0.62908750856E+02  0.68944987710E+02  0.41800000000E+01 0.  1.
</event>
<event>
11    1  0.8299058E-009  0.1287898E+03  0.7561462E-02  0.1120765E+00
         22   -1    0    0    0    0  0.00000000000E+00  0.00000000000E+00  0.27563667647E+03  0.27563667647E+03  0.00000000000E+00 0. -1.
         22   -1    0    0    0    0 -0.00000000000E+00 -0.00000000000E+00 -0.28678067168E+03  0.28678067168E+03  0.00000000000E+00 0.  1.
        -24    2    1    2    0    0 -0.19751985550E+02 -0.17345134465E+02 -0.17728619757E+03  0.19677743553E+03  0.81240191169E+02 0.  0.
         25    2    1    2    0    0  0.97042436930E-01 -0.88554811208E+01 -0.48604227566E+02  0.13449422655E+03  0.12509155477E+03 0.  0.
         24    2    1    2    0    0  0.19654943113E+02  0.26200615586E+02  0.21474642992E+03  0.23114568608E+03  0.78990568951E+02 0.  0.
        -11    1    5    5    0    0  0.62610151325E+01  0.28755134535E+02  0.19230677729E+02  0.35155042860E+02  0.00000000000E+00 0.  1.
         12    1    5    5    0    0  0.13393927980E+02 -0.25545189491E+01  0.19551575220E+03  0.19599064322E+03  0.00000000000E+00 0. -1.
         13    1    3    3    0    0 -0.18038336063E+02 -0.23099125705E+02 -0.12467596794E+02  0.31849523483E+02  0.00000000000E+00 0. -1.
        -14    1    3    3    0    0 -0.17136494867E+01  0.57539912402E+01 -0.16481860077E+03  0.16492791204E+03  0.00000000000E+00 0.  1.
          5    1    4    4  501    0 -0.48476031340E+02 -0.17948497319E+02  0.14863025233E+02  0.53948643074E+02  0.41800000000E+01 0. -1.
         -5    1    4    4    0  501  0.48573073776E+02  0.90930161985E+01 -0.63467252799E+02  0.80545583476E+02  0.41800000000E+01 0. -1.
</event>
<event>
11    1  0.8299058E-009  0.1361683E+03  0.7561462E-02  0.1111914E+00
         22   -1    0    0    0    0  0.00000000000E+00  0.00000000000E+00  0.81043205942E+03  0.81043205942E+03  0.00000000000E+00 0. -1.
         22   -1    0    0    0    0 -0.00000000000E+00 -0.00000000000E+00 -0.66395033609E+03  0.66395033609E+03  0.00000000000E+00 0. -1.
         24    2    1    2    0    0  0.39957105884E+02 -0.36071881086E+02 -0.63580891211E+03  0.64332260528E+03  0.81934430090E+02 0.  0.
         25    2    1    2    0    0 -0.12834438700E+02  0.62183434623E+02  0.21450737961E+03  0.25630661086E+03  0.12509260773E+03 0.  0.
        -24    2    1    2    0    0 -0.27122667183E+02 -0.26111553537E+02  0.56778325583E+03  0.57475317936E+03  0.80906979231E+02 0.  0.
        -11    1    3    3    0    0 -0.15340030954E+02 -0.25435065560E+02 -0.93658593098E+02  0.98255743704E+02  0.00000000000E+00 0.  1.
         12    1    3    3    0    0  0.55297136838E+02 -0.10636815526E+02 -0.54215031901E+03  0.54506686158E+03  0.00000000000E+00 0. -1.
         11    1    5    5    0    0 -0.24538855341E+02  0.14983218249E+02  0.42971459407E+03  0.43067538194E+03  0.00000000000E+00 0. -1.
        -12    1    5    5    0    0 -0.25838118426E+01 -0.41094771786E+02  0.13806866175E+03  0.14407779742E+03  0.00000000000E+00 0.  1.
          5    1    4    4  501    0  0.80085480986E+01  0.89433769763E+02  0.19913090115E+03  0.21847911618E+03  0.41800000000E+01 0.  1.
         -5    1    4    4    0  501 -0.20842986799E+02 -0.27250335140E+02  0.15376478461E+02  0.37827494681E+02  0.41800000000E+01 0.  1.
</event>
<event>
11    1  0.1311289E-008  0.1699892E+03  0.7561462E-02  0.1078041E+00
         22   -1    0    0    0    0  0.00000000000E+00  0.00000000000E+00  0.57164872129E+03  0.57164872129E+03  0.00000000000E+00 0.  1.
         22   -1    0    0    0    0 -0.00000000000E+00 -0.00000000000E+00 -0.93898642448E+03  0.93898642448E+03  0.00000000000E+00 0. -1.
        -24    2    1    2    0    0  0.15070641503E+01 -0.73083416880E+00 -0.61168983215E+03  0.61717493118E+03  0.82083125928E+02 0.  0.
         25    2    1    2    0    0 -0.65480820315E+01 -0.11427611937E+03 -0.29260881999E+03  0.33818700843E+03  0.12509445350E+03 0.  0.
         24    2    1    2    0    0  0.50410178812E+01  0.11500695354E+03  0.53696094894E+03  0.55527320617E+03  0.82153889627E+02 0.  0.
        -13    1    5    5    0    0 -0.10183528999E+02  0.90226877958E+02  0.50032157570E+03  0.50849412276E+03  0.00000000000E+00 0.  1.
         14    1    5    5    0    0  0.15224546881E+02  0.24780075579E+02  0.36639373240E+02  0.46779083412E+02  0.00000000000E+00 0. -1.
         13    1    3    3    0    0 -0.83920339708E+01  0.31534775760E+02 -0.48404199974E+03  0.48514072786E+03  0.00000000000E+00 0. -1.
        -14    1    3    3    0    0  0.98990981212E+01 -0.32265609929E+02 -0.12764783241E+03  0.13203420332E+03  0.00000000000E+00 0.  1.
          5    1    4    4  501    0  0.18757854405E+02 -0.42681905655E+02 -0.13230459197E+02  0.48642775648E+02  0.41800000000E+01 0. -1.
         -5    1    4    4    0  501 -0.25305936436E+02 -0.71594213713E+02 -0.27937836079E+03  0.28954423278E+03  0.41800000000E+01 0. -1.
</event>
<event>
11    1  0.8299058E-009  0.2632593E+03  0.7561462E-02  0.1017064E+00
         22   -1    0    0    0    0  0.00000000000E+00  0.00000000000E+00  0.21839766784E+04  0.21839766784E+04  0.00000000000E+00 0. -1.
         22   -1    0    0    0    0 -0.00000000000E+00 -0.00000000000E+00 -0.19250566016E+03  0.19250566016E+03  0.00000000000E+00 0.  1.
        -24    2    1    2    0    0  0.20986336809E+03  0.70354960234E+02 -0.10330774612E+02  0.24012847885E+03  0.92533819520E+02 0.  0.
         25    2    1    2    0    0 -0.26933529368E+03 -0.10850144901E+02  0.27255241118E+03  0.40322656531E+03  0.12509044753E+03 0.  0.
         24    2    1    2    0    0  0.59471925597E+02 -0.59504815333E+02  0.17292493817E+04  0.17331272944E+04  0.79680999104E+02 0.  0.
        -11    1    5    5    0    0  0.46934660988E+02 -0.81810757974E+01  0.39982009682E+03  0.40264860887E+03  0.00000000000E+00 0.  1.
         12    1    5    5    0    0  0.12537264609E+02 -0.51323739536E+02  0.13294292849E+04  0.13304786856E+04  0.00000000000E+00 0. -1.
         11    1    3    3    0    0  0.38533995187E+02  0.25942548202E+02  0.34123084235E+02  0.57639131412E+02  0.00000000000E+00 0. -1.
        -12    1    3    3    0    0  0.17132937290E+03  0.44412412032E+02 -0.44453858847E+02  0.18248934743E+03  0.00000000000E+00 0.  1.
          5    1    4    4  501    0 -0.27364092518E+03 -0.29481632213E+02  0.26546099524E+03  0.38240755087E+03  0.41800000000E+01 0. -1.
         -5    1    4    4    0  501  0.43056314944E+01  0.18631487312E+02  0.70914159383E+01  0.20819014435E+02  0.41800000000E+01 0. -1.
</event>
<event>
11    1  0.8299058E-009  0.1317514E+03  0.7561462E-02  0.1117136E+00
         22   -1    0    0    0    0  0.00000000000E+00  0.00000000000E+00  0.12480783870E+03  0.12480783870E+03  0.00000000000E+00 0.  1.
         22   -1    0    0    0    0 -0.00000000000E+00 -0.00000000000E+00 -0.15786996807E+04  0.15786996807E+04  0.00000000000E+00 0. -1.
        -24    2    1    2    0    0 -0.37637476090E+02 -0.45795535074E+01 -0.12328178256E+04  0.12361789613E+04  0.82831644311E+02 0.  0.
         25    2    1    2    0    0  0.74331329542E+02  0.80956356378E+01 -0.30871491956E+03  0.34138539052E+03  0.12509355473E+03 0.  0.
         24    2    1    2    0    0 -0.36693853453E+02 -0.35160821303E+01  0.87640903200E+02  0.12594316755E+03  0.82595107745E+02 0.  0.
        -13    1    5    5    0    0 -0.44335427088E+02 -0.63274254387E+01  0.10089501696E+03  0.11038782023E+03  0.00000000000E+00 0.  1.
         14    1    5    5    0    0  0.76415736355E+01  0.28113433083E+01 -0.13254113756E+02  0.15555347321E+02  0.00000000000E+00 0. -1.
         11    1    3    3    0    0 -0.34208729490E+02  0.34473582076E+02 -0.51279955791E+03  0.51509421627E+03  0.00000000000E+00 0. -1.
        -12    1    3    3    0    0 -0.34287465998E+01 -0.39053135584E+02 -0.72001826773E+03  0.72108474506E+03  0.00000000000E+00 0.  1.
          5    1    4    4  501    0 -0.86258607734E+01  0.50028541766E+02 -0.13554815048E+03  0.14480343216E+03  0.41800000000E+01 0. -1.
         -5    1    4    4    0  501  0.82957190316E+02 -0.41932906128E+02 -0.17316676908E+03  0.19658195836E+03  0.41800000000E+01 0. -1.
</event>
<event>
11    1  0.8299058E-009  0.1468653E+03  0.7561462E-02  0.1100125E+00
         22   -1    0    0    0    0  0.00000000000E+00  0.00000000000E+00  0.11848567044E+02  0.11848567044E+02  0.00000000000E+00 0.  1.
         22   -1    0    0    0    0 -0.00000000000E+00 -0.00000000000E+00 -0.26532476563E+04  0.26532476563E+04  0.00000000000E+00 0. -1.
        -24    2    1    2    0    0  0.15746968944E+02  0.75054518035E+02 -0.95317634346E+03  0.95944767197E+03  0.78189166715E+02 0.  0.
         25    2    1    2    0    0 -0.51146723616E+02 -0.64724674648E+02 -0.11690700422E+04  0.11786337819E+04  0.12509019712E+03 0.  0.
         24    2    1    2    0    0  0.35399754672E+02 -0.10329843388E+02 -0.51915270363E+03  0.52701476952E+03  0.82856437957E+02 0.  0.
        -11    1    5    5    0    0  0.35289444189E+02 -0.16996623615E+02 -0.94320494095E+02  0.10213023887E+03  0.00000000000E+00 0.  1.
         12    1    5    5    0    0  0.11031048348E+00  0.66667802276E+01 -0.42483220953E+03  0.42488453065E+03  0.00000000000E+00 0. -1.
         13    1    3    3    0    0 -0.35467412081E+01 -0.16020227285E+02 -0.13703338631E+03  0.13801223141E+03  0.00000000000E+00 0. -1.
        -14    1    3    3    0    0  0.19293710152E+02  0.91074745320E+02 -0.81614295715E+03  0.82143544055E+03  0.00000000000E+00 0.  1.
          5    1    4    4  501    0  0.20519051923E+02 -0.36418469176E+02 -0.82270443217E+03  0.82377629943E+03  0.41800000000E+01 0. -1.
         -5    1    4    4    0  501 -0.71665775540E+02 -0.28306205471E+02 -0.34636561001E+03  0.35485748245E+03  0.41800000000E+01 0. -1.
</event>
<event>
11    1  0.8299058E-009  0.1390447E+03  0.7561462E-02  0.1108630E+00
         22   -1    0    0    0    0  0.00000000000E+00  0.00000000000E+00  0.92074793598E+03  0.92074793598E+03  0.00000000000E+00 0. -1.
         22   -1    0    0    0    0 -0.00000000000E+00 -0.00000000000E+00 -0.15670065360E+03  0.15670065360E+03  0.00000000000E+00 0.  1.
        -24    2    1    2    0    0  0.18753364967E+02  0.42563055734E+02 -0.10704251344E+03  0.14199024605E+03  0.80869202287E+02 0.  0.
         25    2    1    2    0    0  0.42320711042E+02 -0.22262727559E+02  0.13003505043E+03  0.18665359761E+03  0.12507509559E+03 0.  0.
         24    2    1    2    0    0 -0.61074076009E+02 -0.20300328175E+02  0.74105474538E+03  0.74880474593E+03  0.86048043466E+02 0.  0.
        -13    1    5    5    0    0 -0.42963882641E+02  0.66015061819E+01  0.13378022882E+03  0.14066493777E+03  0.00000000000E+00 0.  1.
         14    1    5    5    0    0 -0.18110193369E+02 -0.26901834357E+02  0.60727451657E+03  0.60813980816E+03  0.00000000000E+00 0. -1.
         13    1    3    3    0    0 -0.28990231011E+02  0.19450598098E+02 -0.20498054020E+02  0.40483693989E+02  0.00000000000E+00 0. -1.
        -14    1    3    3    0    0  0.47743595978E+02  0.23112457637E+02 -0.86544459416E+02  0.10150655206E+03  0.00000000000E+00 0.  1.
          5    1    4    4  501    0  0.75264293397E+02 -0.85390759628E+01  0.13023748113E+03  0.15072127776E+03  0.41800000000E+01 0.  1.
         -5    1    4    4    0  501 -0.32943582354E+02 -0.13723651596E+02 -0.20243069687E+00  0.35932319848E+02  0.41800000000E+01 0.  1.
</event>
<event>
11    1  0.8299058E-009  0.2201970E+03  0.7561462E-02  0.1041094E+00
         22   -1    0    0    0    0  0.00000000000E+00  0.00000000000E+00  0.12813641587E+04  0.12813641587E+04  0.00000000000E+00 0.  1.
         22   -1    0    0    0    0 -0.00000000000E+00 -0.00000000000E+00 -0.13684284061E+03  0.13684284061E+03  0.00000000000E+00 0. -1.
        -24    2    1    2    0    0 -0.47781997723E+01 -0.90836450815E+02 -0.62098771684E+02  0.13583632634E+03  0.79505711228E+02 0.  0.
         25    2    1    2    0    0 -0.12338778506E+03  0.18493668619E+03  0.68690196357E+03  0.73274055882E+03  0.12509314764E+03 0.  0.
         24    2    1    2    0    0  0.12816598483E+03 -0.94100235371E+02  0.51971812625E+03  0.54963011420E+03  0.81883806174E+02 0.  0.
        -11    1    5    5    0    0  0.12789355277E+03 -0.95894609528E+02  0.41239961974E+03  0.44229626196E+03  0.00000000000E+00 0.  1.
         12    1    5    5    0    0  0.27243206518E+00  0.17943741561E+01  0.10731850651E+03  0.10733385224E+03  0.00000000000E+00 0. -1.
         11    1    3    3    0    0  0.30880428840E+02 -0.68115666262E+02 -0.22994873665E+02  0.78243907689E+02  0.00000000000E+00 0. -1.
        -12    1    3    3    0    0 -0.35658628612E+02 -0.22720784553E+02 -0.39103898019E+02  0.57592418646E+02  0.00000000000E+00 0.  1.
          5    1    4    4  501    0  0.15894791544E+02  0.22099900245E+02  0.25693524041E+02  0.37665362957E+02  0.41800000000E+01 0.  1.
         -5    1    4    4    0  501 -0.13928257661E+03  0.16283678594E+03  0.66120843953E+03  0.69507519586E+03  0.41800000000E+01 0.  1.
</event>
<event>
11    1  0.8299058E-009  0.1994397E+03  0.7561462E-02  0.1054921E+00
         22   -1    0    0    0    0  0.00000000000E+00  0.00000000000E+00  0.62124580292E+03  0.62124580292E+03  0.00000000000E+00 0. -1.
         22   -1    0    0    0    0 -0.00000000000E+00 -0.00000000000E+00 -0.25321270869E+04  0.25321270869E+04  0.00000000000E+00 0. -1.
         24    2    1    2    0    0 -0.12726275848E+03 -0.88641624007E+02 -0.24819895196E+04  0.24881628640E+04  0.81420605747E+02 0.  0.
         25    2    1    2    0    0  0.11541158725E+03  0.15731294914E+03  0.34623414600E+03  0.41664674287E+03  0.12509686667E+03 0.  0.
        -24    2    1    2    0    0  0.11851171236E+02 -0.68671325136E+02  0.22487408962E+03  0.24856328298E+03  0.79744268176E+02 0.  0.
        -11    1    3    3    0    0 -0.28007138310E+01  0.12336406582E+02 -0.31528280647E+03  0.31553649390E+03  0.00000000000E+00 0.  1.
         12    1    3    3    0    0 -0.12446204465E+03 -0.10097803059E+03 -0.21667067131E+04  0.21726263701E+04  0.00000000000E+00 0. -1.
         13    1    5    5    0    0  0.44274157510E+02 -0.54746951801E+02  0.15698126536E+03  0.17204809627E+03  0.00000000000E+00 0. -1.
        -14    1    5    5    0    0 -0.32422986273E+02 -0.13924373336E+02  0.67892824261E+02  0.76515186714E+02  0.00000000000E+00 0.  1.
          5    1    4    4  501    0  0.89734312772E+02  0.44711629874E+02  0.86955785956E+02  0.13277860462E+03  0.41800000000E+01 0.  1.
         -5    1    4    4    0  501  0.25677274474E+02  0.11260131927E+03  0.25927836004E+03  0.28386813825E+03  0.41800000000E+01 0.  1.
</event>
<event>
11    1  0.8892804E-009  0.1825379E+03  0.7561462E-02  0.1067608E+00
         22   -1    0    0    0    0  0.00000000000E+00  0.00000000000E+00  0.28590909909E+03  0.28590909909E+03  0.00000000000E+00 0. -1.
         22   -1    0    0    0    0 -0.00000000000E+00 -0.00000000000E+00 -0.11528243993E+04  0.11528243993E+04  0.00000000000E+00 0. -1.
        -24    2    1    2    0    0 -0.51870032968E+02 -0.73190092938E+01 -0.76075582050E+03  0.76619613832E+03  0.74585760925E+02 0.  0.
         25    2    1    2    0    0 -0.84185247248E+02  0.73338795253E+01 -0.35038743589E+03  0.38152258325E+03  0.12508870715E+03 0.  0.
         24    2    1    2    0    0  0.13605528022E+03 -0.14870231566E-01  0.24422795617E+03  0.29101477683E+03  0.80816249997E+02 0.  0.
        -13    1    5    5    0    0  0.24136540367E+02  0.23762599589E+02  0.10760469372E+03  0.11280959104E+03  0.00000000000E+00 0.  1.
         14    1    5    5    0    0  0.11191873985E+03 -0.23777469820E+02  0.13662326245E+03  0.17820518579E+03  0.00000000000E+00 0. -1.
         11    1    3    3    0    0 -0.16440259593E+02 -0.27541437332E+02 -0.58033705340E+03  0.58122277008E+03  0.00000000000E+00 0. -1.
        -12    1    3    3    0    0 -0.35429773375E+02  0.20222428038E+02 -0.18041876710E+03  0.18497336824E+03  0.00000000000E+00 0.  1.
          5    1    4    4  501    0 -0.11403559023E+03  0.25437426274E+01 -0.22279920586E+03  0.25033486573E+03  0.41800000000E+01 0. -1.
         -5    1    4    4    0  501  0.29850342979E+02  0.47901368980E+01 -0.12758823003E+03  0.13118771753E+03  0.41800000000E+01 0. -1.
</event>
<event>
11    1  0.8299058E-009  0.2280885E+03  0.7561462E-02  0.1036266E+00
         22   -1    0    0    0    0  0.00000000000E+00  0.00000000000E+00  0.15037359155E+03  0.15037359155E+03  0.00000000000E+00 0. -1.
         22   -1    0    0    0    0 -0.00000000000E+00 -0.00000000000E+00 -0.53026775242E+03  0.53026775242E+03  0.00000000000E+00 0. -1.
         24    2    1    2    0    0  0.17952938780E+02  0.22536732634E+02 -0.13074906015E+03  0.15625819874E+03  0.80567335911E+02 0.  0.
         25    2    1    2    0    0  0.14935958671E+03  0.86292093129E+02 -0.21753513459E+03  0.30450537334E+03  0.12508947251E+03 0.  0.
        -24    2    1    2    0    0 -0.16731252549E+03 -0.10882882576E+03 -0.31609966127E+02  0.21987777188E+03  0.86659391321E+02 0.  0.
        -13    1    3    3    0    0  0.31511819199E+02  0.45137574547E+02 -0.63560982550E+02  0.84085634254E+02  0.00000000000E+00 0.  1.
         14    1    3    3    0    0 -0.13558880420E+02 -0.22600841912E+02 -0.67188077599E+02  0.72172564489E+02  0.00000000000E+00 0. -1.
         11    1    5    5    0    0 -0.34481348049E+02 -0.61947633918E+02 -0.34804768324E+02  0.78980026649E+02  0.00000000000E+00 0. -1.
        -12    1    5    5    0    0 -0.13283117744E+03 -0.46881191846E+02  0.31948021974E+01  0.14089774523E+03  0.00000000000E+00 0.  1.
          5    1    4    4  501    0  0.17165603882E+02 -0.29075960354E+02 -0.58438020976E+02  0.67620589488E+02  0.41800000000E+01 0. -1.
         -5    1    4    4    0  501  0.13219398283E+03  0.11536805348E+03 -0.15909711361E+03  0.23688478385E+03  0.41800000000E+01 0. -1.
</event>
<event>
11    1  0.8299058E-009  0.1665530E+03  0.7561462E-02  0.1081071E+00
         22   -1    0    0    0    0  0.00000000000E+00  0.00000000000E+00  0.10044994911E+04  0.10044994911E+04  0.00000000000E+00 0. -1.
         22   -1    0    0    0    0 -0.00000000000E+00 -0.00000000000E+00 -0.77774404654E+03  0.77774404654E+03  0.00000000000E+00 0. -1.
         24    2    1    2    0    0 -0.97248513362E+02 -0.49464153977E+02 -0.70365847824E+03  0.71655403692E+03  0.80065335482E+02 0.  0.
         25    2    1    2    0    0  0.88413026062E+02  0.10673520330E+03  0.69401979085E+02  0.19918320647E+03  0.12509215898E+03 0.  0.
        -24    2    1    2    0    0  0.88354872998E+01 -0.57271049321E+02  0.86101194373E+03  0.86650629427E+03  0.78316995848E+02 0.  0.
        -13    1    3    3    0    0 -0.47757503486E+02 -0.61947498940E+02 -0.31537848315E+03  0.32493362306E+03  0.00000000000E+00 0.  1.
         14    1    3    3    0    0 -0.49491009876E+02  0.12483344963E+02 -0.38827999509E+03  0.39162041385E+03  0.00000000000E+00 0. -1.
         11    1    5    5    0    0  0.38636298063E+02 -0.48818818961E+02  0.68183535426E+03  0.68467181258E+03  0.00000000000E+00 0. -1.
        -12    1    5    5    0    0 -0.29800810763E+02 -0.84522303604E+01  0.17917658946E+03  0.18183448169E+03  0.00000000000E+00 0.  1.
          5    1    4    4  501    0  0.85536881564E+02  0.50901115382E+02 -0.11998290998E+02  0.10034397362E+03  0.41800000000E+01 0. -1.
         -5    1    4    4    0  501  0.28761444980E+01  0.55834087917E+02  0.81400270082E+02  0.98839232849E+02  0.41800000000E+01 0. -1.
</event>
<event>
11    1  0.8299058E-009  0.1356004E+03  0.7561462E-02  0.1112573E+00
         22   -1    0    0    0    0  0.00000000000E+00  0.00000000000E+00  0.15704130565E+04  0.15704130565E+04  0.00000000000E+00 0. -1.
         22   -1    0    0    0    0 -0.00000000000E+00 -0.00000000000E+00 -0.16227520778E+03  0.16227520778E+03  0.00000000000E+00 0. -1.
         24    2    1    2    0    0  0.15429975622E+02 -0.14957047547E+02 -0.13978477927E+03  0.16319372083E+03  0.81428548958E+02 0.  0.
         25    2    1    2    0    0 -0.61050245896E+02  0.30261979708E+02  0.58847143839E+03  0.60547302076E+03  0.12512403896E+03 0.  0.
        -24    2    1    2    0    0  0.45620270274E+02 -0.15304932160E+02  0.95945118960E+03  0.96402152268E+03  0.80470248930E+02 0.  0.
        -13    1    3    3    0    0  0.25642127380E+02  0.13491696399E+02 -0.11134980336E+02  0.31040817569E+02  0.00000000000E+00 0.  1.
         14    1    3    3    0    0 -0.10212151759E+02 -0.28448743947E+02 -0.12864979893E+03  0.13215290326E+03  0.00000000000E+00 0. -1.
         13    1    5    5    0    0  0.62926703203E+02 -0.29428091329E+02  0.80047343732E+03  0.80348211330E+03  0.00000000000E+00 0. -1.
        -14    1    5    5    0    0 -0.17306432928E+02  0.14123159169E+02  0.15897775228E+03  0.16053940938E+03  0.00000000000E+00 0.  1.
          5    1    4    4  501    0  0.20103289602E+00  0.63966987900E+02  0.38462800779E+03  0.38993331831E+03  0.41800000000E+01 0. -1.
         -5    1    4    4    0  501 -0.61251278792E+02 -0.33705008192E+02  0.20384343061E+03  0.21553970245E+03  0.41800000000E+01 0. -1.
</event>
<event>
11    1  0.8299058E-009  0.1331619E+03  0.7561462E-02  0.1115444E+00
         22   -1    0    0    0    0  0.00000000000E+00  0.00000000000E+00  0.29594944499E+04  0.29594944499E+04  0.00000000000E+00 0.  1.
         22   -1    0    0    0    0 -0.00000000000E+00 -0.00000000000E+00 -0.13103700959E+03  0.13103700959E+03  0.00000000000E+00 0. -1.
        -24    2    1    2    0    0 -0.35412080829E+02  0.26832748050E+02 -0.69316110039E+02  0.13469780358E+03  0.10660564404E+03 0.  0.
         25    2    1    2    0    0  0.99511768008E+01 -0.67407301019E+02  0.15413769239E+03  0.20987878486E+03  0.12509159033E+03 0.  0.
         24    2    1    2    0    0  0.25460904028E+02  0.40574552969E+02  0.27436358579E+04  0.27459548710E+04  0.10215615846E+03 0.  0.
        -13    1    5    5    0    0  0.43376444889E+01  0.60215050985E+02  0.24819684548E+04  0.24827025754E+04  0.00000000000E+00 0.  1.
         14    1    5    5    0    0  0.21123259539E+02 -0.19640498016E+02  0.26166740317E+03  0.26325229560E+03  0.00000000000E+00 0. -1.
         13    1    3    3    0    0  0.16284816177E+02 -0.26231491060E+02 -0.48935992707E+02  0.57862057891E+02  0.00000000000E+00 0. -1.
        -14    1    3    3    0    0 -0.51696897007E+02  0.53064239110E+02 -0.20380117332E+02  0.76835745684E+02  0.00000000000E+00 0.  1.
          5    1    4    4  501    0  0.47073889272E+02  0.14398294308E+02  0.76526707013E+02  0.91088260585E+02  0.41800000000E+01 0.  1.
         -5    1    4    4    0  501 -0.37122712471E+02 -0.81805595327E+02  0.77610985373E+02  0.11879052428E+03  0.41800000000E+01 0.  1.
</event>
<event>
11    1  0.8299058E-009  0.1887791E+03  0.7561462E-02  0.1062755E+00
         22   -1    0    0    0    0  0.00000000000E+00  0.00000000000E+00  0.17895449530E+03  0.17895449530E+03  0.00000000000E+00 0. -1.
         22   -1    0    0    0    0 -0.00000000000E+00 -0.00000000000E+00 -0.21699226589E+04  0.21699226589E+04  0.00000000000E+00 0.  1.
         24    2    1    2    0    0  0.93064517943E+01 -0.34892356251E+02 -0.18407563530E+04  0.18428682741E+04  0.80470107962E+02 0.  0.
         25    2    1    2    0    0 -0.10007164299E+03  0.13725499489E+03 -0.24228206691E+03  0.32124968030E+03  0.12508992683E+03 0.  0.
        -24    2    1    2    0    0  0.90765191193E+02 -0.10236263864E+03  0.92070256254E+02  0.18475919979E+03  0.83322266518E+02 0.  0.
        -11    1    3    3    0    0  0.41638290654E+02 -0.44336213335E+01 -0.70382053377E+03  0.70506506650E+03  0.00000000000E+00 0.  1.
         12    1    3    3    0    0 -0.32331838860E+02 -0.30458734917E+02 -0.11369358192E+04  0.11378032076E+04  0.00000000000E+00 0. -1.
         11    1    5    5    0    0  0.99473210749E+02 -0.63416582609E+02  0.54500994386E+02  0.12994976335E+03  0.00000000000E+00 0. -1.
        -12    1    5    5    0    0 -0.87080195560E+01 -0.38946056028E+02  0.37569261868E+02  0.54809436432E+02  0.00000000000E+00 0.  1.
          5    1    4    4  501    0 -0.70665500906E+02  0.57694047025E+02 -0.35984384245E+02  0.98155816893E+02  0.41800000000E+01 0. -1.
         -5    1    4    4    0  501 -0.29406142081E+02  0.79560947863E+02 -0.20629768266E+03  0.22309386341E+03  0.41800000000E+01 0. -1.
</event>
<event>
11    1  0.8299058E-009  0.2018354E+03  0.7561462E-02  0.1053233E+00
         22   -1    0    0    0    0  0.00000000000E+00  0.00000000000E+00  0.12529913370E+04  0.12529913370E+04  0.00000000000E+00 0. -1.
         22   -1    0    0    0    0 -0.00000000000E+00 -0.00000000000E+00 -0.19752053452E+03  0.19752053452E+03  0.00000000000E+00 0. -1.
        -24    2    1    2    0    0  0.14515639315E+03  0.76795892737E+01 -0.73056973498E+02  0.18147779804E+03  0.80420863205E+02 0.  0.
         25    2    1    2    0    0 -0.21177362258E+03 -0.38130871171E+02  0.16354771446E+03  0.29781666056E+03  0.12507948609E+03 0.  0.
         24    2    1    2    0    0  0.66617229431E+02  0.30451281898E+02  0.96498006150E+03  0.97121741291E+03  0.81924405560E+02 0.  0.
        -13    1    5    5    0    0 -0.10534198833E+02  0.30796980217E+02  0.31331202302E+03  0.31499817000E+03  0.00000000000E+00 0.  1.
         14    1    5    5    0    0  0.77151428264E+02 -0.34569831949E+00  0.65166803848E+03  0.65621924291E+03  0.00000000000E+00 0. -1.
         13    1    3    3    0    0  0.15409272954E+03  0.14576562071E+02 -0.66903777535E+02  0.16862135365E+03  0.00000000000E+00 0. -1.
        -14    1    3    3    0    0 -0.89363363835E+01 -0.68969727972E+01 -0.61531959630E+01  0.12856444387E+02  0.00000000000E+00 0.  1.
          5    1    4    4  501    0 -0.19554892370E+03 -0.49656245269E+02  0.89014134430E+02  0.22055863797E+03  0.41800000000E+01 0. -1.
         -5    1    4    4    0  501 -0.16224698886E+02  0.11525374098E+02  0.74533580034E+02  0.77258022592E+02  0.41800000000E+01 0. -1.
</event>
<event>
11    1  0.8299058E-009  0.1413775E+03  0.7561462E-02  0.1106030E+00
         22   -1    0    0    0    0  0.00000000000E+00  0.00000000000E+00  0.18101694413E+04  0.18101694413E+04  0.00000000000E+00 0.  1.
         22   -1    0    0    0    0 -0.00000000000E+00 -0.00000000000E+00 -0.14347338122E+03  0.14347338122E+03  0.00000000000E+00 0.  1.
        -24    2    1    2    0    0  0.11785506427E+02  0.46158043133E+02 -0.85099567736E+02  0.12575434003E+03  0.79389889154E+02 0.  0.
         25    2    1    2    0    0  0.37641385212E+02 -0.88180732820E+02  0.13459989475E+03  0.20727264097E+03  0.12510835506E+03 0.  0.
         24    2    1    2    0    0 -0.49426891639E+02  0.42022689687E+02  0.16171957331E+04  0.16206158415E+04  0.82853742815E+02 0.  0.
        -13    1    5    5    0    0 -0.48358080872E+02  0.25631816816E+02  0.45160933073E+03  0.45491370788E+03  0.00000000000E+00 0.  1.
         14    1    5    5    0    0 -0.10688107675E+01  0.16390872871E+02  0.11655864023E+04  0.11657021336E+04  0.00000000000E+00 0. -1.
         13    1    3    3    0    0  0.38456274410E+02  0.42935693741E+02 -0.31227607330E+02  0.65555490220E+02  0.00000000000E+00 0. -1.
        -14    1    3    3    0    0 -0.26670767983E+02  0.32223493923E+01 -0.53871960406E+02  0.60198849810E+02  0.00000000000E+00 0.  1.
          5    1    4    4  501    0  0.71612598739E+02 -0.47580035609E+02  0.32167647873E+02  0.91893710646E+02  0.41800000000E+01 0. -1.
         -5    1    4    4    0  501 -0.33971213527E+02 -0.40600697211E+02  0.10243224687E+03  0.11537893032E+03  0.41800000000E+01 0. -1.
</event>
<event>
11    1  0.8299058E-009  0.1545270E+03  0.7561462E-02  0.1092341E+00
         22   -1    0    0    0    0  0.00000000000E+00  0.00000000000E+00  0.51829122597E+03  0.51829122597E+03  0.00000000000E+00 0.  1.
         22   -1    0    0    0    0 -0.00000000000E+00 -0.00000000000E+00 -0.24269536830E+04  0.24269536830E+04  0.00000000000E+00 0.  1.
        -24    2    1    2    0    0  0.89587655578E+01 -0.84050876819E+02 -0.23444181392E+04  0.23471877659E+04  0.76479981269E+02 0.  0.
         25    2    1    2    0    0  0.75755509367E+02  0.10993486106E+03  0.43449778400E+02  0.18801494395E+03  0.12504865066E+03 0.  0.
         24    2    1    2    0    0 -0.84714274925E+02 -0.25883984237E+02  0.39230590376E+03  0.41004219914E+03  0.79901151068E+02 0.  0.
        -13    1    5    5    0    0 -0.87847815578E+02 -0.45370542796E+02  0.30913382324E+03  0.32456038810E+03  0.00000000000E+00 0.  1.
         14    1    5    5    0    0  0.31335406527E+01  0.19486558559E+02  0.83172080516E+02  0.85481811041E+02  0.00000000000E+00 0. -1.
         11    1    3    3    0    0  0.25659818003E+02  0.25571084748E+01 -0.52683319960E+03  0.52746391844E+03  0.00000000000E+00 0. -1.
        -12    1    3    3    0    0 -0.16701052446E+02 -0.86607985294E+02 -0.18175849396E+04  0.18197238475E+04  0.00000000000E+00 0.  1.
          5    1    4    4  501    0  0.64075268461E+02  0.12689504025E+02 -0.23230456526E+02  0.69453509999E+02  0.41800000000E+01 0.  1.
         -5    1    4    4    0  501  0.11680240907E+02  0.97245357032E+02  0.66680234925E+02  0.11856143396E+03  0.41800000000E+01 0.  1.
</event>
<event>
11    1  0.8299058E-009  0.1454207E+03  0.7561462E-02  0.1101652E+00
         22   -1    0    0    0    0  0.00000000000E+00  0.00000000000E+00  0.26851897101E+03  0.26851897101E+03  0.00000000000E+00 0. -1.
         22   -1    0    0    0    0 -0.00000000000E+00 -0.00000000000E+00 -0.11457614142E+04  0.11457614142E+04  0.00000000000E+00 0. -1.
        -24    2    1    2    0    0 -0.31250455896E+02 -0.45953514205E+01 -0.10672840828E+04  0.10707744115E+04  0.80404096782E+02 0.  0.
         25    2    1    2    0    0 -0.49111793649E+02 -0.59025958457E+01  0.15405134836E+02  0.13539624357E+03  0.12509202884E+03 0.  0.
         24    2    1    2    0    0  0.80362249545E+02  0.10497947266E+02  0.17463650471E+03  0.20810973016E+03  0.79015523540E+02 0.  0.
        -11    1    5    5    0    0  0.41869246647E+02 -0.13282590904E+02  0.22431251875E+02  0.49321618958E+02  0.00000000000E+00 0.  1.
         12    1    5    5    0    0  0.38493002897E+02  0.23780538170E+02  0.15220525284E+03  0.15878811120E+03  0.00000000000E+00 0. -1.
         11    1    3    3    0    0 -0.31186176549E+02 -0.34191558381E+02 -0.87529229650E+03  0.87651482850E+03  0.00000000000E+00 0. -1.
        -12    1    3    3    0    0 -0.64279347157E-01  0.29596206960E+02 -0.19199178625E+03  0.19425958300E+03  0.00000000000E+00 0.  1.
          5    1    4    4  501    0 -0.40860726006E+02 -0.55104013754E+02 -0.22810054111E+02  0.72414240520E+02  0.41800000000E+01 0. -1.
         -5    1    4    4    0  501 -0.82510676424E+01  0.49201417909E+02  0.38215188947E+02  0.62982003046E+02  0.41800000000E+01 0. -1.
</event>
<event>
11    1  0.8299058E-009  0.1335202E+03  0.7561462E-02  0.1115018E+00
         22   -1    0    0    0    0  0.00000000000E+00  0.00000000000E+00  0.17494993511E+03  0.17494993511E+03  0.00000000000E+00 0.  1.
         22   -1    0    0    0    0 -0.00000000000E+00 -0.00000000000E+00 -0.15900699108E+03  0.15900699108E+03  0.00000000000E+00 0.  1.
        -24    2    1    2    0    0  0.56757199088E+01 -0.61084043344E+02 -0.32423681652E+02  0.10840909286E+03  0.83293229823E+02 0.  0.
         25    2    1    2    0    0 -0.22305594678E+01  0.15327635958E+02  0.31778367191E+02  0.12999199104E+03  0.12509253093E+03 0.  0.
         24    2    1    2    0    0 -0.34451604410E+01  0.45756407386E+02  0.16588258496E+02  0.95555842285E+02  0.82159787777E+02 0.  0.
        -11    1    5    5    0    0  0.32133066537E+01  0.66212787762E+02 -0.31423735936E+01  0.66365149850E+02  0.00000000000E+00 0.  1.
         12    1    5    5    0    0 -0.66584670947E+01 -0.20456380376E+02  0.19730632090E+02  0.29190692435E+02  0.00000000000E+00 0. -1.
         11    1    3    3    0    0  0.27838851765E+02  0.90191903188E+01 -0.14845773761E+02  0.32813784606E+02  0.00000000000E+00 0. -1.
        -12    1    3    3    0    0 -0.22163131856E+02 -0.70103233663E+02 -0.17577907891E+02  0.75595308250E+02  0.00000000000E+00 0.  1.
          5    1    4    4  501    0  0.39216543843E+02 -0.33768804626E+02  0.39368346030E+02  0.65158334432E+02  0.41800000000E+01 0. -1.
         -5    1    4    4    0  501 -0.41447103310E+02  0.49096440584E+02 -0.75899788391E+01  0.64833656612E+02  0.41800000000E+01 0. -1.
</event>
<event>
11    1  0.8299058E-009  0.3305034E+03  0.7561462E-02  0.9880487E-01
         22   -1    0    0    0    0  0.00000000000E+00  0.00000000000E+00  0.34292754129E+03  0.34292754129E+03  0.00000000000E+00 0.  1.
         22   -1    0    0    0    0 -0.00000000000E+00 -0.00000000000E+00 -0.58953944669E+03  0.58953944669E+03  0.00000000000E+00 0.  1.
        -24    2    1    2    0    0 -0.82306817692E+02  0.29088982695E+03 -0.29583626243E+03  0.43055739168E+03  0.80431770469E+02 0.  0.
         25    2    1    2    0    0  0.32855240772E+02 -0.31468593987E+03 -0.71451647238E+02  0.34764857086E+03  0.12508990098E+03 0.  0.
         24    2    1    2    0    0  0.49451576920E+02  0.23796112927E+02  0.12067600426E+03  0.15426102544E+03  0.78879988044E+02 0.  0.
        -11    1    5    5    0    0  0.75111090589E+01  0.60914701712E+01 -0.11171284836E+02  0.14775668277E+02  0.00000000000E+00 0.  1.
         12    1    5    5    0    0  0.41940467861E+02  0.17704642756E+02  0.13184728910E+03  0.13948535716E+03  0.00000000000E+00 0. -1.
         13    1    3    3    0    0 -0.90883312715E+01  0.17810133380E+03 -0.17127743035E+03  0.24726229194E+03  0.00000000000E+00 0. -1.
        -14    1    3    3    0    0 -0.73218486421E+02  0.11278849314E+03 -0.12455883208E+03  0.18329509974E+03  0.00000000000E+00 0.  1.
          5    1    4    4  501    0  0.56808017642E+02 -0.26610564211E+03 -0.20069257107E+02  0.27287288453E+03  0.41800000000E+01 0. -1.
         -5    1    4    4    0  501 -0.23952776870E+02 -0.48580297764E+02 -0.51382390130E+02  0.74775686330E+02  0.41800000000E+01 0. -1.
</event>
<event>
11    1  0.8299058E-009  0.1303190E+03  0.7561462E-02  0.1118878E+00
         22   -1    0    0    0    0  0.00000000000E+00  0.00000000000E+00  0.25652700542E+03  0.25652700542E+03  0.00000000000E+00 0. -1.
         22   -1    0    0    0    0 -0.00000000000E+00 -0.00000000000E+00 -0.11800038931E+04  0.11800038931E+04  0.00000000000E+00 0. -1.
         24    2    1    2    0    0 -0.31382620709E+02 -0.19246719179E+02 -0.11327357353E+04  0.11362791989E+04  0.81761033589E+02 0.  0.
         25    2    1    2    0    0  0.17114007729E+02  0.71739707304E+01  0.86648496692E+02  0.15329639617E+03  0.12508983965E+03 0.  0.
        -24    2    1    2    0    0  0.14268612979E+02  0.12072748449E+02  0.12261035098E+03  0.14695530346E+03  0.78823971461E+02 0.  0.
        -11    1    3    3    0    0  0.68885078702E+01  0.20788768955E+02 -0.11683639062E+03  0.11887121867E+03  0.00000000000E+00 0.  1.
         12    1    3    3    0    0 -0.38271128579E+02 -0.40035488134E+02 -0.10158993447E+04  0.10174079802E+04  0.00000000000E+00 0. -1.
         13    1    5    5    0    0 -0.28561034660E+02  0.22605676905E+02  0.63471666130E+02  0.73180610346E+02  0.00000000000E+00 0. -1.
        -14    1    5    5    0    0  0.42829647639E+02 -0.10532928456E+02  0.59138684849E+02  0.73774693116E+02  0.00000000000E+00 0.  1.
          5    1    4    4  501    0 -0.26542526132E+02 -0.47812628446E+02  0.48864099272E+02  0.73455603803E+02  0.41800000000E+01 0.  1.
         -5    1    4    4    0  501  0.43656533861E+02  0.54986599177E+02  0.37784397420E+02  0.79840792369E+02  0.41800000000E+01 0.  1.
</event>
<event>
11    1  0.8299058E-009  0.1450829E+03  0.7561462E-02  0.1102012E+00
         22   -1    0    0    0    0  0.00000000000E+00  0.00000000000E+00  0.62255143508E+03  0.62255143508E+03  0.00000000000E+00 0. -1.
         22   -1    0    0    0    0 -0.00000000000E+00 -0.00000000000E+00 -0.13898906019E+04  0.13898906019E+04  0.00000000000E+00 0. -1.
         24    2    1    2    0    0  0.56922555848E+02 -0.50399660104E+02 -0.12248908624E+04  0.12297813738E+04  0.78894228386E+02 0.  0.
         25    2    1    2    0    0 -0.30498730355E+02  0.33194637844E+02 -0.13208409069E+03  0.18741814277E+03  0.12508915498E+03 0.  0.
        -24    2    1    2    0    0 -0.26423825493E+02  0.17205022261E+02  0.58963578632E+03  0.59524252043E+03  0.75160270614E+02 0.  0.
        -11    1    3    3    0    0 -0.38746676622E+01  0.17313886066E+02 -0.26187561515E+03  0.26247594463E+03  0.00000000000E+00 0.  1.
         12    1    3    3    0    0  0.60797223510E+02 -0.67713546170E+02 -0.96301524728E+03  0.96730542913E+03  0.00000000000E+00 0. -1.
         11    1    5    5    0    0 -0.43376090974E+02  0.26854782915E+02  0.53104684818E+03  0.53349172402E+03  0.00000000000E+00 0. -1.
        -12    1    5    5    0    0  0.16952265481E+02 -0.96497606546E+01  0.58588938136E+02  0.61750796413E+02  0.00000000000E+00 0.  1.
          5    1    4    4  501    0  0.36464945563E+02  0.49962708417E+02 -0.47143253605E+02  0.77884037182E+02  0.41800000000E+01 0.  1.
         -5    1    4    4    0  501 -0.66963675918E+02 -0.16768070573E+02 -0.84940837083E+02  0.10953410559E+03  0.41800000000E+01 0.  1.
</event>
<event>
11    1  0.8299058E-009  0.1570289E+03  0.7561462E-02  0.1089906E+00
         22   -1    0    0    0    0  0.00000000000E+00  0.00000000000E+00  0.16630434514E+04  0.16630434514E+04  0.00000000000E+00 0. -1.
         22   -1    0    0    0    0 -0.00000000000E+00 -0.00000000000E+00 -0.82513844611E+02  0.82513844611E+02  0.00000000000E+00 0. -1.
         24    2    1    2    0    0  0.44921748355E+02 -0.35207721963E+02  0.63474684133E+01  0.10159029327E+03  0.83801850638E+02 0.  0.
         25    2    1    2    0    0 -0.53026915658E+02  0.12662762122E+03  0.23620194339E+03  0.30047710172E+03  0.12509485343E+03 0.  0.
        -24    2    1    2    0    0  0.81051673032E+01 -0.91419899260E+02  0.13379801950E+04  0.13434899010E+04  0.79692033893E+02 0.  0.
        -11    1    3    3    0    0 -0.59026766483E+01 -0.47815947132E+01  0.34981527775E+02  0.35796822835E+02  0.00000000000E+00 0.  1.
         12    1    3    3    0    0  0.50824425003E+02 -0.30426127250E+02 -0.28634059362E+02  0.65793470435E+02  0.00000000000E+00 0. -1.
         13    1    5    5    0    0  0.11604764064E+02 -0.30917567342E+02  0.96926312301E+03  0.96982553490E+03  0.00000000000E+00 0. -1.
        -14    1    5    5    0    0 -0.34995967607E+01 -0.60502331917E+02  0.36871707200E+03  0.37366436615E+03  0.00000000000E+00 0.  1.
          5    1    4    4  501    0 -0.16823377674E+02  0.21501412295E+02 -0.10734394128E+02  0.29631678730E+02  0.41800000000E+01 0.  1.
         -5    1    4    4    0  501 -0.36203537984E+02  0.10512620893E+03  0.24693633752E+03  0.27084542299E+03  0.41800000000E+01 0.  1.
</event>
<event>
11    1  0.8299058E-009  0.1290898E+03  0.7561462E-02  0.1120392E+00
         22   -1    0    0    0    0  0.00000000000E+00  0.00000000000E+00  0.44794056039E+03  0.44794056039E+03  0.00000000000E+00 0. -1.
         22   -1    0    0    0    0 -0.00000000000E+00 -0.00000000000E+00 -0.13725289890E+04  0.13725289890E+04  0.00000000000E+00 0. -1.
        -24    2    1    2    0    0  0.90276470664E+01 -0.67346479965E+01 -0.12648055651E+04  0.12676034560E+04  0.83417925674E+02 0.  0.
         25    2    1    2    0    0  0.53413385589E+01 -0.22176350916E+02 -0.62210270002E+02  0.14155977321E+03  0.12509488902E+03 0.  0.
         24    2    1    2    0    0 -0.14368985625E+02  0.28910998912E+02  0.40242740650E+03  0.41130632016E+03  0.78630515012E+02 0.  0.
        -11    1    5    5    0    0  0.17312182945E+02 -0.57883177282E+01  0.24943958826E+02  0.30909826631E+02  0.00000000000E+00 0.  1.
         12    1    5    5    0    0 -0.31681168571E+02  0.34699316641E+02  0.37748344768E+03  0.38039649352E+03  0.00000000000E+00 0. -1.
         13    1    3    3    0    0  0.89649137498E+01  0.31275308487E+02 -0.94297015904E+03  0.94353125833E+03  0.00000000000E+00 0. -1.
        -14    1    3    3    0    0  0.62733316561E-01 -0.38009956484E+02 -0.32183540608E+03  0.32407219772E+03  0.00000000000E+00 0.  1.
          5    1    4    4  501    0  0.53619818689E+01  0.50272504738E+02 -0.42970809608E+02  0.66483369805E+02  0.41800000000E+01 0.  1.
         -5    1    4    4    0  501 -0.20643310058E-01 -0.72448855654E+02 -0.19239460394E+02  0.75076403404E+02  0.41800000000E+01 0.  1.
</event>
<event>
11    1  0.8299058E-009  0.1528073E+03  0.7561462E-02  0.1094044E+00
         22   -1    0    0    0    0  0.00000000000E+00  0.00000000000E+00  0.10451281969E+04  0.10451281969E+04  0.00000000000E+00 0.  1.
         22   -1    0    0    0    0 -0.00000000000E+00 -0.00000000000E+00 -0.24000720090E+03  0.24000720090E+03  0.00000000000E+00 0. -1.
         24    2    1    2    0    0  0.54970447185E+02 -0.16425996492E+02 -0.15257472574E+03  0.18076532438E+03  0.78137648675E+02 0.  0.
         25    2    1    2    0    0  0.31598020250E+02  0.42278512839E+02 -0.31102452613E+01  0.13577308944E+03  0.12505499054E+03 0.  0.
        -24    2    1    2    0    0 -0.86568467436E+02 -0.25852516347E+02  0.96080596702E+03  0.96859698399E+03  0.82882802620E+02 0.  0.
        -13    1    3    3    0    0 -0.14644159040E+02  0.48551846365E+01 -0.50080924443E+01  0.16220517926E+02  0.00000000000E+00 0.  1.
         14    1    3    3    0    0  0.69614606226E+02 -0.21281181128E+02 -0.14756663329E+03  0.16454480646E+03  0.00000000000E+00 0. -1.
         11    1    5    5    0    0 -0.38021836803E+02 -0.39454951927E+01  0.11646431477E+03  0.12257717414E+03  0.00000000000E+00 0. -1.
        -12    1    5    5    0    0 -0.48546630633E+02 -0.21907021154E+02  0.84434165225E+03  0.84601980985E+03  0.00000000000E+00 0.  1.
          5    1    4    4  501    0  0.16813215285E+02  0.34163387290E+02 -0.62824966174E+02  0.73581723370E+02  0.41800000000E+01 0. -1.
         -5    1    4    4    0  501  0.14784804965E+02  0.81151255488E+01  0.59714720912E+02  0.62191366074E+02  0.41800000000E+01 0. -1.
</event>
<event>
11    1  0.8299058E-009  0.1362202E+03  0.7561462E-02  0.1111854E+00
         22   -1    0    0    0    0  0.00000000000E+00  0.00000000000E+00  0.18369779184E+03  0.18369779184E+03  0.00000000000E+00 0.  1.
         22   -1    0    0    0    0 -0.00000000000E+00 -0.00000000000E+00 -0.39072013411E+03  0.39072013411E+03  0.00000000000E+00 0. -1.
        -24    2    1    2    0    0 -0.27877635842E+02  0.31333964896E+02 -0.30055167392E+03  0.31412465364E+03  0.81141908971E+02 0.  0.
         25    2    1    2    0    0  0.51517815999E+02 -0.63596996217E+02  0.44780163015E+02  0.15605805038E+03  0.12510071461E+03 0.  0.
         24    2    1    2    0    0 -0.23640180156E+02  0.32263031320E+02  0.48749168624E+02  0.10423522193E+03  0.82998426140E+02 0.  0.
        -13    1    5    5    0    0 -0.73483988749E+01  0.59677171538E+02  0.29353720014E+02  0.66910422562E+02  0.00000000000E+00 0.  1.
         14    1    5    5    0    0 -0.16291781281E+02 -0.27414140217E+02  0.19395448610E+02  0.37324799369E+02  0.00000000000E+00 0. -1.
         13    1    3    3    0    0 -0.51243198306E+02  0.26597142335E+02 -0.26568996718E+03  0.27189047797E+03  0.00000000000E+00 0. -1.
        -14    1    3    3    0    0  0.23365562464E+02  0.47368225617E+01 -0.34861706739E+02  0.42234175664E+02  0.00000000000E+00 0.  1.
          5    1    4    4  501    0  0.25901295692E+02  0.30156613592E+02  0.43073388797E+02  0.58762978858E+02  0.41800000000E+01 0. -1.
         -5    1    4    4    0  501  0.25616520307E+02 -0.93753609808E+02  0.17067742179E+01  0.97295071524E+02  0.41800000000E+01 0. -1.
</event>
<event>
11    1  0.8299058E-009  0.4132396E+03  0.7561462E-02  0.9611482E-01
         22   -1    0    0    0    0  0.00000000000E+00  0.00000000000E+00  0.44529346555E+03  0.44529346555E+03  0.00000000000E+00 0. -1.
         22   -1    0    0    0    0 -0.00000000000E+00 -0.00000000000E+00 -0.62407119417E+03  0.62407119417E+03  0.00000000000E+00 0.  1.
         24    2    1    2    0    0  0.32391854074E+03 -0.13558268899E+03 -0.13198501188E+03  0.38421678513E+03  0.83045818853E+02 0.  0.
         25    2    1    2    0    0 -0.38114546371E+03  0.24939581813E+03 -0.15647283766E+03  0.49759759271E+03  0.12509786864E+03 0.  0.
        -24    2    1    2    0    0  0.57226922970E+02 -0.11381312914E+03  0.10968012093E+03  0.18755028188E+03  0.83168685399E+02 0.  0.
        -11    1    3    3    0    0  0.31449575902E+03 -0.14535012708E+03 -0.12179035176E+03  0.36724260601E+03  0.00000000000E+00 0.  1.
         12    1    3    3    0    0  0.94227817137E+01  0.97674380873E+01 -0.10194660117E+02  0.16974179123E+02  0.00000000000E+00 0. -1.
         11    1    5    5    0    0  0.64393798050E+02 -0.12355184150E+03  0.10547904068E+03  0.17474966892E+03  0.00000000000E+00 0. -1.
        -12    1    5    5    0    0 -0.71668750798E+01  0.97387123638E+01  0.42010802463E+01  0.12800612960E+02  0.00000000000E+00 0.  1.
          5    1    4    4  501    0 -0.22364729348E+02 -0.96948229600E+01  0.71569733771E+01  0.25746172122E+02  0.41800000000E+01 0.  1.
         -5    1    4    4    0  501 -0.35878073436E+03  0.25909064109E+03 -0.16362981104E+03  0.47185142058E+03  0.41800000000E+01 0.  1.
</event>
<event>
11    1  0.8299058E-009  0.1547003E+03  0.7561462E-02  0.1092171E+00
         22   -1    0    0    0    0  0.00000000000E+00  0.00000000000E+00  0.14671793369E+03  0.14671793369E+03  0.00000000000E+00 0.  1.
         22   -1    0    0    0    0 -0.00000000000E+00 -0.00000000000E+00 -0.24984881461E+04  0.24984881461E+04  0.00000000000E+00 0.  1.
         24    2    1    2    0    0  0.41437334130E+02 -0.76241520977E+02 -0.14873761881E+04  0.14919257012E+04  0.77617980752E+02 0.  0.
         25    2    1    2    0    0 -0.49474290880E+02  0.90729522755E+02 -0.99031637881E+03  0.10035206106E+04  0.12509010392E+03 0.  0.
        -24    2    1    2    0    0  0.80369567502E+01 -0.14488001779E+02  0.12592235443E+03  0.14975976797E+03  0.79353978409E+02 0.  0.
        -13    1    3    3    0    0 -0.17840332954E+02 -0.46605990220E+02 -0.68737329471E+03  0.68918244470E+03  0.00000000000E+00 0.  1.
         14    1    3    3    0    0  0.59277667083E+02 -0.29635530757E+02 -0.80000289337E+03  0.80274325652E+03  0.00000000000E+00 0. -1.
         13    1    5    5    0    0  0.42847796750E+01 -0.30162114412E+02  0.90491063002E+01  0.31780478402E+02  0.00000000000E+00 0. -1.
        -14    1    5    5    0    0  0.37521770751E+01  0.15674112633E+02  0.11687324813E+03  0.11797928957E+03  0.00000000000E+00 0.  1.
          5    1    4    4  501    0 -0.65927535288E+02  0.87475294290E+02 -0.45842343957E+03  0.47134688857E+03  0.41800000000E+01 0. -1.
         -5    1    4    4    0  501  0.16453244408E+02  0.32542284650E+01 -0.53189293923E+03  0.53217372207E+03  0.41800000000E+01 0. -1.
</event>
<event>
11    1  0.8299058E-009  0.1378805E+03  0.7561462E-02  0.1109949E+00
         22   -1    0    0    0    0  0.00000000000E+00  0.00000000000E+00  0.13564986758E+04  0.13564986758E+04  0.00000000000E+00 0. -1.
         22   -1    0    0    0    0 -0.00000000000E+00 -0.00000000000E+00 -0.10220256633E+04  0.10220256633E+04  0.00000000000E+00 0. -1.
         24    2    1    2    0    0  0.18077621460E+01  0.57828416979E+02 -0.10027753876E+04  0.10076753172E+04  0.80645354731E+02 0.  0.
         25    2    1    2    0    0 -0.57840669303E+02 -0.70491023191E+02  0.40839744544E+03  0.43675726814E+03  0.12511558839E+03 0.  0.
        -24    2    1    2    0    0  0.56032907157E+02  0.12662606212E+02  0.92885095469E+03  0.93409175370E+03  0.80394527383E+02 0.  0.
        -11    1    3    3    0    0 -0.20289336461E+02  0.16382843106E+02 -0.90252867092E+02  0.93944849463E+02  0.00000000000E+00 0.  1.
         12    1    3    3    0    0  0.22097098607E+02  0.41445573873E+02 -0.91252252048E+03  0.91373046777E+03  0.00000000000E+00 0. -1.
         11    1    5    5    0    0 -0.18953191749E+01  0.29229209059E+02  0.52010143987E+03  0.52092556728E+03  0.00000000000E+00 0. -1.
        -12    1    5    5    0    0  0.57928226332E+02 -0.16566602847E+02  0.40874951482E+03  0.41316618642E+03  0.00000000000E+00 0.  1.
          5    1    4    4  501    0 -0.52371486614E+02  0.25392637823E+02  0.14056793616E+03  0.15219847483E+03  0.41800000000E+01 0.  1.
         -5    1    4    4    0  501 -0.54691826889E+01 -0.95883661014E+02  0.26782950928E+03  0.28455879331E+03  0.41800000000E+01 0.  1.
</event>
<event>
11    1  0.8299058E-009  0.1254095E+03  0.7561462E-02  0.1125041E+00
         22   -1    0    0    0    0  0.00000000000E+00  0.00000000000E+00  0.84344474238E+03  0.84344474238E+03  0.00000000000E+00 0.  1.
         22   -1    0    0    0    0 -0.00000000000E+00 -0.00000000000E+00 -0.23678910608E+03  0.23678910608E+03  0.00000000000E+00 0.  1.
         24    2    1    2    0    0  0.56146710506E+01  0.21005348299E+02 -0.19388855436E+03  0.21082388550E+03  0.79882350986E+02 0.  0.
         25    2    1    2    0    0  0.65768378517E+00 -0.12462727710E+02  0.92885290855E+02  0.15629992791E+03  0.12508492346E+03 0.  0.
        -24    2    1    2    0    0 -0.62723548358E+01 -0.85426205889E+01  0.70765889981E+03  0.71311003506E+03  0.87364093439E+02 0.  0.
        -11    1    3    3    0    0 -0.13218904864E+01  0.40196106988E+02 -0.18363357068E+03  0.18798607048E+03  0.00000000000E+00 0.  1.
         12    1    3    3    0    0  0.69365615370E+01 -0.19190758689E+02 -0.10254983676E+02  0.22837815027E+02  0.00000000000E+00 0. -1.
         13    1    5    5    0    0  0.45999353858E+01  0.33684075299E+02  0.48693774810E+03  0.48812308577E+03  0.00000000000E+00 0. -1.
        -14    1    5    5    0    0 -0.10872290222E+02 -0.42226695887E+02  0.22072115171E+03  0.22498694929E+03  0.00000000000E+00 0.  1.
          5    1    4    4  501    0 -0.59217674525E+01  0.31525568319E+02 -0.17812187705E+02  0.36927973387E+02  0.41800000000E+01 0. -1.
         -5    1    4    4    0  501  0.65794512377E+01 -0.43988296030E+02  0.11069747856E+03  0.11937195452E+03  0.41800000000E+01 0. -1.
</event>
<event>
11    1  0.8299058E-009  0.3965258E+03  0.7561462E-02  0.9660065E-01
         22   -1    0    0    0    0  0.00000000000E+00  0.00000000000E+00  0.22262275939E+04  0.22262275939E+04  0.00000000000E+00 0.  1.
         22   -1    0    0    0    0 -0.00000000000E+00 -0.00000000000E+00 -0.16063446881E+03  0.16063446881E+03  0.00000000000E+00 0.  1.
        -24    2    1    2    0    0  0.77052015023E+02  0.10636033454E+02 -0.56229312083E+02  0.12541293046E+03  0.80725023148E+02 0.  0.
         25    2    1    2    0    0 -0.27641848497E+03 -0.30028818282E+03  0.11545107029E+04  0.12309006850E+04  0.12506542919E+03 0.  0.
         24    2    1    2    0    0  0.19936646994E+03  0.28965214937E+03  0.96731173430E+03  0.10305484473E+04  0.51891752353E+02 0.  0.
        -13    1    5    5    0    0  0.18840499800E+03  0.26082650126E+03  0.91372809023E+03  0.96872386670E+03  0.00000000000E+00 0.  1.
         14    1    5    5    0    0  0.10961471943E+02  0.28825648107E+02  0.53583644072E+02  0.61824580613E+02  0.00000000000E+00 0. -1.
         13    1    3    3    0    0  0.34688335352E+02 -0.19677190867E+02 -0.61239663840E+02  0.73080564291E+02  0.00000000000E+00 0. -1.
        -14    1    3    3    0    0  0.42363679671E+02  0.30313224321E+02  0.50103517565E+01  0.52332366168E+02  0.00000000000E+00 0.  1.
          5    1    4    4  501    0 -0.19512717527E+03 -0.23939461468E+03  0.69926224128E+03  0.76444067824E+03  0.41800000000E+01 0. -1.
         -5    1    4    4    0  501 -0.81291309702E+02 -0.60893568145E+02  0.45524846164E+03  0.46646000675E+03  0.41800000000E+01 0. -1.
</event>
<event>
11    1  0.8299058E-009  0.1379270E+03  0.7561462E-02  0.1109896E+00
         22   -1    0    0    0    0  0.00000000000E+00  0.00000000000E+00  0.61345507878E+03  0.61345507878E+03  0.00000000000E+00 0. -1.
         22   -1    0    0    0    0 -0.00000000000E+00 -0.00000000000E+00 -0.67456304216E+02  0.67456304216E+02  0.00000000000E+00 0. -1.
        -24    2    1    2    0    0 -0.15675695565E+02 -0.58273219709E+02  0.54288825708E+02  0.11516262545E+03  0.81692460718E+02 0.  0.
         25    2    1    2    0    0  0.47510104276E+02  0.39133843231E+02  0.11968874126E+03  0.18374145809E+03  0.12508741321E+03 0.  0.
         24    2    1    2    0    0 -0.31834408710E+02  0.19139376478E+02  0.37202120760E+03  0.38200729945E+03  0.78422271189E+02 0.  0.
        -11    1    5    5    0    0 -0.57554800839E+02  0.75168979688E+01  0.23020904696E+03  0.23741369834E+03  0.00000000000E+00 0.  1.
         12    1    5    5    0    0  0.25720392129E+02  0.11622478509E+02  0.14181216064E+03  0.14459360111E+03  0.00000000000E+00 0. -1.
         11    1    3    3    0    0 -0.41449965271E+02 -0.25794186159E+02  0.25878622958E+01  0.48889024248E+02  0.00000000000E+00 0. -1.
        -12    1    3    3    0    0  0.25774269706E+02 -0.32479033550E+02  0.51700963412E+02  0.66273601207E+02  0.00000000000E+00 0.  1.
          5    1    4    4  501    0  0.55584311445E+02  0.66487537245E+02  0.33746600921E+02  0.93094112389E+02  0.41800000000E+01 0.  1.
         -5    1    4    4    0  501 -0.80742071693E+01 -0.27353694014E+02  0.85942140337E+02  0.90647345705E+02  0.41800000000E+01 0.  1.
</event>
<event>
11    1  0.8299058E-009  0.1618840E+03  0.7561462E-02  0.1085319E+00
         22   -1    0    0    0    0  0.00000000000E+00  0.00000000000E+00  0.26057661895E+04  0.26057661895E+04  0.00000000000E+00 0.  1.
         22   -1    0    0    0    0 -0.00000000000E+00 -0.00000000000E+00 -0.43431571743E+03  0.43431571743E+03  0.00000000000E+00 0.  1.
        -24    2    1    2    0    0  0.33619030514E+02  0.31398009427E+02 -0.41099863439E+03  0.42079775793E+03  0.77683984191E+02 0.  0.
         25    2    1    2    0    0  0.71458439501E+02 -0.11935538147E+02  0.30112039451E+03  0.33402059930E+03  0.12508998009E+03 0.  0.
         24    2    1    2    0    0 -0.10507747001E+03 -0.19462471280E+02  0.22813287119E+04  0.22852635497E+04  0.80924267579E+02 0.  0.
        -13    1    5    5    0    0 -0.53881713119E+02  0.19536008555E+02  0.15651379224E+04  0.15661869655E+04  0.00000000000E+00 0.  1.
         14    1    5    5    0    0 -0.51195756895E+02 -0.38998479835E+02  0.71619078950E+03  0.71907658418E+03  0.00000000000E+00 0. -1.
         11    1    3    3    0    0  0.18164352378E+02 -0.12766549468E+01 -0.16273972659E+02  0.24421624255E+02  0.00000000000E+00 0. -1.
        -12    1    3    3    0    0  0.15454678136E+02  0.32674664373E+02 -0.39472466173E+03  0.39637613368E+03  0.00000000000E+00 0.  1.
          5    1    4    4  501    0  0.60399240686E+02  0.44192586881E+01  0.41309539938E+02  0.73427165360E+02  0.41800000000E+01 0. -1.
         -5    1    4    4    0  501  0.11059198815E+02 -0.16354796835E+02  0.25981085457E+03  0.26059343394E+03  0.41800000000E+01 0. -1.
</event>
<event>
11    1  0.8299058E-009  0.1632330E+03  0.7561462E-02  0.1084075E+00
         22   -1    0    0    0    0  0.00000000000E+00  0.00000000000E+00  0.12381769867E+03  0.12381769867E+03  0.00000000000E+00 0. -1.
         22   -1    0    0    0    0 -0.00000000000E+00 -0.00000000000E+00 -0.38442075818E+04  0.38442075818E+04  0.00000000000E+00 0.  1.
        -24    2    1    2    0    0  0.45367025889E+02  0.91052907283E+02 -0.29843698466E+04  0.29872274831E+04  0.81950323470E+02 0.  0.
         25    2    1    2    0    0 -0.50325772836E+02 -0.11508941945E+03 -0.83350694399E+03  0.85214788942E+03  0.12507574461E+03 0.  0.
         24    2    1    2    0    0  0.49587469463E+01  0.24036512164E+02  0.97486907430E+02  0.12864990797E+03  0.80279253933E+02 0.  0.
        -11    1    5    5    0    0 -0.25654922654E+01  0.21596894155E+01 -0.14200780812E+02  0.14591373637E+02  0.00000000000E+00 0.  1.
         12    1    5    5    0    0  0.75242392117E+01  0.21876822749E+02  0.11168768824E+03  0.11405853433E+03  0.00000000000E+00 0. -1.
         13    1    3    3    0    0  0.11627399308E+02 -0.14393596480E+02 -0.29497157093E+03  0.29555134866E+03  0.00000000000E+00 0. -1.
        -14    1    3    3    0    0  0.33739626581E+02  0.10544650376E+03 -0.26893982756E+04  0.26916761344E+04  0.00000000000E+00 0.  1.
          5    1    4    4  501    0 -0.67889437299E+01 -0.11882334716E+03 -0.42759666747E+03  0.44387099479E+03  0.41800000000E+01 0. -1.
         -5    1    4    4    0  501 -0.43536829106E+02  0.37339277120E+01 -0.40591027652E+03  0.40827689463E+03  0.41800000000E+01 0. -1.
</event>
<event>
11    1  0.8299058E-009  0.2664958E+03  0.7561462E-02  0.1015461E+00
         22   -1    0    0    0    0  0.00000000000E+00  0.00000000000E+00  0.39016702980E+03  0.39016702980E+03  0.00000000000E+00 0. -1.
         22   -1    0    0    0    0 -0.00000000000E+00 -0.00000000000E+00 -0.26642608929E+03  0.26642608929E+03  0.00000000000E+00 0. -1.
        -24    2    1    2    0    0 -0.21228240354E+00 -0.19373428073E+01 -0.46144282773E+01  0.80790953168E+02  0.80635518256E+02 0.  0.
         25    2    1    2    0    0 -0.22494752118E+02  0.23561031173E+03 -0.48439409266E+02  0.27205047954E+03  0.12508738617E+03 0.  0.
         24    2    1    2    0    0  0.22707034521E+02 -0.23367296892E+03  0.17679477805E+03  0.30375168639E+03  0.76746515318E+02 0.  0.
        -11    1    5    5    0    0  0.21281142338E+02 -0.11666527553E+02  0.24774302416E+02  0.34680844058E+02  0.00000000000E+00 0.  1.
         12    1    5    5    0    0  0.14258921831E+01 -0.22200644137E+03  0.15202047564E+03  0.26907084233E+03  0.00000000000E+00 0. -1.
         13    1    3    3    0    0 -0.21323149763E+02 -0.34438255438E+02 -0.98443401904E+01  0.41684303847E+02  0.00000000000E+00 0. -1.
        -14    1    3    3    0    0  0.21110867359E+02  0.32500912631E+02  0.52299119132E+01  0.39106649321E+02  0.00000000000E+00 0.  1.
          5    1    4    4  501    0 -0.52334181704E+01  0.89733601074E+02 -0.81520667845E+02  0.12141910687E+03  0.41800000000E+01 0.  1.
         -5    1    4    4    0  501 -0.17261333947E+02  0.14587671066E+03  0.33081258579E+02  0.15063137267E+03  0.41800000000E+01 0.  1.
</event>
<event>
11    1  0.8299058E-009  0.1273183E+03  0.7561462E-02  0.1122609E+00
         22   -1    0    0    0    0  0.00000000000E+00  0.00000000000E+00  0.19723872332E+03  0.19723872332E+03  0.00000000000E+00 0. -1.
         22   -1    0    0    0    0 -0.00000000000E+00 -0.00000000000E+00 -0.17104663157E+03  0.17104663157E+03  0.00000000000E+00 0. -1.
        -24    2    1    2    0    0  0.12663142891E+01  0.13227830745E+01 -0.56442462531E+02  0.97013435468E+02  0.78882835761E+02 0.  0.
         25    2    1    2    0    0  0.20158390516E+02 -0.11642306272E+02 -0.32664726203E+02  0.13136504714E+03  0.12509151558E+03 0.  0.
         24    2    1    2    0    0 -0.21424704805E+02  0.10319523198E+02  0.11529928049E+03  0.13990687228E+03  0.75594300678E+02 0.  0.
        -13    1    5    5    0    0  0.67989168265E+01  0.20684970931E+02  0.10843042402E+01  0.21800665313E+02  0.00000000000E+00 0.  1.
         14    1    5    5    0    0 -0.28223621631E+02 -0.10365447733E+02  0.11421497625E+03  0.11810620697E+03  0.00000000000E+00 0. -1.
         11    1    3    3    0    0  0.13051693921E+02 -0.36355621057E+02 -0.21038618569E+02  0.43985240342E+02  0.00000000000E+00 0. -1.
        -12    1    3    3    0    0 -0.11785379632E+02  0.37678404132E+02 -0.35403843963E+02  0.53028195126E+02  0.00000000000E+00 0.  1.
          5    1    4    4  501    0 -0.19038058665E+02 -0.95245734018E+01 -0.72264299491E+02  0.75450424500E+02  0.41800000000E+01 0.  1.
         -5    1    4    4    0  501  0.39196449181E+02 -0.21177328706E+01  0.39599573288E+02  0.55914622645E+02  0.41800000000E+01 0.  1.
</event>
<event>
11    1  0.8299058E-009  0.1348705E+03  0.7561462E-02  0.1113425E+00
         22   -1    0    0    0    0  0.00000000000E+00  0.00000000000E+00  0.58742053707E+03  0.58742053707E+03  0.00000000000E+00 0.  1.
         22   -1    0    0    0    0 -0.00000000000E+00 -0.00000000000E+00 -0.47356434145E+03  0.47356434145E+03  0.00000000000E+00 0. -1.
         24    2    1    2    0    0  0.28509144814E+02 -0.82198424487E+01 -0.43835229849E+03  0.44545435555E+03  0.73460929308E+02 0.  0.
         25    2    1    2    0    0 -0.34618963286E+02  0.55966550820E+02  0.16508689274E+03  0.21732955043E+03  0.12509086259E+03 0.  0.
        -24    2    1    2    0    0  0.61098184726E+01 -0.47746708371E+02  0.38712160138E+03  0.39820097255E+03  0.79898699885E+02 0.  0.
        -11    1    3    3    0    0 -0.22270191909E+01  0.29718396948E+02 -0.14041983531E+03  0.14354745863E+03  0.00000000000E+00 0.  1.
         12    1    3    3    0    0  0.30736164004E+02 -0.37938239397E+02 -0.29793246319E+03  0.30190689692E+03  0.00000000000E+00 0. -1.
         11    1    5    5    0    0 -0.36406137205E+02 -0.28224765446E+02  0.17300103213E+03  0.17902905163E+03  0.00000000000E+00 0. -1.
        -12    1    5    5    0    0  0.42515955677E+02 -0.19521942926E+02  0.21412056925E+03  0.21917192091E+03  0.00000000000E+00 0.  1.
          5    1    4    4  501    0 -0.37724652575E+02  0.42016607025E+01 -0.58660636424E+01  0.38635300792E+02  0.41800000000E+01 0. -1.
         -5    1    4    4    0  501  0.31056892892E+01  0.51764890118E+02  0.17095295639E+03  0.17869424963E+03  0.41800000000E+01 0. -1.
</event>
<event>
11    1  0.8299058E-009  0.1551199E+03  0.7561462E-02  0.1091759E+00
         22   -1    0    0    0    0  0.00000000000E+00  0.00000000000E+00  0.36413648060E+03  0.36413648060E+03  0.00000000000E+00 0. -1.
         22   -1    0    0    0    0 -0.00000000000E+00 -0.00000000000E+00 -0.81777000133E+03  0.81777000133E+03  0.00000000000E+00 0. -1.
        -24    2    1    2    0    0  0.90060366695E+02  0.16112710061E+02 -0.63096319016E+03  0.64264950085E+03  0.80705294324E+02 0.  0.
         25    2    1    2    0    0 -0.10332715277E+03  0.72801468511E+02 -0.12276019124E+03  0.21608133224E+03  0.12507806871E+03 0.  0.
         24    2    1    2    0    0  0.13266786072E+02 -0.88914178572E+02  0.30008986067E+03  0.32317564885E+03  0.79415595251E+02 0.  0.
        -11    1    5    5    0    0 -0.19452404327E+02 -0.13867213931E+02  0.19352459021E+02  0.30744321858E+02  0.00000000000E+00 0.  1.
         12    1    5    5    0    0  0.32719190399E+02 -0.75046964640E+02  0.28073740165E+03  0.29243132699E+03  0.00000000000E+00 0. -1.
         13    1    3    3    0    0  0.61010149456E+02  0.97594666650E+01 -0.58265956810E+03  0.58592632457E+03  0.00000000000E+00 0. -1.
        -14    1    3    3    0    0  0.29050217239E+02  0.63532433955E+01 -0.48303622066E+02  0.56723176286E+02  0.00000000000E+00 0.  1.
          5    1    4    4  501    0 -0.31550839434E+02  0.94971383680E+02 -0.52268876467E+02  0.11298020638E+03  0.41800000000E+01 0.  1.
         -5    1    4    4    0  501 -0.71776313333E+02 -0.22169915169E+02 -0.70491314769E+02  0.10310112585E+03  0.41800000000E+01 0.  1.
</event>
<event>
11    1  0.8299058E-009  0.1924651E+03  0.7561462E-02  0.1059984E+00
         22   -1    0    0    0    0  0.00000000000E+00  0.00000000000E+00  0.35439512018E+03  0.35439512018E+03  0.00000000000E+00 0. -1.
         22   -1    0    0    0    0 -0.00000000000E+00 -0.00000000000E+00 -0.22047903161E+04  0.22047903161E+04  0.00000000000E+00 0.  1.
         24    2    1    2    0    0 -0.12080768236E+02  0.15513768620E+02 -0.20592216404E+04  0.20608871081E+04  0.80469162213E+02 0.  0.
         25    2    1    2    0    0  0.18330390309E+02  0.13326492433E+03 -0.48412056850E+02  0.18995830622E+03  0.12507952506E+03 0.  0.
        -24    2    1    2    0    0 -0.62496220734E+01 -0.14877869295E+03  0.25723850128E+03  0.30834002200E+03  0.82022956391E+02 0.  0.
        -13    1    3    3    0    0  0.11868539537E+02 -0.50378229085E+01 -0.17522687705E+04  0.17523162060E+04  0.00000000000E+00 0.  1.
         14    1    3    3    0    0 -0.23949307773E+02  0.20551591529E+02 -0.30695286988E+03  0.30857090204E+03  0.00000000000E+00 0. -1.
         11    1    5    5    0    0  0.29835702707E+02 -0.83332484074E+02  0.18152235127E+03  0.20195255896E+03  0.00000000000E+00 0. -1.
        -12    1    5    5    0    0 -0.36085324781E+02 -0.65446208880E+02  0.75716150007E+02  0.10638746305E+03  0.00000000000E+00 0.  1.
          5    1    4    4  501    0  0.45733887464E+02  0.11329703752E+03 -0.77788830314E+02  0.14490128258E+03  0.41800000000E+01 0.  1.
         -5    1    4    4    0  501 -0.27403497155E+02  0.19967886818E+02  0.29376773464E+02  0.45057023642E+02  0.41800000000E+01 0.  1.
</event>
<event>
11    1  0.8299058E-009  0.1764933E+03  0.7561462E-02  0.1072515E+00
         22   -1    0    0    0    0  0.00000000000E+00  0.00000000000E+00  0.24470424793E+04  0.24470424793E+04  0.00000000000E+00 0.  1.
         22   -1    0    0    0    0 -0.00000000000E+00 -0.00000000000E+00 -0.31038281496E+03  0.31038281496E+03  0.00000000000E+00 0. -1.
         24    2    1    2    0    0 -0.15436734733E+02 -0.24786953202E+02 -0.24861212038E+03  0.26299399308E+03  0.80654622715E+02 0.  0.
         25    2    1    2    0    0 -0.10193778479E+03  0.67079896675E+02  0.93816709116E+02  0.19834386913E+03  0.12509073110E+03 0.  0.
        -24    2    1    2    0    0  0.11737451952E+03 -0.42292943474E+02  0.22914550756E+04  0.22960874321E+04  0.75403323511E+02 0.  0.
        -13    1    3    3    0    0  0.23109139827E+02  0.14285563173E+02 -0.49613598533E+02  0.56565173191E+02  0.00000000000E+00 0.  1.
         14    1    3    3    0    0 -0.38545874560E+02 -0.39072516374E+02 -0.19899852185E+03  0.20642881989E+03  0.00000000000E+00 0. -1.
         11    1    5    5    0    0  0.27479049017E+02  0.21190290434E+02  0.67406048190E+03  0.67495307971E+03  0.00000000000E+00 0. -1.
        -12    1    5    5    0    0  0.89895470502E+02 -0.63483233908E+02  0.16173945937E+04  0.16211343524E+04  0.00000000000E+00 0.  1.
          5    1    4    4  501    0 -0.20034688030E+02  0.86830261121E+02  0.36656944943E+02  0.96447327508E+02  0.41800000000E+01 0. -1.
         -5    1    4    4    0  501 -0.81903096756E+02 -0.19750364446E+02  0.57159764173E+02  0.10189654162E+03  0.41800000000E+01 0. -1.
</event>
<event>
11    1  0.8299058E-009  0.1363453E+03  0.7561462E-02  0.1111710E+00
         22   -1    0    0    0    0  0.00000000000E+00  0.00000000000E+00  0.35812116045E+03  0.35812116045E+03  0.00000000000E+00 0.  1.
         22   -1    0    0    0    0 -0.00000000000E+00 -0.00000000000E+00 -0.11586921389E+04  0.11586921389E+04  0.00000000000E+00 0.  1.
         24    2    1    2    0    0 -0.20794267747E+02 -0.20585247943E+02 -0.10569883477E+04  0.10600791849E+04  0.75414567630E+02 0.  0.
         25    2    1    2    0    0  0.29700515861E+01  0.70859113536E+02 -0.37050330611E+02  0.14847445463E+03  0.12506838730E+03 0.  0.
        -24    2    1    2    0    0  0.17824216161E+02 -0.50273865593E+02  0.29346769992E+03  0.30825965978E+03  0.77817496153E+02 0.  0.
        -11    1    3    3    0    0  0.21359389216E+02 -0.30658386203E+02 -0.45369679068E+03  0.45523283935E+03  0.00000000000E+00 0.  1.
         12    1    3    3    0    0 -0.42153656964E+02  0.10073138260E+02 -0.60329155704E+03  0.60484634554E+03  0.00000000000E+00 0. -1.
         13    1    5    5    0    0 -0.40207273709E+01  0.95927897560E+01  0.29175730417E+01  0.10802781880E+02  0.00000000000E+00 0. -1.
        -14    1    5    5    0    0  0.21844943532E+02 -0.59866655349E+02  0.29055012688E+03  0.29745687790E+03  0.00000000000E+00 0.  1.
          5    1    4    4  501    0 -0.40094598054E+02  0.48401047306E+02  0.26536701464E+02  0.68351350375E+02  0.41800000000E+01 0.  1.
         -5    1    4    4    0  501  0.43064649640E+02  0.22458066229E+02 -0.63587032075E+02  0.80123104255E+02  0.41800000000E+01 0.  1.
</event>
<event>
11    1  0.8299058E-009  0.1359656E+03  0.7561462E-02  0.1112149E+00
         22   -1    0    0    0    0  0.00000000000E+00  0.00000000000E+00  0.53710848208E+03  0.53710848208E+03  0.00000000000E+00 0.  1.
         22   -1    0    0    0    0 -0.00000000000E+00 -0.00000000000E+00 -0.44692419026E+03  0.44692419026E+03  0.00000000000E+00 0. -1.
        -24    2    1    2    0    0  0.38072321180E+02 -0.35791081200E+02 -0.29889157980E+03  0.31375453674E+03  0.79845035622E+02 0.  0.
         25    2    1    2    0    0 -0.52098352249E+02  0.29048794908E+02 -0.10219072593E+03  0.17218362679E+03  0.12508471560E+03 0.  0.
         24    2    1    2    0    0  0.14026031069E+02  0.67422862913E+01  0.49126659755E+03  0.49809450882E+03  0.80703667050E+02 0.  0.
        -11    1    5    5    0    0  0.27469671112E+02 -0.30588398946E+02  0.20407747192E+03  0.20817744241E+03  0.00000000000E+00 0.  1.
         12    1    5    5    0    0 -0.13443640043E+02  0.37330685238E+02  0.28718912563E+03  0.28991706641E+03  0.00000000000E+00 0. -1.
         11    1    3    3    0    0 -0.11191051089E+02 -0.37792661580E+02 -0.19250288464E+03  0.19649652793E+03  0.00000000000E+00 0. -1.
        -12    1    3    3    0    0  0.49263372269E+02  0.20015803805E+01 -0.10638869517E+03  0.11725800881E+03  0.00000000000E+00 0.  1.
          5    1    4    4  501    0 -0.92533678383E+02  0.91379764079E+01 -0.63973914914E+02  0.11294298755E+03  0.41800000000E+01 0.  1.
         -5    1    4    4    0  501  0.40435326134E+02  0.19910818500E+02 -0.38216811016E+02  0.59240639237E+02  0.41800000000E+01 0.  1.
</event>
<event>
11    1  0.8299058E-009  0.1914652E+03  0.7561462E-02  0.1060729E+00
         22   -1    0    0    0    0  0.00000000000E+00  0.00000000000E+00  0.62209893107E+03  0.62209893107E+03  0.00000000000E+00 0. -1.
         22   -1    0    0    0    0 -0.00000000000E+00 -0.00000000000E+00 -0.89310350077E+03  0.89310350077E+03  0.00000000000E+00 0. -1.
         24    2    1    2    0    0 -0.12701702752E+03  0.80311156535E+02 -0.70226546977E+03  0.72237691610E+03  0.77900011182E+02 0.  0.
         25    2    1    2    0    0  0.82469173382E+02 -0.95309507100E+02 -0.13337955836E+03  0.22208495857E+03  0.12508619242E+03 0.  0.
        -24    2    1    2    0    0  0.44547854142E+02  0.14998350564E+02  0.56464045843E+03  0.57074055717E+03  0.68676593352E+02 0.  0.
        -11    1    3    3    0    0 -0.51186774641E+02 -0.31535680620E+01 -0.14462177655E+03  0.15344539466E+03  0.00000000000E+00 0.  1.
         12    1    3    3    0    0 -0.75830252883E+02  0.83464724597E+02 -0.55764369322E+03  0.56893152144E+03  0.00000000000E+00 0. -1.
         13    1    5    5    0    0  0.22118920836E+02  0.14476918570E+02  0.52100731843E+03  0.52167753803E+03  0.00000000000E+00 0. -1.
        -14    1    5    5    0    0  0.22428933306E+02  0.52143199490E+00  0.43633139996E+02  0.49063019134E+02  0.00000000000E+00 0.  1.
          5    1    4    4  501    0  0.10798374958E+03 -0.99474525949E+02 -0.92635175309E+02  0.17365027956E+03  0.41800000000E+01 0.  1.
         -5    1    4    4    0  501 -0.25514576203E+02  0.41650188492E+01 -0.40744383053E+02  0.48434679014E+02  0.41800000000E+01 0.  1.
</event>
<event>
11    1  0.8299058E-009  0.1282559E+03  0.7561462E-02  0.1121431E+00
         22   -1    0    0    0    0  0.00000000000E+00  0.00000000000E+00  0.37316316230E+03  0.37316316230E+03  0.00000000000E+00 0. -1.
         22   -1    0    0    0    0 -0.00000000000E+00 -0.00000000000E+00 -0.21754666751E+03  0.21754666751E+03  0.00000000000E+00 0.  1.
         24    2    1    2    0    0  0.81565299568E+01  0.91296252202E+00 -0.17473784317E+03  0.19232525942E+03  0.79927023551E+02 0.  0.
         25    2    1    2    0    0  0.12229890803E+02  0.21205077798E+02  0.14190832525E+03  0.19074026329E+03  0.12507857414E+03 0.  0.
        -24    2    1    2    0    0 -0.20386420760E+02 -0.22118040320E+02  0.18844601271E+03  0.20764430710E+03  0.81850135660E+02 0.  0.
        -13    1    3    3    0    0  0.86774717445E+01  0.19471143589E+02 -0.17228457174E+03  0.17359838020E+03  0.00000000000E+00 0.  1.
         14    1    3    3    0    0 -0.52094178769E+00 -0.18558181067E+02 -0.24532714387E+01  0.18726879228E+02  0.00000000000E+00 0. -1.
         11    1    5    5    0    0  0.30941141961E+02 -0.81921321532E+01  0.93379781072E+02  0.98712961703E+02  0.00000000000E+00 0. -1.
        -12    1    5    5    0    0 -0.51327562721E+02 -0.13925908167E+02  0.95066231638E+02  0.10893134540E+03  0.00000000000E+00 0.  1.
          5    1    4    4  501    0 -0.43963591431E+02 -0.15853652504E+02  0.19156402404E+02  0.50681118993E+02  0.41800000000E+01 0. -1.
         -5    1    4    4    0  501  0.56193482234E+02  0.37058730302E+02  0.12275192285E+03  0.14005914429E+03  0.41800000000E+01 0. -1.
</event>
<event>
11    1  0.8299058E-009  0.1891635E+03  0.7561462E-02  0.1062463E+00
         22   -1    0    0    0    0  0.00000000000E+00  0.00000000000E+00  0.17128889890E+04  0.17128889890E+04  0.00000000000E+00 0. -1.
         22   -1    0    0    0    0 -0.00000000000E+00 -0.00000000000E+00 -0.12455806941E+04  0.12455806941E+04  0.00000000000E+00 0. -1.
        -24    2    1    2    0    0 -0.78155467807E+01 -0.39232597649E+02 -0.11270680581E+04  0.11308485946E+04  0.83281791157E+02 0.  0.
         25    2    1    2    0    0  0.12424950929E+03  0.11855967339E+03 -0.12218447694E+02  0.21281859179E+03  0.12509246914E+03 0.  0.
         24    2    1    2    0    0 -0.11643396251E+03 -0.79327075737E+02  0.16065948007E+04  0.16148024967E+04  0.81182491270E+02 0.  0.
        -13    1    5    5    0    0 -0.52618239579E+02  0.62143441828E+01  0.68576912394E+03  0.68781290229E+03  0.00000000000E+00 0.  1.
         14    1    5    5    0    0 -0.63815722931E+02 -0.85541419920E+02  0.92082567681E+03  0.92698959438E+03  0.00000000000E+00 0. -1.
         13    1    3    3    0    0  0.72479314309E+00  0.22912544240E+02 -0.52973878300E+03  0.53023455963E+03  0.00000000000E+00 0. -1.
        -14    1    3    3    0    0 -0.85403399238E+01 -0.62145141889E+02 -0.59732927512E+03  0.60061403495E+03  0.00000000000E+00 0.  1.
          5    1    4    4  501    0  0.78243065723E+02 -0.52274711239E+00  0.20444161876E+02  0.80979545276E+02  0.41800000000E+01 0.  1.
         -5    1    4    4    0  501  0.46006443568E+02  0.11908242050E+03 -0.32662609570E+02  0.13183904651E+03  0.41800000000E+01 0.  1.
</event>
<event>
11    1  0.8299058E-009  0.1541320E+03  0.7561462E-02  0.1092730E+00
         22   -1    0    0    0    0  0.00000000000E+00  0.00000000000E+00  0.17647957773E+04  0.17647957773E+04  0.00000000000E+00 0. -1.
         22   -1    0    0    0    0 -0.00000000000E+00 -0.00000000000E+00 -0.10187531808E+04  0.10187531808E+04  0.00000000000E+00 0. -1.
         24    2    1    2    0    0 -0.22782953206E+01 -0.33979429037E+02 -0.97742675565E+03  0.98158238738E+03  0.83553146782E+02 0.  0.
         25    2    1    2    0    0 -0.75801593549E+02 -0.13094774167E+02  0.10889872244E+03  0.18282161388E+03  0.12508979198E+03 0.  0.
        -24    2    1    2    0    0  0.78079888870E+02  0.47074203205E+02  0.16145706296E+04  0.16191449568E+04  0.80496107847E+02 0.  0.
        -13    1    3    3    0    0 -0.28836840546E+02 -0.17667685302E+02 -0.15873660725E+03  0.16229917116E+03  0.00000000000E+00 0.  1.
         14    1    3    3    0    0  0.26558545225E+02 -0.16311743735E+02 -0.81869014840E+03  0.81928321623E+03  0.00000000000E+00 0. -1.
         11    1    5    5    0    0  0.79221838044E+02  0.26540965958E+02  0.80718658654E+03  0.81149904990E+03  0.00000000000E+00 0. -1.
        -12    1    5    5    0    0 -0.11419491743E+01  0.20533237247E+02  0.80738404311E+03  0.80764590691E+03  0.00000000000E+00 0.  1.
          5    1    4    4  501    0 -0.53625229461E+02  0.44232225171E+02  0.98051392179E+02  0.12026513579E+03  0.41800000000E+01 0. -1.
         -5    1    4    4    0  501 -0.22176364088E+02 -0.57326999339E+02  0.10847330263E+02  0.62556478091E+02  0.41800000000E+01 0. -1.
</event>
<event>
11    1  0.8299058E-009  0.2011954E+03  0.7561462E-02  0.1053682E+00
         22   -1    0    0    0    0  0.00000000000E+00  0.00000000000E+00  0.53325746367E+03  0.53325746367E+03  0.00000000000E+00 0.  1.
         22   -1    0    0    0    0 -0.00000000000E+00 -0.00000000000E+00 -0.26977224289E+04  0.26977224289E+04  0.00000000000E+00 0. -1.
         24    2    1    2    0    0 -0.35646863689E+02 -0.15496422231E+03 -0.24028840176E+04  0.24095031283E+04  0.81050070867E+02 0.  0.
         25    2    1    2    0    0 -0.32680727366E+02  0.15249290249E+03 -0.25091001377E+03  0.32082010989E+03  0.12509033796E+03 0.  0.
        -24    2    1    2    0    0  0.68327591055E+02  0.24713198214E+01  0.48932906610E+03  0.50065665446E+03  0.80866455348E+02 0.  0.
        -13    1    3    3    0    0 -0.45373835648E+02 -0.34528656569E+02 -0.67890518357E+03  0.68129528207E+03  0.00000000000E+00 0.  1.
         14    1    3    3    0    0  0.97269719588E+01 -0.12043556574E+03 -0.17239788340E+04  0.17282078462E+04  0.00000000000E+00 0. -1.
         11    1    5    5    0    0  0.29078436677E+02 -0.38500493457E+02  0.19255327192E+03  0.19850593443E+03  0.00000000000E+00 0. -1.
        -12    1    5    5    0    0  0.39249154378E+02  0.40971813279E+02  0.29677579418E+03  0.30215072003E+03  0.00000000000E+00 0.  1.
          5    1    4    4  501    0  0.26857627421E+01  0.14772083845E+03 -0.24237895367E+03  0.28389027637E+03  0.41800000000E+01 0. -1.
         -5    1    4    4    0  501 -0.35366490108E+02  0.47720640374E+01 -0.85310600975E+01  0.36929833524E+02  0.41800000000E+01 0. -1.
</event>
<event>
11    1  0.8299058E-009  0.1325641E+03  0.7561462E-02  0.1116158E+00
         22   -1    0    0    0    0  0.00000000000E+00  0.00000000000E+00  0.12078704781E+03  0.12078704781E+03  0.00000000000E+00 0. -1.
         22   -1    0    0    0    0 -0.00000000000E+00 -0.00000000000E+00 -0.59652098485E+03  0.59652098485E+03  0.00000000000E+00 0.  1.
         24    2    1    2    0    0 -0.43437223249E+02  0.26248116750E+02 -0.34666527018E+03  0.35934403064E+03  0.79847146537E+02 0.  0.
         25    2    1    2    0    0  0.19424680838E+02 -0.14825434888E+02 -0.20694047335E+03  0.24304167058E+03  0.12509109633E+03 0.  0.
        -24    2    1    2    0    0  0.24012542411E+02 -0.11422681861E+02  0.77871806490E+02  0.11492233144E+03  0.80224959727E+02 0.  0.
        -11    1    3    3    0    0 -0.60082514735E+02 -0.20978636452E+01 -0.25410399187E+03  0.26111903089E+03  0.00000000000E+00 0.  1.
         12    1    3    3    0    0  0.16645291486E+02  0.28345980395E+02 -0.92561278314E+02  0.98224999752E+02  0.00000000000E+00 0. -1.
         13    1    5    5    0    0  0.42101982731E+02  0.21035185845E+02  0.48241664019E+02  0.67396692358E+02  0.00000000000E+00 0. -1.
        -14    1    5    5    0    0 -0.18089440320E+02 -0.32457867706E+02  0.29630142471E+02  0.47525639080E+02  0.00000000000E+00 0.  1.
          5    1    4    4  501    0  0.18280020639E+02 -0.69138387379E+02 -0.13462170829E+03  0.15249509011E+03  0.41800000000E+01 0.  1.
         -5    1    4    4    0  501  0.11446601988E+01  0.54312952490E+02 -0.72318765059E+02  0.90546580470E+02  0.41800000000E+01 0.  1.
</event>
<event>
11    1  0.8299058E-009  0.1502673E+03  0.7561462E-02  0.1096606E+00
         22   -1    0    0    0    0  0.00000000000E+00  0.00000000000E+00  0.11613570206E+04  0.11613570206E+04  0.00000000000E+00 0.  1.
         22   -1    0    0    0    0 -0.00000000000E+00 -0.00000000000E+00 -0.46367037173E+02  0.46367037173E+02  0.00000000000E+00 0. -1.
         24    2    1    2    0    0  0.55231613069E+02  0.10806665327E+03  0.18987300861E+03  0.23792230479E+03  0.76330407347E+02 0.  0.
         25    2    1    2    0    0 -0.16400859905E+02  0.26226497263E+02  0.39321629674E+03  0.41379151279E+03  0.12509013819E+03 0.  0.
        -24    2    1    2    0    0 -0.38830753164E+02 -0.13429315053E+03  0.53190067807E+03  0.55601024019E+03  0.81771499865E+02 0.  0.
        -11    1    3    3    0    0  0.45799572563E+02  0.38919130465E+02  0.13937164990E+03  0.15177864263E+03  0.00000000000E+00 0.  1.
         12    1    3    3    0    0  0.94320405065E+01  0.69147522804E+02  0.50501358707E+02  0.86143662155E+02  0.00000000000E+00 0. -1.
         13    1    5    5    0    0  0.11924328842E+00 -0.27484855238E+02  0.27220114670E+02  0.38682891943E+02  0.00000000000E+00 0. -1.
        -14    1    5    5    0    0 -0.38949996453E+02 -0.10680829529E+03  0.50468056340E+03  0.51732734824E+03  0.00000000000E+00 0.  1.
          5    1    4    4  501    0 -0.25098536843E+02 -0.47307530876E+02  0.19075670487E+03  0.19817550778E+03  0.41800000000E+01 0. -1.
         -5    1    4    4    0  501  0.86976769377E+01  0.73534028139E+02  0.20245959187E+03  0.21561600501E+03  0.41800000000E+01 0. -1.
</event>
<event>
11    1  0.8299058E-009  0.1276581E+03  0.7561462E-02  0.1122180E+00
         22   -1    0    0    0    0  0.00000000000E+00  0.00000000000E+00  0.15388035465E+03  0.15388035465E+03  0.00000000000E+00 0.  1.
         22   -1    0    0    0    0 -0.00000000000E+00 -0.00000000000E+00 -0.76928748105E+03  0.76928748105E+03  0.00000000000E+00 0. -1.
        -24    2    1    2    0    0  0.17607005171E+02  0.17205899164E+02 -0.61031495786E+03  0.61679555264E+03  0.85710888309E+02 0.  0.
         25    2    1    2    0    0 -0.28959638519E+02 -0.17852828386E+02 -0.11216375746E+03  0.17142279875E+03  0.12509070029E+03 0.  0.
         24    2    1    2    0    0  0.11352633347E+02  0.64692922177E+00  0.10707158891E+03  0.13494948431E+03  0.81349476714E+02 0.  0.
        -11    1    5    5    0    0 -0.23667904353E+02  0.26131579550E+01  0.94869187835E+02  0.97811865801E+02  0.00000000000E+00 0.  1.
         12    1    5    5    0    0  0.35020537701E+02 -0.19662287332E+01  0.12202401075E+02  0.37137618506E+02  0.00000000000E+00 0. -1.
         11    1    3    3    0    0  0.48925877126E+02  0.72492579964E+01 -0.47407175823E+03  0.47664486271E+03  0.00000000000E+00 0. -1.
        -12    1    3    3    0    0 -0.31318871955E+02  0.99566411679E+01 -0.13624319963E+03  0.14015068993E+03  0.00000000000E+00 0.  1.
          5    1    4    4  501    0 -0.28790829122E+02 -0.63434258343E+02 -0.27175077418E+02  0.74891749918E+02  0.41800000000E+01 0.  1.
         -5    1    4    4    0  501 -0.16880939655E+00  0.45581429957E+02 -0.84988680037E+02  0.96531048829E+02  0.41800000000E+01 0.  1.
</event>
<event>
11    1  0.8299058E-009  0.1322242E+03  0.7561462E-02  0.1116566E+00
         22   -1    0    0    0    0  0.00000000000E+00  0.00000000000E+00  0.12454319117E+04  0.12454319117E+04  0.00000000000E+00 0.  1.
         22   -1    0    0    0    0 -0.00000000000E+00 -0.00000000000E+00 -0.43102831116E+03  0.43102831116E+03  0.00000000000E+00 0. -1.
         24    2    1    2    0    0  0.41786575178E+02  0.11511593426E+02 -0.40071347358E+03  0.41084217282E+03  0.79632709461E+02 0.  0.
         25    2    1    2    0    0 -0.29541794724E+02  0.10527198086E+02  0.15268192507E+03  0.19985539356E+03  0.12508744363E+03 0.  0.
        -24    2    1    2    0    0 -0.12244780454E+02 -0.22038791512E+02  0.10624351491E+04  0.10657626565E+04  0.80286680249E+02 0.  0.
        -13    1    3    3    0    0 -0.58787835466E+01 -0.12087142927E+02 -0.10594971644E+02  0.17114687969E+02  0.00000000000E+00 0.  1.
         14    1    3    3    0    0  0.47665358724E+02  0.23598736353E+02 -0.39011850193E+03  0.39372748486E+03  0.00000000000E+00 0. -1.
         11    1    5    5    0    0  0.32069326229E+02  0.22533517029E+01  0.51388375044E+03  0.51488836484E+03  0.00000000000E+00 0. -1.
        -12    1    5    5    0    0 -0.44314106682E+02 -0.24292143214E+02  0.54855139862E+03  0.55087429165E+03  0.00000000000E+00 0.  1.
          5    1    4    4  501    0  0.21754447609E+02  0.46195321936E+02  0.11714087522E+03  0.12785429522E+03  0.41800000000E+01 0.  1.
         -5    1    4    4    0  501 -0.51296242334E+02 -0.35668123851E+02  0.35541049857E+02  0.72001098335E+02  0.41800000000E+01 0.  1.
</event>
<event>
11    1  0.8299058E-009  0.5450588E+03  0.7561462E-02  0.9298114E-01
         22   -1    0    0    0    0  0.00000000000E+00  0.00000000000E+00  0.75224195321E+03  0.75224195321E+03  0.00000000000E+00 0. -1.
         22   -1    0    0    0    0 -0.00000000000E+00 -0.00000000000E+00 -0.97752531981E+03  0.97752531981E+03  0.00000000000E+00 0.  1.
         24    2    1    2    0    0  0.55862808872E+03 -0.31759805196E+02 -0.64639640489E+03  0.85869139260E+03  0.80302980877E+02 0.  0.
         25    2    1    2    0    0 -0.45881595636E+03 -0.13368395168E+02  0.53574343299E+02  0.47876018555E+03  0.12510119589E+03 0.  0.
        -24    2    1    2    0    0 -0.99812132364E+02  0.45128200364E+02  0.36753869500E+03  0.39231569486E+03  0.82631083023E+02 0.  0.
        -11    1    3    3    0    0  0.11932850350E+03 -0.39787446780E+02 -0.13709712152E+03  0.18605900515E+03  0.00000000000E+00 0.  1.
         12    1    3    3    0    0  0.43929958522E+03  0.80276415836E+01 -0.50929928337E+03  0.67263238745E+03  0.00000000000E+00 0. -1.
         13    1    5    5    0    0 -0.11313222579E+03  0.44390091084E+02  0.30400328084E+03  0.32739483114E+03  0.00000000000E+00 0. -1.
        -14    1    5    5    0    0  0.13320093423E+02  0.73810928030E+00  0.63535414159E+02  0.64920863723E+02  0.00000000000E+00 0.  1.
          5    1    4    4  501    0 -0.33085288275E+03 -0.65732808249E+02  0.42025909550E+02  0.33995305790E+03  0.41800000000E+01 0. -1.
         -5    1    4    4    0  501 -0.12796307361E+03  0.52364413081E+02  0.11548433748E+02  0.13880712765E+03  0.41800000000E+01 0. -1.
</event>
<event>
11    1  0.8299058E-009  0.1740057E+03  0.7561462E-02  0.1074597E+00
         22   -1    0    0    0    0  0.00000000000E+00  0.00000000000E+00  0.17715634934E+03  0.17715634934E+03  0.00000000000E+00 0.  1.
         22   -1    0    0    0    0 -0.00000000000E+00 -0.00000000000E+00 -0.88970499912E+03  0.88970499912E+03  0.00000000000E+00 0.  1.
         24    2    1    2    0    0  0.74717238490E+02 -0.65383891047E+02 -0.66650645450E+03  0.67981444431E+03  0.89772522916E+02 0.  0.
         25    2    1    2    0    0 -0.73940181963E+02 -0.68550930175E+02 -0.13255658213E+03  0.20828916819E+03  0.12508696809E+03 0.  0.
        -24    2    1    2    0    0 -0.77705652725E+00  0.13393482122E+03  0.86514386850E+02  0.17875773596E+03  0.80811192793E+02 0.  0.
        -13    1    3    3    0    0  0.86455741987E+02 -0.23738903476E+02 -0.48546911236E+03  0.49367842763E+03  0.00000000000E+00 0.  1.
         14    1    3    3    0    0 -0.11738503497E+02 -0.41644987571E+02 -0.18103734214E+03  0.18613601668E+03  0.00000000000E+00 0. -1.
         13    1    5    5    0    0 -0.45011979054E+01  0.10740097192E+03  0.23147958701E+02  0.10995934496E+03  0.00000000000E+00 0. -1.
        -14    1    5    5    0    0  0.37241413782E+01  0.26533849302E+02  0.63366428148E+02  0.68798390999E+02  0.00000000000E+00 0.  1.
          5    1    4    4  501    0 -0.98041220814E+02 -0.11768891752E+02 -0.82304524716E+02  0.12861607590E+03  0.41800000000E+01 0.  1.
         -5    1    4    4    0  501  0.24101038851E+02 -0.56782038423E+02 -0.50252057411E+02  0.79673092291E+02  0.41800000000E+01 0.  1.
</event>
<event>
11    1  0.8299058E-009  0.1456689E+03  0.7561462E-02  0.1101388E+00
         22   -1    0    0    0    0  0.00000000000E+00  0.00000000000E+00  0.43606283698E+03  0.43606283698E+03  0.00000000000E+00 0. -1.
         22   -1    0    0    0    0 -0.00000000000E+00 -0.00000000000E+00 -0.81166338006E+03  0.81166338006E+03  0.00000000000E+00 0.  1.
         24    2    1    2    0    0  0.22941255394E+02 -0.66129068583E+02 -0.60066896653E+03  0.61032588051E+03  0.82432506665E+02 0.  0.
         25    2    1    2    0    0 -0.38185542511E+02  0.10010508996E+03 -0.16751441749E+03  0.23492080847E+03  0.12509013347E+03 0.  0.
        -24    2    1    2    0    0  0.15244287117E+02 -0.33976021378E+02  0.39258284094E+03  0.40247952806E+03  0.80509162179E+02 0.  0.
        -13    1    3    3    0    0 -0.26524935405E+02 -0.39313860726E+02 -0.19044998250E+03  0.19626601254E+03  0.00000000000E+00 0.  1.
         14    1    3    3    0    0  0.49466190800E+02 -0.26815207857E+02 -0.41021898403E+03  0.41405986797E+03  0.00000000000E+00 0. -1.
         11    1    5    5    0    0  0.26255836183E+02 -0.32806114148E+02  0.38836250387E+03  0.39062903691E+03  0.00000000000E+00 0. -1.
        -12    1    5    5    0    0 -0.11011549066E+02 -0.11699072299E+01  0.42203370618E+01  0.11850491157E+02  0.00000000000E+00 0.  1.
          5    1    4    4  501    0  0.23330175741E+02  0.65843024767E+02 -0.14478818497E+03  0.16081259875E+03  0.41800000000E+01 0.  1.
         -5    1    4    4    0  501 -0.61515718252E+02  0.34262065194E+02 -0.22726232524E+02  0.74108209722E+02  0.41800000000E+01 0.  1.
</event>
<event>
11    1  0.8299058E-009  0.1845840E+03  0.7561462E-02  0.1065994E+00
         22   -1    0    0    0    0  0.00000000000E+00  0.00000000000E+00  0.13540244895E+04  0.13540244895E+04  0.00000000000E+00 0.  1.
         22   -1    0    0    0    0 -0.00000000000E+00 -0.00000000000E+00 -0.10223297664E+03  0.10223297664E+03  0.00000000000E+00 0. -1.
         24    2    1    2    0    0  0.12377430502E+03  0.50930807878E+02  0.18129900642E+02  0.15617145993E+03  0.78401567741E+02 0.  0.
         25    2    1    2    0    0 -0.12787365086E+03 -0.62165396517E+02  0.25265572907E+03  0.31574319361E+03  0.12507053918E+03 0.  0.
        -24    2    1    2    0    0  0.40993458364E+01  0.11234588638E+02  0.98100588316E+03  0.98434281261E+03  0.80095001829E+02 0.  0.
        -13    1    3    3    0    0  0.61259208186E+01 -0.98948461957E+01  0.20652114758E+02  0.23705373464E+02  0.00000000000E+00 0.  1.
         14    1    3    3    0    0  0.11764838420E+03  0.60825654074E+02 -0.25222141156E+01  0.13246608647E+03  0.00000000000E+00 0. -1.
         11    1    5    5    0    0 -0.29463123064E+02  0.26561096674E+02  0.34612392045E+03  0.34838963214E+03  0.00000000000E+00 0. -1.
        -12    1    5    5    0    0  0.33562468900E+02 -0.15326508035E+02  0.63488196272E+03  0.63595318047E+03  0.00000000000E+00 0.  1.
          5    1    4    4  501    0 -0.11303187132E+03  0.84522349228E+01  0.12310024522E+03  0.16738813274E+03  0.41800000000E+01 0. -1.
         -5    1    4    4    0  501 -0.14841779541E+02 -0.70617631439E+02  0.12955548385E+03  0.14835506087E+03  0.41800000000E+01 0. -1.
</event>
<event>
11    1  0.8299058E-009  0.1384635E+03  0.7561462E-02  0.1109286E+00
         22   -1    0    0    0    0  0.00000000000E+00  0.00000000000E+00  0.29669451731E+03  0.29669451731E+03  0.00000000000E+00 0.  1.
         22   -1    0    0    0    0 -0.00000000000E+00 -0.00000000000E+00 -0.90983449352E+03  0.90983449352E+03  0.00000000000E+00 0.  1.
         24    2    1    2    0    0  0.93043160611E+00  0.61067094867E+02 -0.73833637880E+03  0.74508936521E+03  0.79293745698E+02 0.  0.
         25    2    1    2    0    0  0.26497279048E+02 -0.48850300869E+01 -0.13264675986E+03  0.18430644796E+03  0.12509090512E+03 0.  0.
        -24    2    1    2    0    0 -0.27427710655E+02 -0.56182064780E+02  0.25784316245E+03  0.27713319766E+03  0.80068777362E+02 0.  0.
        -13    1    3    3    0    0  0.22783137604E+01  0.10738852753E+02 -0.55089246496E+03  0.55100183450E+03  0.00000000000E+00 0.  1.
         14    1    3    3    0    0 -0.13478821543E+01  0.50328242113E+02 -0.18744391384E+03  0.19408753071E+03  0.00000000000E+00 0. -1.
         13    1    5    5    0    0 -0.16627880940E+02  0.18369703379E+02  0.45269525074E+02  0.51606805047E+02  0.00000000000E+00 0. -1.
        -14    1    5    5    0    0 -0.10799829715E+02 -0.74551768159E+02  0.21257363738E+03  0.22552639262E+03  0.00000000000E+00 0.  1.
          5    1    4    4  501    0  0.41204592206E+02  0.25933632496E+01  0.83139601548E+01  0.42321841704E+02  0.41800000000E+01 0. -1.
         -5    1    4    4    0  501 -0.14707313157E+02 -0.74783933365E+01 -0.14096072001E+03  0.14198460626E+03  0.41800000000E+01 0. -1.
</event>
<event>
11    1  0.8299058E-009  0.1993374E+03  0.7561462E-02  0.1054993E+00
         22   -1    0    0    0    0  0.00000000000E+00  0.00000000000E+00  0.26598431737E+04  0.26598431737E+04  0.00000000000E+00 0.  1.
         22   -1    0    0    0    0 -0.00000000000E+00 -0.00000000000E+00 -0.76616742440E+03  0.76616742440E+03  0.00000000000E+00 0. -1.
        -24    2    1    2    0    0  0.10451327070E+03 -0.11237004775E+03 -0.71435973211E+03  0.73490329987E+03  0.78885879078E+02 0.  0.
         25    2    1    2    0    0 -0.20718862522E+03  0.12935335335E+03  0.43762229577E+03  0.51654665193E+03  0.12509098061E+03 0.  0.
         24    2    1    2    0    0  0.10267535452E+03 -0.16983305602E+02  0.21704131856E+04  0.21745606462E+04  0.84793554306E+02 0.  0.
        -11    1    5    5    0    0  0.88247724515E+02 -0.14978677653E+02  0.21246616021E+04  0.21265462480E+04  0.00000000000E+00 0.  1.
         12    1    5    5    0    0  0.14427630001E+02 -0.20046279492E+01  0.45751583535E+02  0.48014398222E+02  0.00000000000E+00 0. -1.
         13    1    3    3    0    0  0.79408534210E+02 -0.12207079408E+03 -0.60557271346E+03  0.62283649970E+03  0.00000000000E+00 0. -1.
        -14    1    3    3    0    0  0.25104736489E+02  0.97007463310E+01 -0.10878701865E+03  0.11206680017E+03  0.00000000000E+00 0.  1.
          5    1    4    4  501    0 -0.21028526550E+02  0.78187269822E+02  0.13939767269E+03  0.16125951644E+03  0.41800000000E+01 0.  1.
         -5    1    4    4    0  501 -0.18616009867E+03  0.51166083529E+02  0.29822462308E+03  0.35528713550E+03  0.41800000000E+01 0.  1.
</event>
<event>
11    1  0.8299058E-009  0.1296776E+03  0.7561462E-02  0.1119666E+00
         22   -1    0    0    0    0  0.00000000000E+00  0.00000000000E+00  0.39319052581E+03  0.39319052581E+03  0.00000000000E+00 0. -1.
         22   -1    0    0    0    0 -0.00000000000E+00 -0.00000000000E+00 -0.15243612176E+03  0.15243612176E+03  0.00000000000E+00 0.  1.
        -24    2    1    2    0    0  0.27264187608E+02 -0.26555724890E+02 -0.73740752750E+02  0.11675322466E+03  0.82128401914E+02 0.  0.
         25    2    1    2    0    0 -0.25935293111E+02  0.38561817840E+00  0.28562835017E+02  0.13090467018E+03  0.12508960388E+03 0.  0.
         24    2    1    2    0    0 -0.13288944968E+01  0.26170106712E+02  0.28593232179E+03  0.29796875274E+03  0.79633187325E+02 0.  0.
        -11    1    5    5    0    0  0.38569851790E+02  0.20041149088E+02  0.14900275028E+03  0.15521308165E+03  0.00000000000E+00 0.  1.
         12    1    5    5    0    0 -0.39898746287E+02  0.61289576240E+01  0.13692957150E+03  0.14275567109E+03  0.00000000000E+00 0. -1.
         11    1    3    3    0    0  0.23148722341E+02  0.13867923351E+02 -0.71084227136E+02  0.76033873975E+02  0.00000000000E+00 0. -1.
        -12    1    3    3    0    0  0.41154652664E+01 -0.40423648242E+02 -0.26565256141E+01  0.40719350681E+02  0.00000000000E+00 0.  1.
          5    1    4    4  501    0  0.15109822900E+02 -0.48241406228E+02  0.41854210803E+02  0.65763115687E+02  0.41800000000E+01 0. -1.
         -5    1    4    4    0  501 -0.41045116011E+02  0.48627024406E+02 -0.13291375786E+02  0.65141554489E+02  0.41800000000E+01 0. -1.
</event>
<event>
11    1  0.8299058E-009  0.1438256E+03  0.7561462E-02  0.1103360E+00
         22   -1    0    0    0    0  0.00000000000E+00  0.00000000000E+00  0.13538919062E+04  0.13538919062E+04  0.00000000000E+00 0.  1.
         22   -1    0    0    0    0 -0.00000000000E+00 -0.00000000000E+00 -0.40716900458E+02  0.40716900458E+02  0.00000000000E+00 0. -1.
        -24    2    1    2    0    0 -0.69642841084E+02  0.61515145803E+01  0.75852324403E+02  0.13235867325E+03  0.82929348368E+02 0.  0.
         25    2    1    2    0    0  0.82033968417E+02  0.38103397656E+02  0.85358916588E+03  0.86743394513E+03  0.12508294920E+03 0.  0.
         24    2    1    2    0    0 -0.12391127333E+02 -0.44254912236E+02  0.38373351547E+03  0.39481618829E+03  0.80724062967E+02 0.  0.
        -13    1    5    5    0    0  0.52528918577E+01 -0.65246946844E+02  0.26791806775E+03  0.27579856412E+03  0.00000000000E+00 0.  1.
         14    1    5    5    0    0 -0.17644019190E+02  0.20992034608E+02  0.11581544772E+03  0.11901762416E+03  0.00000000000E+00 0. -1.
         13    1    3    3    0    0 -0.47042046794E+02 -0.21403075249E+02  0.36145617489E+01  0.51808405238E+02  0.00000000000E+00 0. -1.
        -14    1    3    3    0    0 -0.22600794291E+02  0.27554589830E+02  0.72237762654E+02  0.80550268010E+02  0.00000000000E+00 0.  1.
          5    1    4    4  501    0  0.11446646221E+02 -0.29352736467E+02  0.48720223319E+03  0.48823774667E+03  0.41800000000E+01 0. -1.
         -5    1    4    4    0  501  0.70587322196E+02  0.67456134123E+02  0.36638693269E+03  0.37919619847E+03  0.41800000000E+01 0. -1.
</event>
<event>
11    1  0.8299058E-009  0.1459314E+03  0.7561462E-02  0.1101110E+00
         22   -1    0    0    0    0  0.00000000000E+00  0.00000000000E+00  0.36583336771E+03  0.36583336771E+03  0.00000000000E+00 0.  1.
         22   -1    0    0    0    0 -0.00000000000E+00 -0.00000000000E+00 -0.25303821654E+03  0.25303821654E+03  0.00000000000E+00 0.  1.
        -24    2    1    2    0    0 -0.11998772658E+02  0.77655229470E+01 -0.19441563873E+03  0.21041700209E+03  0.79206062235E+02 0.  0.
         25    2    1    2    0    0 -0.65621985662E+02  0.27988200438E+01  0.92880738652E+02  0.16908312256E+03  0.12509273490E+03 0.  0.
         24    2    1    2    0    0  0.77620758320E+02 -0.10564342991E+02  0.21433005124E+03  0.23937145961E+03  0.72282344618E+02 0.  0.
        -13    1    5    5    0    0  0.55905910346E+02 -0.17219574876E+02  0.20759869962E+03  0.21568311165E+03  0.00000000000E+00 0.  1.
         14    1    5    5    0    0  0.21714847974E+02  0.66552318854E+01  0.67313516267E+01  0.23688347952E+02  0.00000000000E+00 0. -1.
         11    1    3    3    0    0 -0.38758065724E+02 -0.13036180568E+02 -0.14380234245E+03  0.14950332223E+03  0.00000000000E+00 0. -1.
        -12    1    3    3    0    0  0.26759293066E+02  0.20801703515E+02 -0.50613296276E+02  0.60913679862E+02  0.00000000000E+00 0.  1.
          5    1    4    4  501    0 -0.72014826207E+02 -0.21188643121E+02  0.11377198573E+03  0.13636946480E+03  0.41800000000E+01 0. -1.
         -5    1    4    4    0  501  0.63928405457E+01  0.23987463165E+02 -0.20891247083E+02  0.32713657760E+02  0.41800000000E+01 0. -1.
</event>
<event>
11    1  0.8299058E-009  0.1395698E+03  0.7561462E-02  0.1108040E+00
         22   -1    0    0    0    0  0.00000000000E+00  0.00000000000E+00  0.26909150162E+04  0.26909150162E+04  0.00000000000E+00 0. -1.
         22   -1    0    0    0    0 -0.00000000000E+00 -0.00000000000E+00 -0.12421906119E+03  0.12421906119E+03  0.00000000000E+00 0.  1.
        -24    2    1    2    0    0 -0.56492578213E+02  0.37973353528E+02 -0.56647859995E+02  0.11980117681E+03  0.80684291853E+02 0.  0.
         25    2    1    2    0    0  0.52599162889E+02  0.20205693674E+02  0.99378983843E+02  0.16940703866E+03  0.12509044857E+03 0.  0.
         24    2    1    2    0    0  0.38934153241E+01 -0.58179047203E+02  0.25239648311E+04  0.25259258619E+04  0.80641370973E+02 0.  0.
        -13    1    5    5    0    0 -0.96819643882E+01 -0.29213318413E+02  0.27227647525E+03  0.27401028700E+03  0.00000000000E+00 0.  1.
         14    1    5    5    0    0  0.13575379712E+02 -0.28965728789E+02  0.22516883559E+04  0.22519155749E+04  0.00000000000E+00 0. -1.
         11    1    3    3    0    0  0.23328770134E+01  0.46108122438E+02 -0.25582047339E+02  0.52781080095E+02  0.00000000000E+00 0. -1.
        -12    1    3    3    0    0 -0.58825455226E+02 -0.81347689101E+01 -0.31065812656E+02  0.67020096716E+02  0.00000000000E+00 0.  1.
          5    1    4    4  501    0 -0.24120016732E+02  0.46481060271E+02  0.21081168598E+02  0.56605231565E+02  0.41800000000E+01 0.  1.
         -5    1    4    4    0  501  0.76719179620E+02 -0.26275366597E+02  0.78297815245E+02  0.11280180709E+03  0.41800000000E+01 0.  1.
</event>
<event>
11    1  0.8299058E-009  0.1281555E+03  0.7561462E-02  0.1121556E+00
         22   -1    0    0    0    0  0.00000000000E+00  0.00000000000E+00  0.11786722688E+03  0.11786722688E+03  0.00000000000E+00 0.  1.
         22   -1    0    0    0    0 -0.00000000000E+00 -0.00000000000E+00 -0.20249792506E+04  0.20249792506E+04  0.00000000000E+00 0. -1.
         24    2    1    2    0    0  0.11771071952E+02 -0.89617172507E+01 -0.14005692977E+04  0.14029430272E+04  0.80224120211E+02 0.  0.
         25    2    1    2    0    0 -0.75664710646E+00 -0.16984403662E+02 -0.59998265319E+03  0.61312050100E+03  0.12509405318E+03 0.  0.
        -24    2    1    2    0    0 -0.11014424845E+02  0.25946120913E+02  0.93439927157E+02  0.12678294927E+03  0.80922045776E+02 0.  0.
        -13    1    3    3    0    0 -0.48849955121E+01 -0.28549772630E+02 -0.19882545362E+03  0.20092414913E+03  0.00000000000E+00 0.  1.
         14    1    3    3    0    0  0.16656067464E+02  0.19588055379E+02 -0.12017438440E+04  0.12020188780E+04  0.00000000000E+00 0. -1.
         11    1    5    5    0    0 -0.34591904828E+02 -0.12829107100E+02  0.24645280181E+02  0.44368634234E+02  0.00000000000E+00 0. -1.
        -12    1    5    5    0    0  0.23577479982E+02  0.38775228013E+02  0.68794646976E+02  0.82414315033E+02  0.00000000000E+00 0.  1.
          5    1    4    4  501    0  0.39373405624E+02 -0.41968397723E+02 -0.48934084842E+03  0.49273070719E+03  0.41800000000E+01 0.  1.
         -5    1    4    4    0  501 -0.40130052730E+02  0.24983994061E+02 -0.11064180477E+03  0.12038979381E+03  0.41800000000E+01 0.  1.
</event>
<event>
11    1  0.8299058E-009  0.1318851E+03  0.7561462E-02  0.1116974E+00
         22   -1    0    0    0    0  0.00000000000E+00  0.00000000000E+00  0.24722129386E+03  0.24722129386E+03  0.00000000000E+00 0. -1.
         22   -1    0    0    0    0 -0.00000000000E+00 -0.00000000000E+00 -0.29227908125E+04  0.29227908125E+04  0.00000000000E+00 0. -1.
        -24    2    1    2    0    0 -0.21042595877E+02  0.99432138634E+01 -0.23936707453E+04  0.23954621117E+04  0.89651733014E+02 0.  0.
         25    2    1    2    0    0 -0.21118026311E+02 -0.91090090971E+01 -0.51076375196E+03  0.52636167241E+03  0.12509218517E+03 0.  0.
         24    2    1    2    0    0  0.42160622188E+02 -0.83420476628E+00  0.22886497866E+03  0.24818832223E+03  0.86255729522E+02 0.  0.
        -13    1    5    5    0    0 -0.14998168645E+02  0.12303911298E+02  0.10447476729E+02  0.22033634878E+02  0.00000000000E+00 0.  1.
         14    1    5    5    0    0  0.57158790833E+02 -0.13138116064E+02  0.21841750193E+03  0.22615468735E+03  0.00000000000E+00 0. -1.
         13    1    3    3    0    0  0.11116090442E+02  0.31075892333E+02 -0.19025099435E+04  0.19027961960E+04  0.00000000000E+00 0. -1.
        -14    1    3    3    0    0 -0.32158686319E+02 -0.21132678469E+02 -0.49116080182E+03  0.49266591566E+03  0.00000000000E+00 0.  1.
          5    1    4    4  501    0 -0.17869516176E+02 -0.55837082533E+02 -0.42044457889E+03  0.42453293831E+03  0.41800000000E+01 0. -1.
         -5    1    4    4    0  501 -0.32485101348E+01  0.46728073436E+02 -0.90319173071E+02  0.10182873410E+03  0.41800000000E+01 0. -1.
</event>
<event>
11    1  0.8299058E-009  0.1310131E+03  0.7561462E-02  0.1118030E+00
         22   -1    0    0    0    0  0.00000000000E+00  0.00000000000E+00  0.34367949971E+03  0.34367949971E+03  0.00000000000E+00 0.  1.
         22   -1    0    0    0    0 -0.00000000000E+00 -0.00000000000E+00 -0.25481625795E+03  0.25481625795E+03  0.00000000000E+00 0.  1.
        -24    2    1    2    0    0 -0.31302929257E+02  0.93449919848E+01 -0.12397817349E+03  0.15136784829E+03  0.80463878473E+02 0.  0.
         25    2    1    2    0    0  0.61342527481E+02  0.39160868772E+01 -0.66832751452E+02  0.15457238105E+03  0.12509101848E+03 0.  0.
         24    2    1    2    0    0 -0.30039598224E+02 -0.13261078862E+02  0.27967416670E+03  0.29255552831E+03  0.79327573738E+02 0.  0.
        -11    1    5    5    0    0 -0.48093600583E+02 -0.18344865184E+02  0.26121951808E+03  0.26624268088E+03  0.00000000000E+00 0.  1.
         12    1    5    5    0    0  0.18054002359E+02  0.50837863217E+01  0.18454648617E+02  0.26312847435E+02  0.00000000000E+00 0. -1.
         11    1    3    3    0    0 -0.46043257404E+01 -0.15512866266E+02  0.53108983083E+01  0.17030985766E+02  0.00000000000E+00 0. -1.
        -12    1    3    3    0    0 -0.26698603517E+02  0.24857858251E+02 -0.12928907180E+03  0.13433686252E+03  0.00000000000E+00 0.  1.
          5    1    4    4  501    0  0.81640265772E+02 -0.32301600100E+02 -0.16913871365E+02  0.89510210640E+02  0.41800000000E+01 0.  1.
         -5    1    4    4    0  501 -0.20297738291E+02  0.36217686977E+02 -0.49918880087E+02  0.65062170413E+02  0.41800000000E+01 0.  1.
</event>
<event>
11    1  0.8299058E-009  0.1642394E+03  0.7561462E-02  0.1083156E+00
         22   -1    0    0    0    0  0.00000000000E+00  0.00000000000E+00  0.75754901376E+03  0.75754901376E+03  0.00000000000E+00 0. -1.
         22   -1    0    0    0    0 -0.00000000000E+00 -0.00000000000E+00 -0.87748880054E+03  0.87748880054E+03  0.00000000000E+00 0. -1.
        -24    2    1    2    0    0 -0.94779498116E+02 -0.16276705784E+02 -0.55621770727E+03  0.57019111270E+03  0.80570979285E+02 0.  0.
         25    2    1    2    0    0  0.15122810626E+03  0.18940383745E+02 -0.27998208501E+03  0.34244169398E+03  0.12509063751E+03 0.  0.
         24    2    1    2    0    0 -0.56448608146E+02 -0.26636779612E+01  0.71626000549E+03  0.72240500762E+03  0.75146916293E+02 0.  0.
        -13    1    5    5    0    0 -0.15981911099E+02 -0.13985246828E+02  0.44247659343E+02  0.49080178978E+02  0.00000000000E+00 0.  1.
         14    1    5    5    0    0 -0.40466697047E+02  0.11321568867E+02  0.67201234615E+03  0.67332482865E+03  0.00000000000E+00 0. -1.
         11    1    3    3    0    0 -0.98884531694E+02 -0.32357470477E+02 -0.40840684275E+03  0.42145142746E+03  0.00000000000E+00 0. -1.
        -12    1    3    3    0    0  0.41050335772E+01  0.16080764692E+02 -0.14781086452E+03  0.14873968524E+03  0.00000000000E+00 0.  1.
          5    1    4    4  501    0  0.92637116863E+02  0.64788284719E+02 -0.11449617033E+03  0.16095341773E+03  0.41800000000E+01 0.  1.
         -5    1    4    4    0  501  0.58590989399E+02 -0.45847900974E+02 -0.16548591468E+03  0.18148827626E+03  0.41800000000E+01 0.  1.
</event>
<event>
11    1  0.8299058E-009  0.1735716E+03  0.7561462E-02  0.1074965E+00
         22   -1    0    0    0    0  0.00000000000E+00  0.00000000000E+00  0.25544405381E+04  0.25544405381E+04  0.00000000000E+00 0.  1.
         22   -1    0    0    0    0 -0.00000000000E+00 -0.00000000000E+00 -0.33390122889E+03  0.33390122889E+03  0.00000000000E+00 0.  1.
         24    2    1    2    0    0 -0.26324487661E+02  0.11826695389E+03 -0.29782544288E+03  0.33150593514E+03  0.80722608806E+02 0.  0.
         25    2    1    2    0    0  0.49573330767E+02 -0.93492545361E+02  0.34973937614E+03  0.38621717289E+03  0.12509077604E+03 0.  0.
        -24    2    1    2    0    0 -0.23248843107E+02 -0.24774408531E+02  0.21686253759E+04  0.21706186589E+04  0.86574022599E+02 0.  0.
        -11    1    3    3    0    0 -0.15493385606E+02  0.45230258310E+02 -0.21627366068E+03  0.22149518633E+03  0.00000000000E+00 0.  1.
         12    1    3    3    0    0 -0.10831102055E+02  0.73036695583E+02 -0.81551782203E+02  0.11001074881E+03  0.00000000000E+00 0. -1.
         13    1    5    5    0    0  0.29599294397E+02 -0.27361497258E+00  0.42994495790E+03  0.43096271291E+03  0.00000000000E+00 0. -1.
        -14    1    5    5    0    0 -0.52848137504E+02 -0.24500793558E+02  0.17386804180E+04  0.17396559460E+04  0.00000000000E+00 0.  1.
          5    1    4    4  501    0 -0.42502969455E+01 -0.28875045338E+02  0.32720984113E+01  0.29665001187E+02  0.41800000000E+01 0. -1.
         -5    1    4    4    0  501  0.53823627713E+02 -0.64617500023E+02  0.34646727773E+03  0.35655217171E+03  0.41800000000E+01 0. -1.
</event>
<event>
11    1  0.8299058E-009  0.1452124E+03  0.7561462E-02  0.1101874E+00
         22   -1    0    0    0    0  0.00000000000E+00  0.00000000000E+00  0.79382494855E+03  0.79382494855E+03  0.00000000000E+00 0. -1.
         22   -1    0    0    0    0 -0.00000000000E+00 -0.00000000000E+00 -0.12112656366E+04  0.12112656366E+04  0.00000000000E+00 0. -1.
         24    2    1    2    0    0 -0.46733477448E+02 -0.58953592837E+02 -0.11559014314E+04  0.11611858126E+04  0.81146954884E+02 0.  0.
         25    2    1    2    0    0  0.46526804123E+02 -0.86402133196E+01  0.42965383644E+02  0.14047291394E+03  0.12508884271E+03 0.  0.
        -24    2    1    2    0    0  0.20667332502E+00  0.67593806157E+02  0.69549535963E+03  0.70343185869E+03  0.80830806045E+02 0.  0.
        -13    1    3    3    0    0 -0.17317362955E+02 -0.27344051807E+02 -0.11719586064E+03  0.12158313197E+03  0.00000000000E+00 0.  1.
         14    1    3    3    0    0 -0.29416114493E+02 -0.31609541030E+02 -0.10387055707E+04  0.10396026806E+04  0.00000000000E+00 0. -1.
         13    1    5    5    0    0 -0.37950149964E+02  0.50705855740E+02  0.39259502335E+03  0.39767090671E+03  0.00000000000E+00 0. -1.
        -14    1    5    5    0    0  0.38156823289E+02  0.16887950417E+02  0.30290033628E+03  0.30576095197E+03  0.00000000000E+00 0.  1.
          5    1    4    4  501    0 -0.87583221002E+01 -0.44949206250E+02  0.56482222070E+02  0.72834422895E+02  0.41800000000E+01 0. -1.
         -5    1    4    4    0  501  0.55285126223E+02  0.36308992931E+02 -0.13516838426E+02  0.67638491040E+02  0.41800000000E+01 0. -1.
</event>
<event>
11    1  0.8299058E-009  0.1357729E+03  0.7561462E-02  0.1112373E+00
         22   -1    0    0    0    0  0.00000000000E+00  0.00000000000E+00  0.80153827609E+03  0.80153827609E+03  0.00000000000E+00 0.  1.
         22   -1    0    0    0    0 -0.00000000000E+00 -0.00000000000E+00 -0.61767768287E+03  0.61767768287E+03  0.00000000000E+00 0. -1.
         24    2    1    2    0    0 -0.52526783667E+02 -0.23474141975E+01 -0.55630133392E+03  0.56469638914E+03  0.81524624657E+02 0.  0.
         25    2    1    2    0    0  0.58489091023E+02 -0.22536668243E+02  0.34769518136E+02  0.14416428322E+03  0.12508215693E+03 0.  0.
        -24    2    1    2    0    0 -0.59623073555E+01  0.24884082440E+02  0.70539240901E+03  0.71035528661E+03  0.79821149175E+02 0.  0.
        -13    1    3    3    0    0 -0.40999488998E+02 -0.17827577667E+02 -0.12145880763E+03  0.12942574155E+03  0.00000000000E+00 0.  1.
         14    1    3    3    0    0 -0.11527294669E+02  0.15480163469E+02 -0.43484252629E+03  0.43527064759E+03  0.00000000000E+00 0. -1.
         13    1    5    5    0    0  0.31155750034E+02  0.12399188889E+02  0.15571355893E+03  0.15928318517E+03  0.00000000000E+00 0. -1.
        -14    1    5    5    0    0 -0.37118057389E+02  0.12484893551E+02  0.54967885008E+03  0.55107210143E+03  0.00000000000E+00 0.  1.
          5    1    4    4  501    0 -0.30878546009E+02 -0.20285041765E+02  0.39881179503E+02  0.54524750358E+02  0.41800000000E+01 0. -1.
         -5    1    4    4    0  501  0.89367637031E+02 -0.22516264784E+01 -0.51116613674E+01  0.89639532865E+02  0.41800000000E+01 0. -1.
</event>
<event>
11    1  0.8299058E-009  0.1550900E+03  0.7561462E-02  0.1091788E+00
         22   -1    0    0    0    0  0.00000000000E+00  0.00000000000E+00  0.13195856987E+04  0.13195856987E+04  0.00000000000E+00 0.  1.
         22   -1    0    0    0    0 -0.00000000000E+00 -0.00000000000E+00 -0.38614499625E+04  0.38614499625E+04  0.00000000000E+00 0. -1.
        -24    2    1    2    0    0  0.66833644038E+02  0.48391879312E+01 -0.38248906699E+04  0.38264718030E+04  0.87221949368E+02 0.  0.
         25    2    1    2    0    0 -0.11495132132E+03  0.69398529958E+02  0.22744194166E+03  0.29224779228E+03  0.12509585536E+03 0.  0.
         24    2    1    2    0    0  0.48117677284E+02 -0.74237717890E+02  0.10555844646E+04  0.10623160659E+04  0.80189229478E+02 0.  0.
        -11    1    5    5    0    0  0.54735879002E+02 -0.73805858223E+02  0.10488384698E+04  0.10528558576E+04  0.00000000000E+00 0.  1.
         12    1    5    5    0    0 -0.66182017181E+01 -0.43185966700E+00  0.67459947890E+01  0.94602083723E+01  0.00000000000E+00 0. -1.
         13    1    3    3    0    0  0.47131781086E+02  0.38850746936E+02 -0.14915780848E+04  0.14928281778E+04  0.00000000000E+00 0. -1.
        -14    1    3    3    0    0  0.19701862952E+02 -0.34011559005E+02 -0.23333125851E+04  0.23336436252E+04  0.00000000000E+00 0.  1.
          5    1    4    4  501    0 -0.11547006266E+02  0.53344654248E+02  0.17220617931E+02  0.57384732922E+02  0.41800000000E+01 0. -1.
         -5    1    4    4    0  501 -0.10340431506E+03  0.16053875710E+02  0.21022132373E+03  0.23486305935E+03  0.41800000000E+01 0. -1.
</event>
<event>
11    1  0.8299058E-009  0.1517258E+03  0.7561462E-02  0.1095128E+00
         22   -1    0    0    0    0  0.00000000000E+00  0.00000000000E+00  0.19265959010E+04  0.19265959010E+04  0.00000000000E+00 0. -1.
         22   -1    0    0    0    0 -0.00000000000E+00 -0.00000000000E+00 -0.35145712395E+03  0.35145712395E+03  0.00000000000E+00 0.  1.
        -24    2    1    2    0    0 -0.16125478505E+02  0.23038127717E+02 -0.26586085804E+03  0.27932733167E+03  0.80938099766E+02 0.  0.
         25    2    1    2    0    0  0.54116514719E+01 -0.10772505326E+03  0.11709947057E+02  0.16558322712E+03  0.12508680654E+03 0.  0.
         24    2    1    2    0    0  0.10713827033E+02  0.84686925546E+02  0.18292896881E+04  0.18331424662E+04  0.82606761312E+02 0.  0.
        -13    1    5    5    0    0 -0.31699826128E+02  0.13539681087E+02  0.41488334248E+03  0.41631285088E+03  0.00000000000E+00 0.  1.
         14    1    5    5    0    0  0.42413653161E+02  0.71147244458E+02  0.14144063456E+04  0.14168296153E+04  0.00000000000E+00 0. -1.
         13    1    3    3    0    0 -0.48692218141E+02  0.17488669544E+02 -0.14182172342E+03  0.15096419080E+03  0.00000000000E+00 0. -1.
        -14    1    3    3    0    0  0.32566739636E+02  0.55494581728E+01 -0.12403913462E+03  0.12836314087E+03  0.00000000000E+00 0.  1.
          5    1    4    4  501    0  0.62201343698E+02 -0.67086087659E+02  0.23718894385E+02  0.94602371356E+02  0.41800000000E+01 0. -1.
         -5    1    4    4    0  501 -0.56789692226E+02 -0.40638965603E+02 -0.12008947328E+02  0.70980855760E+02  0.41800000000E+01 0. -1.
</event>
<event>
11    1  0.8299058E-009  0.1861065E+03  0.7561462E-02  0.1064808E+00
         22   -1    0    0    0    0  0.00000000000E+00  0.00000000000E+00  0.20144293876E+03  0.20144293876E+03  0.00000000000E+00 0. -1.
         22   -1    0    0    0    0 -0.00000000000E+00 -0.00000000000E+00 -0.22147375199E+04  0.22147375199E+04  0.00000000000E+00 0.  1.
         24    2    1    2    0    0 -0.19920333822E+02  0.13688994814E+03 -0.13285256482E+04  0.13380420573E+04  0.78996655387E+02 0.  0.
         25    2    1    2    0    0  0.60719423348E+00 -0.13760383435E+03 -0.86125032638E+03  0.88109821520E+03  0.12508699463E+03 0.  0.
        -24    2    1    2    0    0  0.19313139589E+02  0.71388620628E+00  0.17648139346E+03  0.19704018615E+03  0.85473070184E+02 0.  0.
        -11    1    3    3    0    0 -0.17382340857E+02  0.10891624687E+03 -0.12459021419E+04  0.12507745767E+04  0.00000000000E+00 0.  1.
         12    1    3    3    0    0 -0.25379929655E+01  0.27973701278E+02 -0.82623506395E+02  0.87267480659E+02  0.00000000000E+00 0. -1.
         11    1    5    5    0    0  0.48317536631E+02  0.11921300816E+02  0.14268892591E+03  0.15111860024E+03  0.00000000000E+00 0. -1.
        -12    1    5    5    0    0 -0.29004397042E+02 -0.11207414610E+02  0.33792467545E+02  0.45921585913E+02  0.00000000000E+00 0.  1.
          5    1    4    4  501    0  0.56173908094E+02 -0.10618551236E+03 -0.61771126081E+03  0.62929766018E+03  0.41800000000E+01 0.  1.
         -5    1    4    4    0  501 -0.55566713860E+02 -0.31418321989E+02 -0.24353906557E+03  0.25180055501E+03  0.41800000000E+01 0.  1.
</event>
<event>
11    1  0.8299058E-009  0.1381796E+03  0.7561462E-02  0.1109608E+00
         22   -1    0    0    0    0  0.00000000000E+00  0.00000000000E+00  0.27642293906E+03  0.27642293906E+03  0.00000000000E+00 0.  1.
         22   -1    0    0    0    0 -0.00000000000E+00 -0.00000000000E+00 -0.37734073953E+03  0.37734073953E+03  0.00000000000E+00 0. -1.
        -24    2    1    2    0    0 -0.93665015943E+00 -0.79376304308E+01 -0.31848487801E+03  0.32858726608E+03  0.80455519506E+02 0.  0.
         25    2    1    2    0    0 -0.58035334144E+02  0.28208787966E+01  0.97800320560E+02  0.16908019277E+03  0.12508857470E+03 0.  0.
         24    2    1    2    0    0  0.58971984304E+02  0.51167516342E+01  0.11976675698E+03  0.15609621974E+03  0.80734612527E+02 0.  0.
        -11    1    5    5    0    0  0.39378293760E+02  0.97372651549E+01  0.12805454882E+03  0.13432584198E+03  0.00000000000E+00 0.  1.
         12    1    5    5    0    0  0.19593690543E+02 -0.46205135206E+01 -0.82877918330E+01  0.21770377759E+02  0.00000000000E+00 0. -1.
         13    1    3    3    0    0  0.13816297092E+02 -0.64943945783E+01 -0.31205701758E+03  0.31243023133E+03  0.00000000000E+00 0. -1.
        -14    1    3    3    0    0 -0.14752947251E+02 -0.14432358525E+01 -0.64278604303E+01  0.16157034754E+02  0.00000000000E+00 0.  1.
          5    1    4    4  501    0 -0.89741518265E+02  0.50559077818E+00  0.31096164651E+02  0.95069656455E+02  0.41800000000E+01 0. -1.
         -5    1    4    4    0  501  0.31706184121E+02  0.23152880184E+01  0.66704155910E+02  0.74010536316E+02  0.41800000000E+01 0. -1.
</event>
<event>
11    1  0.8299058E-009  0.1417321E+03  0.7561462E-02  0.1105640E+00
         22   -1    0    0    0    0  0.00000000000E+00  0.00000000000E+00  0.19335339707E+03  0.19335339707E+03  0.00000000000E+00 0. -1.
         22   -1    0    0    0    0 -0.00000000000E+00 -0.00000000000E+00 -0.95318728199E+03  0.95318728199E+03  0.00000000000E+00 0.  1.
         24    2    1    2    0    0 -0.68186884544E+02  0.16266969477E+02 -0.79167427126E+03  0.79889275256E+03  0.81039575530E+02 0.  0.
         25    2    1    2    0    0  0.42531305788E+02  0.49299882151E+02 -0.10372162759E+03  0.17506318508E+03  0.12509817100E+03 0.  0.
        -24    2    1    2    0    0  0.25655578756E+02 -0.65566851628E+02  0.13556201392E+03  0.17258474142E+03  0.80319440963E+02 0.  0.
        -13    1    3    3    0    0 -0.70202517781E+02  0.27421742937E+02 -0.77543212204E+03  0.77908620921E+03  0.00000000000E+00 0.  1.
         14    1    3    3    0    0  0.20156332368E+01 -0.11154773460E+02 -0.16242149215E+02  0.19806543348E+02  0.00000000000E+00 0. -1.
         11    1    5    5    0    0 -0.27902596093E+01 -0.59932042238E+02  0.12983349274E+03  0.14302577066E+03  0.00000000000E+00 0. -1.
        -12    1    5    5    0    0  0.28445838365E+02 -0.56348093899E+01  0.57285211828E+01  0.29558970755E+02  0.00000000000E+00 0.  1.
          5    1    4    4  501    0 -0.35772515818E+01  0.83333163664E+02 -0.59083233700E+02  0.10230109383E+03  0.41800000000E+01 0. -1.
         -5    1    4    4    0  501  0.46108557370E+02 -0.34033281513E+02 -0.44638393891E+02  0.72762091246E+02  0.41800000000E+01 0. -1.
</event>
<event>
11    1  0.8299058E-009  0.1272046E+03  0.7561462E-02  0.1122752E+00
         22   -1    0    0    0    0  0.00000000000E+00  0.00000000000E+00  0.17914496375E+03  0.17914496375E+03  0.00000000000E+00 0. -1.
         22   -1    0    0    0    0 -0.00000000000E+00 -0.00000000000E+00 -0.32616108180E+03  0.32616108180E+03  0.00000000000E+00 0.  1.
         24    2    1    2    0    0 -0.40851565302E+01 -0.22693395549E+02 -0.23224794155E+03  0.24739398510E+03  0.82054852403E+02 0.  0.
         25    2    1    2    0    0 -0.44041941019E+01  0.24592867629E+02 -0.14536026400E+02  0.12838152805E+03  0.12508522941E+03 0.  0.
        -24    2    1    2    0    0  0.84893506321E+01 -0.18994720800E+01  0.99767849901E+02  0.12953053241E+03  0.82151432634E+02 0.  0.
        -13    1    3    3    0    0  0.30760812362E+02 -0.22676898465E+01 -0.17274457609E+03  0.17547666102E+03  0.00000000000E+00 0.  1.
         14    1    3    3    0    0 -0.34845968892E+02 -0.20425705703E+02 -0.59503365466E+02  0.71917324083E+02  0.00000000000E+00 0. -1.
         11    1    5    5    0    0  0.35476510671E+02 -0.17594231723E+02  0.87396764607E+02  0.95949644413E+02  0.00000000000E+00 0. -1.
        -12    1    5    5    0    0 -0.26987160039E+02  0.15694759643E+02  0.12371085294E+02  0.33580887995E+02  0.00000000000E+00 0.  1.
          5    1    4    4  501    0 -0.32342291948E+02  0.70971800724E+01 -0.62017840761E+02  0.70427826788E+02  0.41800000000E+01 0.  1.
         -5    1    4    4    0  501  0.27938097846E+02  0.17495687557E+02  0.47481814361E+02  0.57953701257E+02  0.41800000000E+01 0.  1.
</event>
<event>
11    1  0.8299058E-009  0.1375815E+03  0.7561462E-02  0.1110289E+00
         22   -1    0    0    0    0  0.00000000000E+00  0.00000000000E+00  0.30343978742E+03  0.30343978742E+03  0.00000000000E+00 0.  1.
         22   -1    0    0    0    0 -0.00000000000E+00 -0.00000000000E+00 -0.38550030223E+03  0.38550030223E+03  0.00000000000E+00 0. -1.
        -24    2    1    2    0    0  0.57908544865E+02  0.61395463003E+01 -0.33548309120E+03  0.35068491445E+03  0.83904178350E+02 0.  0.
         25    2    1    2    0    0 -0.41469822685E+02  0.14843714503E+02  0.10797869475E+03  0.17101712232E+03  0.12508947019E+03 0.  0.
         24    2    1    2    0    0 -0.16438722181E+02 -0.20983260803E+02  0.14544388163E+03  0.16723805288E+03  0.78128834650E+02 0.  0.
        -13    1    5    5    0    0  0.38563516766E+01 -0.17595526760E+02  0.14555149234E+03  0.14666189325E+03  0.00000000000E+00 0.  1.
         14    1    5    5    0    0 -0.20295073857E+02 -0.33877340431E+01 -0.10761070321E+00  0.20576159624E+02  0.00000000000E+00 0. -1.
         13    1    3    3    0    0  0.43813496753E+02 -0.15380601526E+02 -0.31328142599E+03  0.31670402156E+03  0.00000000000E+00 0. -1.
        -14    1    3    3    0    0  0.14095048112E+02  0.21520147826E+02 -0.22201665216E+02  0.33980892897E+02  0.00000000000E+00 0.  1.
          5    1    4    4  501    0 -0.70276704286E+02 -0.31925386925E+02  0.58070450061E+02  0.96683478764E+02  0.41800000000E+01 0.  1.
         -5    1    4    4    0  501  0.28806881602E+02  0.46769101429E+02  0.49908244692E+02  0.74333643556E+02  0.41800000000E+01 0.  1.
</event>
<event>
11    1  0.8299058E-009  0.1446721E+03  0.7561462E-02  0.1102451E+00
         22   -1    0    0    0    0  0.00000000000E+00  0.00000000000E+00  0.68829141763E+03  0.68829141763E+03  0.00000000000E+00 0.  1.
         22   -1    0    0    0    0 -0.00000000000E+00 -0.00000000000E+00 -0.18220101670E+03  0.18220101670E+03  0.00000000000E+00 0.  1.
         24    2    1    2    0    0 -0.41878753217E+02 -0.30008323723E+02 -0.13318061656E+03  0.16366442690E+03  0.79966483857E+02 0.  0.
         25    2    1    2    0    0  0.78242481106E+02  0.81365564155E+02  0.23509829468E+03  0.28924476465E+03  0.12509630224E+03 0.  0.
        -24    2    1    2    0    0 -0.36363727889E+02 -0.51357240432E+02  0.40417272281E+03  0.41758324278E+03  0.84025519563E+02 0.  0.
        -11    1    3    3    0    0 -0.76967166901E+01 -0.36577696135E+02 -0.12123125562E+03  0.12686285761E+03  0.00000000000E+00 0.  1.
         12    1    3    3    0    0 -0.34182036527E+02  0.65693724117E+01 -0.11949360942E+02  0.36801569286E+02  0.00000000000E+00 0. -1.
         11    1    5    5    0    0 -0.38061765004E+02 -0.34821007822E+02  0.96170735847E+02  0.10913299673E+03  0.00000000000E+00 0. -1.
        -12    1    5    5    0    0  0.16980371156E+01 -0.16536232610E+02  0.30800198696E+03  0.30845024606E+03  0.00000000000E+00 0.  1.
          5    1    4    4  501    0  0.53541785268E+02 -0.23853582768E+02  0.10225958088E+03  0.11794155528E+03  0.41800000000E+01 0.  1.
         -5    1    4    4    0  501  0.24700695838E+02  0.10521914692E+03  0.13283871381E+03  0.17130320937E+03  0.41800000000E+01 0.  1.
</event>
<event>
11    1  0.8299058E-009  0.1372016E+03  0.7561462E-02  0.1110724E+00
         22   -1    0    0    0    0  0.00000000000E+00  0.00000000000E+00  0.44024617584E+03  0.44024617584E+03  0.00000000000E+00 0.  1.
         22   -1    0    0    0    0 -0.00000000000E+00 -0.00000000000E+00 -0.94118917041E+02  0.94118917041E+02  0.00000000000E+00 0.  1.
        -24    2    1    2    0    0  0.22784719718E+02  0.29730673324E+01 -0.28776257762E+02  0.82793994278E+02  0.74153825900E+02 0.  0.
         25    2    1    2    0    0  0.24347153004E+02  0.36183014486E+02  0.12557222476E+03  0.18252986317E+03  0.12508706137E+03 0.  0.
         24    2    1    2    0    0 -0.47131872723E+02 -0.39156081819E+02  0.24933129180E+03  0.26904123543E+03  0.80389558527E+02 0.  0.
        -11    1    5    5    0    0  0.61970591196E+01 -0.46765502442E+02  0.12000569675E+03  0.12894488362E+03  0.00000000000E+00 0.  1.
         12    1    5    5    0    0 -0.53328931842E+02  0.76094206235E+01  0.12932559505E+03  0.14009635181E+03  0.00000000000E+00 0. -1.
         11    1    3    3    0    0  0.34152355508E+02  0.69709906659E+01  0.14588386578E+02  0.37786229245E+02  0.00000000000E+00 0. -1.
        -12    1    3    3    0    0 -0.11367635790E+02 -0.39979233335E+01 -0.43364644340E+02  0.45007765032E+02  0.00000000000E+00 0.  1.
          5    1    4    4  501    0  0.40687744469E+02  0.74321060978E+02  0.56766832373E+02  0.10207378857E+03  0.41800000000E+01 0. -1.
         -5    1    4    4    0  501 -0.16340591465E+02 -0.38138046492E+02  0.68805392384E+02  0.80456074604E+02  0.41800000000E+01 0. -1.
</event>
<event>
11    1  0.8299058E-009  0.3169835E+03  0.7561462E-02  0.9932490E-01
         22   -1    0    0    0    0  0.00000000000E+00  0.00000000000E+00  0.23515323764E+03  0.23515323764E+03  0.00000000000E+00 0. -1.
         22   -1    0    0    0    0 -0.00000000000E+00 -0.00000000000E+00 -0.59829957657E+03  0.59829957657E+03  0.00000000000E+00 0. -1.
        -24    2    1    2    0    0 -0.20698687119E+02 -0.26458673825E+03 -0.17022817408E+03  0.32547386934E+03  0.80752898822E+02 0.  0.
         25    2    1    2    0    0  0.55886120571E+02  0.31999041179E+03 -0.20884321935E+03  0.40593130250E+03  0.12509040719E+03 0.  0.
         24    2    1    2    0    0 -0.35187433452E+02 -0.55403673546E+02  0.15925054501E+02  0.10204764236E+03  0.76500924413E+02 0.  0.
        -13    1    5    5    0    0  0.19770974647E+02 -0.28086774562E+02  0.21338754140E+02  0.40436379314E+02  0.00000000000E+00 0.  1.
         14    1    5    5    0    0 -0.54958408099E+02 -0.27316898984E+02 -0.54136996389E+01  0.61611263051E+02  0.00000000000E+00 0. -1.
         11    1    3    3    0    0  0.22195369153E+02 -0.12245847136E+03 -0.48799841845E+02  0.13367922870E+03  0.00000000000E+00 0. -1.
        -12    1    3    3    0    0 -0.42894056272E+02 -0.14212826688E+03 -0.12142833223E+03  0.19179464064E+03  0.00000000000E+00 0.  1.
          5    1    4    4  501    0  0.19858395806E+02  0.61962009446E+02 -0.10875981740E+03  0.12680621743E+03  0.41800000000E+01 0. -1.
         -5    1    4    4    0  501  0.36027724765E+02  0.25802840235E+03 -0.10008340195E+03  0.27912508507E+03  0.41800000000E+01 0. -1.
</event>
<event>
11    1  0.8299058E-009  0.1663754E+03  0.7561462E-02  0.1081230E+00
         22   -1    0    0    0    0  0.00000000000E+00  0.00000000000E+00  0.62432860751E+03  0.62432860751E+03  0.00000000000E+00 0.  1.
         22   -1    0    0    0    0 -0.00000000000E+00 -0.00000000000E+00 -0.41537011548E+03  0.41537011548E+03  0.00000000000E+00 0. -1.
        -24    2    1    2    0    0 -0.31543567527E+02  0.11758937142E+03 -0.22136936027E+03  0.26404783512E+03  0.76776354723E+02 0.  0.
         25    2    1    2    0    0  0.12629983651E+02 -0.89412063365E+02 -0.13390849484E+03  0.20428405243E+03  0.12508579266E+03 0.  0.
         24    2    1    2    0    0  0.18913583877E+02 -0.28177308055E+02  0.56423634714E+03  0.57136683543E+03  0.83340991399E+02 0.  0.
        -11    1    5    5    0    0 -0.22878781172E+02 -0.19039266009E+02  0.41647667665E+03  0.41753892570E+03  0.00000000000E+00 0.  1.
         12    1    5    5    0    0  0.41792365048E+02 -0.91380420457E+01  0.14775967049E+03  0.15382790973E+03  0.00000000000E+00 0. -1.
         13    1    3    3    0    0  0.13949779869E+02  0.16818867765E+02 -0.88677217989E+02  0.91329730436E+02  0.00000000000E+00 0. -1.
        -14    1    3    3    0    0 -0.45493347396E+02  0.10077050365E+03 -0.13269214228E+03  0.17271810469E+03  0.00000000000E+00 0.  1.
          5    1    4    4  501    0  0.44297275861E+02 -0.78681137790E+01 -0.10114578753E+03  0.11077950441E+03  0.41800000000E+01 0.  1.
         -5    1    4    4    0  501 -0.31667292210E+02 -0.81543949586E+02 -0.32762707309E+02  0.93504548019E+02  0.41800000000E+01 0.  1.
</event>
<event>
11    1  0.8299058E-009  0.1978067E+03  0.7561462E-02  0.1056086E+00
         22   -1    0    0    0    0  0.00000000000E+00  0.00000000000E+00  0.84037420448E+03  0.84037420448E+03  0.00000000000E+00 0.  1.
         22   -1    0    0    0    0 -0.00000000000E+00 -0.00000000000E+00 -0.13554107798E+03  0.13554107798E+03  0.00000000000E+00 0. -1.
         24    2    1    2    0    0 -0.14592306588E+03 -0.34950111494E+02 -0.32944509347E+02  0.17332631367E+03  0.80259696391E+02 0.  0.
         25    2    1    2    0    0  0.17298208574E+03  0.13661395928E+02  0.37957885219E+03  0.43570053959E+03  0.12508165109E+03 0.  0.
        -24    2    1    2    0    0 -0.27059019863E+02  0.21288715566E+02  0.35819878366E+03  0.36688842920E+03  0.71521681356E+02 0.  0.
        -13    1    3    3    0    0 -0.54112044865E+02 -0.15384350498E+02 -0.53050088548E+02  0.77324663172E+02  0.00000000000E+00 0.  1.
         14    1    3    3    0    0 -0.91811021013E+02 -0.19565760996E+02  0.20105579202E+02  0.96001650495E+02  0.00000000000E+00 0. -1.
         13    1    5    5    0    0 -0.26501039410E+02  0.18542181831E+01  0.39531542767E+02  0.47628626775E+02  0.00000000000E+00 0. -1.
        -14    1    5    5    0    0 -0.55798045263E+00  0.19434497382E+02  0.31866724089E+03  0.31925980243E+03  0.00000000000E+00 0.  1.
          5    1    4    4  501    0  0.17412080949E+03  0.34563774220E+02  0.26395896286E+03  0.31812657427E+03  0.41800000000E+01 0.  1.
         -5    1    4    4    0  501 -0.11387237496E+01 -0.20902378292E+02  0.11561988933E+03  0.11757396531E+03  0.41800000000E+01 0.  1.
</event>
<event>
11    1  0.8299058E-009  0.1416421E+03  0.7561462E-02  0.1105738E+00
         22   -1    0    0    0    0  0.00000000000E+00  0.00000000000E+00  0.53768261928E+03  0.53768261928E+03  0.00000000000E+00 0.  1.
         22   -1    0    0    0    0 -0.00000000000E+00 -0.00000000000E+00 -0.11289992064E+04  0.11289992064E+04  0.00000000000E+00 0. -1.
        -24    2    1    2    0    0  0.35690374598E+02 -0.55175416187E+02 -0.10252905948E+04  0.10305297630E+04  0.80328446952E+02 0.  0.
         25    2    1    2    0    0 -0.37791854212E+02  0.73381163162E+02 -0.41339244262E+02  0.15546994368E+03  0.12509576699E+03 0.  0.
         24    2    1    2    0    0  0.21014796141E+01 -0.18205746975E+02  0.47531325189E+03  0.48068211898E+03  0.69258549223E+02 0.  0.
        -11    1    5    5    0    0 -0.22690349613E+01 -0.30507681600E+02  0.45788788092E+03  0.45890868225E+03  0.00000000000E+00 0.  1.
         12    1    5    5    0    0  0.43705145755E+01  0.12301934625E+02  0.17425370975E+02  0.21773436724E+02  0.00000000000E+00 0. -1.
         11    1    3    3    0    0 -0.16579098400E+02 -0.53568544951E+01 -0.49953675705E+03  0.49984050860E+03  0.00000000000E+00 0. -1.
        -12    1    3    3    0    0  0.52269472998E+02 -0.49818561692E+02 -0.52575383772E+03  0.53068925444E+03  0.00000000000E+00 0.  1.
          5    1    4    4  501    0  0.36157306875E+02  0.27049314290E+01  0.14002298166E+02  0.39092253049E+02  0.41800000000E+01 0. -1.
         -5    1    4    4    0  501 -0.73949161088E+02  0.70676231733E+02 -0.55341542427E+02  0.11637769063E+03  0.41800000000E+01 0. -1.
</event>
<event>
11    1  0.8299058E-009  0.3067853E+03  0.7561462E-02  0.9973597E-01
         22   -1    0    0    0    0  0.00000000000E+00  0.00000000000E+00  0.21414497801E+03  0.21414497801E+03  0.00000000000E+00 0.  1.
         22   -1    0    0    0    0 -0.00000000000E+00 -0.00000000000E+00 -0.19049317412E+04  0.19049317412E+04  0.00000000000E+00 0.  1.
        -24    2    1    2    0    0  0.11590966907E+03 -0.25087297383E+03 -0.13317722319E+04  0.13625961560E+04  0.81723352169E+02 0.  0.
         25    2    1    2    0    0 -0.14242145027E+03  0.25497117881E+03 -0.50028315036E+03  0.59264226763E+03  0.12508978907E+03 0.  0.
         24    2    1    2    0    0  0.26511781195E+02 -0.40982049795E+01  0.14126861910E+03  0.16383829556E+03  0.78527030543E+02 0.  0.
        -13    1    5    5    0    0  0.92939140432E+01 -0.21255022313E+00  0.14541100120E+03  0.14570786282E+03  0.00000000000E+00 0.  1.
         14    1    5    5    0    0  0.17217867151E+02 -0.38856547563E+01 -0.41423821059E+01  0.18130432748E+02  0.00000000000E+00 0. -1.
         11    1    3    3    0    0  0.39975757797E+02 -0.21878413001E+02 -0.16735747756E+03  0.17345100594E+03  0.00000000000E+00 0. -1.
        -12    1    3    3    0    0  0.75933911273E+02 -0.22899456083E+03 -0.11644147543E+04  0.11891451501E+04  0.00000000000E+00 0.  1.
          5    1    4    4  501    0 -0.12725986179E+03  0.11724028100E+03 -0.33375406585E+03  0.37596489834E+03  0.41800000000E+01 0. -1.
         -5    1    4    4    0  501 -0.15161588478E+02  0.13773089781E+03 -0.16652908451E+03  0.21667736930E+03  0.41800000000E+01 0. -1.
</event>
<event>
11    1  0.8299058E-009  0.1394998E+03  0.7561462E-02  0.1108118E+00
         22   -1    0    0    0    0  0.00000000000E+00  0.00000000000E+00  0.57217210961E+02  0.57217210961E+02  0.00000000000E+00 0. -1.
         22   -1    0    0    0    0 -0.00000000000E+00 -0.00000000000E+00 -0.31902603494E+04  0.31902603494E+04  0.00000000000E+00 0.  1.
        -24    2    1    2    0    0 -0.73634854245E+02  0.19916072679E+02 -0.18263880524E+04  0.18297656306E+04  0.80809671931E+02 0.  0.
         25    2    1    2    0    0  0.28451231128E+02 -0.22883310554E+02 -0.13168139911E+04  0.13232463633E+04  0.12509489391E+03 0.  0.
         24    2    1    2    0    0  0.45183623117E+02  0.29672378750E+01  0.10158905109E+02  0.94465566424E+02  0.82281076732E+02 0.  0.
        -11    1    5    5    0    0  0.55123087095E+02  0.26391504096E+02 -0.10094735138E+02  0.61943279675E+02  0.00000000000E+00 0.  1.
         12    1    5    5    0    0 -0.99394639786E+01 -0.23424266221E+02  0.20253640247E+02  0.32522286749E+02  0.00000000000E+00 0. -1.
         11    1    3    3    0    0 -0.65877693772E+01 -0.92363242046E+01 -0.33145029452E+02  0.35032861252E+02  0.00000000000E+00 0. -1.
        -12    1    3    3    0    0 -0.67047084868E+02  0.29152396884E+02 -0.17932430230E+04  0.17947327693E+04  0.00000000000E+00 0.  1.
          5    1    4    4  501    0  0.23685451977E+02  0.46488486656E+02 -0.34603669005E+03  0.34997291794E+03  0.41800000000E+01 0. -1.
         -5    1    4    4    0  501  0.47657791514E+01 -0.69371797210E+02 -0.97077730103E+03  0.97327344539E+03  0.41800000000E+01 0. -1.
</event>
<event>
11    1  0.8299058E-009  0.2170260E+03  0.7561462E-02  0.1043097E+00
         22   -1    0    0    0    0  0.00000000000E+00  0.00000000000E+00  0.25642486158E+03  0.25642486158E+03  0.00000000000E+00 0. -1.
         22   -1    0    0    0    0 -0.00000000000E+00 -0.00000000000E+00 -0.21557412214E+04  0.21557412214E+04  0.00000000000E+00 0.  1.
         24    2    1    2    0    0  0.17133857873E+02  0.23557460378E+02 -0.18176107228E+04  0.18196332845E+04  0.80672345679E+02 0.  0.
         25    2    1    2    0    0 -0.63760387091E+02 -0.19094615943E+03 -0.24488451021E+03  0.34079485455E+03  0.12508751651E+03 0.  0.
        -24    2    1    2    0    0  0.46626529219E+02  0.16738869905E+03  0.16317887317E+03  0.25173794395E+03  0.80942189116E+02 0.  0.
        -13    1    3    3    0    0  0.57410677602E+01  0.29963663650E+02 -0.17699479408E+04  0.17702108615E+04  0.00000000000E+00 0.  1.
         14    1    3    3    0    0  0.11392790113E+02 -0.64062032722E+01 -0.47662781971E+02  0.49422422969E+02  0.00000000000E+00 0. -1.
         11    1    5    5    0    0  0.13349133077E+02  0.10226763324E+03  0.14218831302E+03  0.17565416170E+03  0.00000000000E+00 0. -1.
        -12    1    5    5    0    0  0.33277396142E+02  0.65121065808E+02  0.20990560147E+02  0.76083782248E+02  0.00000000000E+00 0.  1.
          5    1    4    4  501    0 -0.10089718327E+03 -0.14856336747E+03 -0.17337949522E+03  0.24965824142E+03  0.41800000000E+01 0. -1.
         -5    1    4    4    0  501  0.37136796177E+02 -0.42382791953E+02 -0.71505014993E+02  0.91136613132E+02  0.41800000000E+01 0. -1.
</event>
<event>
11    1  0.8299058E-009  0.1473536E+03  0.7561462E-02  0.1099614E+00
         22   -1    0    0    0    0  0.00000000000E+00  0.00000000000E+00  0.19422841404E+03  0.19422841404E+03  0.00000000000E+00 0. -1.
         22   -1    0    0    0    0 -0.00000000000E+00 -0.00000000000E+00 -0.55427614853E+03  0.55427614853E+03  0.00000000000E+00 0. -1.
        -24    2    1    2    0    0  0.19391385890E+02 -0.63729649548E+02 -0.31282449342E+03  0.32926137661E+03  0.78207393289E+02 0.  0.
         25    2    1    2    0    0 -0.95049427910E+02  0.67141115784E+02 -0.17844535436E+03  0.24704697569E+03  0.12508853076E+03 0.  0.
         24    2    1    2    0    0  0.75658042021E+02 -0.34114662358E+01  0.13122211330E+03  0.17219621028E+03  0.81832233209E+02 0.  0.
        -11    1    5    5    0    0  0.23052549189E+02 -0.27419183624E+02  0.89244955325E+01  0.36917181302E+02  0.00000000000E+00 0.  1.
         12    1    5    5    0    0  0.52605492831E+02  0.24007717388E+02  0.12229761776E+03  0.13527902898E+03  0.00000000000E+00 0. -1.
         11    1    3    3    0    0  0.10687484543E+02  0.55341084223E+01 -0.16861533236E+03  0.16904431072E+03  0.00000000000E+00 0. -1.
        -12    1    3    3    0    0  0.87039013467E+01 -0.69263757970E+02 -0.14420916106E+03  0.16021706588E+03  0.00000000000E+00 0.  1.
          5    1    4    4  501    0 -0.21688742698E+02  0.90955985870E+02 -0.96635248765E+02  0.13453340340E+03  0.41800000000E+01 0.  1.
         -5    1    4    4    0  501 -0.73360685212E+02 -0.23814870086E+02 -0.81810105596E+02  0.11251357229E+03  0.41800000000E+01 0.  1.
</event>
<event>
11    1  0.8299058E-009  0.1462317E+03  0.7561462E-02  0.1100793E+00
         22   -1    0    0    0    0  0.00000000000E+00  0.00000000000E+00  0.23923722690E+03  0.23923722690E+03  0.00000000000E+00 0. -1.
         22   -1    0    0    0    0 -0.00000000000E+00 -0.00000000000E+00 -0.26564228283E+04  0.26564228283E+04  0.00000000000E+00 0. -1.
        -24    2    1    2    0    0 -0.66224096738E+02  0.20774586151E+02 -0.18264732500E+04  0.18299345157E+04  0.88535780470E+02 0.  0.
         25    2    1    2    0    0  0.97190789649E+02 -0.43425820143E+02 -0.81143098856E+03  0.82788759303E+03  0.12508303658E+03 0.  0.
         24    2    1    2    0    0 -0.30966692911E+02  0.22651233992E+02  0.22071863709E+03  0.23783794653E+03  0.79863368179E+02 0.  0.
        -13    1    5    5    0    0 -0.24526745207E+02  0.26713077298E+02  0.30272129891E+02  0.47239301194E+02  0.00000000000E+00 0.  1.
         14    1    5    5    0    0 -0.64399477038E+01 -0.40618433060E+01  0.19044650720E+03  0.19059864533E+03  0.00000000000E+00 0. -1.
         11    1    3    3    0    0 -0.40832309359E+01  0.45185088606E+02 -0.66779330363E+03  0.66933269858E+03  0.00000000000E+00 0. -1.
        -12    1    3    3    0    0 -0.62140865802E+02 -0.24410502455E+02 -0.11586799463E+04  0.11606018171E+04  0.00000000000E+00 0.  1.
          5    1    4    4  501    0  0.85083934391E+02  0.14958844463E+02 -0.65031436681E+03  0.65604061688E+03  0.41800000000E+01 0. -1.
         -5    1    4    4    0  501  0.12106855258E+02 -0.58384664605E+02 -0.16111662176E+03  0.17184697615E+03  0.41800000000E+01 0. -1.
</event>
<event>
11    1  0.8299058E-009  0.1322661E+03  0.7561462E-02  0.1116516E+00
         22   -1    0    0    0    0  0.00000000000E+00  0.00000000000E+00  0.39840485906E+03  0.39840485906E+03  0.00000000000E+00 0.  1.
         22   -1    0    0    0    0 -0.00000000000E+00 -0.00000000000E+00 -0.17597401620E+03  0.17597401620E+03  0.00000000000E+00 0. -1.
         24    2    1    2    0    0 -0.12571602184E+02 -0.12695944469E+02 -0.12641135067E+03  0.15001248882E+03  0.78769823121E+02 0.  0.
         25    2    1    2    0    0  0.48675438105E+02 -0.82442525659E+01  0.12686276706E+03  0.18487674639E+03  0.12509190108E+03 0.  0.
        -24    2    1    2    0    0 -0.36103835922E+02  0.20940197035E+02  0.22197942647E+03  0.23948964006E+03  0.79614339780E+02 0.  0.
        -11    1    3    3    0    0  0.17939232839E+02 -0.11826397869E+02 -0.16258685433E+01  0.21548160245E+02  0.00000000000E+00 0.  1.
         12    1    3    3    0    0 -0.30510835023E+02 -0.86954660004E+00 -0.12478548213E+03  0.12846432857E+03  0.00000000000E+00 0. -1.
         11    1    5    5    0    0  0.16107615298E+02  0.32606089955E+02  0.87095662318E+02  0.94383614930E+02  0.00000000000E+00 0. -1.
        -12    1    5    5    0    0 -0.52211451220E+02 -0.11665892921E+02  0.13488376416E+03  0.14510602513E+03  0.00000000000E+00 0.  1.
          5    1    4    4  501    0  0.47347259393E+02  0.28722372780E+02  0.13569300708E+03  0.14661787831E+03  0.41800000000E+01 0.  1.
         -5    1    4    4    0  501  0.13281787125E+01 -0.36966625346E+02 -0.88302400178E+01  0.38258868082E+02  0.41800000000E+01 0.  1.
</event>
<event>
11    1  0.8299058E-009  0.1584062E+03  0.7561462E-02  0.1088586E+00
         22   -1    0    0    0    0  0.00000000000E+00  0.00000000000E+00  0.16398243348E+04  0.16398243348E+04  0.00000000000E+00 0. -1.
         22   -1    0    0    0    0 -0.00000000000E+00 -0.00000000000E+00 -0.60908098292E+03  0.60908098292E+03  0.00000000000E+00 0. -1.
         24    2    1    2    0    0  0.52990466123E+02 -0.25429878600E+02 -0.59154442371E+03  0.60068727617E+03  0.86288645295E+02 0.  0.
         25    2    1    2    0    0  0.28124782987E+02 -0.62270284717E+02  0.66447986875E+03  0.67960595755E+03  0.12514859083E+03 0.  0.
        -24    2    1    2    0    0 -0.81115249110E+02  0.87700163317E+02  0.95780790687E+03  0.96861208403E+03  0.80884983671E+02 0.  0.
        -13    1    3    3    0    0 -0.26463789599E+01 -0.27245038964E+02 -0.56785106758E+02  0.63038431288E+02  0.00000000000E+00 0.  1.
         14    1    3    3    0    0  0.55636845083E+02  0.18151603644E+01 -0.53475931695E+03  0.53764884488E+03  0.00000000000E+00 0. -1.
         13    1    5    5    0    0 -0.60538870484E+02  0.25732042145E+02  0.68269510655E+03  0.68585691025E+03  0.00000000000E+00 0. -1.
        -14    1    5    5    0    0 -0.20576378626E+02  0.61968121171E+02  0.27511280032E+03  0.28275517378E+03  0.00000000000E+00 0.  1.
          5    1    4    4  501    0  0.11439525203E+02  0.19137444019E+02  0.43356235973E+03  0.43415538310E+03  0.41800000000E+01 0.  1.
         -5    1    4    4    0  501  0.16685257784E+02 -0.81407728736E+02  0.23091750901E+03  0.24545057444E+03  0.41800000000E+01 0.  1.
</event>
<event>
11    1  0.8299058E-009  0.1410972E+03  0.7561462E-02  0.1106339E+00
         22   -1    0    0    0    0  0.00000000000E+00  0.00000000000E+00  0.39042020924E+03  0.39042020924E+03  0.00000000000E+00 0. -1.
         22   -1    0    0    0    0 -0.00000000000E+00 -0.00000000000E+00 -0.17222199139E+04  0.17222199139E+04  0.00000000000E+00 0.  1.
        -24    2    1    2    0    0 -0.19572434748E+02 -0.19698201626E+02 -0.11417867325E+04  0.11447834080E+04  0.77980828080E+02 0.  0.
         25    2    1    2    0    0  0.68106541705E+02  0.62819799526E+02 -0.56124212442E+03  0.58243172385E+03  0.12509661263E+03 0.  0.
         24    2    1    2    0    0 -0.48534106957E+02 -0.43121597900E+02  0.37122915225E+03  0.38542499122E+03  0.80785571914E+02 0.  0.
        -13    1    5    5    0    0  0.18585652513E+02 -0.21639929170E+02  0.16599691544E+03  0.16843007139E+03  0.00000000000E+00 0.  1.
         14    1    5    5    0    0 -0.67119759470E+02 -0.21481668730E+02  0.20523223681E+03  0.21699491983E+03  0.00000000000E+00 0. -1.
         13    1    3    3    0    0  0.70355834180E+01  0.25971550291E+02 -0.54379625258E+03  0.54446155528E+03  0.00000000000E+00 0. -1.
        -14    1    3    3    0    0 -0.26608018166E+02 -0.45669751917E+02 -0.59799047989E+03  0.60032185276E+03  0.00000000000E+00 0.  1.
          5    1    4    4  501    0  0.45726211929E+02  0.24342885561E+02 -0.60750564148E+02  0.79947269992E+02  0.41800000000E+01 0. -1.
         -5    1    4    4    0  501  0.22380329776E+02  0.38476913965E+02 -0.50049156027E+03  0.50248445386E+03  0.41800000000E+01 0. -1.
</event>
<event>
11    1  0.8299058E-009  0.1546021E+03  0.7561462E-02  0.1092267E+00
         22   -1    0    0    0    0  0.00000000000E+00  0.00000000000E+00  0.37459523490E+02  0.37459523490E+02  0.00000000000E+00 0. -1.
         22   -1    0    0    0    0 -0.00000000000E+00 -0.00000000000E+00 -0.13720471624E+04  0.13720471624E+04  0.00000000000E+00 0.  1.
        -24    2    1    2    0    0  0.85920622932E+02  0.50406812008E+02 -0.68381308810E+03  0.69538031696E+03  0.77654656103E+02 0.  0.
         25    2    1    2    0    0  0.73094853124E+01 -0.99821349102E+02 -0.38157663171E+03  0.41384181739E+03  0.12508634477E+03 0.  0.
         24    2    1    2    0    0 -0.93230108244E+02  0.49414537094E+02 -0.26919791911E+03  0.30028455154E+03  0.81053332338E+02 0.  0.
        -11    1    5    5    0    0 -0.78428036647E+01  0.12523637384E+02 -0.14167102507E+03  0.14243956756E+03  0.00000000000E+00 0.  1.
         12    1    5    5    0    0 -0.85387304579E+02  0.36890899710E+02 -0.12752689404E+03  0.15784498398E+03  0.00000000000E+00 0. -1.
         11    1    3    3    0    0  0.40168657514E+01  0.34132227137E+02 -0.10269464625E+03  0.10829281836E+03  0.00000000000E+00 0. -1.
        -12    1    3    3    0    0  0.81903757180E+02  0.16274584871E+02 -0.58111844186E+03  0.58708749860E+03  0.00000000000E+00 0.  1.
          5    1    4    4  501    0 -0.44463336021E+02  0.93777238246E+00 -0.14077409013E+03  0.14769117956E+03  0.41800000000E+01 0. -1.
         -5    1    4    4    0  501  0.51772821334E+02 -0.10075912148E+03 -0.24080254158E+03  0.26615063784E+03  0.41800000000E+01 0. -1.
</event>
<event>
11    1  0.8299058E-009  0.1350207E+03  0.7561462E-02  0.1113250E+00
         22   -1    0    0    0    0  0.00000000000E+00  0.00000000000E+00  0.83603968531E+03  0.83603968531E+03  0.00000000000E+00 0. -1.
         22   -1    0    0    0    0 -0.00000000000E+00 -0.00000000000E+00 -0.70796125889E+03  0.70796125889E+03  0.00000000000E+00 0. -1.
         24    2    1    2    0    0 -0.39774138828E+02  0.34831254156E+02 -0.64482493025E+03  0.65145488527E+03  0.76151680794E+02 0.  0.
         25    2    1    2    0    0  0.20914691619E+02  0.14475826230E+02  0.14182158898E+02  0.12844155270E+03  0.12509646261E+03 0.  0.
        -24    2    1    2    0    0  0.18859447208E+02 -0.49307080386E+02  0.75872119777E+03  0.76410450624E+03  0.73559320164E+02 0.  0.
        -13    1    3    3    0    0 -0.19608704236E+02  0.12477504649E+02 -0.43015953806E+02  0.48893370572E+02  0.00000000000E+00 0.  1.
         14    1    3    3    0    0 -0.20165434592E+02  0.22353749507E+02 -0.60180897644E+03  0.60256151470E+03  0.00000000000E+00 0. -1.
         13    1    5    5    0    0  0.22426939845E+02 -0.35513580210E+02  0.73657270496E+03  0.73776929436E+03  0.00000000000E+00 0. -1.
        -14    1    5    5    0    0 -0.35674926368E+01 -0.13793500176E+02  0.22148492805E+02  0.26335211872E+02  0.00000000000E+00 0.  1.
          5    1    4    4  501    0 -0.38226686207E+02  0.35228081638E+02 -0.21258226590E+02  0.56317687026E+02  0.41800000000E+01 0.  1.
         -5    1    4    4    0  501  0.59141377826E+02 -0.20752255408E+02  0.35440385488E+02  0.72123865671E+02  0.41800000000E+01 0.  1.
</event>
<event>
11    1  0.8299058E-009  0.1511830E+03  0.7561462E-02  0.1095676E+00
         22   -1    0    0    0    0  0.00000000000E+00  0.00000000000E+00  0.39697043610E+03  0.39697043610E+03  0.00000000000E+00 0.  1.
         22   -1    0    0    0    0 -0.00000000000E+00 -0.00000000000E+00 -0.29390845671E+03  0.29390845671E+03  0.00000000000E+00 0. -1.
         24    2    1    2    0    0 -0.54335466129E+02  0.56145365049E+02 -0.15220074336E+03  0.18873759488E+03  0.79700492761E+02 0.  0.
         25    2    1    2    0    0 -0.69112528302E+01 -0.11459069840E+03 -0.48148996074E+02  0.17647994995E+03  0.12509217936E+03 0.  0.
        -24    2    1    2    0    0  0.61246718959E+02  0.58445333354E+02  0.30341171882E+03  0.32566134798E+03  0.82641544487E+02 0.  0.
        -11    1    3    3    0    0  0.93933741772E+00 -0.15031425950E+02 -0.51235093641E+02  0.53402817728E+02  0.00000000000E+00 0.  1.
         12    1    3    3    0    0 -0.55274803547E+02  0.71176790999E+02 -0.10096564972E+03  0.13533477715E+03  0.00000000000E+00 0. -1.
         13    1    5    5    0    0 -0.42166001992E+01 -0.51985908850E+01 -0.19261178395E+01  0.69652705878E+01  0.00000000000E+00 0. -1.
        -14    1    5    5    0    0  0.65463319158E+02  0.63643924239E+02  0.30533783666E+03  0.31869607739E+03  0.00000000000E+00 0.  1.
          5    1    4    4  501    0  0.16672493323E+01 -0.76213175333E+02  0.35317376998E+02  0.84119066404E+02  0.41800000000E+01 0. -1.
         -5    1    4    4    0  501 -0.85785021625E+01 -0.38377523070E+02 -0.83466373072E+02  0.92360883550E+02  0.41800000000E+01 0. -1.
</event>
<event>
11    1  0.8299058E-009  0.4996521E+03  0.7561462E-02  0.9394299E-01
         22   -1    0    0    0    0  0.00000000000E+00  0.00000000000E+00  0.13593162424E+04  0.13593162424E+04  0.00000000000E+00 0. -1.
         22   -1    0    0    0    0 -0.00000000000E+00 -0.00000000000E+00 -0.85074951735E+03  0.85074951735E+03  0.00000000000E+00 0. -1.
         24    2    1    2    0    0 -0.39369729855E+02 -0.82117174146E+02 -0.32434645447E+03  0.34648394631E+03  0.80977136277E+02 0.  0.
         25    2    1    2    0    0 -0.33484198760E+03  0.38531808083E+03 -0.31732145098E+03  0.61394726668E+03  0.12509661441E+03 0.  0.
        -24    2    1    2    0    0  0.37421171745E+03 -0.30320090668E+03  0.11502346305E+04  0.12496345468E+04  0.81127035957E+02 0.  0.
        -13    1    3    3    0    0 -0.34195778761E+02 -0.51959363819E+02 -0.85757480471E+02  0.10594089027E+03  0.00000000000E+00 0.  1.
         14    1    3    3    0    0 -0.51739510941E+01 -0.30157810327E+02 -0.23858897400E+03  0.24054305604E+03  0.00000000000E+00 0. -1.
         11    1    5    5    0    0  0.32755035917E+03 -0.28987229658E+03  0.99256839219E+03  0.10846691658E+04  0.00000000000E+00 0. -1.
        -12    1    5    5    0    0  0.46661358280E+02 -0.13328610102E+02  0.15766623832E+03  0.16496538095E+03  0.00000000000E+00 0.  1.
          5    1    4    4  501    0 -0.93576750693E+02  0.51188157731E+02 -0.10736634898E+03  0.15139960718E+03  0.41800000000E+01 0. -1.
         -5    1    4    4    0  501 -0.24126523690E+03  0.33412992310E+03 -0.20995510200E+03  0.46254765949E+03  0.41800000000E+01 0. -1.
</event>
<event>
11    1  0.8299058E-009  0.1295199E+03  0.7561462E-02  0.1119860E+00
         22   -1    0    0    0    0  0.00000000000E+00  0.00000000000E+00  0.93901687488E+03  0.93901687488E+03  0.00000000000E+00 0.  1.
         22   -1    0    0    0    0 -0.00000000000E+00 -0.00000000000E+00 -0.18734794775E+03  0.18734794775E+03  0.00000000000E+00 0.  1.
        -24    2    1    2    0    0 -0.28480052683E+02 -0.18631774276E+02 -0.14877033998E+03  0.17250293816E+03  0.80413886882E+02 0.  0.
         25    2    1    2    0    0  0.16546564320E+02  0.24196440904E+02  0.14398357984E+03  0.19297150174E+03  0.12508985841E+03 0.  0.
         24    2    1    2    0    0  0.11933488362E+02 -0.55646666283E+01  0.75645568727E+03  0.76089038273E+03  0.80966623229E+02 0.  0.
        -13    1    5    5    0    0 -0.26543603815E+02 -0.19649944811E+02  0.50856441300E+03  0.50963560060E+03  0.00000000000E+00 0.  1.
         14    1    5    5    0    0  0.38477092178E+02  0.14085278183E+02  0.24789127427E+03  0.25125478213E+03  0.00000000000E+00 0. -1.
         13    1    3    3    0    0  0.12337664513E+02 -0.35545199292E+02 -0.39081321921E+02  0.54249690150E+02  0.00000000000E+00 0. -1.
        -14    1    3    3    0    0 -0.40817717195E+02  0.16913425016E+02 -0.10968901805E+03  0.11825324801E+03  0.00000000000E+00 0.  1.
          5    1    4    4  501    0  0.50779366603E+02  0.58888656896E+02  0.72804541257E+02  0.10660390054E+03  0.41800000000E+01 0. -1.
         -5    1    4    4    0  501 -0.34232802282E+02 -0.34692215992E+02  0.71179038588E+02  0.86367601198E+02  0.41800000000E+01 0. -1.
</event>
<event>
11    1  0.8299058E-009  0.1510288E+03  0.7561462E-02  0.1095832E+00
         22   -1    0    0    0    0  0.00000000000E+00  0.00000000000E+00  0.33299858906E+03  0.33299858906E+03  0.00000000000E+00 0.  1.
         22   -1    0    0    0    0 -0.00000000000E+00 -0.00000000000E+00 -0.14092584187E+04  0.14092584187E+04  0.00000000000E+00 0.  1.
        -24    2    1    2    0    0 -0.12299180189E+02 -0.17769586725E+02 -0.10375540801E+04  0.10408056389E+04  0.79315073478E+02 0.  0.
         25    2    1    2    0    0  0.85425091234E+02  0.59238115056E+02 -0.34088780657E+03  0.37770095599E+03  0.12508762930E+03 0.  0.
         24    2    1    2    0    0 -0.73125911044E+02 -0.41468528331E+02  0.30218205701E+03  0.32375041283E+03  0.80207833288E+02 0.  0.
        -11    1    5    5    0    0 -0.56942519751E+02  0.12470329044E+02  0.18026683900E+03  0.18945736434E+03  0.00000000000E+00 0.  1.
         12    1    5    5    0    0 -0.16183391293E+02 -0.53938857374E+02  0.12191521802E+03  0.13429304849E+03  0.00000000000E+00 0. -1.
         13    1    3    3    0    0  0.59994433645E+01 -0.14081410232E+02 -0.36524108288E+02  0.39601640383E+02  0.00000000000E+00 0. -1.
        -14    1    3    3    0    0 -0.18298623554E+02 -0.36881764935E+01 -0.10010299718E+04  0.10012039985E+04  0.00000000000E+00 0.  1.
          5    1    4    4  501    0  0.57013169242E+02  0.97679187166E+02 -0.21482162759E+03  0.24281171544E+03  0.41800000000E+01 0. -1.
         -5    1    4    4    0  501  0.28411921991E+02 -0.38441072111E+02 -0.12606617898E+03  0.13488924056E+03  0.41800000000E+01 0. -1.
</event>
<event>
11    1  0.8299058E-009  0.1358170E+03  0.7561462E-02  0.1112321E+00
         22   -1    0    0    0    0  0.00000000000E+00  0.00000000000E+00  0.40576200981E+03  0.40576200981E+03  0.00000000000E+00 0.  1.
         22   -1    0    0    0    0 -0.00000000000E+00 -0.00000000000E+00 -0.97714094089E+03  0.97714094089E+03  0.00000000000E+00 0.  1.
        -24    2    1    2    0    0  0.68324727807E+01  0.55325899653E+02 -0.87380011897E+03  0.87981392942E+03  0.86245374543E+02 0.  0.
         25    2    1    2    0    0  0.10338384078E+02 -0.14261325883E+02 -0.52211812728E+02  0.13668861695E+03  0.12508971586E+03 0.  0.
         24    2    1    2    0    0 -0.17170856859E+02 -0.41064573770E+02  0.35463300061E+03  0.36640040434E+03  0.80644613143E+02 0.  0.
        -11    1    5    5    0    0 -0.48763268321E+01 -0.12752837738E+02  0.31885901185E+03  0.31915119125E+03  0.00000000000E+00 0.  1.
         12    1    5    5    0    0 -0.12294530027E+02 -0.28311736033E+02  0.35773988760E+02  0.47249213089E+02  0.00000000000E+00 0. -1.
         13    1    3    3    0    0  0.34148479341E+01  0.51752558073E+02 -0.22135234333E+03  0.22734741774E+03  0.00000000000E+00 0. -1.
        -14    1    3    3    0    0  0.34176248466E+01  0.35733415803E+01 -0.65244777564E+03  0.65246651168E+03  0.00000000000E+00 0.  1.
          5    1    4    4  501    0  0.50297615993E+02  0.26620577079E+02 -0.55065342076E+02  0.79297979776E+02  0.41800000000E+01 0.  1.
         -5    1    4    4    0  501 -0.39959231915E+02 -0.40881902962E+02  0.28535293476E+01  0.57390637170E+02  0.41800000000E+01 0.  1.
</event>
<event>
11    1  0.8299058E-009  0.1712504E+03  0.7561462E-02  0.1076949E+00
         22   -1    0    0    0    0  0.00000000000E+00  0.00000000000E+00  0.19258652323E+03  0.19258652323E+03  0.00000000000E+00 0. -1.
         22   -1    0    0    0    0 -0.00000000000E+00 -0.00000000000E+00 -0.43905666237E+03  0.43905666237E+03  0.00000000000E+00 0.  1.
        -24    2    1    2    0    0  0.56000210116E+02  0.46531615092E+02 -0.26760817456E+03  0.28850355306E+03  0.79491825364E+02 0.  0.
         25    2    1    2    0    0  0.46840030047E+02 -0.11159113779E+03 -0.48936963957E+02  0.18080223351E+03  0.12509216903E+03 0.  0.
         24    2    1    2    0    0 -0.10284024016E+03  0.65059522700E+02  0.70074999375E+02  0.16233739904E+03  0.81449794961E+02 0.  0.
        -11    1    5    5    0    0 -0.36066238201E+00  0.44872543495E+01 -0.15233005936E+02  0.15884268909E+02  0.00000000000E+00 0.  1.
         12    1    5    5    0    0 -0.10247957778E+03  0.60572268351E+02  0.85308005311E+02  0.14645313013E+03  0.00000000000E+00 0. -1.
         11    1    3    3    0    0  0.41702503107E+02 -0.12104894604E+02 -0.75036777739E+02  0.86695704924E+02  0.00000000000E+00 0. -1.
        -12    1    3    3    0    0  0.14297707009E+02  0.58636509697E+02 -0.19257139682E+03  0.20180784813E+03  0.00000000000E+00 0.  1.
          5    1    4    4  501    0  0.79348444486E+01  0.19674089362E+02  0.18198449945E+02  0.28261060296E+02  0.41800000000E+01 0.  1.
         -5    1    4    4    0  501  0.38905185598E+02 -0.13126522715E+03 -0.67135413902E+02  0.15254117322E+03  0.41800000000E+01 0.  1.
</event>
<event>
11    1  0.8299058E-009  0.1344123E+03  0.7561462E-02  0.1113963E+00
         22   -1    0    0    0    0  0.00000000000E+00  0.00000000000E+00  0.40514273696E+03  0.40514273696E+03  0.00000000000E+00 0.  1.
         22   -1    0    0    0    0 -0.00000000000E+00 -0.00000000000E+00 -0.10037195105E+04  0.10037195105E+04  0.00000000000E+00 0.  1.
         24    2    1    2    0    0 -0.49307890780E+02 -0.34094435994E+02 -0.77266981023E+03  0.77834030863E+03  0.72120050806E+02 0.  0.
         25    2    1    2    0    0  0.70113659072E+01  0.61096927872E+01 -0.20468791561E+03  0.24006524097E+03  0.12509072519E+03 0.  0.
        -24    2    1    2    0    0  0.42296524873E+02  0.27984743207E+02  0.37878095225E+03  0.39045669791E+03  0.80057987023E+02 0.  0.
        -11    1    3    3    0    0 -0.23800126476E+02 -0.29800751410E+02 -0.70283427557E+03  0.70386827583E+03  0.00000000000E+00 0.  1.
         12    1    3    3    0    0 -0.25507764304E+02 -0.42936845841E+01 -0.69835534668E+02  0.74472032801E+02  0.00000000000E+00 0. -1.
         13    1    5    5    0    0 -0.32161830490E+01  0.25820233921E+02  0.34699316685E+02  0.43371314155E+02  0.00000000000E+00 0. -1.
        -14    1    5    5    0    0  0.45512707922E+02  0.21645092864E+01  0.34408163557E+03  0.34708538376E+03  0.00000000000E+00 0.  1.
          5    1    4    4  501    0 -0.56915348153E+02  0.16162777050E+02 -0.80817559654E+02  0.10024740678E+03  0.41800000000E+01 0. -1.
         -5    1    4    4    0  501  0.63926714060E+02 -0.10053084263E+02 -0.12387035595E+03  0.13981783419E+03  0.41800000000E+01 0. -1.
</event>
<event>
11    1  0.8299058E-009  0.1983106E+03  0.7561462E-02  0.1055725E+00
         22   -1    0    0    0    0  0.00000000000E+00  0.00000000000E+00  0.31571049918E+03  0.31571049918E+03  0.00000000000E+00 0.  1.
         22   -1    0    0    0    0 -0.00000000000E+00 -0.00000000000E+00 -0.39712680757E+03  0.39712680757E+03  0.00000000000E+00 0.  1.
         24    2    1    2    0    0  0.13987801232E+03 -0.65192450952E+02 -0.27997439794E+03  0.32964968839E+03  0.80419770965E+02 0.  0.
         25    2    1    2    0    0 -0.15401874879E+03  0.26383725538E+02  0.45940097778E+02  0.20536630118E+03  0.12508776568E+03 0.  0.
        -24    2    1    2    0    0  0.14140736467E+02  0.38808725414E+02  0.15261799177E+03  0.17782131718E+03  0.81376236301E+02 0.  0.
        -13    1    3    3    0    0  0.88655451268E+02 -0.69798134950E+02 -0.23752951594E+03  0.26296737369E+03  0.00000000000E+00 0.  1.
         14    1    3    3    0    0  0.51222561057E+02  0.46056839983E+01 -0.42444882003E+02  0.66682314706E+02  0.00000000000E+00 0. -1.
         11    1    5    5    0    0  0.17363319830E+02  0.36165996106E+02  0.19443343444E+02  0.44581473216E+02  0.00000000000E+00 0. -1.
        -12    1    5    5    0    0 -0.32225833631E+01  0.26427293079E+01  0.13317464833E+03  0.13323984396E+03  0.00000000000E+00 0.  1.
          5    1    4    4  501    0 -0.61698129761E+02 -0.36640159675E+02 -0.21154449766E+02  0.74927589457E+02  0.41800000000E+01 0. -1.
         -5    1    4    4    0  501 -0.92320619031E+02  0.63023885213E+02  0.67094547544E+02  0.13043871172E+03  0.41800000000E+01 0. -1.
</event>
<event>
11    1  0.1430999E-008  0.1619860E+03  0.7561462E-02  0.1085224E+00
         22   -1    0    0    0    0  0.00000000000E+00  0.00000000000E+00  0.20609257468E+04  0.20609257468E+04  0.00000000000E+00 0.  1.
         22   -1    0    0    0    0 -0.00000000000E+00 -0.00000000000E+00 -0.15330181981E+04  0.15330181981E+04  0.00000000000E+00 0.  1.
        -24    2    1    2    0    0 -0.32262043985E+00  0.10673620810E+03 -0.13502377198E+04  0.13568814391E+04  0.81194936595E+02 0.  0.
         25    2    1    2    0    0  0.80101967362E+02 -0.58756345744E+02 -0.14167359487E+03  0.21351196755E+03  0.12508924599E+03 0.  0.
         24    2    1    2    0    0 -0.79779346922E+02 -0.47979862356E+02  0.20198188633E+04  0.20235505382E+04  0.80135687204E+02 0.  0.
        -11    1    5    5    0    0 -0.56286898060E+02 -0.65676441466E+02  0.17493693238E+04  0.17515063920E+04  0.00000000000E+00 0.  1.
         12    1    5    5    0    0 -0.23492448862E+02  0.17696579111E+02  0.27044953950E+03  0.27204414620E+03  0.00000000000E+00 0. -1.
         13    1    3    3    0    0  0.24604384885E+02  0.10718307512E+01 -0.31722922559E+03  0.31818376160E+03  0.00000000000E+00 0. -1.
        -14    1    3    3    0    0 -0.24927005325E+02  0.10566437735E+03 -0.10330084942E+04  0.10386976775E+04  0.00000000000E+00 0.  1.
          5    1    4    4  501    0  0.51324831776E+02  0.23145611500E+02 -0.12504063477E+02  0.57825441563E+02  0.41800000000E+01 0.  1.
         -5    1    4    4    0  501  0.28777135586E+02 -0.81901957244E+02 -0.12916953139E+03  0.15568652598E+03  0.41800000000E+01 0.  1.
</event>
<event>
11    1  0.8299058E-009  0.1466076E+03  0.7561462E-02  0.1100396E+00
         22   -1    0    0    0    0  0.00000000000E+00  0.00000000000E+00  0.17684553018E+03  0.17684553018E+03  0.00000000000E+00 0.  1.
         22   -1    0    0    0    0 -0.00000000000E+00 -0.00000000000E+00 -0.34892814666E+03  0.34892814666E+03  0.00000000000E+00 0. -1.
         24    2    1    2    0    0  0.14034820936E+01 -0.77897853451E+02 -0.23181507846E+03  0.25739043499E+03  0.80259330222E+02 0.  0.
         25    2    1    2    0    0  0.64918894479E+02  0.64068582205E+02  0.18487694463E+02  0.15591368941E+03  0.12509211651E+03 0.  0.
        -24    2    1    2    0    0 -0.66322376572E+02  0.13829271246E+02  0.41244767511E+02  0.11246955244E+03  0.79739344122E+02 0.  0.
        -11    1    3    3    0    0 -0.14086751618E+02 -0.93263299939E+01 -0.19388764028E+01  0.17005182857E+02  0.00000000000E+00 0.  1.
         12    1    3    3    0    0  0.15490233712E+02 -0.68571523457E+02 -0.22987620206E+03  0.24038525213E+03  0.00000000000E+00 0. -1.
         11    1    5    5    0    0 -0.37562456532E+02  0.47348924405E+02  0.22535279111E+02  0.64503469579E+02  0.00000000000E+00 0. -1.
        -12    1    5    5    0    0 -0.28759920040E+02 -0.33519653159E+02  0.18709488400E+02  0.47966082859E+02  0.00000000000E+00 0.  1.
          5    1    4    4  501    0  0.99606920542E+02  0.58688280543E+02 -0.70575826657E+00  0.11568847560E+03  0.41800000000E+01 0. -1.
         -5    1    4    4    0  501 -0.34688026063E+02  0.53803016616E+01  0.19193452730E+02  0.40225213807E+02  0.41800000000E+01 0. -1.
</event>
<event>
11    1  0.8299058E-009  0.1386231E+03  0.7561462E-02  0.1109106E+00
         22   -1    0    0    0    0  0.00000000000E+00  0.00000000000E+00  0.32246938084E+04  0.32246938084E+04  0.00000000000E+00 0.  1.
         22   -1    0    0    0    0 -0.00000000000E+00 -0.00000000000E+00 -0.38797185779E+02  0.38797185779E+02  0.00000000000E+00 0. -1.
         24    2    1    2    0    0  0.16431792271E+02 -0.27439461758E+02  0.71831994901E+02  0.11263533008E+03  0.80647096855E+02 0.  0.
         25    2    1    2    0    0  0.32081004878E+02 -0.98459415042E+01  0.22202838846E+03  0.25703925254E+03  0.12508572510E+03 0.  0.
        -24    2    1    2    0    0 -0.48512797149E+02  0.37285403262E+02  0.28920362393E+04  0.28938164116E+04  0.80969882562E+02 0.  0.
        -11    1    3    3    0    0  0.11267733934E+02 -0.55009665729E+02  0.60045233961E+02  0.82209824674E+02  0.00000000000E+00 0.  1.
         12    1    3    3    0    0  0.51640583372E+01  0.27570203971E+02  0.11786760940E+02  0.30425505402E+02  0.00000000000E+00 0. -1.
         13    1    5    5    0    0 -0.83384447505E-01 -0.14298709519E+02  0.11591054292E+03  0.11678918617E+03  0.00000000000E+00 0. -1.
        -14    1    5    5    0    0 -0.48429412702E+02  0.51584112781E+02  0.27761256964E+04  0.27770272254E+04  0.00000000000E+00 0.  1.
          5    1    4    4  501    0 -0.35199071745E+02  0.29641574725E+02  0.49880421063E+02  0.67993576236E+02  0.41800000000E+01 0. -1.
         -5    1    4    4    0  501  0.67280076623E+02 -0.39487516230E+02  0.17214796740E+03  0.18904567630E+03  0.41800000000E+01 0. -1.
</event>
<event>
11    1  0.8299058E-009  0.1732718E+03  0.7561462E-02  0.1075219E+00
         22   -1    0    0    0    0  0.00000000000E+00  0.00000000000E+00  0.15510335436E+04  0.15510335436E+04  0.00000000000E+00 0. -1.
         22   -1    0    0    0    0 -0.00000000000E+00 -0.00000000000E+00 -0.14001041751E+03  0.14001041751E+03  0.00000000000E+00 0. -1.
         24    2    1    2    0    0  0.57695801663E+01  0.60025492483E+01 -0.10375650117E+03  0.13123560789E+03  0.79925306315E+02 0.  0.
         25    2    1    2    0    0 -0.12295610345E+03  0.14108933918E+02  0.41829504348E+03  0.45380171263E+03  0.12509190858E+03 0.  0.
        -24    2    1    2    0    0  0.11718652329E+03 -0.20111483166E+02  0.10964845838E+04  0.11060066406E+04  0.82674624643E+02 0.  0.
        -11    1    3    3    0    0 -0.37233367314E+01 -0.33330725806E+02 -0.22277264653E+02  0.40262601004E+02  0.00000000000E+00 0.  1.
         12    1    3    3    0    0  0.94929168977E+01  0.39333275055E+02 -0.81479236522E+02  0.90973006887E+02  0.00000000000E+00 0. -1.
         13    1    5    5    0    0  0.12574883589E+03 -0.21751469078E+02  0.10784617060E+04  0.10859859794E+04  0.00000000000E+00 0. -1.
        -14    1    5    5    0    0 -0.85623126020E+01  0.16399859115E+01  0.18022877727E+02  0.20020661139E+02  0.00000000000E+00 0.  1.
          5    1    4    4  501    0  0.23490457736E+02 -0.12658901189E+02  0.61325969998E+02  0.67010419937E+02  0.41800000000E+01 0.  1.
         -5    1    4    4    0  501 -0.14644656119E+03  0.26767835107E+02  0.35696907348E+03  0.38679129269E+03  0.41800000000E+01 0.  1.
</event>
<event>
11    1  0.8299058E-009  0.1491528E+03  0.7561462E-02  0.1097748E+00
         22   -1    0    0    0    0  0.00000000000E+00  0.00000000000E+00  0.79193470398E+03  0.79193470398E+03  0.00000000000E+00 0. -1.
         22   -1    0    0    0    0 -0.00000000000E+00 -0.00000000000E+00 -0.47856169797E+03  0.47856169797E+03  0.00000000000E+00 0.  1.
         24    2    1    2    0    0 -0.19394506890E+02 -0.85217473110E+02 -0.38903718433E+03  0.40694788797E+03  0.81354090924E+02 0.  0.
         25    2    1    2    0    0 -0.25741597776E+02  0.46017062011E+02 -0.17365198159E+02  0.13685231435E+03  0.12508719352E+03 0.  0.
        -24    2    1    2    0    0  0.45136104665E+02  0.39200411098E+02  0.71977538850E+03  0.72669619964E+03  0.80229773170E+02 0.  0.
        -11    1    3    3    0    0 -0.38220799832E+02 -0.69637742100E+01 -0.12044530804E+03  0.12655590037E+03  0.00000000000E+00 0.  1.
         12    1    3    3    0    0  0.18826292942E+02 -0.78253698900E+02 -0.26859187629E+03  0.28039198759E+03  0.00000000000E+00 0. -1.
         11    1    5    5    0    0  0.65461627390E+02  0.25844775047E+02  0.41258637916E+03  0.41854593216E+03  0.00000000000E+00 0. -1.
        -12    1    5    5    0    0 -0.20325522725E+02  0.13355636051E+02  0.30718900934E+03  0.30815026748E+03  0.00000000000E+00 0.  1.
          5    1    4    4  501    0 -0.61601653634E+02 -0.88752940918E+01  0.14182498092E+02  0.63969916585E+02  0.41800000000E+01 0.  1.
         -5    1    4    4    0  501  0.35860055859E+02  0.54892356103E+02 -0.31547696251E+02  0.72882397762E+02  0.41800000000E+01 0.  1.
</event>
<event>
11    1  0.8299058E-009  0.2082425E+03  0.7561462E-02  0.1048843E+00
         22   -1    0    0    0    0  0.00000000000E+00  0.00000000000E+00  0.12856348413E+03  0.12856348413E+03  0.00000000000E+00 0.  1.
         22   -1    0    0    0    0 -0.00000000000E+00 -0.00000000000E+00 -0.16432478568E+04  0.16432478568E+04  0.00000000000E+00 0.  1.
        -24    2    1    2    0    0  0.15769943982E+03  0.22895308675E+02 -0.11853861709E+04  0.11987574271E+04  0.80533759821E+02 0.  0.
         25    2    1    2    0    0 -0.24533536956E+03  0.93400185544E+02 -0.27035049852E+03  0.39705245318E+03  0.12509284676E+03 0.  0.
         24    2    1    2    0    0  0.87635929738E+02 -0.11629549422E+03 -0.58947703263E+02  0.17600146063E+03  0.79353539725E+02 0.  0.
        -13    1    5    5    0    0  0.85202115739E+02 -0.89446394981E+02 -0.75105126753E+02  0.14457122178E+03  0.00000000000E+00 0.  1.
         14    1    5    5    0    0  0.24338139987E+01 -0.26849099238E+02  0.16157423489E+02  0.31430238852E+02  0.00000000000E+00 0. -1.
         13    1    3    3    0    0  0.45994288738E+02 -0.29770780384E+02 -0.39481186898E+03  0.39859526572E+03  0.00000000000E+00 0. -1.
        -14    1    3    3    0    0  0.11170515108E+03  0.52666089060E+02 -0.79057430190E+03  0.80016216141E+03  0.00000000000E+00 0.  1.
          5    1    4    4  501    0 -0.20228075812E+02  0.53061288713E+02 -0.86659660905E+02  0.10369206642E+03  0.41800000000E+01 0. -1.
         -5    1    4    4    0  501 -0.22510729374E+03  0.40338896831E+02 -0.18369083762E+03  0.29336038676E+03  0.41800000000E+01 0. -1.
</event>
<event>
11    1  0.8299058E-009  0.1501012E+04  0.7561462E-02  0.8309443E-01
         22   -1    0    0    0    0  0.00000000000E+00  0.00000000000E+00  0.19186311551E+04  0.19186311551E+04  0.00000000000E+00 0.  1.
         22   -1    0    0    0    0 -0.00000000000E+00 -0.00000000000E+00 -0.28271599750E+04  0.28271599750E+04  0.00000000000E+00 0. -1.
         24    2    1    2    0    0 -0.12802641044E+04  0.77066586735E+03 -0.21344038476E+04  0.26067507470E+04  0.80421492078E+02 0.  0.
         25    2    1    2    0    0  0.13969038288E+04 -0.59385364324E+03  0.11131682958E+04  0.18864765891E+04  0.12509120643E+03 0.  0.
        -24    2    1    2    0    0 -0.11663972440E+03 -0.17681222411E+03  0.11270673194E+03  0.25256379396E+03  0.78856037778E+02 0.  0.
        -11    1    3    3    0    0 -0.26125955266E+03  0.18586187187E+03 -0.41986876276E+03  0.52829060867E+03  0.00000000000E+00 0.  1.
         12    1    3    3    0    0 -0.10190045517E+04  0.58480399548E+03 -0.17145350849E+04  0.20784601384E+04  0.00000000000E+00 0. -1.
         11    1    5    5    0    0 -0.21019365795E+01 -0.62538536050E+02  0.45494431914E+02  0.77364268004E+02  0.00000000000E+00 0. -1.
        -12    1    5    5    0    0 -0.11453778782E+03 -0.11427368806E+03  0.67212300023E+02  0.17519952595E+03  0.00000000000E+00 0.  1.
          5    1    4    4  501    0  0.11700562329E+04 -0.47843060203E+03  0.87090774948E+03  0.15350652135E+04  0.41800000000E+01 0.  1.
         -5    1    4    4    0  501  0.22684759583E+03 -0.11542304122E+03  0.24226054635E+03  0.35141137559E+03  0.41800000000E+01 0.  1.
</event>
<event>
11    1  0.8299058E-009  0.1682927E+03  0.7561462E-02  0.1079527E+00
         22   -1    0    0    0    0  0.00000000000E+00  0.00000000000E+00  0.33033001932E+03  0.33033001932E+03  0.00000000000E+00 0.  1.
         22   -1    0    0    0    0 -0.00000000000E+00 -0.00000000000E+00 -0.71860102655E+03  0.71860102655E+03  0.00000000000E+00 0.  1.
         24    2    1    2    0    0 -0.32352644683E+01  0.12434617008E+02 -0.58034724641E+03  0.58600386208E+03  0.80202950882E+02 0.  0.
         25    2    1    2    0    0 -0.10172758226E+03 -0.52592303176E+02 -0.56202394233E+02  0.17866280968E+03  0.12508892476E+03 0.  0.
        -24    2    1    2    0    0  0.10496284673E+03  0.40157686168E+02  0.24827863340E+03  0.28426437411E+03  0.80833876748E+02 0.  0.
        -13    1    3    3    0    0 -0.12726841252E+02 -0.21635525659E+02 -0.45693074418E+03  0.45761968209E+03  0.00000000000E+00 0.  1.
         14    1    3    3    0    0  0.94915767835E+01  0.34070142667E+02 -0.12341650222E+03  0.12838417999E+03  0.00000000000E+00 0. -1.
         11    1    5    5    0    0  0.14060061613E+02 -0.23431957045E+02  0.54877636108E+02  0.61304949950E+02  0.00000000000E+00 0. -1.
        -12    1    5    5    0    0  0.90902785120E+02  0.63589643213E+02  0.19340099730E+03  0.22295942416E+03  0.00000000000E+00 0.  1.
          5    1    4    4  501    0 -0.10654505780E+03  0.93537447651E+01 -0.30533224533E+02  0.11130629849E+03  0.41800000000E+01 0. -1.
         -5    1    4    4    0  501  0.48174755402E+01 -0.61946047941E+02 -0.25669169700E+02  0.67356511186E+02  0.41800000000E+01 0. -1.
</event>
<event>
11    1  0.8299058E-009  0.2136309E+03  0.7561462E-02  0.1045282E+00
         22   -1    0    0    0    0  0.00000000000E+00  0.00000000000E+00  0.44181399637E+03  0.44181399637E+03  0.00000000000E+00 0.  1.
         22   -1    0    0    0    0 -0.00000000000E+00 -0.00000000000E+00 -0.64856507593E+03  0.64856507593E+03  0.00000000000E+00 0.  1.
        -24    2    1    2    0    0  0.18704734686E+02  0.16945421002E+03 -0.54968550608E+03  0.58217083877E+03  0.87773193730E+02 0.  0.
         25    2    1    2    0    0  0.22713119304E+02 -0.21897206420E+03  0.19272625313E+03  0.31820768780E+03  0.12509225892E+03 0.  0.
         24    2    1    2    0    0 -0.41417853990E+02  0.49517854182E+02  0.15020817338E+03  0.19000054573E+03  0.96800080144E+02 0.  0.
        -13    1    5    5    0    0  0.15655794940E+02  0.28271546887E+02  0.11543257295E+03  0.11987102726E+03  0.00000000000E+00 0.  1.
         14    1    5    5    0    0 -0.57073648930E+02  0.21246307294E+02  0.34775600434E+02  0.70129518474E+02  0.00000000000E+00 0. -1.
         13    1    3    3    0    0 -0.84963112747E+01 -0.45353420938E+01 -0.78159660490E+01  0.12403465583E+02  0.00000000000E+00 0. -1.
        -14    1    3    3    0    0  0.27201045961E+02  0.17398955211E+03 -0.54186954003E+03  0.56976737319E+03  0.00000000000E+00 0.  1.
          5    1    4    4  501    0 -0.82933113672E+00 -0.50387874412E+02  0.12521577394E+03  0.13504106087E+03  0.41800000000E+01 0.  1.
         -5    1    4    4    0  501  0.23542450440E+02 -0.16858418979E+03  0.67510479189E+02  0.18316662693E+03  0.41800000000E+01 0.  1.
</event>
<event>
11    1  0.8299058E-009  0.1553542E+03  0.7561462E-02  0.1091530E+00
         22   -1    0    0    0    0  0.00000000000E+00  0.00000000000E+00  0.10399051234E+04  0.10399051234E+04  0.00000000000E+00 0. -1.
         22   -1    0    0    0    0 -0.00000000000E+00 -0.00000000000E+00 -0.16510960009E+04  0.16510960009E+04  0.00000000000E+00 0. -1.
         24    2    1    2    0    0 -0.44017275565E+02  0.10411536968E+02 -0.16129150841E+04  0.16155857965E+04  0.81095479309E+02 0.  0.
         25    2    1    2    0    0  0.23390963155E+02  0.81787547267E+02  0.14545390633E+03  0.20985782937E+03  0.12508848723E+03 0.  0.
        -24    2    1    2    0    0  0.20626312410E+02 -0.92199084235E+02  0.85627030024E+03  0.86555749844E+03  0.84052603395E+02 0.  0.
        -13    1    3    3    0    0 -0.13463693571E+02 -0.29181983919E+02 -0.29959543363E+03  0.30131425968E+03  0.00000000000E+00 0.  1.
         14    1    3    3    0    0 -0.30553581994E+02  0.39593520887E+02 -0.13133196504E+04  0.13142715368E+04  0.00000000000E+00 0. -1.
         13    1    5    5    0    0 -0.11852387762E+02 -0.92380387955E+02  0.67580079688E+03  0.68218863391E+03  0.00000000000E+00 0. -1.
        -14    1    5    5    0    0  0.32478700172E+02  0.18130372007E+00  0.18046950335E+03  0.18336886452E+03  0.00000000000E+00 0.  1.
          5    1    4    4  501    0  0.32799387598E+02  0.57881620930E+02  0.16457377688E+03  0.17756148880E+03  0.41800000000E+01 0. -1.
         -5    1    4    4    0  501 -0.94084244434E+01  0.23905926337E+02 -0.19119870550E+02  0.32296340573E+02  0.41800000000E+01 0. -1.
</event>
<event>
11    1  0.8299058E-009  0.1821970E+03  0.7561462E-02  0.1067879E+00
         22   -1    0    0    0    0  0.00000000000E+00  0.00000000000E+00  0.13372091772E+04  0.13372091772E+04  0.00000000000E+00 0. -1.
         22   -1    0    0    0    0 -0.00000000000E+00 -0.00000000000E+00 -0.26251499297E+03  0.26251499297E+03  0.00000000000E+00 0. -1.
         24    2    1    2    0    0  0.27525332881E+02  0.12835662508E+03 -0.19146359114E+03  0.24421103051E+03  0.75813280758E+02 0.  0.
         25    2    1    2    0    0 -0.98535297440E+02 -0.12376516727E+03  0.20325614355E+03  0.28633772964E+03  0.12509681871E+03 0.  0.
        -24    2    1    2    0    0  0.71009964559E+02 -0.45914578106E+01  0.10629016318E+04  0.10691754100E+04  0.91173910442E+02 0.  0.
        -11    1    3    3    0    0 -0.94832775251E+01  0.19163323846E+02 -0.83726131594E+02  0.86413139308E+02  0.00000000000E+00 0.  1.
         12    1    3    3    0    0  0.37008610406E+02  0.10919330124E+03 -0.10773745954E+03  0.15779789120E+03  0.00000000000E+00 0. -1.
         11    1    5    5    0    0  0.54395560466E+02  0.26381810417E+02  0.33402930347E+03  0.33945611277E+03  0.00000000000E+00 0. -1.
        -12    1    5    5    0    0  0.16614404093E+02 -0.30973268228E+02  0.72887232833E+03  0.72971929724E+03  0.00000000000E+00 0.  1.
          5    1    4    4  501    0 -0.21742171400E+02 -0.12256719448E+03  0.11916062081E+03  0.17237217040E+03  0.41800000000E+01 0.  1.
         -5    1    4    4    0  501 -0.76793126040E+02 -0.11979727981E+01  0.84095522747E+02  0.11396555924E+03  0.41800000000E+01 0.  1.
</event>
<event>
11    1  0.8299058E-009  0.1464428E+03  0.7561462E-02  0.1100570E+00
         22   -1    0    0    0    0  0.00000000000E+00  0.00000000000E+00  0.45602034257E+02  0.45602034257E+02  0.00000000000E+00 0.  1.
         22   -1    0    0    0    0 -0.00000000000E+00 -0.00000000000E+00 -0.18707576688E+04  0.18707576688E+04  0.00000000000E+00 0.  1.
        -24    2    1    2    0    0 -0.47028434726E+02 -0.56425220380E+02 -0.14447683224E+04  0.14500115744E+04  0.98906932714E+02 0.  0.
         25    2    1    2    0    0  0.93722731889E+02  0.46484846747E+02 -0.30639929587E+03  0.34709130835E+03  0.12508819437E+03 0.  0.
         24    2    1    2    0    0 -0.46694297163E+02  0.99403736338E+01 -0.73988016236E+02  0.11925682026E+03  0.80428814598E+02 0.  0.
        -13    1    5    5    0    0 -0.76450614836E+01  0.26009886546E+02  0.69315253749E+01  0.27982265942E+02  0.00000000000E+00 0.  1.
         14    1    5    5    0    0 -0.39049235679E+02 -0.16069512912E+02 -0.80919541611E+02  0.91274554323E+02  0.00000000000E+00 0. -1.
         13    1    3    3    0    0 -0.77538315946E+02 -0.43534173635E+02 -0.95824888368E+03  0.96236601030E+03  0.00000000000E+00 0. -1.
        -14    1    3    3    0    0  0.30509881220E+02 -0.12891046746E+02 -0.48651943873E+03  0.48764556411E+03  0.00000000000E+00 0.  1.
          5    1    4    4  501    0 -0.18048242932E+02  0.13088900237E+02 -0.41166544188E+01  0.23053798514E+02  0.41800000000E+01 0.  1.
         -5    1    4    4    0  501  0.11177097482E+03  0.33395946510E+02 -0.30228264145E+03  0.32403750983E+03  0.41800000000E+01 0.  1.
</event>
<event>
11    1  0.8299058E-009  0.2008560E+03  0.7561462E-02  0.1053920E+00
         22   -1    0    0    0    0  0.00000000000E+00  0.00000000000E+00  0.52221126010E+03  0.52221126010E+03  0.00000000000E+00 0. -1.
         22   -1    0    0    0    0 -0.00000000000E+00 -0.00000000000E+00 -0.19723869448E+03  0.19723869448E+03  0.00000000000E+00 0.  1.
        -24    2    1    2    0    0 -0.38210567537E+02  0.14417639570E+03 -0.61466681013E+02  0.18023310468E+03  0.80367522052E+02 0.  0.
         25    2    1    2    0    0 -0.37927562858E+02 -0.20240871268E+03  0.19131179307E+03  0.30766050339E+03  0.12508795380E+03 0.  0.
         24    2    1    2    0    0  0.76138130395E+02  0.58232316980E+02  0.19512745357E+03  0.23155634651E+03  0.79722022250E+02 0.  0.
        -13    1    5    5    0    0  0.71976000471E+02  0.41734101128E+02  0.80828856411E+02  0.11599820632E+03  0.00000000000E+00 0.  1.
         14    1    5    5    0    0  0.41621299244E+01  0.16498215852E+02  0.11429859716E+03  0.11555814019E+03  0.00000000000E+00 0. -1.
         13    1    3    3    0    0 -0.53847597153E+02  0.80455241494E+02 -0.61363065470E+02  0.11462126943E+03  0.00000000000E+00 0. -1.
        -14    1    3    3    0    0  0.15637029616E+02  0.63721154205E+02 -0.10361554274E+00  0.65611835248E+02  0.00000000000E+00 0.  1.
          5    1    4    4  501    0  0.21720450631E+02 -0.11949840922E+03  0.15965933095E+03  0.20064950073E+03  0.41800000000E+01 0. -1.
         -5    1    4    4    0  501 -0.59648013489E+02 -0.82910303454E+02  0.31652462116E+02  0.10701100266E+03  0.41800000000E+01 0. -1.
</event>
<event>
11    1  0.8299058E-009  0.2997168E+03  0.7561462E-02  0.1000311E+00
         22   -1    0    0    0    0  0.00000000000E+00  0.00000000000E+00  0.86223214470E+03  0.86223214470E+03  0.00000000000E+00 0.  1.
         22   -1    0    0    0    0 -0.00000000000E+00 -0.00000000000E+00 -0.13391401648E+04  0.13391401648E+04  0.00000000000E+00 0. -1.
        -24    2    1    2    0    0 -0.83722023868E+01 -0.19290113829E+02 -0.57665547089E+03  0.58244128040E+03  0.79146135336E+02 0.  0.
         25    2    1    2    0    0 -0.19657698111E+03  0.19835184846E+03 -0.70279251038E+03  0.76651913986E+03  0.12509322057E+03 0.  0.
         24    2    1    2    0    0  0.20494918350E+03 -0.17906173463E+03  0.80253996120E+03  0.85241188921E+03  0.92023730166E+02 0.  0.
        -13    1    5    5    0    0  0.18344470507E+03 -0.12378180692E+03  0.69769782898E+03  0.73195365707E+03  0.00000000000E+00 0.  1.
         14    1    5    5    0    0  0.21504478432E+02 -0.55279927709E+02  0.10484213222E+03  0.12045823213E+03  0.00000000000E+00 0. -1.
         13    1    3    3    0    0 -0.19026956885E+02  0.20745265941E+02 -0.40015207062E+03  0.40114096122E+03  0.00000000000E+00 0. -1.
        -14    1    3    3    0    0  0.10654754498E+02 -0.40035379769E+02 -0.17650340027E+03  0.18130031918E+03  0.00000000000E+00 0.  1.
          5    1    4    4  501    0 -0.14158782804E+03  0.68592704361E+02 -0.28486517289E+03  0.32545001347E+03  0.41800000000E+01 0.  1.
         -5    1    4    4    0  501 -0.54989153069E+02  0.12975914410E+03 -0.41792733750E+03  0.44106912640E+03  0.41800000000E+01 0.  1.
</event>
<event>
11    1  0.8299058E-009  0.1513324E+03  0.7561462E-02  0.1095525E+00
         22   -1    0    0    0    0  0.00000000000E+00  0.00000000000E+00  0.39909478941E+03  0.39909478941E+03  0.00000000000E+00 0. -1.
         22   -1    0    0    0    0 -0.00000000000E+00 -0.00000000000E+00 -0.35474191606E+03  0.35474191606E+03  0.00000000000E+00 0. -1.
        -24    2    1    2    0    0 -0.30902364504E+01 -0.18374840726E+02 -0.30188784250E+03  0.31317314004E+03  0.81203213377E+02 0.  0.
         25    2    1    2    0    0  0.69776613576E+02 -0.39692153020E+02  0.15021615640E+03  0.21131997924E+03  0.12508795774E+03 0.  0.
         24    2    1    2    0    0 -0.66686377126E+02  0.58066993746E+02  0.19602455945E+03  0.22934358618E+03  0.79712006344E+02 0.  0.
        -13    1    5    5    0    0  0.79650210606E+01  0.35270833298E+01  0.82395489638E+02  0.82854683574E+02  0.00000000000E+00 0.  1.
         14    1    5    5    0    0 -0.74651398187E+02  0.54539910416E+02  0.11362906981E+03  0.14648890260E+03  0.00000000000E+00 0. -1.
         11    1    3    3    0    0 -0.22028924391E+01 -0.35085538203E+02 -0.29120598934E+03  0.29332026175E+03  0.00000000000E+00 0. -1.
        -12    1    3    3    0    0 -0.88734401128E+00  0.16710697477E+02 -0.10681853159E+02  0.19852878292E+02  0.00000000000E+00 0.  1.
          5    1    4    4  501    0 -0.10396631628E+02 -0.23757798640E+02 -0.12566298435E+02  0.29118846161E+02  0.41800000000E+01 0.  1.
         -5    1    4    4    0  501  0.80173245205E+02 -0.15934354380E+02  0.16278245483E+03  0.18220113308E+03  0.41800000000E+01 0.  1.
</event>
<event>
11    1  0.8299058E-009  0.1501345E+03  0.7561462E-02  0.1096741E+00
         22   -1    0    0    0    0  0.00000000000E+00  0.00000000000E+00  0.88457158696E+03  0.88457158696E+03  0.00000000000E+00 0. -1.
         22   -1    0    0    0    0 -0.00000000000E+00 -0.00000000000E+00 -0.73657593102E+03  0.73657593102E+03  0.00000000000E+00 0. -1.
         24    2    1    2    0    0  0.35788062619E+02  0.73814404551E+02 -0.66950818693E+03  0.67945764655E+03  0.81805435900E+02 0.  0.
         25    2    1    2    0    0 -0.44401797244E+02 -0.95500539961E+02  0.51729711256E+02  0.17150789112E+03  0.12508845254E+03 0.  0.
        -24    2    1    2    0    0  0.86137346248E+01  0.21686135410E+02  0.76577413161E+03  0.77018198030E+03  0.78903594608E+02 0.  0.
        -11    1    3    3    0    0  0.35486781631E+02  0.24686777939E+02 -0.11633497347E+03  0.12410710990E+03  0.00000000000E+00 0.  1.
         12    1    3    3    0    0  0.30128098844E+00  0.49127626612E+02 -0.55317321346E+03  0.55535053665E+03  0.00000000000E+00 0. -1.
         13    1    5    5    0    0 -0.27843291494E+02  0.33728337123E+02  0.38442272263E+03  0.38690267417E+03  0.00000000000E+00 0. -1.
        -14    1    5    5    0    0  0.36457026119E+02 -0.12042201713E+02  0.38135140899E+03  0.38327930613E+03  0.00000000000E+00 0.  1.
          5    1    4    4  501    0 -0.98144370352E+00  0.30010920395E+02  0.54436531534E+01  0.30801369034E+02  0.41800000000E+01 0. -1.
         -5    1    4    4    0  501 -0.43420353540E+02 -0.12551146036E+03  0.46286058103E+02  0.14070652208E+03  0.41800000000E+01 0. -1.
</event>
<event>
11    1  0.8299058E-009  0.9122282E+03  0.7561462E-02  0.8767293E-01
         22   -1    0    0    0    0  0.00000000000E+00  0.00000000000E+00  0.92570882219E+03  0.92570882219E+03  0.00000000000E+00 0.  1.
         22   -1    0    0    0    0 -0.00000000000E+00 -0.00000000000E+00 -0.19321783319E+04  0.19321783319E+04  0.00000000000E+00 0.  1.
         24    2    1    2    0    0 -0.55187425868E+03 -0.24322671759E+03 -0.47733629468E+03  0.77147585511E+03  0.60005193588E+02 0.  0.
         25    2    1    2    0    0  0.56470585793E+03  0.10434805202E+04 -0.46059009765E+03  0.12788806575E+04  0.12509274940E+03 0.  0.
        -24    2    1    2    0    0 -0.12831599251E+02 -0.80025380260E+03 -0.68543117412E+02  0.80753064155E+03  0.82684820765E+02 0.  0.
        -11    1    3    3    0    0 -0.44602789307E+03 -0.22152058509E+03 -0.39437899129E+03  0.63525352402E+03  0.00000000000E+00 0.  1.
         12    1    3    3    0    0 -0.10584636561E+03 -0.21706132502E+02 -0.82957303388E+02  0.13622233109E+03  0.00000000000E+00 0. -1.
         11    1    5    5    0    0 -0.42624117038E+02 -0.26599957993E+03 -0.15869173568E+02  0.26986000546E+03  0.00000000000E+00 0. -1.
        -12    1    5    5    0    0  0.29792517787E+02 -0.53425422267E+03 -0.52673943844E+02  0.53767063609E+03  0.00000000000E+00 0.  1.
          5    1    4    4  501    0  0.13357300110E+03  0.36828661373E+03 -0.14130188552E+03  0.41648586018E+03  0.41800000000E+01 0. -1.
         -5    1    4    4    0  501  0.43113285683E+03  0.67519390646E+03 -0.31928821213E+03  0.86239479727E+03  0.41800000000E+01 0. -1.
</event>
<event>
11    1  0.8299058E-009  0.3259786E+03  0.7561462E-02  0.9897589E-01
         22   -1    0    0    0    0  0.00000000000E+00  0.00000000000E+00  0.50131138664E+03  0.50131138664E+03  0.00000000000E+00 0.  1.
         22   -1    0    0    0    0 -0.00000000000E+00 -0.00000000000E+00 -0.12865478910E+04  0.12865478910E+04  0.00000000000E+00 0.  1.
        -24    2    1    2    0    0  0.90427205451E+02 -0.28570343695E+03 -0.10016131669E+04  0.10487983811E+04  0.83340114156E+02 0.  0.
         25    2    1    2    0    0 -0.18622309655E+03  0.26110251692E+03 -0.13138606747E+03  0.36845947078E+03  0.12508603780E+03 0.  0.
         24    2    1    2    0    0  0.95795891098E+02  0.24600920031E+02  0.34776273001E+03  0.37060142582E+03  0.81390677714E+02 0.  0.
        -11    1    5    5    0    0  0.88678956892E+02  0.46862657438E+02  0.31328121811E+03  0.32894556947E+03  0.00000000000E+00 0.  1.
         12    1    5    5    0    0  0.71169342054E+01 -0.22261737407E+02  0.34481511900E+02  0.41655856344E+02  0.00000000000E+00 0. -1.
         13    1    3    3    0    0  0.58655124513E+02 -0.91821099446E+02 -0.26722394901E+03  0.28858305020E+03  0.00000000000E+00 0. -1.
        -14    1    3    3    0    0  0.31772080938E+02 -0.19388233750E+03 -0.73438921792E+03  0.76021533089E+03  0.00000000000E+00 0.  1.
          5    1    4    4  501    0 -0.42805614226E+02  0.13520098982E+03 -0.99602584929E+01  0.14222625428E+03  0.41800000000E+01 0.  1.
         -5    1    4    4    0  501 -0.14341748232E+03  0.12590152710E+03 -0.12142580897E+03  0.22623321650E+03  0.41800000000E+01 0.  1.
</event>
<event>
11    1  0.8299058E-009  0.1442588E+03  0.7561462E-02  0.1102894E+00
         22   -1    0    0    0    0  0.00000000000E+00  0.00000000000E+00  0.54051793027E+02  0.54051793027E+02  0.00000000000E+00 0. -1.
         22   -1    0    0    0    0 -0.00000000000E+00 -0.00000000000E+00 -0.17589363975E+04  0.17589363975E+04  0.00000000000E+00 0.  1.
        -24    2    1    2    0    0 -0.54519559036E+02  0.52735387346E+02 -0.11152786033E+04  0.11208541592E+04  0.81940709431E+02 0.  0.
         25    2    1    2    0    0  0.28659157792E+02 -0.55792183841E+02 -0.59051120227E+03  0.60686564098E+03  0.12509320964E+03 0.  0.
         24    2    1    2    0    0  0.25860401244E+02  0.30567964954E+01  0.90520106807E+00  0.85268390352E+02  0.81189744715E+02 0.  0.
        -11    1    5    5    0    0  0.41532130458E+02  0.29819957556E+02 -0.10551113762E+02  0.52206069864E+02  0.00000000000E+00 0.  1.
         12    1    5    5    0    0 -0.15671729214E+02 -0.26763161061E+02  0.11456314830E+02  0.33062320487E+02  0.00000000000E+00 0. -1.
         11    1    3    3    0    0 -0.21315534443E+02  0.68133045542E+02 -0.59028472609E+03  0.59458600872E+03  0.00000000000E+00 0. -1.
        -12    1    3    3    0    0 -0.33204024593E+02 -0.15397658197E+02 -0.52499387718E+03  0.52626815047E+03  0.00000000000E+00 0.  1.
          5    1    4    4  501    0  0.69171596886E+02 -0.35572741142E+02 -0.21623116567E+03  0.22983367712E+03  0.41800000000E+01 0.  1.
         -5    1    4    4    0  501 -0.40512439095E+02 -0.20219442699E+02 -0.37428003659E+03  0.37703196387E+03  0.41800000000E+01 0.  1.
</event>
<event>
11    1  0.8299058E-009  0.1564198E+03  0.7561462E-02  0.1090494E+00
         22   -1    0    0    0    0  0.00000000000E+00  0.00000000000E+00  0.16635397609E+04  0.16635397609E+04  0.00000000000E+00 0. -1.
         22   -1    0    0    0    0 -0.00000000000E+00 -0.00000000000E+00 -0.10448690543E+03  0.10448690543E+03  0.00000000000E+00 0.  1.
         24    2    1    2    0    0 -0.47877646901E+02  0.83028496751E+02 -0.33511952110E+02  0.12867294679E+03  0.79042241594E+02 0.  0.
         25    2    1    2    0    0  0.63360358154E+02 -0.58925558156E+02  0.24091104384E+03  0.28490863704E+03  0.12509214214E+03 0.  0.
        -24    2    1    2    0    0 -0.15482711253E+02 -0.24102938595E+02  0.13516537638E+04  0.13544450825E+04  0.82054363071E+02 0.  0.
        -11    1    3    3    0    0 -0.57553957489E+02  0.88598583060E+02 -0.42955529931E+02  0.11404974570E+03  0.00000000000E+00 0.  1.
         12    1    3    3    0    0  0.96763105875E+01 -0.55700863085E+01  0.94435778211E+01  0.14623201091E+02  0.00000000000E+00 0. -1.
         11    1    5    5    0    0  0.29081550374E+01 -0.31379773529E+02  0.12713863325E+04  0.12717768491E+04  0.00000000000E+00 0. -1.
        -12    1    5    5    0    0 -0.18390866291E+02  0.72768349337E+01  0.80267431270E+02  0.82668233393E+02  0.00000000000E+00 0.  1.
          5    1    4    4  501    0 -0.19741309141E+02  0.25617888976E+02  0.65273668266E+02  0.72966565570E+02  0.41800000000E+01 0.  1.
         -5    1    4    4    0  501  0.83101667295E+02 -0.84543447132E+02  0.17563737557E+03  0.21194207147E+03  0.41800000000E+01 0.  1.
</event>
<event>
11    1  0.8299058E-009  0.1310148E+03  0.7561462E-02  0.1118028E+00
         22   -1    0    0    0    0  0.00000000000E+00  0.00000000000E+00  0.64457230354E+02  0.64457230354E+02  0.00000000000E+00 0. -1.
         22   -1    0    0    0    0 -0.00000000000E+00 -0.00000000000E+00 -0.18361512644E+04  0.18361512644E+04  0.00000000000E+00 0.  1.
        -24    2    1    2    0    0 -0.25002964909E+02 -0.28445233152E+02 -0.15415417211E+04  0.15442776733E+04  0.83716036976E+02 0.  0.
         25    2    1    2    0    0  0.23514840454E+02  0.51944260450E+02 -0.22698922111E+03  0.26536652540E+03  0.12507650614E+03 0.  0.
         24    2    1    2    0    0  0.14881244549E+01 -0.23499027298E+02 -0.31630918487E+01  0.90964296055E+02  0.87807056712E+02 0.  0.
        -11    1    5    5    0    0  0.17451395322E+01 -0.26799323224E+02 -0.43158500897E+02  0.50832129967E+02  0.00000000000E+00 0.  1.
         12    1    5    5    0    0 -0.25701507725E+00  0.33002959267E+01  0.39995409049E+02  0.40132166088E+02  0.00000000000E+00 0. -1.
         11    1    3    3    0    0  0.95783381426E+00 -0.21019526239E+02 -0.87832304505E+02  0.90317504636E+02  0.00000000000E+00 0. -1.
        -12    1    3    3    0    0 -0.25960798723E+02 -0.74257069132E+01 -0.14537094166E+04  0.14539601687E+04  0.00000000000E+00 0.  1.
          5    1    4    4  501    0 -0.10881576524E+02  0.57951180695E+02 -0.31972750713E+02  0.67204741200E+02  0.41800000000E+01 0.  1.
         -5    1    4    4    0  501  0.34396416978E+02 -0.60069202454E+01 -0.19501647040E+03  0.19816178420E+03  0.41800000000E+01 0.  1.
</event>
<event>
11    1  0.8299058E-009  0.1342437E+03  0.7561462E-02  0.1114162E+00
         22   -1    0    0    0    0  0.00000000000E+00  0.00000000000E+00  0.86595876751E+03  0.86595876751E+03  0.00000000000E+00 0.  1.
         22   -1    0    0    0    0 -0.00000000000E+00 -0.00000000000E+00 -0.24796745717E+04  0.24796745717E+04  0.00000000000E+00 0. -1.
        -24    2    1    2    0    0 -0.84653925148E+01  0.49965110916E+02 -0.21742033292E+04  0.21762618519E+04  0.79920938042E+02 0.  0.
         25    2    1    2    0    0 -0.85070285627E+01 -0.24750221566E+02 -0.28845690790E+03  0.31549877808E+03  0.12508856163E+03 0.  0.
         24    2    1    2    0    0  0.16972421078E+02 -0.25214889351E+02  0.84894443288E+03  0.85387270921E+03  0.86418167559E+02 0.  0.
        -13    1    5    5    0    0  0.40773255234E+02 -0.41691520769E+02  0.67716435284E+03  0.67967065702E+03  0.00000000000E+00 0.  1.
         14    1    5    5    0    0 -0.23800834156E+02  0.16476631419E+02  0.17178008004E+03  0.17420205219E+03  0.00000000000E+00 0. -1.
         13    1    3    3    0    0  0.75924661418E+01 -0.19534301640E+02 -0.72660280713E+03  0.72690499641E+03  0.00000000000E+00 0. -1.
        -14    1    3    3    0    0 -0.16057858657E+02  0.69499412557E+02 -0.14476005220E+04  0.14493568555E+04  0.00000000000E+00 0.  1.
          5    1    4    4  501    0 -0.15155800763E+02 -0.71540572127E+02 -0.22252609444E+03  0.23427139574E+03  0.41800000000E+01 0.  1.
         -5    1    4    4    0  501  0.66487722002E+01  0.46790350561E+02 -0.65930813460E+02  0.81227382334E+02  0.41800000000E+01 0.  1.
</event>
<event>
11    1  0.8299058E-009  0.1397083E+03  0.7561462E-02  0.1107885E+00
         22   -1    0    0    0    0  0.00000000000E+00  0.00000000000E+00  0.37281290863E+03  0.37281290863E+03  0.00000000000E+00 0. -1.
         22   -1    0    0    0    0 -0.00000000000E+00 -0.00000000000E+00 -0.11454615273E+04  0.11454615273E+04  0.00000000000E+00 0. -1.
         24    2    1    2    0    0  0.44348583904E+02 -0.43809377782E+02 -0.10743430539E+04  0.10792312974E+04  0.81493172936E+02 0.  0.
         25    2    1    2    0    0 -0.62245670674E+02  0.19404868644E+02  0.18623534904E+02  0.14228735132E+03  0.12509109421E+03 0.  0.
        -24    2    1    2    0    0  0.17897086771E+02  0.24404509138E+02  0.28307090037E+03  0.29675578722E+03  0.83779334158E+02 0.  0.
        -11    1    3    3    0    0  0.58261863288E+01 -0.69646300926E+01 -0.98210324839E+01  0.13375470030E+02  0.00000000000E+00 0.  1.
         12    1    3    3    0    0  0.38522397575E+02 -0.36844747689E+02 -0.10645220214E+04  0.10658558273E+04  0.00000000000E+00 0. -1.
         13    1    5    5    0    0  0.48722565802E+02  0.10955901729E+02  0.21633928903E+03  0.22202839498E+03  0.00000000000E+00 0. -1.
        -14    1    5    5    0    0 -0.30825479031E+02  0.13448607408E+02  0.66731611346E+02  0.74727392244E+02  0.00000000000E+00 0.  1.
          5    1    4    4  501    0  0.74343070253E+01  0.15057917843E+02 -0.44703986447E+02  0.47936714686E+02  0.41800000000E+01 0. -1.
         -5    1    4    4    0  501 -0.69679977700E+02  0.43469508011E+01  0.63327521350E+02  0.94350636637E+02  0.41800000000E+01 0. -1.
</event>
<event>
11    1  0.8299058E-009  0.2141436E+03  0.7561462E-02  0.1044949E+00
         22   -1    0    0    0    0  0.00000000000E+00  0.00000000000E+00  0.91427826646E+03  0.91427826646E+03  0.00000000000E+00 0.  1.
         22   -1    0    0    0    0 -0.00000000000E+00 -0.00000000000E+00 -0.52331716710E+03  0.52331716710E+03  0.00000000000E+00 0. -1.
         24    2    1    2    0    0  0.56459613702E+02  0.15185256442E+02 -0.39380713140E+03  0.40620634400E+03  0.80630373738E+02 0.  0.
         25    2    1    2    0    0 -0.81156206580E+02  0.15744992477E+03 -0.61760901151E+01  0.21693890034E+03  0.12509010238E+03 0.  0.
        -24    2    1    2    0    0  0.24696592878E+02 -0.17263518121E+03  0.79094432088E+03  0.81445018923E+03  0.85576658642E+02 0.  0.
        -13    1    3    3    0    0  0.22602863287E+02 -0.29796656840E+02 -0.94149089053E+02  0.10130538563E+03  0.00000000000E+00 0.  1.
         14    1    3    3    0    0  0.33856750416E+02  0.44981913282E+02 -0.29965804235E+03  0.30490095837E+03  0.00000000000E+00 0. -1.
         11    1    5    5    0    0 -0.24607688724E+02 -0.39822310302E+02  0.12208227918E+03  0.13074952249E+03  0.00000000000E+00 0. -1.
        -12    1    5    5    0    0  0.49304281602E+02 -0.13281287091E+03  0.66886204170E+03  0.68370066674E+03  0.00000000000E+00 0.  1.
          5    1    4    4  501    0 -0.23016054600E+02  0.11374214785E+03  0.48503722617E+02  0.12584553419E+03  0.41800000000E+01 0.  1.
         -5    1    4    4    0  501 -0.58140151981E+02  0.43707776917E+02 -0.54679812732E+02  0.91093366145E+02  0.41800000000E+01 0.  1.
</event>
<event>
11    1  0.8299058E-009  0.1501690E+03  0.7561462E-02  0.1096706E+00
         22   -1    0    0    0    0  0.00000000000E+00  0.00000000000E+00  0.21064180163E+03  0.21064180163E+03  0.00000000000E+00 0.  1.
         22   -1    0    0    0    0 -0.00000000000E+00 -0.00000000000E+00 -0.18955089952E+04  0.18955089952E+04  0.00000000000E+00 0.  1.
         24    2    1    2    0    0  0.28279670343E+02 -0.73678880836E+02 -0.95593632788E+03  0.96251126235E+03  0.79908384818E+02 0.  0.
         25    2    1    2    0    0  0.44915029123E+02  0.11260319006E+03 -0.91181508501E+03  0.92830610214E+03  0.12509449133E+03 0.  0.
        -24    2    1    2    0    0 -0.73194699466E+02 -0.38924309224E+02  0.18288421935E+03  0.21533343231E+03  0.77777139997E+02 0.  0.
        -13    1    3    3    0    0 -0.19230270330E+02 -0.25184404807E+01 -0.35320065805E+03  0.35373273906E+03  0.00000000000E+00 0.  1.
         14    1    3    3    0    0  0.47509940673E+02 -0.71160440356E+02 -0.60273566983E+03  0.60877852329E+03  0.00000000000E+00 0. -1.
         13    1    5    5    0    0 -0.36144501076E+02 -0.58500292254E+02  0.88584060233E+02  0.11214207453E+03  0.00000000000E+00 0. -1.
        -14    1    5    5    0    0 -0.37050198390E+02  0.19575983030E+02  0.94300159117E+02  0.10319135779E+03  0.00000000000E+00 0.  1.
          5    1    4    4  501    0 -0.38368669175E+02  0.67703698859E+02 -0.47407284751E+03  0.48043572178E+03  0.41800000000E+01 0.  1.
         -5    1    4    4    0  501  0.83283698298E+02  0.44899491201E+02 -0.43774223750E+03  0.44787038036E+03  0.41800000000E+01 0.  1.
</event>
<event>
11    1  0.8299058E-009  0.1682771E+03  0.7561462E-02  0.1079541E+00
         22   -1    0    0    0    0  0.00000000000E+00  0.00000000000E+00  0.11915020536E+04  0.11915020536E+04  0.00000000000E+00 0. -1.
         22   -1    0    0    0    0 -0.00000000000E+00 -0.00000000000E+00 -0.31213230661E+03  0.31213230661E+03  0.00000000000E+00 0. -1.
         24    2    1    2    0    0 -0.67794976918E+02 -0.92551027554E+02 -0.26420443654E+03  0.29895815423E+03  0.80063363030E+02 0.  0.
         25    2    1    2    0    0  0.73330898853E+02  0.53068969405E+02  0.18142059131E+03  0.23823252309E+03  0.12509023889E+03 0.  0.
        -24    2    1    2    0    0 -0.55359219357E+01  0.39482058149E+02  0.96215359224E+03  0.96644368290E+03  0.81758044310E+02 0.  0.
        -13    1    3    3    0    0 -0.21329026579E+02 -0.65586305842E+01 -0.63511813849E+01  0.23200873150E+02  0.00000000000E+00 0.  1.
         14    1    3    3    0    0 -0.46465950339E+02 -0.85992396970E+02 -0.25785325515E+03  0.27575728108E+03  0.00000000000E+00 0. -1.
         13    1    5    5    0    0 -0.27800663702E+01  0.29983497904E+02  0.95123557846E+03  0.95171207024E+03  0.00000000000E+00 0. -1.
        -14    1    5    5    0    0 -0.27558555655E+01  0.94985602448E+01  0.10918013781E+02  0.14731612660E+02  0.00000000000E+00 0.  1.
          5    1    4    4  501    0  0.64128205823E+02  0.90719400241E+02  0.10742686697E+03  0.15459767304E+03  0.41800000000E+01 0. -1.
         -5    1    4    4    0  501  0.92026930304E+01 -0.37650430836E+02  0.73993724347E+02  0.83634850056E+02  0.41800000000E+01 0. -1.
</event>
<event>
11    1  0.8299058E-009  0.1309187E+03  0.7561462E-02  0.1118145E+00
         22   -1    0    0    0    0  0.00000000000E+00  0.00000000000E+00  0.95862933914E+03  0.95862933914E+03  0.00000000000E+00 0.  1.
         22   -1    0    0    0    0 -0.00000000000E+00 -0.00000000000E+00 -0.16460801794E+03  0.16460801794E+03  0.00000000000E+00 0.  1.
        -24    2    1    2    0    0 -0.28073499969E+02 -0.27877960774E+02 -0.96681340723E+02  0.13259783336E+03  0.81667629263E+02 0.  0.
         25    2    1    2    0    0  0.51621196436E+02 -0.97887138051E+01  0.48912533527E+02  0.14422514885E+03  0.12509152963E+03 0.  0.
         24    2    1    2    0    0 -0.23547696467E+02  0.37666674579E+02  0.84179012840E+03  0.84641437487E+03  0.76376706727E+02 0.  0.
        -13    1    5    5    0    0 -0.35033438001E+02  0.54759180824E+02  0.71652159654E+03  0.71946445914E+03  0.00000000000E+00 0.  1.
         14    1    5    5    0    0  0.11485741534E+02 -0.17092506245E+02  0.12526853186E+03  0.12694991573E+03  0.00000000000E+00 0. -1.
         13    1    3    3    0    0  0.26028437867E+01  0.18581796421E+02  0.24302908090E+01  0.18919943643E+02  0.00000000000E+00 0. -1.
        -14    1    3    3    0    0 -0.30676343756E+02 -0.46459757195E+02 -0.99111631532E+02  0.11367788971E+03  0.00000000000E+00 0.  1.
          5    1    4    4  501    0  0.62762611300E+02 -0.47549801157E+02 -0.30349900316E+01  0.78910154807E+02  0.41800000000E+01 0. -1.
         -5    1    4    4    0  501 -0.11141414864E+02  0.37761087352E+02  0.51947523558E+02  0.65314994044E+02  0.41800000000E+01 0. -1.
</event>
<event>
11    1  0.8299058E-009  0.1647848E+03  0.7561462E-02  0.1082661E+00
         22   -1    0    0    0    0  0.00000000000E+00  0.00000000000E+00  0.29370183460E+03  0.29370183460E+03  0.00000000000E+00 0.  1.
         22   -1    0    0    0    0 -0.00000000000E+00 -0.00000000000E+00 -0.42406463314E+03  0.42406463314E+03  0.00000000000E+00 0.  1.
         24    2    1    2    0    0  0.36520530710E+02  0.33292339708E+02 -0.29852276517E+03  0.31314698468E+03  0.80641575155E+02 0.  0.
         25    2    1    2    0    0  0.37759464654E+02  0.55838921813E+02 -0.45042330976E+02  0.14906711560E+03  0.12509368894E+03 0.  0.
        -24    2    1    2    0    0 -0.74279995364E+02 -0.89131261521E+02  0.21320229761E+03  0.25555236746E+03  0.79936808265E+02 0.  0.
        -11    1    3    3    0    0  0.13539487556E+02  0.13784952119E+02 -0.27290370507E+03  0.27358686897E+03  0.00000000000E+00 0.  1.
         12    1    3    3    0    0  0.22981043154E+02  0.19507387589E+02 -0.25619060093E+02  0.39560115711E+02  0.00000000000E+00 0. -1.
         11    1    5    5    0    0  0.14625852761E+02  0.49927870054E+00  0.23367350481E+02  0.27571686867E+02  0.00000000000E+00 0. -1.
        -12    1    5    5    0    0 -0.88905848124E+02 -0.89630540222E+02  0.18983494713E+03  0.22798068059E+03  0.00000000000E+00 0.  1.
          5    1    4    4  501    0 -0.31322587794E+02  0.67165507568E+01  0.23522061364E+02  0.39962186264E+02  0.41800000000E+01 0.  1.
         -5    1    4    4    0  501  0.69082052448E+02  0.49122371056E+02 -0.68564392340E+02  0.10910492934E+03  0.41800000000E+01 0.  1.
</event>
<event>
11    1  0.8299058E-009  0.1526889E+03  0.7561462E-02  0.1094162E+00
         22   -1    0    0    0    0  0.00000000000E+00  0.00000000000E+00  0.27083502701E+03  0.27083502701E+03  0.00000000000E+00 0. -1.
         22   -1    0    0    0    0 -0.00000000000E+00 -0.00000000000E+00 -0.18753691865E+04  0.18753691865E+04  0.00000000000E+00 0. -1.
        -24    2    1    2    0    0 -0.17319361932E+02 -0.90965402511E+01 -0.16171598870E+04  0.16195593970E+04  0.85929231993E+02 0.  0.
         25    2    1    2    0    0 -0.47869946628E+02 -0.50926397905E+02 -0.22147254583E+03  0.26378565671E+03  0.12509098423E+03 0.  0.
         24    2    1    2    0    0  0.65189308560E+02  0.60022938156E+02  0.23409827329E+03  0.26285915986E+03  0.80252958239E+02 0.  0.
        -11    1    5    5    0    0 -0.16080684090E+01  0.24535897741E+02  0.10361340398E+02  0.26682457473E+02  0.00000000000E+00 0.  1.
         12    1    5    5    0    0  0.66797376969E+02  0.35487040416E+02  0.22373693290E+03  0.23617670238E+03  0.00000000000E+00 0. -1.
         13    1    3    3    0    0 -0.30356679680E+02 -0.14801056691E+02 -0.15684433823E+04  0.15688069488E+04  0.00000000000E+00 0. -1.
        -14    1    3    3    0    0  0.13037317748E+02  0.57045164395E+01 -0.48716504697E+02  0.50752448135E+02  0.00000000000E+00 0.  1.
          5    1    4    4  501    0 -0.55010545367E+02  0.75352516041E+01 -0.29654004833E+02  0.63085438264E+02  0.41800000000E+01 0.  1.
         -5    1    4    4    0  501  0.71405987393E+01 -0.58461649509E+02 -0.19181854100E+03  0.20070021845E+03  0.41800000000E+01 0.  1.
</event>
<event>
11    1  0.8299058E-009  0.1359285E+03  0.7561462E-02  0.1112192E+00
         22   -1    0    0    0    0  0.00000000000E+00  0.00000000000E+00  0.17462873200E+03  0.17462873200E+03  0.00000000000E+00 0. -1.
         22   -1    0    0    0    0 -0.00000000000E+00 -0.00000000000E+00 -0.47221163885E+03  0.47221163885E+03  0.00000000000E+00 0.  1.
         24    2    1    2    0    0 -0.19803937544E+01  0.23150378839E+02 -0.30145689366E+03  0.31410017869E+03  0.85104650406E+02 0.  0.
         25    2    1    2    0    0  0.34497536138E+02 -0.62657498553E+02 -0.11194901309E+03  0.18247189163E+03  0.12508943832E+03 0.  0.
        -24    2    1    2    0    0 -0.32517142383E+02  0.39507119714E+02  0.11582299989E+03  0.15026830053E+03  0.80916115713E+02 0.  0.
        -11    1    3    3    0    0 -0.91773797828E+01  0.53835574042E+02 -0.22204415826E+03  0.22866154367E+03  0.00000000000E+00 0.  1.
         12    1    3    3    0    0  0.71969860284E+01 -0.30685195203E+02 -0.79412735396E+02  0.85438635029E+02  0.00000000000E+00 0. -1.
         13    1    5    5    0    0 -0.15116477833E+02  0.57854592147E+02  0.10859338979E+03  0.12396848810E+03  0.00000000000E+00 0. -1.
        -14    1    5    5    0    0 -0.17400664551E+02 -0.18347472434E+02  0.72296100981E+01  0.26299812427E+02  0.00000000000E+00 0.  1.
          5    1    4    4  501    0  0.22981954536E+02  0.28011883717E+02 -0.75757974844E+02  0.84080788627E+02  0.41800000000E+01 0.  1.
         -5    1    4    4    0  501  0.11515581602E+02 -0.90669382270E+02 -0.36191038243E+02  0.98391103002E+02  0.41800000000E+01 0.  1.
</event>
<event>
11    1  0.8299058E-009  0.1619206E+03  0.7561462E-02  0.1085285E+00
         22   -1    0    0    0    0  0.00000000000E+00  0.00000000000E+00  0.16842248364E+04  0.16842248364E+04  0.00000000000E+00 0.  1.
         22   -1    0    0    0    0 -0.00000000000E+00 -0.00000000000E+00 -0.56703377911E+03  0.56703377911E+03  0.00000000000E+00 0. -1.
         24    2    1    2    0    0  0.81257625934E+02  0.20334737755E+02 -0.51615629964E+03  0.52914508896E+03  0.80999359095E+02 0.  0.
         25    2    1    2    0    0 -0.17770205315E+03 -0.43539401290E+01  0.24326501134E+03  0.32622656369E+03  0.12509567789E+03 0.  0.
        -24    2    1    2    0    0  0.96444427216E+02 -0.15980797626E+02  0.13900823456E+04  0.13958869629E+04  0.81330019981E+02 0.  0.
        -11    1    3    3    0    0  0.78107795110E+00  0.43082695687E+01  0.17964322354E+01  0.47326988303E+01  0.00000000000E+00 0.  1.
         12    1    3    3    0    0  0.80476547983E+02  0.16026468186E+02 -0.51795273188E+03  0.52441239013E+03  0.00000000000E+00 0. -1.
         13    1    5    5    0    0 -0.12060149932E+02  0.41717199578E+00  0.31217045138E+03  0.31240360428E+03  0.00000000000E+00 0. -1.
        -14    1    5    5    0    0  0.10850457715E+03 -0.16397969622E+02  0.10779118942E+04  0.10834833586E+04  0.00000000000E+00 0.  1.
          5    1    4    4  501    0 -0.12320676539E+03 -0.18391106129E+02  0.67753311562E+02  0.14186656918E+03  0.41800000000E+01 0. -1.
         -5    1    4    4    0  501 -0.54495287761E+02  0.14037166000E+02  0.17551169978E+03  0.18435999452E+03  0.41800000000E+01 0. -1.
</event>
<event>
11    1  0.8299058E-009  0.1320445E+03  0.7561462E-02  0.1116782E+00
         22   -1    0    0    0    0  0.00000000000E+00  0.00000000000E+00  0.13432578531E+03  0.13432578531E+03  0.00000000000E+00 0. -1.
         22   -1    0    0    0    0 -0.00000000000E+00 -0.00000000000E+00 -0.40528619189E+03  0.40528619189E+03  0.00000000000E+00 0. -1.
         24    2    1    2    0    0  0.23475780339E+02  0.19854795781E+02 -0.23851498622E+03  0.25515489573E+03  0.85260172317E+02 0.  0.
         25    2    1    2    0    0 -0.11861021277E+02  0.24448727865E+02 -0.10592296225E+03  0.16614234408E+03  0.12508069574E+03 0.  0.
        -24    2    1    2    0    0 -0.11614759063E+02 -0.44303523646E+02  0.73477541885E+02  0.11831473740E+03  0.80633262913E+02 0.  0.
        -13    1    3    3    0    0 -0.18185310214E+02 -0.13082495749E+02 -0.19209203991E+02  0.29510179948E+02  0.00000000000E+00 0.  1.
         14    1    3    3    0    0  0.41661090554E+02  0.32937291531E+02 -0.21930578223E+03  0.22564471578E+03  0.00000000000E+00 0. -1.
         11    1    5    5    0    0  0.14221506701E+02 -0.62842297246E+01  0.70562585448E+02  0.72255250752E+02  0.00000000000E+00 0. -1.
        -12    1    5    5    0    0 -0.25836265764E+02 -0.38019293921E+02  0.29149564370E+01  0.46059486644E+02  0.00000000000E+00 0.  1.
          5    1    4    4  501    0 -0.68129509969E+02  0.85445911880E+01 -0.49235025675E+02  0.84594327945E+02  0.41800000000E+01 0. -1.
         -5    1    4    4    0  501  0.56268488692E+02  0.15904136677E+02 -0.56687936570E+02  0.81548016136E+02  0.41800000000E+01 0. -1.
</event>
<event>
11    1  0.8299058E-009  0.1877332E+03  0.7561462E-02  0.1063554E+00
         22   -1    0    0    0    0  0.00000000000E+00  0.00000000000E+00  0.22992101774E+04  0.22992101774E+04  0.00000000000E+00 0.  1.
         22   -1    0    0    0    0 -0.00000000000E+00 -0.00000000000E+00 -0.68302922543E+03  0.68302922543E+03  0.00000000000E+00 0. -1.
        -24    2    1    2    0    0 -0.23974789560E+02  0.13765282415E+03 -0.66205593741E+03  0.68131787397E+03  0.79705022487E+02 0.  0.
         25    2    1    2    0    0  0.66611573486E+02 -0.16402899566E+03  0.12863337236E+04  0.13044726620E+04  0.12510741196E+03 0.  0.
         24    2    1    2    0    0 -0.42636783926E+02  0.26376171512E+02  0.99190316584E+03  0.99644886683E+03  0.80776580974E+02 0.  0.
        -11    1    5    5    0    0  0.10495615017E+01 -0.21705601224E+02  0.47239753363E+03  0.47289709714E+03  0.00000000000E+00 0.  1.
         12    1    5    5    0    0 -0.43686345427E+02  0.48081772736E+02  0.51950563221E+03  0.52355176969E+03  0.00000000000E+00 0. -1.
         11    1    3    3    0    0 -0.81022020966E+01  0.13012655141E+03 -0.44920255540E+03  0.46774084795E+03  0.00000000000E+00 0. -1.
        -12    1    3    3    0    0 -0.15872587463E+02  0.75262727348E+01 -0.21285338201E+03  0.21357702603E+03  0.00000000000E+00 0.  1.
          5    1    4    4  501    0  0.70939049759E+02 -0.22250638596E+02  0.40525825945E+03  0.41204267855E+03  0.41800000000E+01 0. -1.
         -5    1    4    4    0  501 -0.43274762732E+01 -0.14177835706E+03  0.88107546411E+03  0.89242998349E+03  0.41800000000E+01 0. -1.
</event>
<event>
11    1  0.8299058E-009  0.1447996E+03  0.7561462E-02  0.1102314E+00
         22   -1    0    0    0    0  0.00000000000E+00  0.00000000000E+00  0.11236273574E+03  0.11236273574E+03  0.00000000000E+00 0.  1.
         22   -1    0    0    0    0 -0.00000000000E+00 -0.00000000000E+00 -0.91428864189E+03  0.91428864189E+03  0.00000000000E+00 0. -1.
         24    2    1    2    0    0  0.64762150782E+02  0.21922420888E+02 -0.69900996378E+03  0.70688441642E+03  0.79974495913E+02 0.  0.
         25    2    1    2    0    0 -0.11663888553E+03 -0.46920174478E+02 -0.12776762730E+03  0.21858222549E+03  0.12508992894E+03 0.  0.
        -24    2    1    2    0    0  0.51876734751E+02  0.24997753590E+02  0.24851684942E+02  0.10118473572E+03  0.79401896737E+02 0.  0.
        -11    1    3    3    0    0  0.55751438468E+01  0.37676057000E+01 -0.18465164086E+01  0.69775858626E+01  0.00000000000E+00 0.  1.
         12    1    3    3    0    0  0.59187006935E+02  0.18154815188E+02 -0.69716344738E+03  0.69990683056E+03  0.00000000000E+00 0. -1.
         13    1    5    5    0    0  0.38019675263E+02  0.70103462484E+01 -0.25251501912E+02  0.46176606744E+02  0.00000000000E+00 0. -1.
        -14    1    5    5    0    0  0.13857059488E+02  0.17987407342E+02  0.50103186855E+02  0.55008128977E+02  0.00000000000E+00 0.  1.
          5    1    4    4  501    0 -0.67875179984E+02 -0.64407461524E+02 -0.13683821452E+03  0.16582379356E+03  0.41800000000E+01 0. -1.
         -5    1    4    4    0  501 -0.48763705549E+02  0.17487287046E+02  0.90705872168E+01  0.52758431929E+02  0.41800000000E+01 0. -1.
</event>
<event>
11    1  0.8299058E-009  0.2087941E+03  0.7561462E-02  0.1048473E+00
         22   -1    0    0    0    0  0.00000000000E+00  0.00000000000E+00  0.20214166652E+04  0.20214166652E+04  0.00000000000E+00 0. -1.
         22   -1    0    0    0    0 -0.00000000000E+00 -0.00000000000E+00 -0.17205751726E+04  0.17205751726E+04  0.00000000000E+00 0. -1.
        -24    2    1    2    0    0 -0.84149803871E+01 -0.16576222206E+03 -0.16492650546E+04  0.16595703754E+04  0.80936298819E+02 0.  0.
         25    2    1    2    0    0  0.30560648027E+02  0.22711315997E+03  0.19907461118E+03  0.32831930164E+03  0.12509405409E+03 0.  0.
         24    2    1    2    0    0 -0.22145667640E+02 -0.61350937915E+02  0.17510319360E+04  0.17541021607E+04  0.80667100102E+02 0.  0.
        -13    1    5    5    0    0  0.96587552001E+01  0.42820057607E-01  0.26851007872E+02  0.28535416754E+02  0.00000000000E+00 0.  1.
         14    1    5    5    0    0 -0.31804422840E+02 -0.61393757973E+02  0.17241809282E+04  0.17255667440E+04  0.00000000000E+00 0. -1.
         11    1    3    3    0    0 -0.33706193311E+01 -0.17177621394E+03 -0.16252291962E+04  0.16342852777E+04  0.00000000000E+00 0. -1.
        -12    1    3    3    0    0 -0.50443610560E+01  0.60139918847E+01 -0.24035858365E+02  0.25285097670E+02  0.00000000000E+00 0.  1.
          5    1    4    4  501    0  0.24648447863E+02  0.13376977024E+03  0.19076120037E+03  0.23432713326E+03  0.41800000000E+01 0.  1.
         -5    1    4    4    0  501  0.59122001643E+01  0.93343389732E+02  0.83134108095E+01  0.93992168380E+02  0.41800000000E+01 0.  1.
</event>
<event>
11    1  0.8299058E-009  0.1353507E+03  0.7561462E-02  0.1112864E+00
         22   -1    0    0    0    0  0.00000000000E+00  0.00000000000E+00  0.18871165051E+03  0.18871165051E+03  0.00000000000E+00 0.  1.
         22   -1    0    0    0    0 -0.00000000000E+00 -0.00000000000E+00 -0.10315371887E+04  0.10315371887E+04  0.00000000000E+00 0.  1.
         24    2    1    2    0    0  0.36784248407E+02 -0.17653559088E+02 -0.86485561954E+03  0.86930118042E+03  0.77746836283E+02 0.  0.
         25    2    1    2    0    0 -0.59864394046E+02  0.60604029822E+02 -0.11186190844E+03  0.18819451046E+03  0.12508994005E+03 0.  0.
        -24    2    1    2    0    0  0.23080145639E+02 -0.42950470735E+02  0.13389198975E+03  0.16275314837E+03  0.78638961875E+02 0.  0.
        -13    1    3    3    0    0  0.34653104371E+02  0.14246654883E+02 -0.71932344880E+03  0.72029856922E+03  0.00000000000E+00 0.  1.
         14    1    3    3    0    0  0.21311440362E+01 -0.31900213970E+02 -0.14553217074E+03  0.14900261120E+03  0.00000000000E+00 0. -1.
         11    1    5    5    0    0  0.38433076293E+02 -0.20635466445E+02  0.24446192108E+02  0.50005401082E+02  0.00000000000E+00 0. -1.
        -12    1    5    5    0    0 -0.15352930654E+02 -0.22315004289E+02  0.10944579764E+03  0.11274774729E+03  0.00000000000E+00 0.  1.
          5    1    4    4  501    0  0.10469375550E+02  0.10942053684E+02 -0.99946676834E+02  0.10117384530E+03  0.41800000000E+01 0. -1.
         -5    1    4    4    0  501 -0.70333769596E+02  0.49661976139E+02 -0.11915231603E+02  0.87020665154E+02  0.41800000000E+01 0. -1.
</event>
<event>
11    1  0.8299058E-009  0.2137770E+03  0.7561462E-02  0.1045187E+00
         22   -1    0    0    0    0  0.00000000000E+00  0.00000000000E+00  0.66749623753E+03  0.66749623753E+03  0.00000000000E+00 0.  1.
         22   -1    0    0    0    0 -0.00000000000E+00 -0.00000000000E+00 -0.88326028629E+03  0.88326028629E+03  0.00000000000E+00 0. -1.
         24    2    1    2    0    0 -0.36590963725E+02  0.17130325870E+03 -0.76295830410E+03  0.78688184407E+03  0.79962226479E+02 0.  0.
         25    2    1    2    0    0  0.26468411722E+02 -0.15663816739E+03 -0.88711813558E+01  0.20239104162E+03  0.12508934234E+03 0.  0.
        -24    2    1    2    0    0  0.10122552003E+02 -0.14665091312E+02  0.55606543670E+03  0.56148363812E+03  0.75746782264E+02 0.  0.
        -13    1    3    3    0    0  0.13739310708E+02  0.47168303073E+01 -0.27339450220E+02  0.30959048519E+02  0.00000000000E+00 0.  1.
         14    1    3    3    0    0 -0.50330274433E+02  0.16658642840E+03 -0.73561885388E+03  0.75592279555E+03  0.00000000000E+00 0. -1.
         13    1    5    5    0    0 -0.19301916921E+02 -0.38911196746E+01  0.41177400648E+02  0.45642996542E+02  0.00000000000E+00 0. -1.
        -14    1    5    5    0    0  0.29424468924E+02 -0.10773971637E+02  0.51488803605E+03  0.51584064158E+03  0.00000000000E+00 0.  1.
          5    1    4    4  501    0  0.48902089998E+02 -0.13964782974E+03 -0.46558180349E+02  0.15517109046E+03  0.41800000000E+01 0. -1.
         -5    1    4    4    0  501 -0.22433678276E+02 -0.16990337647E+02  0.37686998993E+02  0.47219951159E+02  0.41800000000E+01 0. -1.
</event>
<event>
11    1  0.8299058E-009  0.1318794E+03  0.7561462E-02  0.1116981E+00
         22   -1    0    0    0    0  0.00000000000E+00  0.00000000000E+00  0.74825790627E+03  0.74825790627E+03  0.00000000000E+00 0.  1.
         22   -1    0    0    0    0 -0.00000000000E+00 -0.00000000000E+00 -0.44242454973E+03  0.44242454973E+03  0.00000000000E+00 0.  1.
        -24    2    1    2    0    0 -0.38495568537E+02 -0.20265645316E+02 -0.41145902229E+03  0.42463868398E+03  0.95534704346E+02 0.  0.
         25    2    1    2    0    0 -0.28832809709E+01 -0.18193739215E+02  0.18013167606E+03  0.22007805763E+03  0.12509038842E+03 0.  0.
         24    2    1    2    0    0  0.41378849508E+02  0.38459384531E+02  0.53716070276E+03  0.54596571438E+03  0.79659319864E+02 0.  0.
        -11    1    5    5    0    0  0.39021323923E+02  0.57882405733E+02  0.48938842904E+03  0.49434205879E+03  0.00000000000E+00 0.  1.
         12    1    5    5    0    0  0.23575255852E+01 -0.19423021202E+02  0.47772273722E+02  0.51623655586E+02  0.00000000000E+00 0. -1.
         13    1    3    3    0    0  0.20238780813E+02 -0.32936026016E+02 -0.95683571234E+02  0.10319755744E+03  0.00000000000E+00 0. -1.
        -14    1    3    3    0    0 -0.58734349350E+02  0.12670380700E+02 -0.31577545106E+03  0.32144112654E+03  0.00000000000E+00 0.  1.
          5    1    4    4  501    0  0.22742639335E+02 -0.45143484348E+02  0.18214421419E+02  0.53892479722E+02  0.41800000000E+01 0.  1.
         -5    1    4    4    0  501 -0.25625920306E+02  0.26949745133E+02  0.16191725464E+03  0.16618557791E+03  0.41800000000E+01 0.  1.
</event>
<event>
11    1  0.8299058E-009  0.1481040E+03  0.7561462E-02  0.1098832E+00
         22   -1    0    0    0    0  0.00000000000E+00  0.00000000000E+00  0.92579389927E+02  0.92579389927E+02  0.00000000000E+00 0. -1.
         22   -1    0    0    0    0 -0.00000000000E+00 -0.00000000000E+00 -0.20993654789E+04  0.20993654789E+04  0.00000000000E+00 0. -1.
         24    2    1    2    0    0 -0.32027541973E+02 -0.24738612702E+01 -0.13938146097E+04  0.13964772248E+04  0.79984933849E+02 0.  0.
         25    2    1    2    0    0  0.42112980254E+02  0.80757089513E+02 -0.65786475581E+03  0.67581676757E+03  0.12508819201E+03 0.  0.
        -24    2    1    2    0    0 -0.10085438282E+02 -0.78283228243E+02  0.44893276577E+02  0.11965087645E+03  0.77916275989E+02 0.  0.
        -13    1    3    3    0    0 -0.25887371820E+02  0.84066336605E+01 -0.14114942902E+03  0.14374974373E+03  0.00000000000E+00 0.  1.
         14    1    3    3    0    0 -0.61401701523E+01 -0.10880494931E+02 -0.12526651807E+04  0.12527274810E+04  0.00000000000E+00 0. -1.
         11    1    5    5    0    0 -0.33887679213E+02 -0.70962244167E+02  0.13842264922E+02  0.79847499634E+02  0.00000000000E+00 0. -1.
        -12    1    5    5    0    0  0.23802240931E+02 -0.73209840760E+01  0.31051011655E+02  0.39803376816E+02  0.00000000000E+00 0.  1.
          5    1    4    4  501    0  0.69552227206E+02  0.21758884400E+02 -0.49552771772E+03  0.50087538649E+03  0.41800000000E+01 0. -1.
         -5    1    4    4    0  501 -0.27439246952E+02  0.58998205112E+02 -0.16233703809E+03  0.17494138108E+03  0.41800000000E+01 0. -1.
</event>
<event>
11    1  0.8299058E-009  0.3252456E+03  0.7561462E-02  0.9900388E-01
         22   -1    0    0    0    0  0.00000000000E+00  0.00000000000E+00  0.23663862592E+03  0.23663862592E+03  0.00000000000E+00 0. -1.
         22   -1    0    0    0    0 -0.00000000000E+00 -0.00000000000E+00 -0.77955853311E+03  0.77955853311E+03  0.00000000000E+00 0. -1.
         24    2    1    2    0    0 -0.26503288530E+03 -0.12644099401E+03 -0.40690868461E+03  0.50836342314E+03  0.81418284918E+02 0.  0.
         25    2    1    2    0    0  0.32336473133E+03  0.42773684377E+02 -0.14353560161E+03  0.37769049629E+03  0.12511316685E+03 0.  0.
        -24    2    1    2    0    0 -0.58331846035E+02  0.83667309635E+02  0.75243790277E+01  0.13014323960E+03  0.80484927597E+02 0.  0.
        -11    1    3    3    0    0 -0.10373944291E+02 -0.24666780519E+02 -0.63356346939E+02  0.68775689592E+02  0.00000000000E+00 0.  1.
         12    1    3    3    0    0 -0.25465894100E+03 -0.10177421349E+03 -0.34355233767E+03  0.43958773354E+03  0.00000000000E+00 0. -1.
         13    1    5    5    0    0 -0.64489601372E+02  0.95295162274E+02  0.16170734059E+00  0.11506564556E+03  0.00000000000E+00 0. -1.
        -14    1    5    5    0    0  0.61577553368E+01 -0.11627852639E+02  0.73626716871E+01  0.15077594044E+02  0.00000000000E+00 0.  1.
          5    1    4    4  501    0 -0.13605397329E+00 -0.16596299411E+02 -0.20009330219E+02  0.26330616412E+02  0.41800000000E+01 0.  1.
         -5    1    4    4    0  501  0.32350078530E+03  0.59369983788E+02 -0.12352627139E+03  0.35135987988E+03  0.41800000000E+01 0.  1.
</event>
<event>
11    1  0.8299058E-009  0.7083799E+03  0.7561462E-02  0.9020046E-01
         22   -1    0    0    0    0  0.00000000000E+00  0.00000000000E+00  0.30225787289E+04  0.30225787289E+04  0.00000000000E+00 0. -1.
         22   -1    0    0    0    0 -0.00000000000E+00 -0.00000000000E+00 -0.10401413526E+04  0.10401413526E+04  0.00000000000E+00 0.  1.
        -24    2    1    2    0    0 -0.59950970239E+03  0.21351372792E+03 -0.35462087086E+03  0.73304220961E+03  0.81209135916E+02 0.  0.
         25    2    1    2    0    0  0.74182874131E+03 -0.31788697525E+03 -0.15401029362E+03  0.83109629066E+03  0.12505943923E+03 0.  0.
         24    2    1    2    0    0 -0.14231903892E+03  0.10437324734E+03  0.24910685408E+04  0.24985815813E+04  0.79617583467E+02 0.  0.
        -11    1    5    5    0    0 -0.38072977279E+02  0.25481581631E+02  0.28646969045E+03  0.29010988633E+03  0.00000000000E+00 0.  1.
         12    1    5    5    0    0 -0.10424606164E+03  0.78891665705E+02  0.22045988504E+04  0.22084716949E+04  0.00000000000E+00 0. -1.
         13    1    3    3    0    0 -0.15645895114E+03  0.22165756446E+02 -0.70717424577E+02  0.17312330372E+03  0.00000000000E+00 0. -1.
        -14    1    3    3    0    0 -0.44305075125E+03  0.19134797147E+03 -0.28390344629E+03  0.55991890589E+03  0.00000000000E+00 0.  1.
          5    1    4    4  501    0  0.31055354837E+03 -0.13095821853E+03 -0.20053360996E+01  0.33706832420E+03  0.41800000000E+01 0. -1.
         -5    1    4    4    0  501  0.43127519294E+03 -0.18692875672E+03 -0.15200495752E+03  0.49402796647E+03  0.41800000000E+01 0. -1.
</event>
<event>
11    1  0.8299058E-009  0.1539396E+03  0.7561462E-02  0.1092920E+00
         22   -1    0    0    0    0  0.00000000000E+00  0.00000000000E+00  0.13315345422E+03  0.13315345422E+03  0.00000000000E+00 0. -1.
         22   -1    0    0    0    0 -0.00000000000E+00 -0.00000000000E+00 -0.28762036824E+04  0.28762036824E+04  0.00000000000E+00 0. -1.
        -24    2    1    2    0    0 -0.25901943108E+01  0.58594620321E+02 -0.26805722763E+04  0.26824720602E+04  0.82149780639E+02 0.  0.
         25    2    1    2    0    0  0.60868400372E+02  0.21133011589E+02 -0.12296643843E+03  0.18686906022E+03  0.12509090432E+03 0.  0.
         24    2    1    2    0    0 -0.58278206061E+02 -0.79727631910E+02  0.60488486536E+02  0.14001601625E+03  0.78694238749E+02 0.  0.
        -13    1    5    5    0    0 -0.58162030442E+02 -0.46493370924E+02  0.41143940290E+01  0.74574684466E+02  0.00000000000E+00 0.  1.
         14    1    5    5    0    0 -0.11617561909E+00 -0.33234260986E+02  0.56374092507E+02  0.65441331787E+02  0.00000000000E+00 0. -1.
         11    1    3    3    0    0 -0.37708216024E+01  0.73390425509E+02 -0.25500306367E+04  0.25510893010E+04  0.00000000000E+00 0. -1.
        -12    1    3    3    0    0  0.11806272916E+01 -0.14795805188E+02 -0.13054163961E+03  0.13138275916E+03  0.00000000000E+00 0.  1.
          5    1    4    4  501    0 -0.31424002330E+02 -0.61737664882E+01 -0.21817317828E+01  0.32369980980E+02  0.41800000000E+01 0.  1.
         -5    1    4    4    0  501  0.92292402702E+02  0.27306778077E+02 -0.12078470664E+03  0.15449907924E+03  0.41800000000E+01 0.  1.
</event>
<event>
11    1  0.8299058E-009  0.1275709E+03  0.7561462E-02  0.1122290E+00
         22   -1    0    0    0    0  0.00000000000E+00  0.00000000000E+00  0.31700561560E+03  0.31700561560E+03  0.00000000000E+00 0.  1.
         22   -1    0    0    0    0 -0.00000000000E+00 -0.00000000000E+00 -0.15057368727E+03  0.15057368727E+03  0.00000000000E+00 0.  1.
        -24    2    1    2    0    0 -0.45046844163E+01  0.25056412441E+02 -0.84550294066E+02  0.11953745482E+03  0.80575026484E+02 0.  0.
         25    2    1    2    0    0 -0.15619005654E+02 -0.24622174664E+02  0.63768072952E+02  0.14340040535E+03  0.12508838597E+03 0.  0.
         24    2    1    2    0    0  0.20123690070E+02 -0.43423777693E+00  0.18721414945E+03  0.20464144270E+03  0.80148804437E+02 0.  0.
        -13    1    5    5    0    0 -0.19366517500E+02 -0.62144661199E+01  0.14548117413E+03  0.14689606399E+03  0.00000000000E+00 0.  1.
         14    1    5    5    0    0  0.39490207571E+02  0.57802283430E+01  0.41732975317E+02  0.57745378711E+02  0.00000000000E+00 0. -1.
         11    1    3    3    0    0  0.94171798514E+01  0.20872656500E+02  0.91919631327E+01  0.24674749279E+02  0.00000000000E+00 0. -1.
        -12    1    3    3    0    0 -0.13921864268E+02  0.41837559401E+01 -0.93742257199E+02  0.94862705544E+02  0.00000000000E+00 0.  1.
          5    1    4    4  501    0 -0.67917843745E+02 -0.21755098262E+02  0.17888190708E+02  0.73644942570E+02  0.41800000000E+01 0. -1.
         -5    1    4    4    0  501  0.52298838091E+02 -0.28670764021E+01  0.45879882245E+02  0.69755462780E+02  0.41800000000E+01 0. -1.
</event>
<event>
11    1  0.8299058E-009  0.1483954E+03  0.7561462E-02  0.1098530E+00
         22   -1    0    0    0    0  0.00000000000E+00  0.00000000000E+00  0.11247144249E+04  0.11247144249E+04  0.00000000000E+00 0. -1.
         22   -1    0    0    0    0 -0.00000000000E+00 -0.00000000000E+00 -0.49652260317E+03  0.49652260317E+03  0.00000000000E+00 0. -1.
         24    2    1    2    0    0 -0.34360621996E+02  0.59790903681E+02 -0.46752899683E+03  0.48093048199E+03  0.89191709916E+02 0.  0.
         25    2    1    2    0    0 -0.16545121619E+02  0.18046218278E+02  0.20736195771E+03  0.24340863919E+03  0.12509747033E+03 0.  0.
        -24    2    1    2    0    0  0.50905743615E+02 -0.77837121960E+02  0.88835886084E+03  0.89689790689E+03  0.81205772306E+02 0.  0.
        -11    1    3    3    0    0 -0.25634017107E+02  0.16543370754E+02 -0.36159332665E+02  0.47310498705E+02  0.00000000000E+00 0.  1.
         12    1    3    3    0    0 -0.87266048893E+01  0.43247532927E+02 -0.43136966417E+03  0.43361998328E+03  0.00000000000E+00 0. -1.
         11    1    5    5    0    0  0.58556254882E+02 -0.90055364384E+02  0.72651198755E+03  0.73441028839E+03  0.00000000000E+00 0. -1.
        -12    1    5    5    0    0 -0.76505112671E+01  0.12218242425E+02  0.16184687329E+03  0.16248761849E+03  0.00000000000E+00 0.  1.
          5    1    4    4  501    0 -0.67060562461E+02 -0.12163216093E+02  0.10475902389E+03  0.12504794420E+03  0.41800000000E+01 0. -1.
         -5    1    4    4    0  501  0.50515440842E+02  0.30209434371E+02  0.10260293382E+03  0.11836069499E+03  0.41800000000E+01 0. -1.
</event>
<event>
11    1  0.8299058E-009  0.1671981E+03  0.7561462E-02  0.1080496E+00
         22   -1    0    0    0    0  0.00000000000E+00  0.00000000000E+00  0.26282228308E+03  0.26282228308E+03  0.00000000000E+00 0.  1.
         22   -1    0    0    0    0 -0.00000000000E+00 -0.00000000000E+00 -0.98853827189E+03  0.98853827189E+03  0.00000000000E+00 0. -1.
        -24    2    1    2    0    0 -0.47658117570E+02 -0.22575894909E+02 -0.52910409581E+03  0.53802550107E+03  0.82093412618E+02 0.  0.
         25    2    1    2    0    0  0.14962986047E+03 -0.17110705354E+02 -0.41411728793E+03  0.45806454743E+03  0.12509248605E+03 0.  0.
         24    2    1    2    0    0 -0.10197174290E+03  0.39686600263E+02  0.21750539494E+03  0.25527050647E+03  0.76688800078E+02 0.  0.
        -11    1    5    5    0    0 -0.44235290223E+02  0.54979971589E+02  0.14556519214E+03  0.16176768324E+03  0.00000000000E+00 0.  1.
         12    1    5    5    0    0 -0.57736452682E+02 -0.15293371326E+02  0.71940202793E+02  0.93502823234E+02  0.00000000000E+00 0. -1.
         11    1    3    3    0    0 -0.63067489032E+02 -0.39087617513E+02 -0.43233321593E+03  0.43865403180E+03  0.00000000000E+00 0. -1.
        -12    1    3    3    0    0  0.15409371463E+02  0.16511722604E+02 -0.96770879877E+02  0.99371469268E+02  0.00000000000E+00 0.  1.
          5    1    4    4  501    0  0.10305320909E+03  0.24932991233E+02 -0.13373396227E+03  0.17071573747E+03  0.41800000000E+01 0. -1.
         -5    1    4    4    0  501  0.46576651382E+02 -0.42043696587E+02 -0.28038332566E+03  0.28734880996E+03  0.41800000000E+01 0. -1.
</event>
<event>
11    1  0.8299058E-009  0.5047982E+03  0.7561462E-02  0.9382863E-01
         22   -1    0    0    0    0  0.00000000000E+00  0.00000000000E+00  0.10839668011E+04  0.10839668011E+04  0.00000000000E+00 0.  1.
         22   -1    0    0    0    0 -0.00000000000E+00 -0.00000000000E+00 -0.24920971903E+04  0.24920971903E+04  0.00000000000E+00 0.  1.
        -24    2    1    2    0    0 -0.17630329688E+03  0.43877149514E+03 -0.20087803051E+04  0.20647432317E+04  0.66053170723E+02 0.  0.
         25    2    1    2    0    0  0.25449033275E+03 -0.56350276436E+03 -0.22431476245E+03  0.66952567722E+03  0.12508726911E+03 0.  0.
         24    2    1    2    0    0 -0.78187035874E+02  0.12473126922E+03  0.82496467827E+03  0.84179508247E+03  0.79882027867E+02 0.  0.
        -11    1    5    5    0    0 -0.71934423704E+02  0.12699642694E+03  0.62876881289E+03  0.64548654040E+03  0.00000000000E+00 0.  1.
         12    1    5    5    0    0 -0.62526121708E+01 -0.22651577241E+01  0.19619586538E+03  0.19630854207E+03  0.00000000000E+00 0. -1.
         13    1    3    3    0    0 -0.77546020809E+02  0.27681470832E+03 -0.12454682547E+04  0.12782139654E+04  0.00000000000E+00 0. -1.
        -14    1    3    3    0    0 -0.98757276069E+02  0.16195678682E+03 -0.76331205040E+03  0.78652926624E+03  0.00000000000E+00 0.  1.
          5    1    4    4  501    0  0.16611555994E+03 -0.25043679618E+03 -0.65950624332E+02  0.30770103247E+03  0.41800000000E+01 0.  1.
         -5    1    4    4    0  501  0.88374772813E+02 -0.31306596818E+03 -0.15836413812E+03  0.36182464475E+03  0.41800000000E+01 0.  1.
</event>
<event>
11    1  0.8299058E-009  0.1532403E+03  0.7561462E-02  0.1093613E+00
         22   -1    0    0    0    0  0.00000000000E+00  0.00000000000E+00  0.27241272571E+03  0.27241272571E+03  0.00000000000E+00 0. -1.
         22   -1    0    0    0    0 -0.00000000000E+00 -0.00000000000E+00 -0.13794418438E+04  0.13794418438E+04  0.00000000000E+00 0.  1.
        -24    2    1    2    0    0 -0.87291444585E+02  0.11122180687E+02 -0.13072328157E+04  0.13126591608E+04  0.80454575776E+02 0.  0.
         25    2    1    2    0    0  0.12378914626E+03  0.26411254533E+02  0.11839724938E+03  0.21374891275E+03  0.12509748976E+03 0.  0.
         24    2    1    2    0    0 -0.36497701670E+02 -0.37533435220E+02  0.81806448208E+02  0.12544649599E+03  0.79395764381E+02 0.  0.
        -13    1    5    5    0    0  0.11310707312E+02  0.16382041207E+02  0.58539148783E+01  0.20750221527E+02  0.00000000000E+00 0.  1.
         14    1    5    5    0    0 -0.47808408982E+02 -0.53915476427E+02  0.75952533330E+02  0.10469627447E+03  0.00000000000E+00 0. -1.
         13    1    3    3    0    0 -0.21876030589E+02 -0.31286774987E+02 -0.30109503857E+03  0.30350559345E+03  0.00000000000E+00 0. -1.
        -14    1    3    3    0    0 -0.65415413996E+02  0.42408955675E+02 -0.10061377771E+04  0.10091535673E+04  0.00000000000E+00 0.  1.
          5    1    4    4  501    0  0.50657035395E+02  0.28294553716E+02 -0.16296735627E+02  0.60413351149E+02  0.41800000000E+01 0.  1.
         -5    1    4    4    0  501  0.73132110861E+02 -0.18832991830E+01  0.13469398501E+03  0.15333556160E+03  0.41800000000E+01 0.  1.
</event>
<event>
11    1  0.8299058E-009  0.1406402E+03  0.7561462E-02  0.1106846E+00
         22   -1    0    0    0    0  0.00000000000E+00  0.00000000000E+00  0.13108612519E+04  0.13108612519E+04  0.00000000000E+00 0. -1.
         22   -1    0    0    0    0 -0.00000000000E+00 -0.00000000000E+00 -0.41792940461E+03  0.41792940461E+03  0.00000000000E+00 0.  1.
         24    2    1    2    0    0  0.47125232851E+02 -0.43951201018E+02 -0.37398309017E+03  0.38769978110E+03  0.79342755781E+02 0.  0.
         25    2    1    2    0    0 -0.67611463540E+02  0.14555046236E+02  0.10879471813E+03  0.17964863620E+03  0.12511667524E+03 0.  0.
        -24    2    1    2    0    0  0.20486230689E+02  0.29396154782E+02  0.11581202193E+04  0.11614422392E+04  0.80136215670E+02 0.  0.
        -11    1    3    3    0    0  0.21199993396E+02 -0.14528500868E+00 -0.28013294962E+03  0.28093403192E+03  0.00000000000E+00 0.  1.
         12    1    3    3    0    0  0.25925239455E+02 -0.43805916010E+02 -0.93850140546E+02  0.10676574918E+03  0.00000000000E+00 0. -1.
         11    1    5    5    0    0 -0.27019977470E+02  0.41702529318E+01  0.62928533892E+03  0.62987896296E+03  0.00000000000E+00 0. -1.
        -12    1    5    5    0    0  0.47506208159E+02  0.25225901850E+02  0.52883488041E+03  0.53156327626E+03  0.00000000000E+00 0.  1.
          5    1    4    4  501    0 -0.73800319861E+02  0.29702896322E+02  0.11014995646E+02  0.80421090458E+02  0.41800000000E+01 0. -1.
         -5    1    4    4    0  501  0.61888563209E+01 -0.15147850085E+02  0.97779722485E+02  0.99227545742E+02  0.41800000000E+01 0. -1.
</event>
<event>
11    1  0.8299058E-009  0.1373792E+03  0.7561462E-02  0.1110521E+00
         22   -1    0    0    0    0  0.00000000000E+00  0.00000000000E+00  0.13616561831E+04  0.13616561831E+04  0.00000000000E+00 0. -1.
         22   -1    0    0    0    0 -0.00000000000E+00 -0.00000000000E+00 -0.11798501315E+04  0.11798501315E+04  0.00000000000E+00 0.  1.
        -24    2    1    2    0    0  0.15557413984E+02  0.52128498021E+02 -0.74645095140E+03  0.75279084320E+03  0.80904989467E+02 0.  0.
         25    2    1    2    0    0 -0.54754144696E+02 -0.49957945884E+02 -0.41632326292E+03  0.44098173659E+03  0.12508405188E+03 0.  0.
         24    2    1    2    0    0  0.39196730712E+02 -0.21705521366E+01  0.13445802659E+04  0.13477337348E+04  0.83360862870E+02 0.  0.
        -13    1    5    5    0    0  0.22127393684E+02  0.42813651079E+01  0.82544029271E+02  0.85565579567E+02  0.00000000000E+00 0.  1.
         14    1    5    5    0    0  0.17069337028E+02 -0.64519172445E+01  0.12620362366E+04  0.12621681552E+04  0.00000000000E+00 0. -1.
         11    1    3    3    0    0  0.39034574206E+01  0.31124513228E+01 -0.36506690790E+00  0.50057573771E+01  0.00000000000E+00 0. -1.
        -12    1    3    3    0    0  0.11653956564E+02  0.49016046698E+02 -0.74608588450E+03  0.74778508582E+03  0.00000000000E+00 0.  1.
          5    1    4    4  501    0 -0.50230833659E+02 -0.33014832635E+01 -0.48057375588E+02  0.69721016847E+02  0.41800000000E+01 0. -1.
         -5    1    4    4    0  501 -0.45233110370E+01 -0.46656462620E+02 -0.36826588734E+03  0.37126071974E+03  0.41800000000E+01 0. -1.
</event>
<event>
11    1  0.8299058E-009  0.1780027E+03  0.7561462E-02  0.1071270E+00
         22   -1    0    0    0    0  0.00000000000E+00  0.00000000000E+00  0.50080449377E+03  0.50080449377E+03  0.00000000000E+00 0.  1.
         22   -1    0    0    0    0 -0.00000000000E+00 -0.00000000000E+00 -0.45256399870E+03  0.45256399870E+03  0.00000000000E+00 0. -1.
         24    2    1    2    0    0  0.12121146261E+03 -0.35194193522E+02 -0.22415872021E+03  0.26930278463E+03  0.79661835525E+02 0.  0.
         25    2    1    2    0    0 -0.78233404520E+02  0.13614644567E+03 -0.14320210758E+03  0.24660140150E+03  0.12509631231E+03 0.  0.
        -24    2    1    2    0    0 -0.42978058085E+02 -0.10095225215E+03  0.41560132286E+03  0.43746430634E+03  0.81314753090E+02 0.  0.
        -13    1    3    3    0    0 -0.69504922704E+01 -0.26375501505E+01  0.16597053141E+01  0.76171277610E+01  0.00000000000E+00 0.  1.
         14    1    3    3    0    0  0.12816195488E+03 -0.32556643371E+02 -0.22581842553E+03  0.26168565687E+03  0.00000000000E+00 0. -1.
         11    1    5    5    0    0  0.17504892920E+02 -0.47985910434E+02  0.10706568681E+03  0.11862600966E+03  0.00000000000E+00 0. -1.
        -12    1    5    5    0    0 -0.60482951006E+02 -0.52966341717E+02  0.30853563605E+03  0.31883829668E+03  0.00000000000E+00 0.  1.
          5    1    4    4  501    0 -0.15065027345E+02 -0.19037311795E+02  0.21830668372E+01  0.24730800029E+02  0.41800000000E+01 0.  1.
         -5    1    4    4    0  501 -0.63168377175E+02  0.15518375747E+03 -0.14538517441E+03  0.22187060147E+03  0.41800000000E+01 0.  1.
</event>
<event>
11    1  0.8299058E-009  0.1339343E+03  0.7561462E-02  0.1114527E+00
         22   -1    0    0    0    0  0.00000000000E+00  0.00000000000E+00  0.56297084896E+03  0.56297084896E+03  0.00000000000E+00 0.  1.
         22   -1    0    0    0    0 -0.00000000000E+00 -0.00000000000E+00 -0.10677866626E+04  0.10677866626E+04  0.00000000000E+00 0. -1.
        -24    2    1    2    0    0 -0.14593482819E+01  0.18309470127E+02 -0.91334539661E+03  0.91702149155E+03  0.79945206582E+02 0.  0.
         25    2    1    2    0    0 -0.26654986951E+02 -0.56570343627E+02 -0.11557210487E+03  0.18142764410E+03  0.12509351107E+03 0.  0.
         24    2    1    2    0    0  0.28114335233E+02  0.38260873500E+02  0.52410168789E+03  0.53230837586E+03  0.80095676966E+02 0.  0.
        -13    1    5    5    0    0  0.43916857212E+02  0.37260563368E+02  0.50100908247E+03  0.50430857682E+03  0.00000000000E+00 0.  1.
         14    1    5    5    0    0 -0.15802521979E+02  0.10003101329E+01  0.23092605420E+02  0.27999799041E+02  0.00000000000E+00 0. -1.
         11    1    3    3    0    0  0.38574600849E+01  0.52512358187E+01 -0.88795686240E+03  0.88798076835E+03  0.00000000000E+00 0. -1.
        -12    1    3    3    0    0 -0.53168083668E+01  0.13058234308E+02 -0.25388534212E+02  0.29040723199E+02  0.00000000000E+00 0.  1.
          5    1    4    4  501    0  0.40534446225E+01 -0.67964760088E+02 -0.77379056818E+01  0.68651195266E+02  0.41800000000E+01 0.  1.
         -5    1    4    4    0  501 -0.30708431574E+02  0.11394416461E+02 -0.10783419919E+03  0.11277644883E+03  0.41800000000E+01 0.  1.
</event>
<event>
11    1  0.8299058E-009  0.1870494E+03  0.7561462E-02  0.1064079E+00
         22   -1    0    0    0    0  0.00000000000E+00  0.00000000000E+00  0.75013501906E+03  0.75013501906E+03  0.00000000000E+00 0. -1.
         22   -1    0    0    0    0 -0.00000000000E+00 -0.00000000000E+00 -0.76136381928E+03  0.76136381928E+03  0.00000000000E+00 0.  1.
         24    2    1    2    0    0  0.13729370432E+03 -0.59000178076E+02 -0.55125582262E+03  0.57697234491E+03  0.81752813780E+02 0.  0.
         25    2    1    2    0    0 -0.83582584712E+02  0.78296529716E+02 -0.15638620457E+03  0.23069674620E+03  0.12509176109E+03 0.  0.
        -24    2    1    2    0    0 -0.53711119604E+02 -0.19296351641E+02  0.69641322697E+03  0.70382974723E+03  0.84425688254E+02 0.  0.
        -11    1    3    3    0    0  0.54155060528E+02 -0.39651735767E+02 -0.37704854811E+03  0.38297602844E+03  0.00000000000E+00 0.  1.
         12    1    3    3    0    0  0.83138643788E+02 -0.19348442309E+02 -0.17420727451E+03  0.19399631647E+03  0.00000000000E+00 0. -1.
         11    1    5    5    0    0 -0.47282435266E+02  0.81939839898E+01  0.62785436808E+03  0.62968553864E+03  0.00000000000E+00 0. -1.
        -12    1    5    5    0    0 -0.64286843382E+01 -0.27490335631E+02  0.68558858892E+02  0.74144208593E+02  0.00000000000E+00 0.  1.
          5    1    4    4  501    0 -0.32292658146E+02  0.58490622184E+02 -0.16198549162E+03  0.17527333096E+03  0.41800000000E+01 0. -1.
         -5    1    4    4    0  501 -0.51289926566E+02  0.19805907532E+02  0.55992870494E+01  0.55423415230E+02  0.41800000000E+01 0. -1.
</event>
<event>
11    1  0.8299058E-009  0.1437475E+03  0.7561462E-02  0.1103444E+00
         22   -1    0    0    0    0  0.00000000000E+00  0.00000000000E+00  0.99312063942E+02  0.99312063942E+02  0.00000000000E+00 0. -1.
         22   -1    0    0    0    0 -0.00000000000E+00 -0.00000000000E+00 -0.49458687818E+03  0.49458687818E+03  0.00000000000E+00 0.  1.
         24    2    1    2    0    0 -0.56855818544E+02  0.22957501381E+02 -0.22259368632E+03  0.24544726789E+03  0.83287340897E+02 0.  0.
         25    2    1    2    0    0  0.97432950088E+02 -0.40075161715E+01 -0.19729610418E+03  0.25314502656E+03  0.12508961506E+03 0.  0.
        -24    2    1    2    0    0 -0.40577131544E+02 -0.18949985210E+02  0.24614976267E+02  0.95306647672E+02  0.80447837075E+02 0.  0.
        -11    1    3    3    0    0 -0.47384199465E+02  0.50214201920E+02 -0.18870137170E+03  0.20093515401E+03  0.00000000000E+00 0.  1.
         12    1    3    3    0    0 -0.94716190788E+01 -0.27256700539E+02 -0.33892314613E+02  0.44512113880E+02  0.00000000000E+00 0. -1.
         11    1    5    5    0    0 -0.36714358138E+02  0.16492837015E+01  0.50211607284E+02  0.62224350027E+02  0.00000000000E+00 0. -1.
        -12    1    5    5    0    0 -0.38627734060E+01 -0.20599268912E+02 -0.25596631017E+02  0.33082297645E+02  0.00000000000E+00 0.  1.
          5    1    4    4  501    0  0.25573005932E+02 -0.37873224349E+02 -0.63954431791E+01  0.46332859274E+02  0.41800000000E+01 0.  1.
         -5    1    4    4    0  501  0.71859944156E+02  0.33865708178E+02 -0.19090066100E+03  0.20681216728E+03  0.41800000000E+01 0.  1.
</event>
<event>
11    1  0.8299058E-009  0.1383160E+03  0.7561462E-02  0.1109454E+00
         22   -1    0    0    0    0  0.00000000000E+00  0.00000000000E+00  0.28919510483E+04  0.28919510483E+04  0.00000000000E+00 0. -1.
         22   -1    0    0    0    0 -0.00000000000E+00 -0.00000000000E+00 -0.81233742189E+02  0.81233742189E+02  0.00000000000E+00 0. -1.
        -24    2    1    2    0    0 -0.14830339903E+02 -0.33943179892E+02 -0.30240651214E+02  0.94520543406E+02  0.81532556057E+02 0.  0.
         25    2    1    2    0    0  0.28183449028E+02  0.89481218588E+02  0.32415724773E+03  0.35989829069E+03  0.12509061959E+03 0.  0.
         24    2    1    2    0    0 -0.13353109125E+02 -0.55538038696E+02  0.25168007096E+04  0.25187659564E+04  0.81445392663E+02 0.  0.
        -13    1    5    5    0    0  0.19400019420E+02 -0.42092778942E+01  0.16688528321E+03  0.16806182353E+03  0.00000000000E+00 0.  1.
         14    1    5    5    0    0 -0.32753128545E+02 -0.51328760802E+02  0.23499154264E+04  0.23507041329E+04  0.00000000000E+00 0. -1.
         13    1    3    3    0    0 -0.22792680465E+02 -0.18360522273E+02 -0.56112236828E+02  0.63286635103E+02  0.00000000000E+00 0. -1.
        -14    1    3    3    0    0  0.79623405615E+01 -0.15582657619E+02  0.25871585614E+02  0.31233908303E+02  0.00000000000E+00 0.  1.
          5    1    4    4  501    0  0.49036664123E+02 -0.11402614133E+02  0.76931461425E+02  0.92035515940E+02  0.41800000000E+01 0.  1.
         -5    1    4    4    0  501 -0.20853215095E+02  0.10088383272E+03  0.24722578630E+03  0.26786277475E+03  0.41800000000E+01 0.  1.
</event>
<event>
11    1  0.8299058E-009  0.1443861E+03  0.7561462E-02  0.1102757E+00
         22   -1    0    0    0    0  0.00000000000E+00  0.00000000000E+00  0.11865424486E+04  0.11865424486E+04  0.00000000000E+00 0.  1.
         22   -1    0    0    0    0 -0.00000000000E+00 -0.00000000000E+00 -0.37038811527E+03  0.37038811527E+03  0.00000000000E+00 0. -1.
        -24    2    1    2    0    0 -0.61888511717E+02  0.37207964911E+02 -0.31814743204E+03  0.33710366595E+03  0.84890945065E+02 0.  0.
         25    2    1    2    0    0  0.27269729353E+02 -0.88170555710E+02  0.11006606472E+03  0.19047521005E+03  0.12509429247E+03 0.  0.
         24    2    1    2    0    0  0.34618782364E+02  0.50962590799E+02  0.10242357006E+04  0.10293516879E+04  0.81917525942E+02 0.  0.
        -11    1    5    5    0    0  0.40895157631E+02  0.70737287865E+02  0.80435019627E+03  0.80848958932E+03  0.00000000000E+00 0.  1.
         12    1    5    5    0    0 -0.62763752671E+01 -0.19774697066E+02  0.21988550438E+03  0.22086209853E+03  0.00000000000E+00 0. -1.
         11    1    3    3    0    0 -0.49163158383E+02  0.50539916380E+02 -0.30819607673E+03  0.31615837961E+03  0.00000000000E+00 0. -1.
        -12    1    3    3    0    0 -0.12725353334E+02 -0.13331951469E+02 -0.99513553088E+01  0.20945286341E+02  0.00000000000E+00 0.  1.
          5    1    4    4  501    0 -0.47390264221E+02 -0.49066060202E+02  0.67120419613E+02  0.95791119294E+02  0.41800000000E+01 0.  1.
         -5    1    4    4    0  501  0.74659993574E+02 -0.39104495508E+02  0.42945645104E+02  0.94684090759E+02  0.41800000000E+01 0.  1.
</event>
<event>
11    1  0.8299058E-009  0.1389222E+03  0.7561462E-02  0.1108768E+00
         22   -1    0    0    0    0  0.00000000000E+00  0.00000000000E+00  0.73029285613E+03  0.73029285613E+03  0.00000000000E+00 0.  1.
         22   -1    0    0    0    0 -0.00000000000E+00 -0.00000000000E+00 -0.45282734655E+03  0.45282734655E+03  0.00000000000E+00 0. -1.
         24    2    1    2    0    0  0.41470154038E+02  0.10222221656E+02 -0.28796053930E+03  0.30158905118E+03  0.78806193336E+02 0.  0.
         25    2    1    2    0    0 -0.99816692456E+02  0.16964303204E+01 -0.11298579407E+03  0.19590616147E+03  0.12508870641E+03 0.  0.
        -24    2    1    2    0    0  0.58346538418E+02 -0.11918651977E+02  0.67841184295E+03  0.68562499002E+03  0.79326070609E+02 0.  0.
        -11    1    3    3    0    0  0.16258285382E+02 -0.18533348635E+02 -0.22467299556E+02  0.33355605294E+02  0.00000000000E+00 0.  1.
         12    1    3    3    0    0  0.25211868656E+02  0.28755570292E+02 -0.26549323974E+03  0.26823344589E+03  0.00000000000E+00 0. -1.
         13    1    5    5    0    0 -0.91433402793E+01 -0.24483734122E+02  0.10898471969E+03  0.11207463154E+03  0.00000000000E+00 0. -1.
        -14    1    5    5    0    0  0.67489878697E+02  0.12565082145E+02  0.56942712326E+03  0.57355035848E+03  0.00000000000E+00 0.  1.
          5    1    4    4  501    0  0.14432574894E+02  0.28429093219E+02 -0.57869920526E+02  0.66203569851E+02  0.41800000000E+01 0.  1.
         -5    1    4    4    0  501 -0.11424926735E+03 -0.26732662899E+02 -0.55115873548E+02  0.12970259162E+03  0.41800000000E+01 0.  1.
</event>
<event>
11    1  0.8299058E-009  0.1280840E+03  0.7561462E-02  0.1121646E+00
         22   -1    0    0    0    0  0.00000000000E+00  0.00000000000E+00  0.28757036001E+03  0.28757036001E+03  0.00000000000E+00 0. -1.
         22   -1    0    0    0    0 -0.00000000000E+00 -0.00000000000E+00 -0.62939290692E+03  0.62939290692E+03  0.00000000000E+00 0.  1.
        -24    2    1    2    0    0  0.28706402393E+01 -0.10139001873E+02 -0.46638951932E+03  0.47345446082E+03  0.80801626253E+02 0.  0.
         25    2    1    2    0    0 -0.28002178298E+02  0.20620799594E+02 -0.12448314924E+03  0.17986908470E+03  0.12508994293E+03 0.  0.
         24    2    1    2    0    0  0.25131538058E+02 -0.10481797721E+02  0.24905012165E+03  0.26363972141E+03  0.82088228877E+02 0.  0.
        -13    1    5    5    0    0  0.11278386430E+02 -0.41480618433E+02  0.76221658177E+02  0.87507627561E+02  0.00000000000E+00 0.  1.
         14    1    5    5    0    0  0.13853151628E+02  0.30998820713E+02  0.17282846347E+03  0.17613209384E+03  0.00000000000E+00 0. -1.
         13    1    3    3    0    0 -0.10751060819E+02 -0.27703037743E+01 -0.56545697413E+01  0.12459295754E+02  0.00000000000E+00 0. -1.
        -14    1    3    3    0    0  0.13621701058E+02 -0.73686980987E+01 -0.46073494958E+03  0.46099516507E+03  0.00000000000E+00 0.  1.
          5    1    4    4  501    0 -0.62990010487E+02  0.25961243909E+02 -0.22552350718E+02  0.71887471296E+02  0.41800000000E+01 0.  1.
         -5    1    4    4    0  501  0.34987832189E+02 -0.53404443151E+01 -0.10193079852E+03  0.10798161341E+03  0.41800000000E+01 0.  1.
</event>
<event>
11    1  0.8299058E-009  0.1642458E+03  0.7561462E-02  0.1083151E+00
         22   -1    0    0    0    0  0.00000000000E+00  0.00000000000E+00  0.61236092198E+03  0.61236092198E+03  0.00000000000E+00 0. -1.
         22   -1    0    0    0    0 -0.00000000000E+00 -0.00000000000E+00 -0.92840048414E+03  0.92840048414E+03  0.00000000000E+00 0.  1.
        -24    2    1    2    0    0  0.29921997118E+01  0.29200283963E+02 -0.67693267126E+03  0.68229215526E+03  0.80144456322E+02 0.  0.
         25    2    1    2    0    0 -0.53514607645E+02  0.65268483749E+02 -0.21814303141E+03  0.26525066784E+03  0.12509095265E+03 0.  0.
         24    2    1    2    0    0  0.50522407934E+02 -0.94468767713E+02  0.57903614050E+03  0.59321858302E+03  0.71753560578E+02 0.  0.
        -13    1    5    5    0    0 -0.10696309514E+02 -0.23301337057E+02  0.24195647824E+03  0.24331111917E+03  0.00000000000E+00 0.  1.
         14    1    5    5    0    0  0.61218717448E+02 -0.71167430655E+02  0.33707966226E+03  0.34990746385E+03  0.00000000000E+00 0. -1.
         13    1    3    3    0    0 -0.25811927025E+02 -0.78545735072E+01 -0.10408419102E+03  0.10752427038E+03  0.00000000000E+00 0. -1.
        -14    1    3    3    0    0  0.28804126737E+02  0.37054857471E+02 -0.57284848024E+03  0.57476788488E+03  0.00000000000E+00 0.  1.
          5    1    4    4  501    0  0.26839260324E+02  0.26180708369E+01 -0.12228675282E+03  0.12529454300E+03  0.41800000000E+01 0.  1.
         -5    1    4    4    0  501 -0.80353867969E+02  0.62650412912E+02 -0.95856278586E+02  0.13995612484E+03  0.41800000000E+01 0.  1.
</event>
<event>
11    1  0.8299058E-009  0.2996848E+03  0.7561462E-02  0.1000325E+00
         22   -1    0    0    0    0  0.00000000000E+00  0.00000000000E+00  0.50165729360E+03  0.50165729360E+03  0.00000000000E+00 0.  1.
         22   -1    0    0    0    0 -0.00000000000E+00 -0.00000000000E+00 -0.49673363730E+03  0.49673363730E+03  0.00000000000E+00 0. -1.
         24    2    1    2    0    0 -0.32982466172E+02  0.10827861461E+03 -0.26142689990E+03  0.29627172148E+03  0.81368344609E+02 0.  0.
         25    2    1    2    0    0  0.24867124404E+03 -0.23093647884E+03  0.53411646583E+02  0.36560755573E+03  0.12508811271E+03 0.  0.
        -24    2    1    2    0    0 -0.21568877787E+03  0.12265786423E+03  0.21293890961E+03  0.33651165369E+03  0.79564522770E+02 0.  0.
        -13    1    3    3    0    0  0.20494334636E+02  0.67823299553E+02 -0.15586200816E+03  0.17121034812E+03  0.00000000000E+00 0.  1.
         14    1    3    3    0    0 -0.53476800808E+02  0.40455315054E+02 -0.10556489174E+03  0.12506137336E+03  0.00000000000E+00 0. -1.
         11    1    5    5    0    0 -0.53357844809E+02  0.25118795131E+01  0.19513874082E+02  0.56869679294E+02  0.00000000000E+00 0. -1.
        -12    1    5    5    0    0 -0.16233093306E+03  0.12014598472E+03  0.19342503553E+03  0.27964197440E+03  0.00000000000E+00 0.  1.
          5    1    4    4  501    0  0.11992628739E+03 -0.18030904665E+03 -0.17988040764E+01  0.21659726408E+03  0.41800000000E+01 0.  1.
         -5    1    4    4    0  501  0.12874495666E+03 -0.50627432188E+02  0.55210450659E+02  0.14901029165E+03  0.41800000000E+01 0.  1.
</event>
<event>
11    1  0.8299058E-009  0.1708601E+03  0.7561462E-02  0.1077286E+00
         22   -1    0    0    0    0  0.00000000000E+00  0.00000000000E+00  0.49304110027E+03  0.49304110027E+03  0.00000000000E+00 0.  1.
         22   -1    0    0    0    0 -0.00000000000E+00 -0.00000000000E+00 -0.21397327123E+03  0.21397327123E+03  0.00000000000E+00 0. -1.
        -24    2    1    2    0    0 -0.77089650367E+02  0.74750178504E+02 -0.77694443335E+02  0.15792776686E+03  0.85874033560E+02 0.  0.
         25    2    1    2    0    0  0.10978985130E+03 -0.84366738412E+02  0.46631255177E+01  0.18665537443E+03  0.12508767352E+03 0.  0.
         24    2    1    2    0    0 -0.32700200932E+02  0.96165599081E+01  0.35209914686E+03  0.36243123020E+03  0.78872086590E+02 0.  0.
        -13    1    5    5    0    0  0.57812454253E+01  0.10201424282E+02  0.28374581115E+03  0.28398798778E+03  0.00000000000E+00 0.  1.
         14    1    5    5    0    0 -0.38481446357E+02 -0.58486437358E+00  0.68353335708E+02  0.78443242427E+02  0.00000000000E+00 0. -1.
         13    1    3    3    0    0 -0.62261754795E+02  0.11073548949E+02 -0.66188635055E+02  0.91542804234E+02  0.00000000000E+00 0. -1.
        -14    1    3    3    0    0 -0.14827895572E+02  0.63676629555E+02 -0.11505808280E+02  0.66384962625E+02  0.00000000000E+00 0.  1.
          5    1    4    4  501    0  0.16523648434E+02  0.25145526054E+02  0.27466404766E+02  0.40953683947E+02  0.41800000000E+01 0. -1.
         -5    1    4    4    0  501  0.93266202865E+02 -0.10951226447E+03 -0.22803279248E+02  0.14570169048E+03  0.41800000000E+01 0. -1.
</event>
<event>
11    1  0.8299058E-009  0.1615930E+03  0.7561462E-02  0.1085589E+00
         22   -1    0    0    0    0  0.00000000000E+00  0.00000000000E+00  0.11451282887E+04  0.11451282887E+04  0.00000000000E+00 0.  1.
         22   -1    0    0    0    0 -0.00000000000E+00 -0.00000000000E+00 -0.29310564916E+03  0.29310564916E+03  0.00000000000E+00 0.  1.
        -24    2    1    2    0    0 -0.22594695247E+02  0.32644494818E+02 -0.26544131094E+03  0.28055339525E+03  0.81700273806E+02 0.  0.
         25    2    1    2    0    0 -0.82163474799E+02  0.10457651826E+02  0.40899645344E+03  0.43564410546E+03  0.12508992216E+03 0.  0.
         24    2    1    2    0    0  0.10475817005E+03 -0.43102146644E+02  0.70846749700E+03  0.72203643710E+03  0.81107046298E+02 0.  0.
        -13    1    5    5    0    0  0.45375458113E+02  0.10507590345E+02  0.42345182414E+03  0.42600562088E+03  0.00000000000E+00 0.  1.
         14    1    5    5    0    0  0.59382711933E+02 -0.53609736989E+02  0.28501567286E+03  0.29603081622E+03  0.00000000000E+00 0. -1.
         11    1    3    3    0    0 -0.23533048019E+02  0.18513650295E+02 -0.23148946280E+02  0.37847500713E+02  0.00000000000E+00 0. -1.
        -12    1    3    3    0    0  0.93835277231E+00  0.14130844523E+02 -0.24229236466E+03  0.24270589454E+03  0.00000000000E+00 0.  1.
          5    1    4    4  501    0 -0.10403412575E+03  0.39653397494E+02  0.33495491759E+03  0.35299824429E+03  0.41800000000E+01 0.  1.
         -5    1    4    4    0  501  0.21870650951E+02 -0.29195745668E+02  0.74041535845E+02  0.82645861169E+02  0.41800000000E+01 0.  1.
</event>
<event>
11    1  0.8299058E-009  0.1494074E+03  0.7561462E-02  0.1097486E+00
         22   -1    0    0    0    0  0.00000000000E+00  0.00000000000E+00  0.13753228371E+04  0.13753228371E+04  0.00000000000E+00 0. -1.
         22   -1    0    0    0    0 -0.00000000000E+00 -0.00000000000E+00 -0.68347259126E+03  0.68347259126E+03  0.00000000000E+00 0.  1.
        -24    2    1    2    0    0  0.79589759547E+02 -0.35488768824E+02 -0.52897181196E+03  0.54193099310E+03  0.79271942733E+02 0.  0.
         25    2    1    2    0    0 -0.45682861128E+02  0.31994453565E+02 -0.11471420056E+03  0.17865295221E+03  0.12508781180E+03 0.  0.
         24    2    1    2    0    0 -0.33906898419E+02  0.34943152596E+01  0.13355362584E+04  0.13382114831E+04  0.77401472850E+02 0.  0.
        -11    1    5    5    0    0 -0.29598913650E+02 -0.11360377271E+02  0.19423748199E+03  0.19680790958E+03  0.00000000000E+00 0.  1.
         12    1    5    5    0    0 -0.43079847691E+01  0.14854692530E+02  0.11412987764E+04  0.11414035735E+04  0.00000000000E+00 0. -1.
         13    1    3    3    0    0  0.49825909664E+02 -0.45200118935E+02 -0.19078855778E+03  0.20230162087E+03  0.00000000000E+00 0. -1.
        -14    1    3    3    0    0  0.29763849883E+02  0.97113501104E+01 -0.33818325417E+03  0.33962937223E+03  0.00000000000E+00 0.  1.
          5    1    4    4  501    0 -0.82593561693E+02  0.88194331452E+01 -0.10474770937E+03  0.13374989291E+03  0.41800000000E+01 0. -1.
         -5    1    4    4    0  501  0.36910700565E+02  0.23175020419E+02 -0.99664911864E+01  0.44903059296E+02  0.41800000000E+01 0. -1.
</event>
<event>
11    1  0.8299058E-009  0.1347971E+03  0.7561462E-02  0.1113512E+00
         22   -1    0    0    0    0  0.00000000000E+00  0.00000000000E+00  0.11396657922E+04  0.11396657922E+04  0.00000000000E+00 0.  1.
         22   -1    0    0    0    0 -0.00000000000E+00 -0.00000000000E+00 -0.40722857676E+03  0.40722857676E+03  0.00000000000E+00 0. -1.
        -24    2    1    2    0    0  0.44153153385E+02 -0.20326365014E+02 -0.34673103020E+03  0.35946145580E+03  0.81409267487E+02 0.  0.
         25    2    1    2    0    0 -0.63115541401E+02  0.45860094436E+02  0.51596301382E+02  0.15619385843E+03  0.12509046033E+03 0.  0.
         24    2    1    2    0    0  0.18962388016E+02 -0.25533729422E+02  0.10275719443E+04  0.10312390548E+04  0.80860026677E+02 0.  0.
        -11    1    5    5    0    0  0.79515665802E+01 -0.22595917471E+02  0.10100697750E+04  0.10103537763E+04  0.00000000000E+00 0.  1.
         12    1    5    5    0    0  0.11010821435E+02 -0.29378119512E+01  0.17502169296E+02  0.20885278495E+02  0.00000000000E+00 0. -1.
         11    1    3    3    0    0  0.46683864241E+02 -0.38162657275E+02 -0.32791188567E+03  0.33340962247E+03  0.00000000000E+00 0. -1.
        -12    1    3    3    0    0 -0.25307108561E+01  0.17836292260E+02 -0.18819144530E+02  0.26051833330E+02  0.00000000000E+00 0.  1.
          5    1    4    4  501    0  0.23185762608E+02  0.46844952017E+02  0.45749467810E+02  0.69588183782E+02  0.41800000000E+01 0. -1.
         -5    1    4    4    0  501 -0.86301304008E+02 -0.98485758051E+00  0.58468335722E+01  0.86605674645E+02  0.41800000000E+01 0. -1.
</event>
<event>
11    1  0.1228614E-008  0.1571235E+03  0.7561462E-02  0.1089814E+00
         22   -1    0    0    0    0  0.00000000000E+00  0.00000000000E+00  0.26372139357E+03  0.26372139357E+03  0.00000000000E+00 0. -1.
         22   -1    0    0    0    0 -0.00000000000E+00 -0.00000000000E+00 -0.15373303551E+04  0.15373303551E+04  0.00000000000E+00 0. -1.
        -24    2    1    2    0    0  0.27938074734E+02  0.10844879791E+03 -0.11640908519E+04  0.11722311623E+04  0.80478000808E+02 0.  0.
         25    2    1    2    0    0 -0.68254649355E+02 -0.13402289584E+02 -0.33716341917E+03  0.36628709931E+03  0.12509496144E+03 0.  0.
         24    2    1    2    0    0  0.40316574621E+02 -0.95046508325E+02  0.22764530953E+03  0.26253348705E+03  0.80263191685E+02 0.  0.
        -11    1    5    5    0    0 -0.10275362237E+01 -0.40386220410E+02  0.22499068410E+02  0.46241871816E+02  0.00000000000E+00 0.  1.
         12    1    5    5    0    0  0.41344110844E+02 -0.54660287915E+02  0.20514624112E+03  0.21629161523E+03  0.00000000000E+00 0. -1.
         13    1    3    3    0    0  0.12713642798E+02  0.11391929823E+03 -0.11061800914E+04  0.11121032496E+04  0.00000000000E+00 0. -1.
        -14    1    3    3    0    0  0.15224431937E+02 -0.54705003169E+01 -0.57910760554E+02  0.60127912731E+02  0.00000000000E+00 0.  1.
          5    1    4    4  501    0  0.43469800355E+01 -0.77916285309E+01  0.84997523162E+01  0.13012451730E+02  0.41800000000E+01 0.  1.
         -5    1    4    4    0  501 -0.72601629391E+02 -0.56106610534E+01 -0.34566317148E+03  0.35327464758E+03  0.41800000000E+01 0.  1.
</event>
<event>
11    1  0.8299058E-009  0.1999611E+03  0.7561462E-02  0.1054551E+00
         22   -1    0    0    0    0  0.00000000000E+00  0.00000000000E+00  0.94066309037E+03  0.94066309037E+03  0.00000000000E+00 0.  1.
         22   -1    0    0    0    0 -0.00000000000E+00 -0.00000000000E+00 -0.30573795783E+03  0.30573795783E+03  0.00000000000E+00 0. -1.
        -24    2    1    2    0    0 -0.12100209236E+02 -0.24682398999E+02 -0.22542541927E+03  0.24355302874E+03  0.88010353213E+02 0.  0.
         25    2    1    2    0    0  0.15435760955E+03  0.81281537629E+02  0.12714457881E+03  0.24949033296E+03  0.12508685917E+03 0.  0.
         24    2    1    2    0    0 -0.14225740031E+03 -0.56599138630E+02  0.73320597301E+03  0.75335768649E+03  0.80722825178E+02 0.  0.
        -11    1    5    5    0    0 -0.12254317734E+03 -0.54685247476E+02  0.71120652508E+03  0.72375550286E+03  0.00000000000E+00 0.  1.
         12    1    5    5    0    0 -0.19714222970E+02 -0.19138911541E+01  0.21999447932E+02  0.29602183635E+02  0.00000000000E+00 0. -1.
         11    1    3    3    0    0  0.17726317540E+02 -0.49991005636E+02 -0.13350597939E+03  0.14365642871E+03  0.00000000000E+00 0. -1.
        -12    1    3    3    0    0 -0.29826526776E+02  0.25308606637E+02 -0.91919439879E+02  0.99896600028E+02  0.00000000000E+00 0.  1.
          5    1    4    4  501    0  0.20530561068E+02  0.75978756401E+02  0.63163113904E+02  0.10100161741E+03  0.41800000000E+01 0.  1.
         -5    1    4    4    0  501  0.13382704848E+03  0.53027812279E+01  0.63981464903E+02  0.14848871555E+03  0.41800000000E+01 0.  1.
</event>
<event>
11    1  0.8299058E-009  0.1497054E+03  0.7561462E-02  0.1097180E+00
         22   -1    0    0    0    0  0.00000000000E+00  0.00000000000E+00  0.16855254259E+03  0.16855254259E+03  0.00000000000E+00 0. -1.
         22   -1    0    0    0    0 -0.00000000000E+00 -0.00000000000E+00 -0.74661434530E+03  0.74661434530E+03  0.00000000000E+00 0. -1.
         24    2    1    2    0    0  0.80516751827E+02 -0.48461232468E+02 -0.58664570178E+03  0.59890983280E+03  0.75553755873E+02 0.  0.
         25    2    1    2    0    0 -0.20964645900E+02  0.10841392457E+02 -0.10143000401E+03  0.16276710144E+03  0.12509209179E+03 0.  0.
        -24    2    1    2    0    0 -0.59552105927E+02  0.37619840011E+02  0.11001390308E+03  0.15348995365E+03  0.80587848447E+02 0.  0.
        -13    1    3    3    0    0  0.49886573538E+02  0.33126852328E+01 -0.14935855169E+03  0.15750435253E+03  0.00000000000E+00 0.  1.
         14    1    3    3    0    0  0.30630178289E+02 -0.51773917701E+02 -0.43728715009E+03  0.44140548027E+03  0.00000000000E+00 0. -1.
         13    1    5    5    0    0 -0.26728177731E+01  0.44225078840E+02  0.72722083446E+02  0.85155757140E+02  0.00000000000E+00 0. -1.
        -14    1    5    5    0    0 -0.56879288154E+02 -0.66052388293E+01  0.37291819633E+02  0.68334196508E+02  0.00000000000E+00 0.  1.
          5    1    4    4  501    0 -0.64088217393E+02 -0.19780820106E+02 -0.29510426254E+02  0.73395627325E+02  0.41800000000E+01 0.  1.
         -5    1    4    4    0  501  0.43123571492E+02  0.30622212564E+02 -0.71919577759E+02  0.89371474116E+02  0.41800000000E+01 0.  1.
</event>
<event>
11    1  0.8299058E-009  0.4044951E+03  0.7561462E-02  0.9636587E-01
         22   -1    0    0    0    0  0.00000000000E+00  0.00000000000E+00  0.24892749154E+04  0.24892749154E+04  0.00000000000E+00 0.  1.
         22   -1    0    0    0    0 -0.00000000000E+00 -0.00000000000E+00 -0.24074537114E+04  0.24074537114E+04  0.00000000000E+00 0.  1.
        -24    2    1    2    0    0 -0.24868563964E+03 -0.29001182229E+03 -0.21911337183E+04  0.22256266002E+04  0.79971167642E+02 0.  0.
         25    2    1    2    0    0  0.28736751847E+03  0.30951609119E+03  0.46685312369E+02  0.44295138816E+03  0.12508442152E+03 0.  0.
         24    2    1    2    0    0 -0.38681878832E+02 -0.19504268902E+02  0.22262696100E+04  0.22281506384E+04  0.80636138214E+02 0.  0.
        -11    1    5    5    0    0 -0.63802266125E+02 -0.18254787621E+02  0.15921290146E+04  0.15935114577E+04  0.00000000000E+00 0.  1.
         12    1    5    5    0    0  0.25120387293E+02 -0.12494812808E+01  0.63414059531E+03  0.63463918070E+03  0.00000000000E+00 0. -1.
         11    1    3    3    0    0 -0.99493932969E+01 -0.52927125668E+02 -0.30575780504E+03  0.31046433999E+03  0.00000000000E+00 0. -1.
        -12    1    3    3    0    0 -0.23873624634E+03 -0.23708469662E+03 -0.18853759133E+04  0.19151622602E+04  0.00000000000E+00 0.  1.
          5    1    4    4  501    0  0.25311328169E+03  0.31632142822E+03  0.46236966191E+02  0.40777556176E+03  0.41800000000E+01 0.  1.
         -5    1    4    4    0  501  0.34254236774E+02 -0.68053370300E+01  0.44834617876E+00  0.35175826406E+02  0.41800000000E+01 0.  1.
</event>
<event>
11    1  0.8299058E-009  0.1803898E+03  0.7561462E-02  0.1069328E+00
         22   -1    0    0    0    0  0.00000000000E+00  0.00000000000E+00  0.10830471985E+03  0.10830471985E+03  0.00000000000E+00 0. -1.
         22   -1    0    0    0    0 -0.00000000000E+00 -0.00000000000E+00 -0.10387454696E+04  0.10387454696E+04  0.00000000000E+00 0. -1.
        -24    2    1    2    0    0  0.38975432537E+02  0.12791258627E+03 -0.80762551809E+03  0.82272343343E+03  0.82061905804E+02 0.  0.
         25    2    1    2    0    0 -0.35402419555E+02 -0.10640230751E+03 -0.16039061080E+03  0.23226914148E+03  0.12509605790E+03 0.  0.
         24    2    1    2    0    0 -0.35730129819E+01 -0.21510278758E+02  0.37575379093E+02  0.92057614583E+02  0.81161793811E+02 0.  0.
        -11    1    5    5    0    0 -0.62360102510E+01  0.94659607133E+01 -0.22061378831E+02  0.24803158508E+02  0.00000000000E+00 0.  1.
         12    1    5    5    0    0  0.26629972690E+01 -0.30976239472E+02  0.59636757923E+02  0.67254456074E+02  0.00000000000E+00 0. -1.
         13    1    3    3    0    0  0.26213899917E+02  0.13801325204E+03 -0.73366219153E+03  0.74699065427E+03  0.00000000000E+00 0. -1.
        -14    1    3    3    0    0  0.12761532620E+02 -0.10100665774E+02 -0.73963326558E+02  0.75732779161E+02  0.00000000000E+00 0.  1.
          5    1    4    4  501    0 -0.83592436171E+00 -0.32164307728E+02 -0.14532020575E+03  0.14889820704E+03  0.41800000000E+01 0.  1.
         -5    1    4    4    0  501 -0.34566495193E+02 -0.74237999780E+02 -0.15070405045E+02  0.83370934440E+02  0.41800000000E+01 0.  1.
</event>
<event>
11    1  0.8299058E-009  0.1390109E+03  0.7561462E-02  0.1108668E+00
         22   -1    0    0    0    0  0.00000000000E+00  0.00000000000E+00  0.23985868230E+04  0.23985868230E+04  0.00000000000E+00 0. -1.
         22   -1    0    0    0    0 -0.00000000000E+00 -0.00000000000E+00 -0.59016739055E+03  0.59016739055E+03  0.00000000000E+00 0. -1.
         24    2    1    2    0    0  0.54592549950E+02  0.28820734240E+02 -0.56532578887E+03  0.57435678939E+03  0.80507718381E+02 0.  0.
         25    2    1    2    0    0  0.93306516969E+01 -0.23876145086E+02  0.19466769060E+03  0.23280924721E+03  0.12508998545E+03 0.  0.
        -24    2    1    2    0    0 -0.63923201647E+02 -0.49445891542E+01  0.21790775307E+04  0.21815881769E+04  0.82688960458E+02 0.  0.
        -11    1    3    3    0    0 -0.17597708345E+02  0.17999157312E+02 -0.21763145993E+03  0.21908240768E+03  0.00000000000E+00 0.  1.
         12    1    3    3    0    0  0.72190258295E+02  0.10821576928E+02 -0.34769432894E+03  0.35527438171E+03  0.00000000000E+00 0. -1.
         13    1    5    5    0    0 -0.81836737117E+02 -0.16167359467E+02  0.17709774683E+04  0.17729410109E+04  0.00000000000E+00 0. -1.
        -14    1    5    5    0    0  0.17913535470E+02  0.11222770313E+02  0.40810006239E+03  0.40864716597E+03  0.00000000000E+00 0.  1.
          5    1    4    4  501    0  0.57498215861E+02 -0.28711602049E+01  0.15902335236E+03  0.16917501998E+03  0.41800000000E+01 0. -1.
         -5    1    4    4    0  501 -0.48167564164E+02 -0.21004984881E+02  0.35644338233E+02  0.63634227232E+02  0.41800000000E+01 0. -1.
</event>
<event>
11    1  0.8299058E-009  0.1715184E+03  0.7561462E-02  0.1076718E+00
         22   -1    0    0    0    0  0.00000000000E+00  0.00000000000E+00  0.81948873462E+03  0.81948873462E+03  0.00000000000E+00 0.  1.
         22   -1    0    0    0    0 -0.00000000000E+00 -0.00000000000E+00 -0.36432280420E+03  0.36432280420E+03  0.00000000000E+00 0. -1.
        -24    2    1    2    0    0 -0.11813039714E+03 -0.46880064302E+01 -0.32407835137E+03  0.35394530028E+03  0.79206878688E+02 0.  0.
         25    2    1    2    0    0  0.99460832031E+02  0.18039213084E+02  0.27114903706E+03  0.31525851932E+03  0.12509301893E+03 0.  0.
         24    2    1    2    0    0  0.18669565107E+02 -0.13351206654E+02  0.50809524473E+03  0.51460771922E+03  0.78316789941E+02 0.  0.
        -13    1    5    5    0    0  0.30314815732E+02  0.26358071203E+02  0.25996993134E+03  0.26305531961E+03  0.00000000000E+00 0.  1.
         14    1    5    5    0    0 -0.11645250625E+02 -0.39709277857E+02  0.24812531339E+03  0.25155239962E+03  0.00000000000E+00 0. -1.
         13    1    3    3    0    0 -0.82156870607E+02 -0.36203785279E+02 -0.16514089612E+03  0.18796803193E+03  0.00000000000E+00 0. -1.
        -14    1    3    3    0    0 -0.35973526531E+02  0.31515778849E+02 -0.15893745525E+03  0.16597726835E+03  0.00000000000E+00 0.  1.
          5    1    4    4  501    0 -0.87609765805E+01  0.45034992353E+02  0.53078120107E+02  0.70282746681E+02  0.41800000000E+01 0. -1.
         -5    1    4    4    0  501  0.10822180861E+03 -0.26995779269E+02  0.21807091695E+03  0.24497577263E+03  0.41800000000E+01 0. -1.
</event>
<event>
11    1  0.8299058E-009  0.1719870E+03  0.7561462E-02  0.1076315E+00
         22   -1    0    0    0    0  0.00000000000E+00  0.00000000000E+00  0.34712049805E+03  0.34712049805E+03  0.00000000000E+00 0.  1.
         22   -1    0    0    0    0 -0.00000000000E+00 -0.00000000000E+00 -0.46731445174E+03  0.46731445174E+03  0.00000000000E+00 0. -1.
         24    2    1    2    0    0  0.53573282353E+02  0.12169308662E+03 -0.30497497877E+03  0.34234168306E+03  0.80677049840E+02 0.  0.
         25    2    1    2    0    0  0.33955250734E+02 -0.94609204049E+02 -0.81033602308E+02  0.17978331176E+03  0.12510689006E+03 0.  0.
        -24    2    1    2    0    0 -0.87528533087E+02 -0.27083882572E+02  0.26581462738E+03  0.29230995497E+03  0.79955693011E+02 0.  0.
        -13    1    3    3    0    0  0.11910058816E+02 -0.63670275556E+01 -0.71916514455E+02  0.73173585345E+02  0.00000000000E+00 0.  1.
         14    1    3    3    0    0  0.41663223537E+02  0.12806011418E+03 -0.23305846432E+03  0.26916809771E+03  0.00000000000E+00 0. -1.
         13    1    5    5    0    0 -0.74792846856E+02 -0.48340830870E+02  0.15503114113E+03  0.17878887155E+03  0.00000000000E+00 0. -1.
        -14    1    5    5    0    0 -0.12735686231E+02  0.21256948298E+02  0.11078348625E+03  0.11352108342E+03  0.00000000000E+00 0.  1.
          5    1    4    4  501    0  0.41852131166E+02 -0.10894013048E+02 -0.85041094140E+02  0.95497332403E+02  0.41800000000E+01 0. -1.
         -5    1    4    4    0  501 -0.78968804321E+01 -0.83715191001E+02  0.40074918321E+01  0.84285979354E+02  0.41800000000E+01 0. -1.
</event>
<event>
11    1  0.8299058E-009  0.1399133E+03  0.7561462E-02  0.1107655E+00
         22   -1    0    0    0    0  0.00000000000E+00  0.00000000000E+00  0.24090244242E+03  0.24090244242E+03  0.00000000000E+00 0.  1.
         22   -1    0    0    0    0 -0.00000000000E+00 -0.00000000000E+00 -0.44903137301E+03  0.44903137301E+03  0.00000000000E+00 0.  1.
         24    2    1    2    0    0 -0.17694610846E+02 -0.27800871894E+02 -0.30302838023E+03  0.31736111175E+03  0.88350938301E+02 0.  0.
         25    2    1    2    0    0  0.77981951934E+02  0.15994482659E+02 -0.81271487606E+02  0.16907983611E+03  0.12508368390E+03 0.  0.
        -24    2    1    2    0    0 -0.60287341088E+02  0.11806389235E+02  0.17617093723E+03  0.20349286757E+03  0.81235421477E+02 0.  0.
        -13    1    3    3    0    0 -0.12805995143E+02 -0.56821650942E+02 -0.13895307526E+03  0.15066735098E+03  0.00000000000E+00 0.  1.
         14    1    3    3    0    0 -0.48886157024E+01  0.29020779048E+02 -0.16407530497E+03  0.16669376077E+03  0.00000000000E+00 0. -1.
         11    1    5    5    0    0 -0.56618725068E+01 -0.22186403661E+02  0.94184181108E+01  0.24758834936E+02  0.00000000000E+00 0. -1.
        -12    1    5    5    0    0 -0.54625468581E+02  0.33992792896E+02  0.16675251912E+03  0.17873403263E+03  0.00000000000E+00 0.  1.
          5    1    4    4  501    0  0.73315361867E+02  0.61441141201E+02 -0.30129248121E+02  0.10037629257E+03  0.41800000000E+01 0. -1.
         -5    1    4    4    0  501  0.46665900671E+01 -0.45446658542E+02 -0.51142239485E+02  0.68703543541E+02  0.41800000000E+01 0. -1.
</event>
<event>
11    1  0.8299058E-009  0.2456240E+03  0.7561462E-02  0.1026257E+00
         22   -1    0    0    0    0  0.00000000000E+00  0.00000000000E+00  0.12752514295E+04  0.12752514295E+04  0.00000000000E+00 0. -1.
         22   -1    0    0    0    0 -0.00000000000E+00 -0.00000000000E+00 -0.13135059955E+03  0.13135059955E+03  0.00000000000E+00 0.  1.
        -24    2    1    2    0    0 -0.40770856672E+01 -0.16224153024E+02 -0.52982754772E+02  0.96779936572E+02  0.79242274392E+02 0.  0.
         25    2    1    2    0    0 -0.13874899363E+03 -0.14465728147E+03  0.28866778309E+03  0.37303171983E+03  0.12508622103E+03 0.  0.
         24    2    1    2    0    0  0.14282607929E+03  0.16088143449E+03  0.90821580163E+03  0.93679037265E+03  0.80237990151E+02 0.  0.
        -11    1    5    5    0    0  0.55025084863E+01  0.42309175983E+02  0.26753610864E+03  0.27091680161E+03  0.00000000000E+00 0.  1.
         12    1    5    5    0    0  0.13732357081E+03  0.11857225851E+03  0.64067969299E+03  0.66587357103E+03  0.00000000000E+00 0. -1.
         11    1    3    3    0    0 -0.33649430382E+02 -0.84285220400E+00  0.61127242746E+00  0.33665534584E+02  0.00000000000E+00 0. -1.
        -12    1    3    3    0    0  0.29572344715E+02 -0.15381300820E+02 -0.53594027199E+02  0.63114401988E+02  0.00000000000E+00 0.  1.
          5    1    4    4  501    0 -0.40817414003E+01 -0.80064704608E+02  0.61485078867E+02  0.10111827164E+03  0.41800000000E+01 0.  1.
         -5    1    4    4    0  501 -0.13466725223E+03 -0.64592576861E+02  0.22718270422E+03  0.27191344818E+03  0.41800000000E+01 0.  1.
</event>
<event>
11    1  0.8299058E-009  0.1354402E+03  0.7561462E-02  0.1112760E+00
         22   -1    0    0    0    0  0.00000000000E+00  0.00000000000E+00  0.11187032149E+04  0.11187032149E+04  0.00000000000E+00 0. -1.
         22   -1    0    0    0    0 -0.00000000000E+00 -0.00000000000E+00 -0.48010313642E+02  0.48010313642E+02  0.00000000000E+00 0.  1.
        -24    2    1    2    0    0  0.47622299891E+02 -0.54362129119E+01  0.89077457070E+02  0.12955047100E+03  0.80938836909E+02 0.  0.
         25    2    1    2    0    0 -0.58476783955E+02 -0.25288157498E+02  0.16805398959E+03  0.21899045906E+03  0.12512255022E+03 0.  0.
         24    2    1    2    0    0  0.10854484064E+02  0.30724370410E+02  0.81356145465E+03  0.81817259853E+03  0.80388766215E+02 0.  0.
        -11    1    5    5    0    0 -0.27867148983E+02 -0.74670463237E+00  0.48939421438E+03  0.49018754842E+03  0.00000000000E+00 0.  1.
         12    1    5    5    0    0  0.38721633047E+02  0.31471075043E+02  0.32416724027E+03  0.32798505011E+03  0.00000000000E+00 0. -1.
         11    1    3    3    0    0  0.27883566816E+02 -0.42132522948E+02  0.61458768358E+02  0.79560184744E+02  0.00000000000E+00 0. -1.
        -12    1    3    3    0    0  0.19738733075E+02  0.36696310036E+02  0.27618688712E+02  0.49990286255E+02  0.00000000000E+00 0.  1.
          5    1    4    4  501    0 -0.45581392998E+02 -0.32416520042E+02  0.18665223957E+03  0.19489747329E+03  0.41800000000E+01 0. -1.
         -5    1    4    4    0  501 -0.12895390957E+02  0.71283625438E+01 -0.18598249987E+02  0.24092985765E+02  0.41800000000E+01 0. -1.
</event>
<event>
11    1  0.8299058E-009  0.1883921E+03  0.7561462E-02  0.1063050E+00
         22   -1    0    0    0    0  0.00000000000E+00  0.00000000000E+00  0.54790761428E+03  0.54790761428E+03  0.00000000000E+00 0.  1.
         22   -1    0    0    0    0 -0.00000000000E+00 -0.00000000000E+00 -0.42980627772E+03  0.42980627772E+03  0.00000000000E+00 0.  1.
         24    2    1    2    0    0 -0.62273020843E+02 -0.12365302141E+02 -0.30002417149E+03  0.31689520572E+03  0.79857611449E+02 0.  0.
         25    2    1    2    0    0  0.47002200380E+02  0.15142943778E+03 -0.85483060168E+01  0.20213821905E+03  0.12508678825E+03 0.  0.
        -24    2    1    2    0    0  0.15270820464E+02 -0.13906413564E+03  0.42667381407E+03  0.45868046723E+03  0.93622623510E+02 0.  0.
        -11    1    3    3    0    0 -0.40460694488E+02  0.23404454948E+02 -0.23456422606E+03  0.23917611180E+03  0.00000000000E+00 0.  1.
         12    1    3    3    0    0 -0.21812326355E+02 -0.35769757090E+02 -0.65459945434E+02  0.77719093918E+02  0.00000000000E+00 0. -1.
         13    1    5    5    0    0  0.18404304308E+02  0.84413288877E+01  0.64667827296E+02  0.67763576777E+02  0.00000000000E+00 0. -1.
        -14    1    5    5    0    0 -0.31334838447E+01 -0.14750546453E+03  0.36200598677E+03  0.39091689046E+03  0.00000000000E+00 0.  1.
          5    1    4    4  501    0  0.59547859628E+02  0.16918164219E+03 -0.35223281602E+01  0.17943872168E+03  0.41800000000E+01 0.  1.
         -5    1    4    4    0  501 -0.12545659249E+02 -0.17752204410E+02 -0.50259778566E+01  0.22699497369E+02  0.41800000000E+01 0.  1.
</event>
<event>
11    1  0.8299058E-009  0.1444214E+03  0.7561462E-02  0.1102719E+00
         22   -1    0    0    0    0  0.00000000000E+00  0.00000000000E+00  0.11545424573E+04  0.11545424573E+04  0.00000000000E+00 0. -1.
         22   -1    0    0    0    0 -0.00000000000E+00 -0.00000000000E+00 -0.30954749849E+03  0.30954749849E+03  0.00000000000E+00 0.  1.
        -24    2    1    2    0    0 -0.66326861359E+02  0.23754650602E+02 -0.16057430175E+03  0.19276675535E+03  0.80071091058E+02 0.  0.
         25    2    1    2    0    0  0.64975830523E+02 -0.43739735505E+02 -0.89803422373E+02  0.17276276809E+03  0.12508915362E+03 0.  0.
         24    2    1    2    0    0  0.13510308360E+01  0.19985084902E+02  0.10953726830E+04  0.10985604324E+04  0.81194088975E+02 0.  0.
        -11    1    5    5    0    0 -0.35990736524E+02  0.16403589468E+02  0.34676406473E+03  0.34901250329E+03  0.00000000000E+00 0.  1.
         12    1    5    5    0    0  0.37341767360E+02  0.35814954346E+01  0.74860861825E+03  0.74954792910E+03  0.00000000000E+00 0. -1.
         11    1    3    3    0    0  0.10604502857E+02 -0.10849757387E+02 -0.53230248079E+01  0.16078162498E+02  0.00000000000E+00 0. -1.
        -12    1    3    3    0    0 -0.76931364216E+02  0.34604407989E+02 -0.15525127695E+03  0.17668859286E+03  0.00000000000E+00 0.  1.
          5    1    4    4  501    0 -0.23704914225E+02 -0.48119886345E+02 -0.56016163994E+02  0.77670647280E+02  0.41800000000E+01 0. -1.
         -5    1    4    4    0  501  0.88680744748E+02  0.43801508403E+01 -0.33787258379E+02  0.95092120805E+02  0.41800000000E+01 0. -1.
</event>
<event>
11    1  0.8299058E-009  0.1493973E+03  0.7561462E-02  0.1097496E+00
         22   -1    0    0    0    0  0.00000000000E+00  0.00000000000E+00  0.38240500724E+03  0.38240500724E+03  0.00000000000E+00 0. -1.
         22   -1    0    0    0    0 -0.00000000000E+00 -0.00000000000E+00 -0.41558170990E+03  0.41558170990E+03  0.00000000000E+00 0. -1.
         24    2    1    2    0    0  0.51612402889E+00  0.80662131201E+02 -0.36192916381E+03  0.37932445825E+03  0.79922958004E+02 0.  0.
         25    2    1    2    0    0  0.16193110667E+02 -0.10834821033E+03  0.19658513735E+03  0.25747736228E+03  0.12508926551E+03 0.  0.
        -24    2    1    2    0    0 -0.16709234696E+02  0.27686079127E+02  0.13216732381E+03  0.16118489661E+03  0.86409790608E+02 0.  0.
        -11    1    3    3    0    0 -0.23572998363E+02  0.25591364188E+02 -0.45724137362E+02  0.57456948320E+02  0.00000000000E+00 0.  1.
         12    1    3    3    0    0  0.24089122391E+02  0.55070767014E+02 -0.31620502645E+03  0.32186750993E+03  0.00000000000E+00 0. -1.
         13    1    5    5    0    0  0.12849346312E+02  0.50469759061E+02  0.95989766823E+02  0.10920777269E+03  0.00000000000E+00 0. -1.
        -14    1    5    5    0    0 -0.29558581008E+02 -0.22783679934E+02  0.36177556982E+02  0.51977123927E+02  0.00000000000E+00 0.  1.
          5    1    4    4  501    0  0.38402522293E+02 -0.11014608218E+02  0.13325033751E+03  0.13917327387E+03  0.41800000000E+01 0. -1.
         -5    1    4    4    0  501 -0.22209411626E+02 -0.97333602111E+02  0.63334799837E+02  0.11830408841E+03  0.41800000000E+01 0. -1.
</event>
<event>
11    1  0.8299058E-009  0.2483975E+03  0.7561462E-02  0.1024756E+00
         22   -1    0    0    0    0  0.00000000000E+00  0.00000000000E+00  0.16870051142E+03  0.16870051142E+03  0.00000000000E+00 0.  1.
         22   -1    0    0    0    0 -0.00000000000E+00 -0.00000000000E+00 -0.16939463108E+04  0.16939463108E+04  0.00000000000E+00 0. -1.
        -24    2    1    2    0    0 -0.40462722391E+02  0.28104055705E+02 -0.12653951174E+04  0.12689725280E+04  0.81482536737E+02 0.  0.
         25    2    1    2    0    0 -0.48361873824E+02 -0.22054231871E+03 -0.26061029960E+03  0.36680101128E+03  0.12508984146E+03 0.  0.
         24    2    1    2    0    0  0.88824596215E+02  0.19243826300E+03  0.75961761515E+00  0.22687328297E+03  0.80923516637E+02 0.  0.
        -13    1    5    5    0    0  0.69528157757E+02  0.96130458505E+02  0.33602429517E+02  0.12330593272E+03  0.00000000000E+00 0.  1.
         14    1    5    5    0    0  0.19296438458E+02  0.96307804498E+02 -0.32842811902E+02  0.10356735025E+03  0.00000000000E+00 0. -1.
         13    1    3    3    0    0  0.27775393893E+01  0.24120432615E+02 -0.97928599720E+03  0.97958694066E+03  0.00000000000E+00 0. -1.
        -14    1    3    3    0    0 -0.43240261781E+02  0.39836230904E+01 -0.28610912018E+03  0.28938558731E+03  0.00000000000E+00 0.  1.
          5    1    4    4  501    0  0.17800749122E+02 -0.12128768653E+03 -0.68109889408E+02  0.14029967572E+03  0.41800000000E+01 0. -1.
         -5    1    4    4    0  501 -0.66162622946E+02 -0.99254632179E+02 -0.19250041019E+03  0.22650133555E+03  0.41800000000E+01 0. -1.
</event>
<event>
11    1  0.8299058E-009  0.1380223E+03  0.7561462E-02  0.1109787E+00
         22   -1    0    0    0    0  0.00000000000E+00  0.00000000000E+00  0.11133903603E+03  0.11133903603E+03  0.00000000000E+00 0.  1.
         22   -1    0    0    0    0 -0.00000000000E+00 -0.00000000000E+00 -0.14598747023E+04  0.14598747023E+04  0.00000000000E+00 0.  1.
        -24    2    1    2    0    0 -0.42195497190E+02  0.40515699504E+02 -0.13303526210E+04  0.13340155677E+04  0.79608145194E+02 0.  0.
         25    2    1    2    0    0  0.61761396882E+02 -0.12379845672E+02 -0.42598734143E+02  0.14639200344E+03  0.12509290866E+03 0.  0.
         24    2    1    2    0    0 -0.19565899692E+02 -0.28135853831E+02  0.24415688940E+02  0.90806167127E+02  0.80468524408E+02 0.  0.
        -13    1    5    5    0    0  0.28472471876E+01 -0.19204559685E+02  0.51200035682E+02  0.54757333601E+02  0.00000000000E+00 0.  1.
         14    1    5    5    0    0 -0.22413146880E+02 -0.89312941464E+01 -0.26784346742E+02  0.36048833526E+02  0.00000000000E+00 0. -1.
         11    1    3    3    0    0 -0.12278380071E+02 -0.14125009426E+02 -0.81962171670E+02  0.84071826990E+02  0.00000000000E+00 0. -1.
        -12    1    3    3    0    0 -0.29917117119E+02  0.54640708930E+02 -0.12483904494E+04  0.12499437408E+04  0.00000000000E+00 0.  1.
          5    1    4    4  501    0  0.39524376852E+02 -0.60850251747E+02 -0.55403829327E+02  0.91389201809E+02  0.41800000000E+01 0. -1.
         -5    1    4    4    0  501  0.22237020030E+02  0.48470406075E+02  0.12805095184E+02  0.55002801634E+02  0.41800000000E+01 0. -1.
</event>
<event>
11    1  0.8299058E-009  0.1725033E+03  0.7561462E-02  0.1075873E+00
         22   -1    0    0    0    0  0.00000000000E+00  0.00000000000E+00  0.32737463602E+03  0.32737463602E+03  0.00000000000E+00 0. -1.
         22   -1    0    0    0    0 -0.00000000000E+00 -0.00000000000E+00 -0.38974940359E+03  0.38974940359E+03  0.00000000000E+00 0. -1.
        -24    2    1    2    0    0 -0.90657430277E+02  0.82123167832E+02 -0.22176572523E+03  0.26582929568E+03  0.80760096552E+02 0.  0.
         25    2    1    2    0    0  0.11342988560E+03 -0.34047866406E+02 -0.82583245490E+02  0.19102934430E+03  0.12508645728E+03 0.  0.
         24    2    1    2    0    0 -0.22772455324E+02 -0.48075301427E+02  0.24197420315E+03  0.26026539962E+03  0.79729191167E+02 0.  0.
        -13    1    5    5    0    0 -0.35978711578E+02 -0.62632596199E+02  0.15365636633E+03  0.16978689203E+03  0.00000000000E+00 0.  1.
         14    1    5    5    0    0  0.13206256254E+02  0.14557294772E+02  0.88317836819E+02  0.90478507590E+02  0.00000000000E+00 0. -1.
         11    1    3    3    0    0 -0.93852207880E+02  0.48803716492E+02 -0.12676472370E+03  0.16510401219E+03  0.00000000000E+00 0. -1.
        -12    1    3    3    0    0  0.31947776031E+01  0.33319451340E+02 -0.95001001535E+02  0.10072528349E+03  0.00000000000E+00 0.  1.
          5    1    4    4  501    0 -0.25662525179E+02 -0.81354085999E+01 -0.28703697995E+02  0.39574294058E+02  0.41800000000E+01 0. -1.
         -5    1    4    4    0  501  0.13909241078E+03 -0.25912457806E+02 -0.53879547495E+02  0.15145505024E+03  0.41800000000E+01 0. -1.
</event>
<event>
11    1  0.8299058E-009  0.1851388E+03  0.7561462E-02  0.1065560E+00
         22   -1    0    0    0    0  0.00000000000E+00  0.00000000000E+00  0.19516724766E+03  0.19516724766E+03  0.00000000000E+00 0. -1.
         22   -1    0    0    0    0 -0.00000000000E+00 -0.00000000000E+00 -0.14175077639E+04  0.14175077639E+04  0.00000000000E+00 0. -1.
         24    2    1    2    0    0 -0.17634145803E+02  0.23131144255E+02 -0.10961089542E+04  0.10995629223E+04  0.82083906806E+02 0.  0.
         25    2    1    2    0    0  0.93085829985E+02 -0.13260785564E+03 -0.24359491328E+03  0.31817722727E+03  0.12509376905E+03 0.  0.
        -24    2    1    2    0    0 -0.75451684182E+02  0.10947671138E+03  0.11736335117E+03  0.19493486203E+03  0.80915618129E+02 0.  0.
        -11    1    3    3    0    0  0.10501578563E+01  0.38445703538E+02 -0.23588575353E+03  0.23900055161E+03  0.00000000000E+00 0.  1.
         12    1    3    3    0    0 -0.18684303659E+02 -0.15314559283E+02 -0.86022320064E+03  0.86056237069E+03  0.00000000000E+00 0. -1.
         13    1    5    5    0    0 -0.51477451631E+02  0.11850006888E+03  0.90019019271E+02  0.15746624458E+03  0.00000000000E+00 0. -1.
        -14    1    5    5    0    0 -0.23974232551E+02 -0.90233574988E+01  0.27344331895E+02  0.37468617452E+02  0.00000000000E+00 0.  1.
          5    1    4    4  501    0  0.12030612950E+03 -0.80218938779E+02 -0.18557335896E+03  0.23529468097E+03  0.41800000000E+01 0.  1.
         -5    1    4    4    0  501 -0.27220299518E+02 -0.52388916860E+02 -0.58021554317E+02  0.82882546299E+02  0.41800000000E+01 0.  1.
</event>
<event>
11    1  0.8299058E-009  0.1414322E+03  0.7561462E-02  0.1105970E+00
         22   -1    0    0    0    0  0.00000000000E+00  0.00000000000E+00  0.95733137048E+03  0.95733137048E+03  0.00000000000E+00 0. -1.
         22   -1    0    0    0    0 -0.00000000000E+00 -0.00000000000E+00 -0.14121800360E+04  0.14121800360E+04  0.00000000000E+00 0.  1.
        -24    2    1    2    0    0 -0.48448593858E+02 -0.47098106638E+02 -0.12257347897E+04  0.12302372605E+04  0.80575706793E+02 0.  0.
         25    2    1    2    0    0  0.63471106042E+01  0.60305542706E+02 -0.15536641282E+03  0.20847787180E+03  0.12508899434E+03 0.  0.
         24    2    1    2    0    0  0.42101483254E+02 -0.13207436068E+02  0.92625253710E+03  0.93079627409E+03  0.80566557060E+02 0.  0.
        -13    1    5    5    0    0  0.34832382663E+01  0.10873299834E+02  0.17440706012E+02  0.20845618827E+02  0.00000000000E+00 0.  1.
         14    1    5    5    0    0  0.38618244988E+02 -0.24080735902E+02  0.90881183109E+03  0.90995065527E+03  0.00000000000E+00 0. -1.
         13    1    3    3    0    0  0.15251303762E+02  0.30847760567E+01 -0.72303908609E+02  0.73959267910E+02  0.00000000000E+00 0. -1.
        -14    1    3    3    0    0 -0.63699897620E+02 -0.50182882694E+02 -0.11534308811E+04  0.11562779926E+04  0.00000000000E+00 0.  1.
          5    1    4    4  501    0  0.18534054309E+02  0.97602333904E+02 -0.11504524958E+03  0.15206120019E+03  0.41800000000E+01 0.  1.
         -5    1    4    4    0  501 -0.12186943705E+02 -0.37296791198E+02 -0.40321163238E+02  0.56416671609E+02  0.41800000000E+01 0.  1.
</event>
<event>
11    1  0.8299058E-009  0.1532194E+03  0.7561462E-02  0.1093634E+00
         22   -1    0    0    0    0  0.00000000000E+00  0.00000000000E+00  0.79903313319E+03  0.79903313319E+03  0.00000000000E+00 0. -1.
         22   -1    0    0    0    0 -0.00000000000E+00 -0.00000000000E+00 -0.33120350910E+03  0.33120350910E+03  0.00000000000E+00 0.  1.
        -24    2    1    2    0    0 -0.35929451343E+02 -0.21255760262E+02 -0.28248014212E+03  0.29671878544E+03  0.80649080084E+02 0.  0.
         25    2    1    2    0    0  0.25367166808E+02  0.10662832523E+03  0.15687620825E+03  0.22862897586E+03  0.12509185022E+03 0.  0.
         24    2    1    2    0    0  0.10562284535E+02 -0.85372564971E+02  0.59343355797E+03  0.60488888100E+03  0.79543283355E+02 0.  0.
        -11    1    5    5    0    0 -0.23661462597E+02 -0.25160189888E+02  0.84834797067E+02  0.91596084855E+02  0.00000000000E+00 0.  1.
         12    1    5    5    0    0  0.34223747132E+02 -0.60212375083E+02  0.50859876090E+03  0.51329279614E+03  0.00000000000E+00 0. -1.
         11    1    3    3    0    0 -0.73289889455E+01  0.18888770743E+02 -0.16272833831E+02  0.25986628486E+02  0.00000000000E+00 0. -1.
        -12    1    3    3    0    0 -0.28600462398E+02 -0.40144531005E+02 -0.26620730829E+03  0.27073215695E+03  0.00000000000E+00 0.  1.
          5    1    4    4  501    0 -0.18890303648E+02  0.25833835662E+02  0.12798558408E+03  0.13199247240E+03  0.41800000000E+01 0.  1.
         -5    1    4    4    0  501  0.44257470456E+02  0.80794489570E+02  0.28890624172E+02  0.96636503461E+02  0.41800000000E+01 0.  1.
</event>
<event>
11    1  0.8299058E-009  0.1607982E+03  0.7561462E-02  0.1086329E+00
         22   -1    0    0    0    0  0.00000000000E+00  0.00000000000E+00  0.35876225678E+03  0.35876225678E+03  0.00000000000E+00 0. -1.
         22   -1    0    0    0    0 -0.00000000000E+00 -0.00000000000E+00 -0.57001897699E+03  0.57001897699E+03  0.00000000000E+00 0.  1.
         24    2    1    2    0    0 -0.61743323644E+01 -0.10211745276E+03 -0.52299119487E+03  0.53957222703E+03  0.84571281962E+02 0.  0.
         25    2    1    2    0    0  0.10224131192E+02  0.71573971593E+02  0.16280174330E+03  0.21766601385E+03  0.12508684861E+03 0.  0.
        -24    2    1    2    0    0 -0.40497988281E+01  0.30543481165E+02  0.14893273136E+03  0.17154299289E+03  0.79351968018E+02 0.  0.
        -11    1    3    3    0    0 -0.14498535120E+01 -0.11674768434E+03 -0.47690411915E+03  0.49098845479E+03  0.00000000000E+00 0.  1.
         12    1    3    3    0    0 -0.47244788523E+01  0.14630231585E+02 -0.46087075722E+02  0.48583772242E+02  0.00000000000E+00 0. -1.
         13    1    5    5    0    0  0.37856073851E+01  0.36860591781E+02  0.15528265609E+03  0.15964252983E+03  0.00000000000E+00 0. -1.
        -14    1    5    5    0    0 -0.78354062132E+01 -0.63171106151E+01 -0.63499247271E+01  0.11900463062E+02  0.00000000000E+00 0.  1.
          5    1    4    4  501    0  0.14538246306E+02  0.13973746077E+02 -0.18287772242E+02  0.27541626652E+02  0.41800000000E+01 0.  1.
         -5    1    4    4    0  501 -0.43141151139E+01  0.57600225516E+02  0.18108951554E+03  0.19012438720E+03  0.41800000000E+01 0.  1.
</event>
<event>
11    1  0.8299058E-009  0.4409522E+03  0.7561462E-02  0.9536100E-01
         22   -1    0    0    0    0  0.00000000000E+00  0.00000000000E+00  0.19681594460E+04  0.19681594460E+04  0.00000000000E+00 0.  1.
         22   -1    0    0    0    0 -0.00000000000E+00 -0.00000000000E+00 -0.14780869196E+04  0.14780869196E+04  0.00000000000E+00 0.  1.
         24    2    1    2    0    0 -0.25447987842E+02 -0.22964258563E+02 -0.11485281517E+04  0.11518200649E+04  0.79984932041E+02 0.  0.
         25    2    1    2    0    0  0.31055420100E+03  0.33160199015E+03 -0.11866716115E+03  0.48593632348E+03  0.12509365974E+03 0.  0.
        -24    2    1    2    0    0 -0.28510621316E+03 -0.30863773159E+03  0.17572678393E+04  0.18084899773E+04  0.78121296362E+02 0.  0.
        -13    1    3    3    0    0  0.11137204433E+02 -0.25272842125E+02 -0.91632614722E+03  0.91674225492E+03  0.00000000000E+00 0.  1.
         14    1    3    3    0    0 -0.36585192275E+02  0.23085835617E+01 -0.23220200449E+03  0.23507780997E+03  0.00000000000E+00 0. -1.
         13    1    5    5    0    0 -0.12280339631E+03 -0.80721580814E+02  0.55990430482E+03  0.57886913747E+03  0.00000000000E+00 0. -1.
        -14    1    5    5    0    0 -0.16230281685E+03 -0.22791615078E+03  0.11973635344E+04  0.12296208398E+04  0.00000000000E+00 0.  1.
          5    1    4    4  501    0  0.24837854073E+03  0.30115000170E+03 -0.59749250795E+02  0.39493121982E+03  0.41800000000E+01 0. -1.
         -5    1    4    4    0  501  0.62175660276E+02  0.30451988454E+02 -0.58917910358E+02  0.91005103662E+02  0.41800000000E+01 0. -1.
</event>
<event>
11    1  0.8299058E-009  0.1326864E+03  0.7561462E-02  0.1116012E+00
         22   -1    0    0    0    0  0.00000000000E+00  0.00000000000E+00  0.36731561271E+03  0.36731561271E+03  0.00000000000E+00 0.  1.
         22   -1    0    0    0    0 -0.00000000000E+00 -0.00000000000E+00 -0.10240420346E+04  0.10240420346E+04  0.00000000000E+00 0.  1.
         24    2    1    2    0    0 -0.20892779641E+02 -0.18966530270E+02 -0.56121136603E+03  0.56716173329E+03  0.76928517649E+02 0.  0.
         25    2    1    2    0    0  0.63658438010E+02  0.28953950013E+02 -0.44259042818E+03  0.46521594614E+03  0.12509540948E+03 0.  0.
        -24    2    1    2    0    0 -0.42765658369E+02 -0.99874197426E+01  0.34707537236E+03  0.35897996785E+03  0.80477656092E+02 0.  0.
        -11    1    3    3    0    0  0.35437049208E+01 -0.19503561340E+01 -0.48946099207E+03  0.48947770582E+03  0.00000000000E+00 0.  1.
         12    1    3    3    0    0 -0.24436484562E+02 -0.17016174136E+02 -0.71750373965E+02  0.77684027471E+02  0.00000000000E+00 0. -1.
         11    1    5    5    0    0  0.93873000886E+01  0.11069893350E+02  0.10950009107E+02  0.18181491720E+02  0.00000000000E+00 0. -1.
        -12    1    5    5    0    0 -0.52152958457E+02 -0.21057313092E+02  0.33612536325E+03  0.34079847613E+03  0.00000000000E+00 0.  1.
          5    1    4    4  501    0  0.28757777685E+02 -0.11116030926E+02 -0.38682323360E+03  0.38807249629E+03  0.41800000000E+01 0.  1.
         -5    1    4    4    0  501  0.34900660325E+02  0.40069980939E+02 -0.55767194576E+02  0.77143449848E+02  0.41800000000E+01 0.  1.
</event>
<event>
11    1  0.8299058E-009  0.1387715E+03  0.7561462E-02  0.1108938E+00
         22   -1    0    0    0    0  0.00000000000E+00  0.00000000000E+00  0.22613702032E+04  0.22613702032E+04  0.00000000000E+00 0.  1.
         22   -1    0    0    0    0 -0.00000000000E+00 -0.00000000000E+00 -0.23855416057E+03  0.23855416057E+03  0.00000000000E+00 0.  1.
        -24    2    1    2    0    0  0.17849835434E+02 -0.24886514671E+02 -0.17827211329E+03  0.19803994877E+03  0.80628280971E+02 0.  0.
         25    2    1    2    0    0  0.42529880360E+02  0.20429585516E+02  0.41556159792E+02  0.13999997438E+03  0.12508764816E+03 0.  0.
         24    2    1    2    0    0 -0.60379715794E+02  0.44569291545E+01  0.21595319961E+04  0.21618844406E+04  0.80624549569E+02 0.  0.
        -11    1    5    5    0    0 -0.78907442084E+02  0.87554724351E+01  0.18991470826E+04  0.19008057986E+04  0.00000000000E+00 0.  1.
         12    1    5    5    0    0  0.18527726290E+02 -0.42985432806E+01  0.26038491351E+03  0.26107864199E+03  0.00000000000E+00 0. -1.
         13    1    3    3    0    0  0.37075132611E+02 -0.38433673260E+02 -0.74661366077E+02  0.91793421784E+02  0.00000000000E+00 0. -1.
        -14    1    3    3    0    0 -0.19225297177E+02  0.13547158589E+02 -0.10361074721E+03  0.10624652698E+03  0.00000000000E+00 0.  1.
          5    1    4    4  501    0 -0.17208010997E+02  0.37669511550E+02 -0.25215920141E+02  0.48666443998E+02  0.41800000000E+01 0. -1.
         -5    1    4    4    0  501  0.59737891356E+02 -0.17239926034E+02  0.66772079933E+02  0.91333530381E+02  0.41800000000E+01 0. -1.
</event>
<event>
11    1  0.8299058E-009  0.1457882E+03  0.7561462E-02  0.1101262E+00
         22   -1    0    0    0    0  0.00000000000E+00  0.00000000000E+00  0.31952291466E+03  0.31952291466E+03  0.00000000000E+00 0. -1.
         22   -1    0    0    0    0 -0.00000000000E+00 -0.00000000000E+00 -0.31605930733E+03  0.31605930733E+03  0.00000000000E+00 0. -1.
         24    2    1    2    0    0 -0.32864253079E+02  0.47465821559E+02 -0.23496521221E+03  0.25428318437E+03  0.78219074132E+02 0.  0.
         25    2    1    2    0    0  0.82542095281E+02  0.11505992149E+02  0.42661540977E+02  0.15624473685E+03  0.12508727100E+03 0.  0.
        -24    2    1    2    0    0 -0.49677842202E+02 -0.58971813709E+02  0.19576727856E+03  0.22505430078E+03  0.79868943435E+02 0.  0.
        -11    1    3    3    0    0 -0.35407497897E+02  0.39193533649E+02 -0.63483234351E+02  0.82582958477E+02  0.00000000000E+00 0.  1.
         12    1    3    3    0    0  0.25432448179E+01  0.82722879104E+01 -0.17148197786E+03  0.17170022589E+03  0.00000000000E+00 0. -1.
         11    1    5    5    0    0 -0.68055095312E+02 -0.42109873150E+02  0.17561051815E+03  0.19298650601E+03  0.00000000000E+00 0. -1.
        -12    1    5    5    0    0  0.18377253110E+02 -0.16861940558E+02  0.20156760405E+02  0.32067794768E+02  0.00000000000E+00 0.  1.
          5    1    4    4  501    0 -0.94681592827E+01  0.49573801440E+02  0.14843454266E+02  0.52773178453E+02  0.41800000000E+01 0.  1.
         -5    1    4    4    0  501  0.92010254564E+02 -0.38067809291E+02  0.27818086711E+02  0.10347155840E+03  0.41800000000E+01 0.  1.
</event>
<event>
11    1  0.8299058E-009  0.3106342E+03  0.7561462E-02  0.9957884E-01
         22   -1    0    0    0    0  0.00000000000E+00  0.00000000000E+00  0.17913414243E+04  0.17913414243E+04  0.00000000000E+00 0.  1.
         22   -1    0    0    0    0 -0.00000000000E+00 -0.00000000000E+00 -0.23365296069E+03  0.23365296069E+03  0.00000000000E+00 0.  1.
         24    2    1    2    0    0  0.13009230715E+03 -0.95689984300E+02 -0.18284368734E+03  0.25695995133E+03  0.80721875067E+02 0.  0.
         25    2    1    2    0    0 -0.42373917530E+02  0.12410744714E+02  0.44377942478E+03  0.46318105388E+03  0.12508771062E+03 0.  0.
        -24    2    1    2    0    0 -0.87718389617E+02  0.83279239586E+02  0.12967527261E+04  0.13048533797E+04  0.80279276519E+02 0.  0.
        -11    1    3    3    0    0  0.65482068070E+02 -0.20963848751E+01 -0.52348050858E+02  0.83860685049E+02  0.00000000000E+00 0.  1.
         12    1    3    3    0    0  0.64610239077E+02 -0.93593599425E+02 -0.13049563648E+03  0.17309926628E+03  0.00000000000E+00 0. -1.
         11    1    5    5    0    0  0.56399692529E+01 -0.11074172512E+02  0.10690522225E+03  0.10762515085E+03  0.00000000000E+00 0. -1.
        -12    1    5    5    0    0 -0.93358358870E+02  0.94353412098E+02  0.11898475039E+04  0.11972282289E+04  0.00000000000E+00 0.  1.
          5    1    4    4  501    0 -0.59753344379E+02 -0.41427123698E+02  0.29755924307E+03  0.30634236449E+03  0.41800000000E+01 0. -1.
         -5    1    4    4    0  501  0.17379426849E+02  0.53837868412E+02  0.14622018171E+03  0.15683868939E+03  0.41800000000E+01 0. -1.
</event>
<event>
11    1  0.8299058E-009  0.1419074E+03  0.7561462E-02  0.1105447E+00
         22   -1    0    0    0    0  0.00000000000E+00  0.00000000000E+00  0.18884581379E+04  0.18884581379E+04  0.00000000000E+00 0. -1.
         22   -1    0    0    0    0 -0.00000000000E+00 -0.00000000000E+00 -0.28427926884E+03  0.28427926884E+03  0.00000000000E+00 0.  1.
        -24    2    1    2    0    0 -0.31658238271E+02  0.36660697012E+02 -0.25068981914E+03  0.26835298409E+03  0.82593509991E+02 0.  0.
         25    2    1    2    0    0 -0.37480086980E+02 -0.36227124972E+02  0.17589846788E+03  0.22204507816E+03  0.12508630713E+03 0.  0.
         24    2    1    2    0    0  0.69138325251E+02 -0.43357203990E+00  0.16789702204E+04  0.16823393445E+04  0.80897301031E+02 0.  0.
        -11    1    5    5    0    0 -0.12784155829E+02  0.13574270766E+02  0.15734442208E+03  0.15844545632E+03  0.00000000000E+00 0.  1.
         12    1    5    5    0    0  0.81922481080E+02 -0.14007842806E+02  0.15216257983E+04  0.15238938882E+04  0.00000000000E+00 0. -1.
         13    1    3    3    0    0 -0.63146196542E+01 -0.70121704179E+01  0.28316060390E+01  0.98520529894E+01  0.00000000000E+00 0. -1.
        -14    1    3    3    0    0 -0.25343618617E+02  0.43672867430E+02 -0.25352142518E+03  0.25850093110E+03  0.00000000000E+00 0.  1.
          5    1    4    4  501    0  0.11187668268E+01  0.43985022218E+02  0.40467723439E+02  0.59925310671E+02  0.41800000000E+01 0. -1.
         -5    1    4    4    0  501 -0.38598853807E+02 -0.80212147190E+02  0.13543074444E+03  0.16211976749E+03  0.41800000000E+01 0. -1.
</event>
<event>
11    1  0.8299058E-009  0.1536393E+03  0.7561462E-02  0.1093217E+00
         22   -1    0    0    0    0  0.00000000000E+00  0.00000000000E+00  0.15490373916E+03  0.15490373916E+03  0.00000000000E+00 0.  1.
         22   -1    0    0    0    0 -0.00000000000E+00 -0.00000000000E+00 -0.34722452599E+04  0.34722452599E+04  0.00000000000E+00 0.  1.
        -24    2    1    2    0    0  0.60719540520E+02  0.60216760980E+02 -0.28115873296E+04  0.28140608069E+04  0.81252642030E+02 0.  0.
         25    2    1    2    0    0 -0.68242051021E+02 -0.11048762732E+03 -0.62999934226E+03  0.65529739863E+03  0.12510402108E+03 0.  0.
         24    2    1    2    0    0  0.75225105003E+01  0.50270866343E+02  0.12424515113E+03  0.15779079355E+03  0.82929661667E+02 0.  0.
        -11    1    5    5    0    0 -0.11756586367E+02  0.60599125543E+02  0.12078868449E+03  0.13564799166E+03  0.00000000000E+00 0.  1.
         12    1    5    5    0    0  0.19279096867E+02 -0.10328259200E+02  0.34564666354E+01  0.22142801894E+02  0.00000000000E+00 0. -1.
         11    1    3    3    0    0  0.20522802061E+02 -0.56790740700E+01 -0.16764220606E+03  0.16898919060E+03  0.00000000000E+00 0. -1.
        -12    1    3    3    0    0  0.40196738460E+02  0.65895835050E+02 -0.26439451236E+04  0.26450716163E+04  0.00000000000E+00 0.  1.
          5    1    4    4  501    0 -0.91478196970E+02 -0.12029854507E+03 -0.57662686434E+03  0.59611744946E+03  0.41800000000E+01 0.  1.
         -5    1    4    4    0  501  0.23236145950E+02  0.98109177448E+01 -0.53372477914E+02  0.59179949175E+02  0.41800000000E+01 0.  1.
</event>
<event>
11    1  0.8299058E-009  0.1372642E+03  0.7561462E-02  0.1110652E+00
         22   -1    0    0    0    0  0.00000000000E+00  0.00000000000E+00  0.37980591587E+03  0.37980591587E+03  0.00000000000E+00 0.  1.
         22   -1    0    0    0    0 -0.00000000000E+00 -0.00000000000E+00 -0.56471461644E+03  0.56471461644E+03  0.00000000000E+00 0. -1.
        -24    2    1    2    0    0 -0.13442054962E+02  0.11934473250E+02 -0.27853399962E+03  0.29026368930E+03  0.79678729201E+02 0.  0.
         25    2    1    2    0    0  0.68005780676E+02 -0.24700144326E+02 -0.25283245425E+03  0.29121771279E+03  0.12509445627E+03 0.  0.
         24    2    1    2    0    0 -0.54563725715E+02  0.12765671076E+02  0.34645775330E+03  0.36303913021E+03  0.92866962475E+02 0.  0.
        -13    1    5    5    0    0 -0.62062936076E+02  0.99776630017E+01  0.11191653999E+03  0.12836149624E+03  0.00000000000E+00 0.  1.
         14    1    5    5    0    0  0.74992103610E+01  0.27880080747E+01  0.23454121331E+03  0.23467763397E+03  0.00000000000E+00 0. -1.
         13    1    3    3    0    0 -0.26108779273E+02  0.40882899670E+02 -0.19528560639E+03  0.20122014786E+03  0.00000000000E+00 0. -1.
        -14    1    3    3    0    0  0.12666724311E+02 -0.28948426420E+02 -0.83248393235E+02  0.89043541446E+02  0.00000000000E+00 0.  1.
          5    1    4    4  501    0  0.15576765448E+01 -0.46852674093E+02 -0.25975373611E+02  0.53756784317E+02  0.41800000000E+01 0. -1.
         -5    1    4    4    0  501  0.66448104131E+02  0.22152529766E+02 -0.22685708064E+03  0.23746092848E+03  0.41800000000E+01 0. -1.
</event>
<event>
11    1  0.8299058E-009  0.1808155E+03  0.7561462E-02  0.1068985E+00
         22   -1    0    0    0    0  0.00000000000E+00  0.00000000000E+00  0.55273400834E+03  0.55273400834E+03  0.00000000000E+00 0.  1.
         22   -1    0    0    0    0 -0.00000000000E+00 -0.00000000000E+00 -0.25427405892E+04  0.25427405892E+04  0.00000000000E+00 0.  1.
         24    2    1    2    0    0 -0.24346648633E+02 -0.21960840740E+02 -0.24761222127E+04  0.24776636032E+04  0.80998027410E+02 0.  0.
         25    2    1    2    0    0 -0.26035612280E+02 -0.10569961665E+03  0.84736744585E+02  0.18622907558E+03  0.12510272036E+03 0.  0.
        -24    2    1    2    0    0  0.50382260912E+02  0.12766045739E+03  0.40137888725E+03  0.43158191879E+03  0.79513375622E+02 0.  0.
        -11    1    3    3    0    0 -0.14629950559E+02 -0.42038567636E+01 -0.23395490911E+04  0.23395986103E+04  0.00000000000E+00 0.  1.
         12    1    3    3    0    0 -0.97166980738E+01 -0.17756983976E+02 -0.13657312164E+03  0.13806499287E+03  0.00000000000E+00 0. -1.
         13    1    5    5    0    0  0.30938333195E+02  0.15492588976E+01  0.74909710796E+02  0.81061985144E+02  0.00000000000E+00 0. -1.
        -14    1    5    5    0    0  0.19443927718E+02  0.12611119849E+03  0.32646917646E+03  0.35051993365E+03  0.00000000000E+00 0.  1.
          5    1    4    4  501    0  0.28681337291E+02 -0.95439669973E+00  0.58219928925E+02  0.65042774432E+02  0.41800000000E+01 0.  1.
         -5    1    4    4    0  501 -0.54716949570E+02 -0.10474521995E+03  0.26516815660E+02  0.12118630114E+03  0.41800000000E+01 0.  1.
</event>
<event>
11    1  0.8299058E-009  0.1283215E+03  0.7561462E-02  0.1121349E+00
         22   -1    0    0    0    0  0.00000000000E+00  0.00000000000E+00  0.55877351256E+03  0.55877351256E+03  0.00000000000E+00 0. -1.
         22   -1    0    0    0    0 -0.00000000000E+00 -0.00000000000E+00 -0.13354059154E+03  0.13354059154E+03  0.00000000000E+00 0. -1.
         24    2    1    2    0    0  0.20997205702E+02  0.18504775138E+02 -0.65091767602E+02  0.10740277506E+03  0.80716222225E+02 0.  0.
         25    2    1    2    0    0  0.90301982737E+01 -0.21966759734E+02  0.51189558640E+02  0.13723397464E+03  0.12509480353E+03 0.  0.
        -24    2    1    2    0    0 -0.30027403975E+02  0.34619845953E+01  0.43913512999E+03  0.44767735440E+03  0.81619366117E+02 0.  0.
        -11    1    3    3    0    0 -0.13447898509E+02  0.38914848486E+02 -0.16289225594E+02  0.44278101556E+02  0.00000000000E+00 0.  1.
         12    1    3    3    0    0  0.34445104211E+02 -0.20410073348E+02 -0.48802542008E+02  0.63124673501E+02  0.00000000000E+00 0. -1.
         11    1    5    5    0    0  0.95538142651E+01 -0.16581692046E+02  0.31962812366E+03  0.32020050798E+03  0.00000000000E+00 0. -1.
        -12    1    5    5    0    0 -0.39581218240E+02  0.20043676642E+02  0.11950700633E+03  0.12747684641E+03  0.00000000000E+00 0.  1.
          5    1    4    4  501    0 -0.34485248117E+02  0.39008363119E+02  0.18794802858E+02  0.55512176551E+02  0.41800000000E+01 0.  1.
         -5    1    4    4    0  501  0.43515446391E+02 -0.60975122853E+02  0.32394755782E+02  0.81721798094E+02  0.41800000000E+01 0.  1.
</event>
<event>
11    1  0.8299058E-009  0.1279241E+03  0.7561462E-02  0.1121846E+00
         22   -1    0    0    0    0  0.00000000000E+00  0.00000000000E+00  0.19129678549E+04  0.19129678549E+04  0.00000000000E+00 0.  1.
         22   -1    0    0    0    0 -0.00000000000E+00 -0.00000000000E+00 -0.14858747453E+03  0.14858747453E+03  0.00000000000E+00 0. -1.
         24    2    1    2    0    0 -0.25248480589E+02 -0.50748140889E+01 -0.10784700080E+03  0.13709270923E+03  0.80623791972E+02 0.  0.
         25    2    1    2    0    0  0.33617038450E+02  0.27800544067E+02  0.14949287137E+03  0.19974599647E+03  0.12508944396E+03 0.  0.
        -24    2    1    2    0    0 -0.83685578610E+01 -0.22725729978E+02  0.17227345098E+04  0.17247166237E+04  0.79036380095E+02 0.  0.
        -13    1    3    3    0    0 -0.28251662520E+02 -0.15862643820E+02 -0.40029675288E+01  0.32646648421E+02  0.00000000000E+00 0.  1.
         14    1    3    3    0    0  0.30031819304E+01  0.10787829731E+02 -0.10384403327E+03  0.10444606081E+03  0.00000000000E+00 0. -1.
         11    1    5    5    0    0  0.33202478184E+02 -0.24060996089E+02  0.82056869227E+03  0.82159254793E+03  0.00000000000E+00 0. -1.
        -12    1    5    5    0    0 -0.41571036045E+02  0.13352661118E+01  0.90216581748E+03  0.90312407575E+03  0.00000000000E+00 0.  1.
          5    1    4    4  501    0  0.67964669797E+02  0.44787612478E+02  0.56754760869E+02  0.99316171157E+02  0.41800000000E+01 0.  1.
         -5    1    4    4    0  501 -0.34347631346E+02 -0.16987068411E+02  0.92738110506E+02  0.10042982531E+03  0.41800000000E+01 0.  1.
</event>
<event>
11    1  0.8299058E-009  0.1932148E+03  0.7561462E-02  0.1059428E+00
         22   -1    0    0    0    0  0.00000000000E+00  0.00000000000E+00  0.87149555611E+03  0.87149555611E+03  0.00000000000E+00 0. -1.
         22   -1    0    0    0    0 -0.00000000000E+00 -0.00000000000E+00 -0.32863657253E+03  0.32863657253E+03  0.00000000000E+00 0.  1.
        -24    2    1    2    0    0 -0.22312896459E+02 -0.94367376499E+02 -0.26158341293E+03  0.29058700762E+03  0.81313344406E+02 0.  0.
         25    2    1    2    0    0  0.16357296211E+03  0.88241850806E+02  0.27013039508E+03  0.35094346771E+03  0.12509256181E+03 0.  0.
         24    2    1    2    0    0 -0.14126006565E+03  0.61255256936E+01  0.53431200144E+03  0.55860165330E+03  0.80960261706E+02 0.  0.
        -13    1    5    5    0    0  0.22789291804E+00  0.15071745544E+02  0.19621805590E+02  0.24743174888E+02  0.00000000000E+00 0.  1.
         14    1    5    5    0    0 -0.14148795857E+03 -0.89462198506E+01  0.51469019585E+03  0.53385847841E+03  0.00000000000E+00 0. -1.
         11    1    3    3    0    0 -0.18188461103E+02  0.61003396187E+01 -0.15203003925E+02  0.24477859161E+02  0.00000000000E+00 0. -1.
        -12    1    3    3    0    0 -0.41244353555E+01 -0.10046771612E+03 -0.24638040901E+03  0.26610914846E+03  0.00000000000E+00 0.  1.
          5    1    4    4  501    0  0.99205596893E+02  0.10342025629E+03  0.12045246295E+03  0.18725321919E+03  0.41800000000E+01 0. -1.
         -5    1    4    4    0  501  0.64367365214E+02 -0.15178405480E+02  0.14967793212E+03  0.16369024852E+03  0.41800000000E+01 0. -1.
</event>
<event>
11    1  0.8299058E-009  0.1432951E+03  0.7561462E-02  0.1103934E+00
         22   -1    0    0    0    0  0.00000000000E+00  0.00000000000E+00  0.65849916243E+03  0.65849916243E+03  0.00000000000E+00 0.  1.
         22   -1    0    0    0    0 -0.00000000000E+00 -0.00000000000E+00 -0.31690970397E+03  0.31690970397E+03  0.00000000000E+00 0.  1.
         24    2    1    2    0    0 -0.52922789278E+02 -0.37233649559E+02 -0.20893648019E+03  0.23300072212E+03  0.80297680334E+02 0.  0.
         25    2    1    2    0    0  0.50933976187E+02  0.10369903030E+03 -0.11918074677E+02  0.17069211654E+03  0.12508396911E+03 0.  0.
        -24    2    1    2    0    0  0.19888130909E+01 -0.66465380744E+02  0.56244401333E+03  0.57171602775E+03  0.78066292580E+02 0.  0.
        -13    1    3    3    0    0 -0.48991925337E+02  0.72472928265E+01 -0.15638379552E+03  0.16403848177E+03  0.00000000000E+00 0.  1.
         14    1    3    3    0    0 -0.39308639413E+01 -0.44480942385E+02 -0.52552684676E+02  0.68962240345E+02  0.00000000000E+00 0. -1.
         11    1    5    5    0    0  0.15996917688E+02 -0.32650057420E+02  0.79872765098E+02  0.87758681790E+02  0.00000000000E+00 0. -1.
        -12    1    5    5    0    0 -0.14008104597E+02 -0.33815323323E+02  0.48257124823E+03  0.48395734596E+03  0.00000000000E+00 0.  1.
          5    1    4    4  501    0  0.59197519030E+02 -0.25505110216E+01  0.13802371004E+02  0.60982204053E+02  0.41800000000E+01 0. -1.
         -5    1    4    4    0  501 -0.82635428432E+01  0.10624954132E+03 -0.25720445681E+02  0.10970991249E+03  0.41800000000E+01 0. -1.
</event>
<event>
11    1  0.8299058E-009  0.1562829E+03  0.7561462E-02  0.1090626E+00
         22   -1    0    0    0    0  0.00000000000E+00  0.00000000000E+00  0.20584165566E+03  0.20584165566E+03  0.00000000000E+00 0.  1.
         22   -1    0    0    0    0 -0.00000000000E+00 -0.00000000000E+00 -0.30849642329E+03  0.30849642329E+03  0.00000000000E+00 0. -1.
         24    2    1    2    0    0  0.76522460737E+02  0.27656540692E+02 -0.73528591619E+02  0.13583527965E+03  0.80151095891E+02 0.  0.
         25    2    1    2    0    0 -0.89478328697E+02 -0.64179877981E+02 -0.15280758922E+03  0.22610389950E+03  0.12508951195E+03 0.  0.
        -24    2    1    2    0    0  0.12955867960E+02  0.36523337290E+02  0.12368141321E+03  0.15239889980E+03  0.80165603629E+02 0.  0.
        -11    1    3    3    0    0 -0.11620771131E+02 -0.11243307104E+02 -0.19651995786E+02  0.25449070998E+02  0.00000000000E+00 0.  1.
         12    1    3    3    0    0  0.88143231868E+02  0.38899847795E+02 -0.53876595833E+02  0.11038620865E+03  0.00000000000E+00 0. -1.
         13    1    5    5    0    0  0.46811233345E+01  0.60222568460E+02  0.65870725666E+02  0.89373503721E+02  0.00000000000E+00 0. -1.
        -14    1    5    5    0    0  0.82747446254E+01 -0.23699231170E+02  0.57810687540E+02  0.63025396076E+02  0.00000000000E+00 0.  1.
          5    1    4    4  501    0  0.23726243424E+02  0.70609951609E+01 -0.54658617729E+02  0.60148392927E+02  0.41800000000E+01 0. -1.
         -5    1    4    4    0  501 -0.11320457212E+03 -0.71240873142E+02 -0.98148971494E+02  0.16595550657E+03  0.41800000000E+01 0. -1.
</event>
<event>
11    1  0.8299058E-009  0.1918595E+03  0.7561462E-02  0.1060434E+00
         22   -1    0    0    0    0  0.00000000000E+00  0.00000000000E+00  0.31215550915E+04  0.31215550915E+04  0.00000000000E+00 0.  1.
         22   -1    0    0    0    0 -0.00000000000E+00 -0.00000000000E+00 -0.69668718704E+03  0.69668718704E+03  0.00000000000E+00 0. -1.
        -24    2    1    2    0    0  0.10458433234E+03 -0.10009202849E+03 -0.66241079643E+03  0.68292359099E+03  0.81487858958E+02 0.  0.
         25    2    1    2    0    0 -0.11158053447E+03  0.14800966117E+03  0.51720490754E+03  0.56347581399E+03  0.12508797340E+03 0.  0.
         24    2    1    2    0    0  0.69962021278E+01 -0.47917632687E+02  0.25700737933E+04  0.25718428736E+04  0.82167004839E+02 0.  0.
        -13    1    5    5    0    0  0.18264174150E+02 -0.44082329610E+01  0.19695205064E+04  0.19696101232E+04  0.00000000000E+00 0.  1.
         14    1    5    5    0    0 -0.11267972023E+02 -0.43509399726E+02  0.60055328698E+03  0.60223275032E+03  0.00000000000E+00 0. -1.
         13    1    3    3    0    0  0.61994250310E+02 -0.43787096533E+02 -0.50144237941E+03  0.50715387878E+03  0.00000000000E+00 0. -1.
        -14    1    3    3    0    0  0.42590082035E+02 -0.56304931955E+02 -0.16096841702E+03  0.17576971220E+03  0.00000000000E+00 0.  1.
          5    1    4    4  501    0 -0.23284030593E+00  0.50484090643E+02  0.42221384897E+02  0.65945548487E+02  0.41800000000E+01 0.  1.
         -5    1    4    4    0  501 -0.11134769417E+03  0.97525570531E+02  0.47498352264E+03  0.49753026550E+03  0.41800000000E+01 0.  1.
</event>
<event>
11    1  0.8299058E-009  0.1677224E+03  0.7561462E-02  0.1080031E+00
         22   -1    0    0    0    0  0.00000000000E+00  0.00000000000E+00  0.25917937398E+04  0.25917937398E+04  0.00000000000E+00 0.  1.
         22   -1    0    0    0    0 -0.00000000000E+00 -0.00000000000E+00 -0.10267578573E+03  0.10267578573E+03  0.00000000000E+00 0.  1.
         24    2    1    2    0    0 -0.12001062813E+03 -0.21567980745E+02 -0.30176361577E+02  0.14755727857E+03  0.77426151924E+02 0.  0.
         25    2    1    2    0    0  0.23508625422E+02  0.64036434450E+02  0.42188175151E+03  0.44529282634E+03  0.12509263979E+03 0.  0.
        -24    2    1    2    0    0  0.96502002709E+02 -0.42468453705E+02  0.20974125641E+04  0.21016194206E+04  0.80922919235E+02 0.  0.
        -13    1    3    3    0    0 -0.63873776763E+02 -0.27083444753E+02  0.19850016535E+02  0.72162285816E+02  0.00000000000E+00 0.  1.
         14    1    3    3    0    0 -0.56136851368E+02  0.55154640084E+01 -0.50026378112E+02  0.75394992750E+02  0.00000000000E+00 0. -1.
         11    1    5    5    0    0  0.27180026562E+02 -0.45886318098E+02  0.53139402626E+03  0.53406359094E+03  0.00000000000E+00 0. -1.
        -12    1    5    5    0    0  0.69321976147E+02  0.34178643927E+01  0.15660185379E+04  0.15675558297E+04  0.00000000000E+00 0.  1.
          5    1    4    4  501    0  0.85160663573E+01  0.10041860939E+03  0.26644251935E+03  0.28489561074E+03  0.41800000000E+01 0. -1.
         -5    1    4    4    0  501  0.14992559065E+02 -0.36382174942E+02  0.15543923216E+03  0.16039721561E+03  0.41800000000E+01 0. -1.
</event>
<event>
11    1  0.8299058E-009  0.1682531E+03  0.7561462E-02  0.1079562E+00
         22   -1    0    0    0    0  0.00000000000E+00  0.00000000000E+00  0.22416187572E+04  0.22416187572E+04  0.00000000000E+00 0.  1.
         22   -1    0    0    0    0 -0.00000000000E+00 -0.00000000000E+00 -0.41145185750E+03  0.41145185750E+03  0.00000000000E+00 0. -1.
        -24    2    1    2    0    0 -0.78008117976E+02  0.79497696739E+02 -0.31591610992E+03  0.34398738547E+03  0.78225204369E+02 0.  0.
         25    2    1    2    0    0  0.13038022422E+03 -0.38894848300E+02  0.26254278662E+02  0.18666998327E+03  0.12507830913E+03 0.  0.
         24    2    1    2    0    0 -0.52372106244E+02 -0.40602848439E+02  0.21198287310E+04  0.21224132460E+04  0.81072246948E+02 0.  0.
        -11    1    5    5    0    0 -0.65315403545E+01 -0.25642300164E+02  0.16304297050E+04  0.16306444160E+04  0.00000000000E+00 0.  1.
         12    1    5    5    0    0 -0.45840565890E+02 -0.14960548275E+02  0.48939902598E+03  0.49176882995E+03  0.00000000000E+00 0. -1.
         13    1    3    3    0    0 -0.71896309584E+02  0.93614207435E+02 -0.25242613435E+03  0.27866046090E+03  0.00000000000E+00 0. -1.
        -14    1    3    3    0    0 -0.61118083917E+01 -0.14116510695E+02 -0.63489975574E+02  0.65326924575E+02  0.00000000000E+00 0.  1.
          5    1    4    4  501    0  0.14602442650E+03 -0.43138539906E+02 -0.36889553391E+01  0.15236517828E+03  0.41800000000E+01 0.  1.
         -5    1    4    4    0  501 -0.15644202280E+02  0.42436916056E+01  0.29943234001E+02  0.34304804997E+02  0.41800000000E+01 0.  1.
</event>
<event>
11    1  0.8299058E-009  0.1625204E+03  0.7561462E-02  0.1084730E+00
         22   -1    0    0    0    0  0.00000000000E+00  0.00000000000E+00  0.24814156709E+03  0.24814156709E+03  0.00000000000E+00 0.  1.
         22   -1    0    0    0    0 -0.00000000000E+00 -0.00000000000E+00 -0.77236521497E+03  0.77236521497E+03  0.00000000000E+00 0. -1.
         24    2    1    2    0    0  0.16743927326E+02  0.36058957916E+02 -0.50417269443E+03  0.51208326411E+03  0.80365141846E+02 0.  0.
         25    2    1    2    0    0  0.55644928028E+01  0.68324638598E+02 -0.22301433475E+03  0.26473051507E+03  0.12509049639E+03 0.  0.
        -24    2    1    2    0    0 -0.22308420129E+02 -0.10438359651E+03  0.20296338129E+03  0.24369300288E+03  0.82453287862E+02 0.  0.
        -13    1    3    3    0    0  0.42606899718E+02  0.49779096737E+01 -0.16405555983E+03  0.16957108893E+03  0.00000000000E+00 0.  1.
         14    1    3    3    0    0 -0.25862972391E+02  0.31081048242E+02 -0.34011713460E+03  0.34251217518E+03  0.00000000000E+00 0. -1.
         11    1    5    5    0    0 -0.92130437346E+01 -0.58927341640E+02  0.34910243952E+02  0.69108877146E+02  0.00000000000E+00 0. -1.
        -12    1    5    5    0    0 -0.13095376395E+02 -0.45456254875E+02  0.16805313734E+03  0.17458412574E+03  0.00000000000E+00 0.  1.
          5    1    4    4  501    0  0.54017104576E+02  0.60627271514E+02 -0.82472798683E+02  0.11581342133E+03  0.41800000000E+01 0.  1.
         -5    1    4    4    0  501 -0.48452611773E+02  0.76973670847E+01 -0.14054153606E+03  0.14891709374E+03  0.41800000000E+01 0.  1.
</event>
<event>
11    1  0.8299058E-009  0.1557035E+03  0.7561462E-02  0.1091189E+00
         22   -1    0    0    0    0  0.00000000000E+00  0.00000000000E+00  0.84556953539E+03  0.84556953539E+03  0.00000000000E+00 0.  1.
         22   -1    0    0    0    0 -0.00000000000E+00 -0.00000000000E+00 -0.31322414177E+03  0.31322414177E+03  0.00000000000E+00 0.  1.
        -24    2    1    2    0    0  0.38855537852E+02 -0.89973117291E+02 -0.24391282075E+03  0.27378401875E+03  0.76546130817E+02 0.  0.
         25    2    1    2    0    0 -0.30486887075E+01  0.62462589921E+02  0.44150810630E+02  0.14665674136E+03  0.12509211032E+03 0.  0.
         24    2    1    2    0    0 -0.35806849144E+02  0.27510527369E+02  0.73210740374E+03  0.73835291705E+03  0.84527036753E+02 0.  0.
        -13    1    5    5    0    0  0.16657183233E+02  0.38730791285E+02  0.32980628875E+03  0.33249018639E+03  0.00000000000E+00 0.  1.
         14    1    5    5    0    0 -0.52464032377E+02 -0.11220263915E+02  0.40230111499E+03  0.40586273066E+03  0.00000000000E+00 0. -1.
         13    1    3    3    0    0 -0.18418683855E+02 -0.17195488425E+02 -0.96151817372E+02  0.99398715892E+02  0.00000000000E+00 0. -1.
        -14    1    3    3    0    0  0.57274221707E+02 -0.72777628865E+02 -0.14776100338E+03  0.17438530286E+03  0.00000000000E+00 0.  1.
          5    1    4    4  501    0  0.44160086395E+02  0.13519830848E+02  0.60855496778E+02  0.76509887888E+02  0.41800000000E+01 0. -1.
         -5    1    4    4    0  501 -0.47208775103E+02  0.48942759074E+02 -0.16704686148E+02  0.70146853470E+02  0.41800000000E+01 0. -1.
</event>
<event>
11    1  0.8299058E-009  0.1699711E+03  0.7561462E-02  0.1078057E+00
         22   -1    0    0    0    0  0.00000000000E+00  0.00000000000E+00  0.21352022487E+03  0.21352022487E+03  0.00000000000E+00 0. -1.
         22   -1    0    0    0    0 -0.00000000000E+00 -0.00000000000E+00 -0.64898397118E+03  0.64898397118E+03  0.00000000000E+00 0. -1.
         24    2    1    2    0    0  0.46784650486E+02 -0.65277825561E+02 -0.37207978975E+03  0.38934477104E+03  0.81828984873E+02 0.  0.
         25    2    1    2    0    0  0.68211907490E+02  0.25477205766E+02 -0.21906481181E+03  0.26256205282E+03  0.12508991755E+03 0.  0.
        -24    2    1    2    0    0 -0.11499655798E+03  0.39800619796E+02  0.15568085525E+03  0.21059737218E+03  0.72845224937E+02 0.  0.
        -11    1    3    3    0    0  0.49922984135E+02 -0.29341921172E+02 -0.10560495439E+03  0.12043944153E+03  0.00000000000E+00 0.  1.
         12    1    3    3    0    0 -0.31383336483E+01 -0.35935904389E+02 -0.26647483536E+03  0.26890532952E+03  0.00000000000E+00 0. -1.
         13    1    5    5    0    0 -0.49718325554E+02  0.41898837941E+02  0.11922081004E+03  0.13579773953E+03  0.00000000000E+00 0. -1.
        -14    1    5    5    0    0 -0.65278232422E+02 -0.20982181450E+01  0.36460045218E+02  0.74799632652E+02  0.00000000000E+00 0.  1.
          5    1    4    4  501    0 -0.23782181803E+02  0.43460364020E+02 -0.60406709369E+02  0.78235786881E+02  0.41800000000E+01 0. -1.
         -5    1    4    4    0  501  0.91994089293E+02 -0.17983158255E+02 -0.15865810244E+03  0.18432626594E+03  0.41800000000E+01 0. -1.
</event>
<event>
11    1  0.8299058E-009  0.1425069E+03  0.7561462E-02  0.1104791E+00
         22   -1    0    0    0    0  0.00000000000E+00  0.00000000000E+00  0.19741502590E+03  0.19741502590E+03  0.00000000000E+00 0. -1.
         22   -1    0    0    0    0 -0.00000000000E+00 -0.00000000000E+00 -0.11234802935E+04  0.11234802935E+04  0.00000000000E+00 0.  1.
         24    2    1    2    0    0  0.66171808820E+01  0.41311536137E+02 -0.99457895581E+03  0.99874381287E+03  0.80941178048E+02 0.  0.
         25    2    1    2    0    0 -0.57109950919E+02 -0.79867517904E+02 -0.48831805506E+02  0.16635052599E+03  0.12509030881E+03 0.  0.
        -24    2    1    2    0    0  0.50492770037E+02  0.38555981767E+02  0.11734549372E+03  0.15580098054E+03  0.80423237211E+02 0.  0.
        -13    1    3    3    0    0  0.85871807124E+01  0.43161324026E+02 -0.99503121473E+03  0.99600389449E+03  0.00000000000E+00 0.  1.
         14    1    3    3    0    0 -0.19699998304E+01 -0.18497878893E+01  0.45225891908E+00  0.27399183742E+01  0.00000000000E+00 0. -1.
         13    1    5    5    0    0  0.48618827298E+02  0.44322757662E+02  0.12778600841E+03  0.14372738486E+03  0.00000000000E+00 0. -1.
        -14    1    5    5    0    0  0.18739427395E+01 -0.57667758946E+01 -0.10440514686E+02  0.12073595675E+02  0.00000000000E+00 0.  1.
          5    1    4    4  501    0 -0.31570746454E+02  0.10409723704E+02 -0.63018839192E+02  0.71371709187E+02  0.41800000000E+01 0.  1.
         -5    1    4    4    0  501 -0.25539204465E+02 -0.90277241608E+02  0.14187033686E+02  0.94978816806E+02  0.41800000000E+01 0.  1.
</event>
<event>
11    1  0.8299058E-009  0.3604950E+03  0.7561462E-02  0.9774096E-01
         22   -1    0    0    0    0  0.00000000000E+00  0.00000000000E+00  0.10747438443E+04  0.10747438443E+04  0.00000000000E+00 0. -1.
         22   -1    0    0    0    0 -0.00000000000E+00 -0.00000000000E+00 -0.21558291950E+04  0.21558291950E+04  0.00000000000E+00 0.  1.
        -24    2    1    2    0    0  0.33118007928E+03 -0.61541798645E+02 -0.20681207722E+04  0.20969567682E+04  0.81464847449E+02 0.  0.
         25    2    1    2    0    0 -0.40386483634E+03  0.11719858365E+02  0.64494633200E+03  0.77126356417E+03  0.12509018005E+03 0.  0.
         24    2    1    2    0    0  0.72684757061E+02  0.49821940280E+02  0.34208908951E+03  0.36235270693E+03  0.80679857548E+02 0.  0.
        -13    1    5    5    0    0  0.23043670087E+01 -0.15538468086E+02  0.16040261398E+02  0.22450926117E+02  0.00000000000E+00 0.  1.
         14    1    5    5    0    0  0.70380390052E+02  0.65360408366E+02  0.32604882812E+03  0.33990178082E+03  0.00000000000E+00 0. -1.
         11    1    3    3    0    0  0.12046150196E+02  0.71278555708E+01 -0.20319464236E+03  0.20367616145E+03  0.00000000000E+00 0. -1.
        -12    1    3    3    0    0  0.31913392908E+03 -0.68669654216E+02 -0.18649261298E+04  0.18932806067E+04  0.00000000000E+00 0.  1.
          5    1    4    4  501    0 -0.65179607607E+02  0.47293152057E+02  0.15270473703E+03  0.17268825262E+03  0.41800000000E+01 0. -1.
         -5    1    4    4    0  501 -0.33868522873E+03 -0.35573293693E+02  0.49224159497E+03  0.59857531155E+03  0.41800000000E+01 0. -1.
</event>
<event>
11    1  0.8299058E-009  0.1390923E+03  0.7561462E-02  0.1108576E+00
         22   -1    0    0    0    0  0.00000000000E+00  0.00000000000E+00  0.29321212099E+03  0.29321212099E+03  0.00000000000E+00 0. -1.
         22   -1    0    0    0    0 -0.00000000000E+00 -0.00000000000E+00 -0.75562609585E+03  0.75562609585E+03  0.00000000000E+00 0. -1.
        -24    2    1    2    0    0  0.33797314844E+01  0.62491315348E+02 -0.66789156812E+03  0.67529422129E+03  0.77630866706E+02 0.  0.
         25    2    1    2    0    0  0.28063789004E+02 -0.34130892146E+02 -0.16745312415E+02  0.13371702195E+03  0.12508933775E+03 0.  0.
         24    2    1    2    0    0 -0.31443520488E+02 -0.28360423202E+02  0.22222290568E+03  0.23982697360E+03  0.79630075179E+02 0.  0.
        -11    1    5    5    0    0 -0.47611636398E+02  0.98997491480E+01  0.11718578249E+03  0.12687545299E+03  0.00000000000E+00 0.  1.
         12    1    5    5    0    0  0.16168115910E+02 -0.38260172350E+02  0.10503712319E+03  0.11295152061E+03  0.00000000000E+00 0. -1.
         11    1    3    3    0    0  0.79981868972E+01  0.12406421905E+02 -0.49537935104E+03  0.49559922491E+03  0.00000000000E+00 0. -1.
        -12    1    3    3    0    0 -0.46184554127E+01  0.50084893443E+02 -0.17251221708E+03  0.17969499638E+03  0.00000000000E+00 0.  1.
          5    1    4    4  501    0  0.42211471472E+02  0.38133091930E+02  0.37681171442E+01  0.57163031155E+02  0.41800000000E+01 0. -1.
         -5    1    4    4    0  501 -0.14147682468E+02 -0.72263984076E+02 -0.20513429559E+02  0.76553990791E+02  0.41800000000E+01 0. -1.
</event>
<event>
11    1  0.8299058E-009  0.1341194E+03  0.7561462E-02  0.1114309E+00
         22   -1    0    0    0    0  0.00000000000E+00  0.00000000000E+00  0.11553276001E+04  0.11553276001E+04  0.00000000000E+00 0. -1.
         22   -1    0    0    0    0 -0.00000000000E+00 -0.00000000000E+00 -0.34294518189E+03  0.34294518189E+03  0.00000000000E+00 0. -1.
        -24    2    1    2    0    0  0.47847328321E+02 -0.82390105056E+01 -0.32143490357E+03  0.33491789071E+03  0.80575108847E+02 0.  0.
         25    2    1    2    0    0 -0.38782337495E+02  0.83359701993E+01  0.32470402124E+03  0.35021985453E+03  0.12509071507E+03 0.  0.
         24    2    1    2    0    0 -0.90649908254E+01 -0.96959693769E-01  0.80911330055E+03  0.81313503676E+03  0.80262515710E+02 0.  0.
        -13    1    5    5    0    0 -0.22922260711E+02 -0.35641889151E+02  0.45730341000E+03  0.45926265154E+03  0.00000000000E+00 0.  1.
         14    1    5    5    0    0  0.13857269886E+02  0.35544929457E+02  0.35180989054E+03  0.35387238522E+03  0.00000000000E+00 0. -1.
         11    1    3    3    0    0  0.18226226763E+02  0.28045876443E+02 -0.22757034331E+03  0.23001527706E+03  0.00000000000E+00 0. -1.
        -12    1    3    3    0    0  0.29621101557E+02 -0.36284886949E+02 -0.93864560261E+02  0.10490261365E+03  0.00000000000E+00 0.  1.
          5    1    4    4  501    0  0.37693438222E+00 -0.24855243358E+02  0.41399688948E+01  0.25544802688E+02  0.41800000000E+01 0.  1.
         -5    1    4    4    0  501 -0.39159271877E+02  0.33191213558E+02  0.32056405234E+03  0.32467505184E+03  0.41800000000E+01 0.  1.
</event>
<event>
11    1  0.8299058E-009  0.1490149E+03  0.7561462E-02  0.1097890E+00
         22   -1    0    0    0    0  0.00000000000E+00  0.00000000000E+00  0.93429086574E+03  0.93429086574E+03  0.00000000000E+00 0.  1.
         22   -1    0    0    0    0 -0.00000000000E+00 -0.00000000000E+00 -0.12490352206E+04  0.12490352206E+04  0.00000000000E+00 0.  1.
         24    2    1    2    0    0  0.27738126863E+02 -0.73030383231E+02 -0.10840779646E+04  0.10897945087E+04  0.79524821949E+02 0.  0.
         25    2    1    2    0    0 -0.33977326399E+02  0.13048609686E+03 -0.10621901130E+03  0.21239350563E+03  0.12508973855E+03 0.  0.
        -24    2    1    2    0    0  0.62391995360E+01 -0.57455713632E+02  0.87555262103E+03  0.88113807201E+03  0.80447642124E+02 0.  0.
        -13    1    3    3    0    0  0.12163615224E+02 -0.58382444250E+02 -0.10287815389E+04  0.10305085725E+04  0.00000000000E+00 0.  1.
         14    1    3    3    0    0  0.15574511639E+02 -0.14647938981E+02 -0.55296425691E+02  0.59285936135E+02  0.00000000000E+00 0. -1.
         13    1    5    5    0    0  0.30938893147E+02 -0.36491917304E+02  0.23789491765E+03  0.24265792173E+03  0.00000000000E+00 0. -1.
        -14    1    5    5    0    0 -0.24699693611E+02 -0.20963796328E+02  0.63765770338E+03  0.63848015028E+03  0.00000000000E+00 0.  1.
          5    1    4    4  501    0 -0.51852307475E+02  0.68345706088E+01 -0.58517219293E+02  0.78594595868E+02  0.41800000000E+01 0.  1.
         -5    1    4    4    0  501  0.17874981076E+02  0.12365152625E+03 -0.47701792009E+02  0.13379890976E+03  0.41800000000E+01 0.  1.
</event>
<event>
11    1  0.8299058E-009  0.4820663E+03  0.7561462E-02  0.9434512E-01
         22   -1    0    0    0    0  0.00000000000E+00  0.00000000000E+00  0.55243144832E+03  0.55243144832E+03  0.00000000000E+00 0. -1.
         22   -1    0    0    0    0 -0.00000000000E+00 -0.00000000000E+00 -0.67705609025E+03  0.67705609025E+03  0.00000000000E+00 0.  1.
        -24    2    1    2    0    0 -0.17267265522E+02  0.13903696039E+02 -0.28863469503E+02  0.88545198307E+02  0.80719768640E+02 0.  0.
         25    2    1    2    0    0  0.46934122980E+03 -0.10483125187E+03 -0.35017105867E+03  0.60788772703E+03  0.12504773883E+03 0.  0.
         24    2    1    2    0    0 -0.45207396428E+03  0.90927555826E+02  0.25440988625E+03  0.53305461324E+03  0.82365896394E+02 0.  0.
        -11    1    5    5    0    0 -0.22727371056E+03  0.68496488653E+02  0.90925324978E+02  0.25418993527E+03  0.00000000000E+00 0.  1.
         12    1    5    5    0    0 -0.22480025371E+03  0.22431067173E+02  0.16348456127E+03  0.27886467797E+03  0.00000000000E+00 0. -1.
         13    1    3    3    0    0 -0.33875500720E+02  0.76139237367E+01 -0.50041062188E+02  0.60906726136E+02  0.00000000000E+00 0. -1.
        -14    1    3    3    0    0  0.16608235198E+02  0.62897723026E+01  0.21177592685E+02  0.27638472171E+02  0.00000000000E+00 0.  1.
          5    1    4    4  501    0  0.27699301684E+03 -0.11872631909E+03 -0.24347071783E+03  0.38744874895E+03  0.41800000000E+01 0.  1.
         -5    1    4    4    0  501  0.19234821296E+03  0.13895067223E+02 -0.10670034084E+03  0.22043897808E+03  0.41800000000E+01 0.  1.
</event>
<event>
11    1  0.8299058E-009  0.1442947E+03  0.7561462E-02  0.1102855E+00
         22   -1    0    0    0    0  0.00000000000E+00  0.00000000000E+00  0.89045685578E+02  0.89045685578E+02  0.00000000000E+00 0. -1.
         22   -1    0    0    0    0 -0.00000000000E+00 -0.00000000000E+00 -0.12386401462E+04  0.12386401462E+04  0.00000000000E+00 0. -1.
        -24    2    1    2    0    0 -0.70936023505E+02  0.15195988668E+02 -0.98891362151E+03  0.99469813449E+03  0.78812375019E+02 0.  0.
         25    2    1    2    0    0  0.63750084853E+02 -0.22024077614E+02 -0.19821662688E+03  0.24389976292E+03  0.12509248525E+03 0.  0.
         24    2    1    2    0    0  0.71859386523E+01  0.68280889460E+01  0.37535787789E+02  0.89087934345E+02  0.80183939588E+02 0.  0.
        -11    1    5    5    0    0  0.10111521414E+02  0.43167055911E+02  0.20264960776E+02  0.48747371381E+02  0.00000000000E+00 0.  1.
         12    1    5    5    0    0 -0.29255827613E+01 -0.36338966965E+02  0.17270827013E+02  0.40340562964E+02  0.00000000000E+00 0. -1.
         13    1    3    3    0    0 -0.12213488149E+02  0.40437377849E+02 -0.46031044385E+03  0.46224458410E+03  0.00000000000E+00 0. -1.
        -14    1    3    3    0    0 -0.58722535356E+02 -0.25241389181E+02 -0.52860317766E+03  0.53245355039E+03  0.00000000000E+00 0.  1.
          5    1    4    4  501    0  0.10224334211E+02 -0.89166434596E+01  0.16742158541E+02  0.21950303261E+02  0.41800000000E+01 0.  1.
         -5    1    4    4    0  501  0.53525750642E+02 -0.13107434154E+02 -0.21495878542E+03  0.22194945966E+03  0.41800000000E+01 0.  1.
</event>
<event>
11    1  0.8299058E-009  0.2972215E+03  0.7561462E-02  0.1001374E+00
         22   -1    0    0    0    0  0.00000000000E+00  0.00000000000E+00  0.73867006689E+03  0.73867006689E+03  0.00000000000E+00 0. -1.
         22   -1    0    0    0    0 -0.00000000000E+00 -0.00000000000E+00 -0.19062394943E+03  0.19062394943E+03  0.00000000000E+00 0. -1.
         24    2    1    2    0    0 -0.22640923040E+03  0.13511640322E+03  0.81439134346E+02  0.28708089741E+03  0.79155082143E+02 0.  0.
         25    2    1    2    0    0  0.25134839119E+03 -0.12245439660E+03  0.20921659841E+03  0.37093124569E+03  0.12508921210E+03 0.  0.
        -24    2    1    2    0    0 -0.24939160787E+02 -0.12662006616E+02  0.25739038471E+03  0.27128187322E+03  0.81004669278E+02 0.  0.
        -11    1    3    3    0    0 -0.93616272358E+02  0.12966092547E+02  0.21169298750E+02  0.96851769296E+02  0.00000000000E+00 0.  1.
         12    1    3    3    0    0 -0.13279295804E+03  0.12215031067E+03  0.60269835596E+02  0.19022912812E+03  0.00000000000E+00 0. -1.
         11    1    5    5    0    0 -0.10165427827E+02  0.32728302030E+02  0.70449115698E+02  0.78342552801E+02  0.00000000000E+00 0. -1.
        -12    1    5    5    0    0 -0.14773732959E+02 -0.45390308646E+02  0.18694126901E+03  0.19293932042E+03  0.00000000000E+00 0.  1.
          5    1    4    4  501    0  0.21872744852E+03 -0.59707933975E+02  0.11860408720E+03  0.25591236003E+03  0.41800000000E+01 0. -1.
         -5    1    4    4    0  501  0.32620942668E+02 -0.62746462624E+02  0.90612511207E+02  0.11501888567E+03  0.41800000000E+01 0. -1.
</event>
<event>
11    1  0.8299058E-009  0.1421768E+03  0.7561462E-02  0.1105152E+00
         22   -1    0    0    0    0  0.00000000000E+00  0.00000000000E+00  0.11253328142E+04  0.11253328142E+04  0.00000000000E+00 0. -1.
         22   -1    0    0    0    0 -0.00000000000E+00 -0.00000000000E+00 -0.12592595623E+04  0.12592595623E+04  0.00000000000E+00 0. -1.
        -24    2    1    2    0    0  0.22250191092E+02 -0.23091864215E+02 -0.10746005609E+04  0.10780520417E+04  0.80009586678E+02 0.  0.
         25    2    1    2    0    0  0.45535892509E+02  0.26330955546E+02 -0.15492255302E+03  0.20595041255E+03  0.12509092001E+03 0.  0.
         24    2    1    2    0    0 -0.67786083602E+02 -0.32390913308E+01  0.10955963659E+04  0.11005899222E+04  0.79757978390E+02 0.  0.
        -13    1    5    5    0    0 -0.13031039363E+02 -0.24438670441E+02  0.11698700652E+03  0.12022069827E+03  0.00000000000E+00 0.  1.
         14    1    5    5    0    0 -0.54755044239E+02  0.21199579110E+02  0.97860935934E+03  0.98036922392E+03  0.00000000000E+00 0. -1.
         13    1    3    3    0    0 -0.12115269516E+02  0.14381184723E+02 -0.67072658677E+03  0.67099012841E+03  0.00000000000E+00 0. -1.
        -14    1    3    3    0    0  0.34365460608E+02 -0.37473048938E+02 -0.40387397413E+03  0.40706191330E+03  0.00000000000E+00 0.  1.
          5    1    4    4  501    0  0.64430366208E+02 -0.32939189230E+02 -0.71609685561E+02  0.10189053804E+03  0.41800000000E+01 0. -1.
         -5    1    4    4    0  501 -0.18894473698E+02  0.59270144776E+02 -0.83312867456E+02  0.10405987450E+03  0.41800000000E+01 0. -1.
</event>
<event>
11    1  0.8299058E-009  0.2209481E+03  0.7561462E-02  0.1040625E+00
         22   -1    0    0    0    0  0.00000000000E+00  0.00000000000E+00  0.95929371339E+03  0.95929371339E+03  0.00000000000E+00 0.  1.
         22   -1    0    0    0    0 -0.00000000000E+00 -0.00000000000E+00 -0.90907100147E+03  0.90907100147E+03  0.00000000000E+00 0.  1.
         24    2    1    2    0    0 -0.17254057589E+03 -0.42058666654E+02 -0.77321752222E+03  0.79749396697E+03  0.81191803225E+02 0.  0.
         25    2    1    2    0    0  0.28868684259E+03 -0.64156782366E+02  0.11624158423E+03  0.34149039604E+03  0.12508956343E+03 0.  0.
        -24    2    1    2    0    0 -0.11614626669E+03  0.10621544902E+03  0.70719864991E+03  0.72938035185E+03  0.84226423185E+02 0.  0.
        -13    1    3    3    0    0 -0.17891284497E+03 -0.45322927705E+02 -0.76308145076E+03  0.78508424666E+03  0.00000000000E+00 0.  1.
         14    1    3    3    0    0  0.63722690713E+01  0.32642610508E+01 -0.10136071462E+02  0.12409720304E+02  0.00000000000E+00 0. -1.
         13    1    5    5    0    0 -0.38669347061E+01  0.12122695731E+02  0.80676404134E+01  0.15066511131E+02  0.00000000000E+00 0. -1.
        -14    1    5    5    0    0 -0.11227933199E+03  0.94092753289E+02  0.69913100949E+03  0.71431384072E+03  0.00000000000E+00 0.  1.
          5    1    4    4  501    0  0.16436701449E+03 -0.41177239638E+02  0.13088536963E+03  0.21415072472E+03  0.41800000000E+01 0. -1.
         -5    1    4    4    0  501  0.12431982809E+03 -0.22979542727E+02 -0.14643785392E+02  0.12733967132E+03  0.41800000000E+01 0. -1.
</event>
<event>
11    1  0.8299058E-009  0.1328895E+03  0.7561462E-02  0.1115769E+00
         22   -1    0    0    0    0  0.00000000000E+00  0.00000000000E+00  0.56642022840E+03  0.56642022840E+03  0.00000000000E+00 0. -1.
         22   -1    0    0    0    0 -0.00000000000E+00 -0.00000000000E+00 -0.67768778795E+02  0.67768778795E+02  0.00000000000E+00 0. -1.
        -24    2    1    2    0    0  0.30449736880E+02  0.34273863883E+02  0.93986446059E+01  0.92730615821E+02  0.80054658631E+02 0.  0.
         25    2    1    2    0    0 -0.19746682572E+02 -0.36733009506E+02  0.19149227451E+03  0.23249842945E+03  0.12508790125E+03 0.  0.
         24    2    1    2    0    0 -0.10703054309E+02  0.24591456233E+01  0.29776053049E+03  0.30895996192E+03  0.81696522496E+02 0.  0.
        -13    1    5    5    0    0 -0.66056408901E+01  0.34237347053E+02  0.62852069830E+02  0.71876373773E+02  0.00000000000E+00 0.  1.
         14    1    5    5    0    0 -0.40974134185E+01 -0.31778201430E+02  0.23490846066E+03  0.23708358815E+03  0.00000000000E+00 0. -1.
         11    1    3    3    0    0  0.34873404068E+02  0.38902674517E+02 -0.24874450954E+02  0.57864589398E+02  0.00000000000E+00 0. -1.
        -12    1    3    3    0    0 -0.44236671882E+01 -0.46288106343E+01  0.34273095560E+02  0.34866026423E+02  0.00000000000E+00 0.  1.
          5    1    4    4  501    0 -0.56623196958E+02 -0.44611328144E+02  0.54823107022E+02  0.90660920446E+02  0.41800000000E+01 0. -1.
         -5    1    4    4    0  501  0.36876514387E+02  0.78783186377E+01  0.13666916749E+03  0.14183750901E+03  0.41800000000E+01 0. -1.
</event>
<event>
11    1  0.8299058E-009  0.1820065E+03  0.7561462E-02  0.1068031E+00
         22   -1    0    0    0    0  0.00000000000E+00  0.00000000000E+00  0.24792699520E+04  0.24792699520E+04  0.00000000000E+00 0. -1.
         22   -1    0    0    0    0 -0.00000000000E+00 -0.00000000000E+00 -0.61817379896E+03  0.61817379896E+03  0.00000000000E+00 0.  1.
         24    2    1    2    0    0 -0.45354238412E+02 -0.12383919311E+03 -0.54502192405E+03  0.56622399169E+03  0.78533804094E+02 0.  0.
         25    2    1    2    0    0  0.30802982265E+02  0.13399718442E+03  0.77711789282E+02  0.20147068440E+03  0.12508894968E+03 0.  0.
        -24    2    1    2    0    0  0.14551256147E+02 -0.10157991307E+02  0.23284062878E+04  0.23297490749E+04  0.77071310420E+02 0.  0.
        -13    1    3    3    0    0 -0.46861016770E+02 -0.78053476044E+02 -0.46663009337E+03  0.47542816918E+03  0.00000000000E+00 0.  1.
         14    1    3    3    0    0  0.15067783575E+01 -0.45785717067E+02 -0.78391830679E+02  0.90795822511E+02  0.00000000000E+00 0. -1.
         11    1    5    5    0    0 -0.31121685025E+02 -0.70633591193E+01  0.74910442851E+03  0.74978389896E+03  0.00000000000E+00 0. -1.
        -12    1    5    5    0    0  0.45672941172E+02 -0.30946321878E+01  0.15793018593E+04  0.15799651759E+04  0.00000000000E+00 0.  1.
          5    1    4    4  501    0 -0.44354639286E+02  0.39795730665E+02  0.49625482835E+02  0.77660769710E+02  0.41800000000E+01 0. -1.
         -5    1    4    4    0  501  0.75157621552E+02  0.94201453752E+02  0.28086306447E+02  0.12380991469E+03  0.41800000000E+01 0. -1.
</event>
<event>
11    1  0.8299058E-009  0.1379783E+03  0.7561462E-02  0.1109837E+00
         22   -1    0    0    0    0  0.00000000000E+00  0.00000000000E+00  0.20306173382E+04  0.20306173382E+04  0.00000000000E+00 0.  1.
         22   -1    0    0    0    0 -0.00000000000E+00 -0.00000000000E+00 -0.70501843256E+03  0.70501843256E+03  0.00000000000E+00 0. -1.
        -24    2    1    2    0    0 -0.11170211009E+02  0.41054555327E+02 -0.57856896319E+03  0.58611249995E+03  0.83519861708E+02 0.  0.
         25    2    1    2    0    0  0.26590057365E+02  0.15538024004E+02 -0.87032881048E+02  0.15546867362E+03  0.12508926714E+03 0.  0.
         24    2    1    2    0    0 -0.15419846356E+02 -0.56592579331E+02  0.19912007499E+04  0.19940545972E+04  0.89066371716E+02 0.  0.
        -13    1    5    5    0    0  0.23826511439E+02 -0.62429435053E+02  0.11982166635E+04  0.12000784598E+04  0.00000000000E+00 0.  1.
         14    1    5    5    0    0 -0.39246357794E+02  0.58368557221E+01  0.79298408641E+03  0.79397613741E+03  0.00000000000E+00 0. -1.
         11    1    3    3    0    0 -0.19656677804E+02  0.58048856586E+02 -0.53606537150E+03  0.53955735307E+03  0.00000000000E+00 0. -1.
        -12    1    3    3    0    0  0.84864667949E+01 -0.16994301259E+02 -0.42503591694E+02  0.46555146878E+02  0.00000000000E+00 0.  1.
          5    1    4    4  501    0 -0.37585836284E+02 -0.30512243828E+02 -0.43300074581E+02  0.65085028780E+02  0.41800000000E+01 0.  1.
         -5    1    4    4    0  501  0.64175893649E+02  0.46050267832E+02 -0.43732806467E+02  0.90383644840E+02  0.41800000000E+01 0.  1.
</event>
<event>
11    1  0.8299058E-009  0.1738984E+03  0.7561462E-02  0.1074688E+00
         22   -1    0    0    0    0  0.00000000000E+00  0.00000000000E+00  0.76285920054E+03  0.76285920054E+03  0.00000000000E+00 0. -1.
         22   -1    0    0    0    0 -0.00000000000E+00 -0.00000000000E+00 -0.58221446487E+03  0.58221446487E+03  0.00000000000E+00 0.  1.
         24    2    1    2    0    0 -0.59071381532E+02 -0.94629468496E+02 -0.30376792047E+03  0.33289704398E+03  0.78110997685E+02 0.  0.
         25    2    1    2    0    0  0.10323386088E+03  0.10290294014E+03 -0.22547935675E+03  0.29619741463E+03  0.12508286451E+03 0.  0.
        -24    2    1    2    0    0 -0.44162479347E+02 -0.82734716466E+01  0.70989201288E+03  0.71597920680E+03  0.81613600019E+02 0.  0.
        -13    1    3    3    0    0 -0.61451225111E+02 -0.10550099423E+03 -0.25294456040E+03  0.28086947767E+03  0.00000000000E+00 0.  1.
         14    1    3    3    0    0  0.23798435791E+01  0.10871525733E+02 -0.50823360065E+02  0.52027566304E+02  0.00000000000E+00 0. -1.
         11    1    5    5    0    0 -0.67445754251E+02  0.11988175438E+01  0.47992481750E+03  0.48464233965E+03  0.00000000000E+00 0. -1.
        -12    1    5    5    0    0  0.23283274903E+02 -0.94722891905E+01  0.22996719538E+03  0.23133686715E+03  0.00000000000E+00 0.  1.
          5    1    4    4  501    0  0.32955829234E+01 -0.23548709905E+02 -0.62239926671E+02  0.66758396304E+02  0.41800000000E+01 0.  1.
         -5    1    4    4    0  501  0.99938277956E+02  0.12645165005E+03 -0.16323943008E+03  0.22943901833E+03  0.41800000000E+01 0.  1.
</event>
<event>
11    1  0.8299058E-009  0.1659455E+03  0.7561462E-02  0.1081615E+00
         22   -1    0    0    0    0  0.00000000000E+00  0.00000000000E+00  0.75674237608E+03  0.75674237608E+03  0.00000000000E+00 0.  1.
         22   -1    0    0    0    0 -0.00000000000E+00 -0.00000000000E+00 -0.62630760562E+03  0.62630760562E+03  0.00000000000E+00 0. -1.
        -24    2    1    2    0    0 -0.35315246732E+02 -0.12240594135E+02 -0.58488403497E+03  0.59123797880E+03  0.77948793499E+02 0.  0.
         25    2    1    2    0    0 -0.14214813720E+01 -0.95945395829E+02  0.18381838186E+03  0.24216905936E+03  0.12509642765E+03 0.  0.
         24    2    1    2    0    0  0.36736728104E+02  0.10818598996E+03  0.53150042358E+03  0.54964294354E+03  0.80999194502E+02 0.  0.
        -11    1    5    5    0    0  0.30853019508E+01  0.10594663279E+03  0.38627504969E+03  0.40055289551E+03  0.00000000000E+00 0.  1.
         12    1    5    5    0    0  0.33651426153E+02  0.22393571735E+01  0.14522537388E+03  0.14909004803E+03  0.00000000000E+00 0. -1.
         13    1    3    3    0    0 -0.19401389750E+01  0.14600297137E+02 -0.43773538087E+03  0.43798310068E+03  0.00000000000E+00 0. -1.
        -14    1    3    3    0    0 -0.33375107757E+02 -0.26840891272E+02 -0.14714865410E+03  0.15325487812E+03  0.00000000000E+00 0.  1.
          5    1    4    4  501    0 -0.52275199658E+02 -0.88322158183E+02  0.97592196429E+02  0.14168701186E+03  0.41800000000E+01 0. -1.
         -5    1    4    4    0  501  0.50853718286E+02 -0.76232376461E+01  0.86226185434E+02  0.10048204750E+03  0.41800000000E+01 0. -1.
</event>
<event>
11    1  0.8299058E-009  0.1590241E+03  0.7561462E-02  0.1087999E+00
         22   -1    0    0    0    0  0.00000000000E+00  0.00000000000E+00  0.46508701818E+03  0.46508701818E+03  0.00000000000E+00 0.  1.
         22   -1    0    0    0    0 -0.00000000000E+00 -0.00000000000E+00 -0.10837725497E+04  0.10837725497E+04  0.00000000000E+00 0. -1.
         24    2    1    2    0    0  0.43756453167E+01  0.31085866103E+02 -0.29937920336E+03  0.31164147144E+03  0.80666114173E+02 0.  0.
         25    2    1    2    0    0  0.71531359643E+02 -0.93076225107E+02 -0.75981119976E+03  0.77893542164E+03  0.12508961873E+03 0.  0.
        -24    2    1    2    0    0 -0.75907004960E+02  0.61990359004E+02  0.44050487158E+03  0.45828267481E+03  0.79836020244E+02 0.  0.
        -11    1    3    3    0    0  0.18116186947E+02 -0.17813429281E+02 -0.40375572997E+02  0.47704312039E+02  0.00000000000E+00 0.  1.
         12    1    3    3    0    0 -0.13740541630E+02  0.48899295385E+02 -0.25900363036E+03  0.26393715941E+03  0.00000000000E+00 0. -1.
         11    1    5    5    0    0 -0.59631206093E+02  0.23355268050E+02  0.12955467847E+03  0.14451907832E+03  0.00000000000E+00 0. -1.
        -12    1    5    5    0    0 -0.16275798867E+02  0.38635090954E+02  0.31095019311E+03  0.31376359648E+03  0.00000000000E+00 0.  1.
          5    1    4    4  501    0  0.40938118533E+01 -0.71217647793E+02 -0.59764307768E+03  0.60189985325E+03  0.41800000000E+01 0.  1.
         -5    1    4    4    0  501  0.67437547790E+02 -0.21858577314E+02 -0.16216812209E+03  0.17703556839E+03  0.41800000000E+01 0.  1.
</event>
<event>
11    1  0.8299058E-009  0.1279354E+03  0.7561462E-02  0.1121832E+00
         22   -1    0    0    0    0  0.00000000000E+00  0.00000000000E+00  0.22559310312E+03  0.22559310312E+03  0.00000000000E+00 0.  1.
         22   -1    0    0    0    0 -0.00000000000E+00 -0.00000000000E+00 -0.23690528012E+04  0.23690528012E+04  0.00000000000E+00 0. -1.
        -24    2    1    2    0    0  0.25778760503E+02 -0.64024155958E+01 -0.20355727994E+04  0.20373627939E+04  0.81147992218E+02 0.  0.
         25    2    1    2    0    0 -0.42742249401E+01 -0.10622329319E+02 -0.31181121049E+03  0.33616417102E+03  0.12509602718E+03 0.  0.
         24    2    1    2    0    0 -0.21504535563E+02  0.17024744915E+02  0.20392431180E+03  0.22111893947E+03  0.80970201057E+02 0.  0.
        -13    1    5    5    0    0 -0.17684754664E+02  0.28458066920E+02  0.20615479944E+03  0.20885979377E+03  0.00000000000E+00 0.  1.
         14    1    5    5    0    0 -0.38197808991E+01 -0.11433322005E+02 -0.22304876407E+01  0.12259145700E+02  0.00000000000E+00 0. -1.
         13    1    3    3    0    0  0.53423378497E+02  0.81861057370E+01 -0.13316384121E+04  0.13327347561E+04  0.00000000000E+00 0. -1.
        -14    1    3    3    0    0 -0.27644617994E+02 -0.14588521333E+02 -0.70393438736E+03  0.70462803773E+03  0.00000000000E+00 0.  1.
          5    1    4    4  501    0 -0.28045208500E+02  0.28500207199E+02 -0.27316889781E+03  0.27611141712E+03  0.41800000000E+01 0. -1.
         -5    1    4    4    0  501  0.23770983559E+02 -0.39122536518E+02 -0.38642312675E+02  0.60052753908E+02  0.41800000000E+01 0. -1.
</event>
<event>
11    1  0.8299058E-009  0.1435838E+03  0.7561462E-02  0.1103621E+00
         22   -1    0    0    0    0  0.00000000000E+00  0.00000000000E+00  0.10620066449E+03  0.10620066449E+03  0.00000000000E+00 0.  1.
         22   -1    0    0    0    0 -0.00000000000E+00 -0.00000000000E+00 -0.12753333721E+04  0.12753333721E+04  0.00000000000E+00 0. -1.
         24    2    1    2    0    0 -0.44754246143E+02  0.48466989073E+02 -0.79274052112E+03  0.79956704444E+03  0.80733717590E+02 0.  0.
         25    2    1    2    0    0  0.32513283847E+02 -0.87493992438E+02 -0.44306450925E+03  0.46975097080E+03  0.12508997912E+03 0.  0.
        -24    2    1    2    0    0  0.12240962296E+02  0.39027003364E+02  0.66672322785E+02  0.11221602133E+03  0.80462964568E+02 0.  0.
        -13    1    3    3    0    0 -0.57563483496E+02  0.39140152341E+01 -0.46428692029E+03  0.46785811792E+03  0.00000000000E+00 0.  1.
         14    1    3    3    0    0  0.12809237353E+02  0.44552973839E+02 -0.32845360083E+03  0.33170892652E+03  0.00000000000E+00 0. -1.
         13    1    5    5    0    0 -0.22105644889E+02  0.47117990979E+02  0.25392797966E+02  0.57909919689E+02  0.00000000000E+00 0. -1.
        -14    1    5    5    0    0  0.34346607185E+02 -0.80909876146E+01  0.41279524819E+02  0.54306101637E+02  0.00000000000E+00 0.  1.
          5    1    4    4  501    0 -0.26766116550E+01 -0.11023699350E+03 -0.36137737750E+03  0.37784975898E+03  0.41800000000E+01 0.  1.
         -5    1    4    4    0  501  0.35189895502E+02  0.22743001064E+02 -0.81687131742E+02  0.91901211826E+02  0.41800000000E+01 0.  1.
</event>
<event>
11    1  0.8299058E-009  0.1747469E+03  0.7561462E-02  0.1073973E+00
         22   -1    0    0    0    0  0.00000000000E+00  0.00000000000E+00  0.99667017291E+03  0.99667017291E+03  0.00000000000E+00 0. -1.
         22   -1    0    0    0    0 -0.00000000000E+00 -0.00000000000E+00 -0.37582628903E+03  0.37582628903E+03  0.00000000000E+00 0. -1.
         24    2    1    2    0    0  0.77384055669E+02  0.87975436854E+02 -0.29219752382E+03  0.32445921712E+03  0.78526562904E+02 0.  0.
         25    2    1    2    0    0 -0.10018164135E+03 -0.14903922375E+03  0.12276311546E+03  0.25093281700E+03  0.12508974638E+03 0.  0.
        -24    2    1    2    0    0  0.22797585685E+02  0.61063786892E+02  0.79027829225E+03  0.79710442782E+03  0.81161405104E+02 0.  0.
        -13    1    3    3    0    0  0.48852064096E+02  0.76681495860E+02 -0.12557355497E+03  0.15503320187E+03  0.00000000000E+00 0.  1.
         14    1    3    3    0    0  0.28531991573E+02  0.11293940994E+02 -0.16662396885E+03  0.16942601525E+03  0.00000000000E+00 0. -1.
         11    1    5    5    0    0  0.52506458010E+02  0.32663348587E+02  0.41489526173E+03  0.41947812896E+03  0.00000000000E+00 0. -1.
        -12    1    5    5    0    0 -0.29708872325E+02  0.28400438304E+02  0.37538303052E+03  0.37762629886E+03  0.00000000000E+00 0.  1.
          5    1    4    4  501    0  0.23401515603E+02 -0.13695535468E+01  0.26450901933E+02  0.35589734791E+02  0.41800000000E+01 0.  1.
         -5    1    4    4    0  501 -0.12358315696E+03 -0.14766967020E+03  0.96312213526E+02  0.21534308221E+03  0.41800000000E+01 0.  1.
</event>
<event>
11    1  0.8299058E-009  0.1508396E+03  0.7561462E-02  0.1096024E+00
         22   -1    0    0    0    0  0.00000000000E+00  0.00000000000E+00  0.45141332054E+03  0.45141332054E+03  0.00000000000E+00 0. -1.
         22   -1    0    0    0    0 -0.00000000000E+00 -0.00000000000E+00 -0.43188611136E+03  0.43188611136E+03  0.00000000000E+00 0. -1.
         24    2    1    2    0    0 -0.24897887946E+01 -0.43099015260E+02 -0.35839174690E+03  0.37392418561E+03  0.97523987702E+02 0.  0.
         25    2    1    2    0    0 -0.77800058432E+02  0.96072025467E+01  0.42294370401E+02  0.15355557430E+03  0.12508138629E+03 0.  0.
        -24    2    1    2    0    0  0.80289847227E+02  0.33491812714E+02  0.33562458568E+03  0.35581967199E+03  0.79972591408E+02 0.  0.
        -11    1    3    3    0    0  0.21435484328E+02 -0.52489303974E+02 -0.10585456771E+03  0.12008245719E+03  0.00000000000E+00 0.  1.
         12    1    3    3    0    0 -0.23925273122E+02  0.93902887140E+01 -0.25253717918E+03  0.25384172842E+03  0.00000000000E+00 0. -1.
         11    1    5    5    0    0  0.94061486484E+02  0.36362027070E+02  0.25950031958E+03  0.27840649438E+03  0.00000000000E+00 0. -1.
        -12    1    5    5    0    0 -0.13771639257E+02 -0.28702143558E+01  0.76124266098E+02  0.77413177607E+02  0.00000000000E+00 0.  1.
          5    1    4    4  501    0  0.95131824007E+01 -0.14467375494E+02  0.58763772970E+02  0.61404063438E+02  0.41800000000E+01 0. -1.
         -5    1    4    4    0  501 -0.87313240833E+02  0.24074578040E+02 -0.16469402568E+02  0.92151510859E+02  0.41800000000E+01 0. -1.
</event>
<event>
11    1  0.8299058E-009  0.1777826E+03  0.7561462E-02  0.1071451E+00
         22   -1    0    0    0    0  0.00000000000E+00  0.00000000000E+00  0.15300213333E+04  0.15300213333E+04  0.00000000000E+00 0. -1.
         22   -1    0    0    0    0 -0.00000000000E+00 -0.00000000000E+00 -0.62830791434E+02  0.62830791434E+02  0.00000000000E+00 0. -1.
         24    2    1    2    0    0  0.18962798396E+02  0.57807399382E+02  0.22579545885E+02  0.10375200592E+03  0.80952823876E+02 0.  0.
         25    2    1    2    0    0  0.13258369927E+02 -0.16538507871E+03  0.65201972958E+03  0.68432819190E+03  0.12508931941E+03 0.  0.
        -24    2    1    2    0    0 -0.32221168323E+02  0.10757767932E+03  0.79259126635E+03  0.80477192687E+03  0.82739216842E+02 0.  0.
        -13    1    3    3    0    0 -0.82575954262E+01  0.14907385721E+02  0.45073980445E+02  0.48187983403E+02  0.00000000000E+00 0.  1.
         14    1    3    3    0    0  0.27220393822E+02  0.42900013661E+02 -0.22494434560E+02  0.55564022516E+02  0.00000000000E+00 0. -1.
         11    1    5    5    0    0  0.18502635216E+02  0.39346932635E+02  0.43701453948E+03  0.43917221717E+03  0.00000000000E+00 0. -1.
        -12    1    5    5    0    0 -0.50723803539E+02  0.68230746688E+02  0.35557672687E+03  0.36559970970E+03  0.00000000000E+00 0.  1.
          5    1    4    4  501    0  0.13588835861E+02 -0.16797866976E+03  0.65641908052E+03  0.67772042291E+03  0.41800000000E+01 0.  1.
         -5    1    4    4    0  501 -0.33046593416E+00  0.25935910559E+01 -0.43993509408E+01  0.66077689880E+01  0.41800000000E+01 0.  1.
</event>
<event>
11    1  0.8299058E-009  0.1420529E+03  0.7561462E-02  0.1105287E+00
         22   -1    0    0    0    0  0.00000000000E+00  0.00000000000E+00  0.29605921085E+04  0.29605921085E+04  0.00000000000E+00 0.  1.
         22   -1    0    0    0    0 -0.00000000000E+00 -0.00000000000E+00 -0.13535973911E+03  0.13535973911E+03  0.00000000000E+00 0.  1.
         24    2    1    2    0    0 -0.26678751422E+02 -0.68476552712E+02 -0.31187877706E+02  0.11344212454E+03  0.80595520065E+02 0.  0.
         25    2    1    2    0    0 -0.32484570193E+02  0.63797275498E+02  0.21318985458E+02  0.14569724719E+03  0.12509136276E+03 0.  0.
        -24    2    1    2    0    0  0.59163321615E+02  0.46792772141E+01  0.28351012617E+04  0.28368124759E+04  0.78636285249E+02 0.  0.
        -11    1    3    3    0    0 -0.33484736138E+02 -0.70256433851E+02 -0.50575642607E+02  0.92817507383E+02  0.00000000000E+00 0.  1.
         12    1    3    3    0    0  0.68059847159E+01  0.17798811387E+01  0.19387764901E+02  0.20624617153E+02  0.00000000000E+00 0. -1.
         11    1    5    5    0    0  0.35289617122E+02  0.13347511671E+02  0.45085254898E+03  0.45242848503E+03  0.00000000000E+00 0. -1.
        -12    1    5    5    0    0  0.23873704493E+02 -0.86682344568E+01  0.23842487127E+04  0.23843839909E+04  0.00000000000E+00 0.  1.
          5    1    4    4  501    0  0.12727222249E+02  0.55039679123E+02  0.62090791934E+02  0.84048124948E+02  0.41800000000E+01 0.  1.
         -5    1    4    4    0  501 -0.45211792442E+02  0.87575963747E+01 -0.40771806476E+02  0.61649122244E+02  0.41800000000E+01 0.  1.
</event>
<event>
11    1  0.8299058E-009  0.1551082E+03  0.7561462E-02  0.1091771E+00
         22   -1    0    0    0    0  0.00000000000E+00  0.00000000000E+00  0.41070373447E+03  0.41070373447E+03  0.00000000000E+00 0. -1.
         22   -1    0    0    0    0 -0.00000000000E+00 -0.00000000000E+00 -0.50938627169E+03  0.50938627169E+03  0.00000000000E+00 0.  1.
        -24    2    1    2    0    0 -0.17063347002E+02  0.25539606456E+02 -0.23376956039E+03  0.24879778096E+03  0.79427319836E+02 0.  0.
         25    2    1    2    0    0  0.64555692360E+02  0.53490902441E+02 -0.23636968922E+03  0.28025614503E+03  0.12507662765E+03 0.  0.
         24    2    1    2    0    0 -0.47492345358E+02 -0.79030508898E+02  0.37145671239E+03  0.39103608018E+03  0.80173453328E+02 0.  0.
        -11    1    5    5    0    0 -0.58241661024E+02 -0.30606766157E+02  0.14527810473E+03  0.15948226525E+03  0.00000000000E+00 0.  1.
         12    1    5    5    0    0  0.10749315666E+02 -0.48423742740E+02  0.22617860766E+03  0.23155381493E+03  0.00000000000E+00 0. -1.
         11    1    3    3    0    0 -0.29362744783E+02  0.49883256110E+02 -0.15820279639E+03  0.16845959399E+03  0.00000000000E+00 0. -1.
        -12    1    3    3    0    0  0.12299397781E+02 -0.24343649653E+02 -0.75566764000E+02  0.80338186970E+02  0.00000000000E+00 0.  1.
          5    1    4    4  501    0  0.89870705485E+02  0.50618886028E+02 -0.23218772998E+03  0.25410161290E+03  0.41800000000E+01 0.  1.
         -5    1    4    4    0  501 -0.25315013125E+02  0.28720164133E+01 -0.41819592464E+01  0.26154532130E+02  0.41800000000E+01 0.  1.
</event>
<event>
11    1  0.8299058E-009  0.1826116E+03  0.7561462E-02  0.1067550E+00
         22   -1    0    0    0    0  0.00000000000E+00  0.00000000000E+00  0.43493301537E+03  0.43493301537E+03  0.00000000000E+00 0. -1.
         22   -1    0    0    0    0 -0.00000000000E+00 -0.00000000000E+00 -0.13078421327E+04  0.13078421327E+04  0.00000000000E+00 0. -1.
        -24    2    1    2    0    0 -0.66161259917E+01 -0.17067966244E+02 -0.11270052142E+04  0.11300716197E+04  0.81154323233E+02 0.  0.
         25    2    1    2    0    0 -0.11293981571E+03  0.75111507371E+02 -0.11192941876E+03  0.21580727895E+03  0.12508975318E+03 0.  0.
         24    2    1    2    0    0  0.11955594170E+03 -0.58043541128E+02  0.36602551561E+03  0.39689624945E+03  0.76741637237E+02 0.  0.
        -13    1    5    5    0    0  0.30873056744E+02 -0.10824731303E+02  0.24426439788E+02  0.40828561097E+02  0.00000000000E+00 0.  1.
         14    1    5    5    0    0  0.88682884960E+02 -0.47218809825E+02  0.34159907582E+03  0.35606768835E+03  0.00000000000E+00 0. -1.
         11    1    3    3    0    0 -0.13475857196E+02  0.19346531190E+00 -0.10706386595E+04  0.10707234823E+04  0.00000000000E+00 0. -1.
        -12    1    3    3    0    0  0.68597312038E+01 -0.17261431556E+02 -0.56366554686E+02  0.59348137449E+02  0.00000000000E+00 0.  1.
          5    1    4    4  501    0 -0.68290023180E+02  0.93882567467E+02 -0.29087321863E+02  0.11975394955E+03  0.41800000000E+01 0. -1.
         -5    1    4    4    0  501 -0.44649792533E+02 -0.18771060095E+02 -0.82842096894E+02  0.96053329397E+02  0.41800000000E+01 0. -1.
</event>
<event>
11    1  0.8299058E-009  0.1670866E+03  0.7561462E-02  0.1080595E+00
         22   -1    0    0    0    0  0.00000000000E+00  0.00000000000E+00  0.13856138046E+04  0.13856138046E+04  0.00000000000E+00 0.  1.
         22   -1    0    0    0    0 -0.00000000000E+00 -0.00000000000E+00 -0.12759974152E+04  0.12759974152E+04  0.00000000000E+00 0.  1.
        -24    2    1    2    0    0  0.51511954072E+02  0.94596560252E+02 -0.11513111565E+04  0.11598232198E+04  0.89836136679E+02 0.  0.
         25    2    1    2    0    0 -0.75066570316E+02 -0.17554449307E+03 -0.74150687072E+01  0.22837230045E+03  0.12509222734E+03 0.  0.
         24    2    1    2    0    0  0.23554616244E+02  0.80947932822E+02  0.12683426145E+04  0.12734156996E+04  0.76073439985E+02 0.  0.
        -13    1    5    5    0    0  0.49874572722E+02  0.66621041847E+02  0.97573825639E+03  0.97928084899E+03  0.00000000000E+00 0.  1.
         14    1    5    5    0    0 -0.26319956478E+02  0.14326890976E+02  0.29260435814E+03  0.29413485057E+03  0.00000000000E+00 0. -1.
         11    1    3    3    0    0 -0.60005014024E+01 -0.69316416547E+01 -0.15311277666E+02  0.17846257223E+02  0.00000000000E+00 0. -1.
        -12    1    3    3    0    0  0.57512455474E+02  0.10152820191E+03 -0.11359998788E+04  0.11419769625E+04  0.00000000000E+00 0.  1.
          5    1    4    4  501    0  0.17258963812E+02 -0.75279234212E+02 -0.41554906071E+02  0.87801580590E+02  0.41800000000E+01 0.  1.
         -5    1    4    4    0  501 -0.92325534129E+02 -0.10026525886E+03  0.34139837364E+02  0.14057071986E+03  0.41800000000E+01 0.  1.
</event>
<event>
11    1  0.8299058E-009  0.1632341E+03  0.7561462E-02  0.1084074E+00
         22   -1    0    0    0    0  0.00000000000E+00  0.00000000000E+00  0.80006894964E+03  0.80006894964E+03  0.00000000000E+00 0.  1.
         22   -1    0    0    0    0 -0.00000000000E+00 -0.00000000000E+00 -0.59002319734E+03  0.59002319734E+03  0.00000000000E+00 0.  1.
         24    2    1    2    0    0  0.10772531654E+03  0.81301441712E-01 -0.51129276497E+03  0.52859564435E+03  0.79926924621E+02 0.  0.
         25    2    1    2    0    0 -0.76679169366E+02  0.32463153227E+02  0.16927545006E+02  0.15122066332E+03  0.12509035096E+03 0.  0.
        -24    2    1    2    0    0 -0.31046147173E+02 -0.32544454669E+02  0.70441097226E+03  0.71027583930E+03  0.79208239889E+02 0.  0.
        -13    1    3    3    0    0  0.99536820809E+02  0.27152697657E+02 -0.43914875833E+03  0.45110584083E+03  0.00000000000E+00 0.  1.
         14    1    3    3    0    0  0.81884957295E+01 -0.27071396216E+02 -0.72144006643E+02  0.77489803522E+02  0.00000000000E+00 0. -1.
         11    1    5    5    0    0  0.13905105370E+02  0.16061864294E+02  0.98890131424E+02  0.10114639654E+03  0.00000000000E+00 0. -1.
        -12    1    5    5    0    0 -0.44951252543E+02 -0.48606318963E+02  0.60552084084E+03  0.60912944276E+03  0.00000000000E+00 0.  1.
          5    1    4    4  501    0 -0.85506094462E+01 -0.45412335230E+02  0.71435979880E+00  0.46404480634E+02  0.41800000000E+01 0.  1.
         -5    1    4    4    0  501 -0.68128559920E+02  0.77875488458E+02  0.16213185207E+02  0.10481618269E+03  0.41800000000E+01 0.  1.
</event>
<event>
11    1  0.8299058E-009  0.1344782E+03  0.7561462E-02  0.1113886E+00
         22   -1    0    0    0    0  0.00000000000E+00  0.00000000000E+00  0.66601222764E+03  0.66601222764E+03  0.00000000000E+00 0. -1.
         22   -1    0    0    0    0 -0.00000000000E+00 -0.00000000000E+00 -0.27529218795E+04  0.27529218795E+04  0.00000000000E+00 0. -1.
         24    2    1    2    0    0 -0.22397025326E+01  0.11677096568E+02 -0.78569393790E+03  0.79127508323E+03  0.93058704268E+02 0.  0.
         25    2    1    2    0    0  0.21617041117E+02  0.33750220190E+02 -0.19586569111E+04  0.19630563713E+04  0.12508815913E+03 0.  0.
        -24    2    1    2    0    0 -0.19377338585E+02 -0.45427316759E+02  0.65744119713E+03  0.66460265264E+03  0.83836959890E+02 0.  0.
        -13    1    3    3    0    0  0.33488450772E+02  0.31985211311E+02 -0.26967577098E+03  0.27362300988E+03  0.00000000000E+00 0.  1.
         14    1    3    3    0    0 -0.35728153305E+02 -0.20308114743E+02 -0.51601816691E+03  0.51765207335E+03  0.00000000000E+00 0. -1.
         11    1    5    5    0    0 -0.21578207846E+02 -0.69681015954E+02  0.49529578108E+03  0.50063856603E+03  0.00000000000E+00 0. -1.
        -12    1    5    5    0    0  0.22008692614E+01  0.24253699195E+02  0.16214541605E+03  0.16396408661E+03  0.00000000000E+00 0.  1.
          5    1    4    4  501    0 -0.51160050699E+02  0.22914571304E+02 -0.99411108406E+03  0.99569912535E+03  0.41800000000E+01 0.  1.
         -5    1    4    4    0  501  0.72777091816E+02  0.10835648887E+02 -0.96454582703E+03  0.96735724592E+03  0.41800000000E+01 0.  1.
</event>
<event>
11    1  0.8299058E-009  0.1443611E+03  0.7561462E-02  0.1102784E+00
         22   -1    0    0    0    0  0.00000000000E+00  0.00000000000E+00  0.88422176174E+03  0.88422176174E+03  0.00000000000E+00 0.  1.
         22   -1    0    0    0    0 -0.00000000000E+00 -0.00000000000E+00 -0.71275707528E+03  0.71275707528E+03  0.00000000000E+00 0. -1.
        -24    2    1    2    0    0 -0.68241583663E+02 -0.14549060673E+02 -0.61899108733E+03  0.62792603199E+03  0.79199410033E+02 0.  0.
         25    2    1    2    0    0  0.12148184160E+03 -0.94141724644E+01  0.23108276261E+01  0.17464164024E+03  0.12509155887E+03 0.  0.
         24    2    1    2    0    0 -0.53240257934E+02  0.23963233137E+02  0.78814494616E+03  0.79441116479E+03  0.80671438391E+02 0.  0.
        -13    1    5    5    0    0 -0.76667058592E+01  0.27343350059E+02  0.60446682027E+03  0.60513351748E+03  0.00000000000E+00 0.  1.
         14    1    5    5    0    0 -0.45573552074E+02 -0.33801169215E+01  0.18367812590E+03  0.18927764731E+03  0.00000000000E+00 0. -1.
         13    1    3    3    0    0 -0.64511238445E+02  0.21250373648E+02 -0.34915848586E+03  0.35570342494E+03  0.00000000000E+00 0. -1.
        -14    1    3    3    0    0 -0.37303452172E+01 -0.35799434321E+02 -0.26983260147E+03  0.27222260705E+03  0.00000000000E+00 0.  1.
          5    1    4    4  501    0  0.10705257868E+03  0.44690232673E+02 -0.11986288389E+02  0.11669882179E+03  0.41800000000E+01 0.  1.
         -5    1    4    4    0  501  0.14429262920E+02 -0.54104405138E+02  0.14297116015E+02  0.57942818451E+02  0.41800000000E+01 0.  1.
</event>
<event>
11    1  0.8299058E-009  0.1272838E+03  0.7561462E-02  0.1122652E+00
         22   -1    0    0    0    0  0.00000000000E+00  0.00000000000E+00  0.12223756490E+04  0.12223756490E+04  0.00000000000E+00 0.  1.
         22   -1    0    0    0    0 -0.00000000000E+00 -0.00000000000E+00 -0.11200577052E+04  0.11200577052E+04  0.00000000000E+00 0. -1.
        -24    2    1    2    0    0 -0.93829241722E+01  0.21333222232E+02 -0.11031592923E+04  0.11078237489E+04  0.98842747694E+02 0.  0.
         25    2    1    2    0    0  0.61130569472E+02 -0.47766950363E+02  0.45692050041E+03  0.48004429325E+03  0.12509017435E+03 0.  0.
         24    2    1    2    0    0 -0.51747645300E+02  0.26433728131E+02  0.74855673565E+03  0.75456531202E+03  0.75200151901E+02 0.  0.
        -13    1    5    5    0    0 -0.41324256084E+02 -0.15996202810E+01  0.65587121528E+03  0.65717372433E+03  0.00000000000E+00 0.  1.
         14    1    5    5    0    0 -0.10423389216E+02  0.28033348412E+02  0.92685520368E+02  0.97391587685E+02  0.00000000000E+00 0. -1.
         13    1    3    3    0    0  0.16345107750E+01  0.53892424055E+02 -0.37529070844E+03  0.37914401068E+03  0.00000000000E+00 0. -1.
        -14    1    3    3    0    0 -0.11017434947E+02 -0.32559201823E+02 -0.72786858391E+03  0.72867973825E+03  0.00000000000E+00 0.  1.
          5    1    4    4  501    0  0.40335333960E+02 -0.90635491080E+02  0.30128098698E+03  0.31722143200E+03  0.41800000000E+01 0. -1.
         -5    1    4    4    0  501  0.20795235512E+02  0.42868540717E+02  0.15563951343E+03  0.16282286124E+03  0.41800000000E+01 0. -1.
</event>
<event>
11    1  0.8299058E-009  0.1268200E+03  0.7561462E-02  0.1123239E+00
         22   -1    0    0    0    0  0.00000000000E+00  0.00000000000E+00  0.35891685387E+03  0.35891685387E+03  0.00000000000E+00 0.  1.
         22   -1    0    0    0    0 -0.00000000000E+00 -0.00000000000E+00 -0.61759311601E+03  0.61759311601E+03  0.00000000000E+00 0.  1.
         24    2    1    2    0    0 -0.38344958671E+01  0.20811232558E+02 -0.58151690104E+03  0.58791339280E+03  0.83859647504E+02 0.  0.
         25    2    1    2    0    0  0.24329899825E+01 -0.87103659094E+01  0.13703173098E+03  0.18575504417E+03  0.12508177815E+03 0.  0.
        -24    2    1    2    0    0  0.14015058845E+01 -0.12100866649E+02  0.18580890792E+03  0.20284153291E+03  0.80444651879E+02 0.  0.
        -11    1    3    3    0    0 -0.97267974764E+01 -0.38708024628E+01 -0.53350845622E+03  0.53361115670E+03  0.00000000000E+00 0.  1.
         12    1    3    3    0    0  0.58923016093E+01  0.24682035021E+02 -0.48008444822E+02  0.54302236098E+02  0.00000000000E+00 0. -1.
         13    1    5    5    0    0 -0.32671267499E+02 -0.11816776867E+02  0.39445586311E+02  0.52564267472E+02  0.00000000000E+00 0. -1.
        -14    1    5    5    0    0  0.34072773383E+02 -0.28408978147E+00  0.14636332161E+03  0.15027726543E+03  0.00000000000E+00 0.  1.
          5    1    4    4  501    0 -0.42253843373E+02  0.59361268187E-01  0.12492900790E+01  0.42478511383E+02  0.41800000000E+01 0. -1.
         -5    1    4    4    0  501  0.44686833356E+02 -0.87697271776E+01  0.13578244090E+03  0.14327653278E+03  0.41800000000E+01 0. -1.
</event>
<event>
11    1  0.8299058E-009  0.4752007E+03  0.7561462E-02  0.9450710E-01
         22   -1    0    0    0    0  0.00000000000E+00  0.00000000000E+00  0.26686128435E+04  0.26686128435E+04  0.00000000000E+00 0.  1.
         22   -1    0    0    0    0 -0.00000000000E+00 -0.00000000000E+00 -0.40789083245E+03  0.40789083245E+03  0.00000000000E+00 0.  1.
         24    2    1    2    0    0 -0.29949810729E+02 -0.30812194270E+03 -0.18144649663E+03  0.36781595978E+03  0.80806103701E+02 0.  0.
         25    2    1    2    0    0  0.82822972344E+02  0.69513433768E+03  0.11111544343E+04  0.13192352965E+04  0.12508476532E+03 0.  0.
        -24    2    1    2    0    0 -0.52873161615E+02 -0.38701239497E+03  0.13310140734E+04  0.13894524197E+04  0.80033729785E+02 0.  0.
        -11    1    3    3    0    0 -0.41155737846E+02 -0.22211086030E+03 -0.94065476781E+02  0.24469438683E+03  0.00000000000E+00 0.  1.
         12    1    3    3    0    0  0.11205927117E+02 -0.86011082401E+02 -0.87381019845E+02  0.12312157296E+03  0.00000000000E+00 0. -1.
         11    1    5    5    0    0 -0.85568978903E+01 -0.60954580397E+02  0.33150904274E+03  0.33717492017E+03  0.00000000000E+00 0. -1.
        -12    1    5    5    0    0 -0.44316263725E+02 -0.32605781458E+03  0.99950503067E+03  0.10522774995E+04  0.00000000000E+00 0.  1.
          5    1    4    4  501    0  0.98932862740E+02  0.67502455413E+03  0.10436918996E+04  0.12468985980E+04  0.41800000000E+01 0. -1.
         -5    1    4    4    0  501 -0.16109890396E+02  0.20109783547E+02  0.67462534652E+02  0.72336698463E+02  0.41800000000E+01 0. -1.
</event>
<event>
11    1  0.8299058E-009  0.2182196E+03  0.7561462E-02  0.1042338E+00
         22   -1    0    0    0    0  0.00000000000E+00  0.00000000000E+00  0.20962240160E+04  0.20962240160E+04  0.00000000000E+00 0. -1.
         22   -1    0    0    0    0 -0.00000000000E+00 -0.00000000000E+00 -0.33603751594E+03  0.33603751594E+03  0.00000000000E+00 0. -1.
         24    2    1    2    0    0 -0.47343654032E+01  0.22952030950E+02 -0.17220660092E+03  0.19058660000E+03  0.78223581872E+02 0.  0.
         25    2    1    2    0    0 -0.10175776824E+03  0.12151181640E+03 -0.81777509902E+02  0.21784147773E+03  0.12509030088E+03 0.  0.
        -24    2    1    2    0    0  0.10649213365E+03 -0.14446384735E+03  0.20141706109E+04  0.20238334543E+04  0.82511956301E+02 0.  0.
        -11    1    3    3    0    0 -0.29980269456E+02  0.37941437387E+02 -0.76720655294E+02  0.90688633116E+02  0.00000000000E+00 0.  1.
         12    1    3    3    0    0  0.25245904052E+02 -0.14989406437E+02 -0.95485945624E+02  0.99897966889E+02  0.00000000000E+00 0. -1.
         13    1    5    5    0    0  0.73821622085E+02 -0.11693280636E+03  0.10989771809E+04  0.11076433349E+04  0.00000000000E+00 0. -1.
        -14    1    5    5    0    0  0.32670511561E+02 -0.27531040987E+02  0.91519342998E+03  0.91619011936E+03  0.00000000000E+00 0.  1.
          5    1    4    4  501    0 -0.52275887650E+02  0.51522245687E+01 -0.74324478704E+02  0.91109353978E+02  0.41800000000E+01 0.  1.
         -5    1    4    4    0  501 -0.49481880593E+02  0.11635959183E+03 -0.74530311977E+01  0.12673212376E+03  0.41800000000E+01 0.  1.
</event>
<event>
11    1  0.8299058E-009  0.1559442E+03  0.7561462E-02  0.1090955E+00
         22   -1    0    0    0    0  0.00000000000E+00  0.00000000000E+00  0.11209864347E+04  0.11209864347E+04  0.00000000000E+00 0.  1.
         22   -1    0    0    0    0 -0.00000000000E+00 -0.00000000000E+00 -0.18787944107E+03  0.18787944107E+03  0.00000000000E+00 0.  1.
        -24    2    1    2    0    0 -0.34629755454E+02  0.46096710059E+02 -0.13950562630E+03  0.17087002452E+03  0.80066340436E+02 0.  0.
         25    2    1    2    0    0  0.12033680287E+03 -0.17321884662E+02  0.24031395110E+03  0.29694750347E+03  0.12508409537E+03 0.  0.
         24    2    1    2    0    0 -0.85707047412E+02 -0.28774825397E+02  0.83229866884E+03  0.84104834778E+03  0.80421145211E+02 0.  0.
        -11    1    5    5    0    0 -0.91092921277E+02 -0.26402003930E+02  0.82878482536E+03  0.83419378616E+03  0.00000000000E+00 0.  1.
         12    1    5    5    0    0  0.53858738650E+01 -0.23728214666E+01  0.35138434781E+01  0.68545616191E+01  0.00000000000E+00 0. -1.
         11    1    3    3    0    0  0.94379998339E+01  0.21084797892E+02 -0.70721903028E+00  0.23111570734E+02  0.00000000000E+00 0. -1.
        -12    1    3    3    0    0 -0.44067755288E+02  0.25011912167E+02 -0.13879840727E+03  0.14775845379E+03  0.00000000000E+00 0.  1.
          5    1    4    4  501    0 -0.18620595222E+01  0.24434509068E+02  0.87724005196E+00  0.24874775359E+02  0.41800000000E+01 0.  1.
         -5    1    4    4    0  501  0.12219886239E+03 -0.41756393730E+02  0.23943671105E+03  0.27207272811E+03  0.41800000000E+01 0.  1.
</event>
<event>
11    1  0.8299058E-009  0.1443840E+03  0.7561462E-02  0.1102759E+00
         22   -1    0    0    0    0  0.00000000000E+00  0.00000000000E+00  0.98350803505E+03  0.98350803505E+03  0.00000000000E+00 0.  1.
         22   -1    0    0    0    0 -0.00000000000E+00 -0.00000000000E+00 -0.31660310235E+03  0.31660310235E+03  0.00000000000E+00 0.  1.
        -24    2    1    2    0    0 -0.35917818075E+02 -0.39694166624E+02 -0.27958490466E+03  0.29571519838E+03  0.80087721400E+02 0.  0.
         25    2    1    2    0    0  0.19244151945E+02  0.10619419268E+03  0.24011037994E+03  0.29145843716E+03  0.12508989606E+03 0.  0.
         24    2    1    2    0    0  0.16673666130E+02 -0.66500026057E+02  0.70637945743E+03  0.71293750186E+03  0.67879887137E+02 0.  0.
        -13    1    5    5    0    0 -0.13636906873E+02 -0.64561743079E+02  0.49985217091E+03  0.50418883036E+03  0.00000000000E+00 0.  1.
         14    1    5    5    0    0  0.30310573003E+02 -0.19382829779E+01  0.20652728652E+03  0.20874867151E+03  0.00000000000E+00 0. -1.
         11    1    3    3    0    0 -0.49774567653E+02 -0.13759379960E+02 -0.89177672569E+02  0.10305088746E+03  0.00000000000E+00 0. -1.
        -12    1    3    3    0    0  0.13856749579E+02 -0.25934786664E+02 -0.19040723209E+03  0.19266431091E+03  0.00000000000E+00 0.  1.
          5    1    4    4  501    0 -0.32943349932E+02 -0.10121034606E+02  0.31146577813E+02  0.46639911617E+02  0.41800000000E+01 0. -1.
         -5    1    4    4    0  501  0.52187501877E+02  0.11631522729E+03  0.20896380212E+03  0.24481852554E+03  0.41800000000E+01 0. -1.
</event>
<event>
11    1  0.8299058E-009  0.2029063E+03  0.7561462E-02  0.1052487E+00
         22   -1    0    0    0    0  0.00000000000E+00  0.00000000000E+00  0.17187034219E+04  0.17187034219E+04  0.00000000000E+00 0.  1.
         22   -1    0    0    0    0 -0.00000000000E+00 -0.00000000000E+00 -0.26123095077E+03  0.26123095077E+03  0.00000000000E+00 0.  1.
         24    2    1    2    0    0  0.16275244476E+03 -0.17666880434E+01 -0.10584220128E+03  0.21030650568E+03  0.80837957028E+02 0.  0.
         25    2    1    2    0    0 -0.13070654181E+03  0.15138374678E+03  0.43216973108E+02  0.23982596939E+03  0.12509016736E+03 0.  0.
        -24    2    1    2    0    0 -0.32045902953E+02 -0.14961705874E+03  0.15200976993E+04  0.15298018977E+04  0.78642395375E+02 0.  0.
        -11    1    3    3    0    0  0.15198524286E+03 -0.20191560271E+02 -0.10982623725E+03  0.18859749612E+03  0.00000000000E+00 0.  1.
         12    1    3    3    0    0  0.10767201899E+02  0.18424872227E+02  0.39840359733E+01  0.21709009557E+02  0.00000000000E+00 0. -1.
         13    1    5    5    0    0  0.23788730323E+02 -0.20652149148E+02  0.27556806250E+03  0.27736288869E+03  0.00000000000E+00 0. -1.
        -14    1    5    5    0    0 -0.55834633276E+02 -0.12896490959E+03  0.12445296368E+04  0.12524390090E+04  0.00000000000E+00 0.  1.
          5    1    4    4  501    0 -0.46325009057E+02  0.79140852394E+02  0.80994808693E+02  0.12242104565E+03  0.41800000000E+01 0. -1.
         -5    1    4    4    0  501 -0.84381532752E+02  0.72242894385E+02 -0.37777835585E+02  0.11740492375E+03  0.41800000000E+01 0. -1.
</event>
<event>
11    1  0.8299058E-009  0.1476350E+03  0.7561462E-02  0.1099320E+00
         22   -1    0    0    0    0  0.00000000000E+00  0.00000000000E+00  0.29068541915E+04  0.29068541915E+04  0.00000000000E+00 0.  1.
         22   -1    0    0    0    0 -0.00000000000E+00 -0.00000000000E+00 -0.26635439984E+03  0.26635439984E+03  0.00000000000E+00 0.  1.
        -24    2    1    2    0    0  0.48207851816E+02  0.43918532555E+02 -0.23901308792E+03  0.26029894400E+03  0.79846412366E+02 0.  0.
         25    2    1    2    0    0 -0.67563974711E+02  0.34508555126E+02  0.33316081297E+03  0.36386739052E+03  0.12509044542E+03 0.  0.
         24    2    1    2    0    0  0.19356122895E+02 -0.78427087681E+02  0.25463520667E+04  0.25490422569E+04  0.84747343784E+02 0.  0.
        -13    1    5    5    0    0  0.28466688299E+02 -0.93531655771E+02  0.22885803605E+04  0.22906677169E+04  0.00000000000E+00 0.  1.
         14    1    5    5    0    0 -0.91105654039E+01  0.15104568090E+02  0.25777170617E+03  0.25837453992E+03  0.00000000000E+00 0. -1.
         13    1    3    3    0    0 -0.89113727048E+01  0.44285853029E+02 -0.12183462840E+03  0.12993970147E+03  0.00000000000E+00 0. -1.
        -14    1    3    3    0    0  0.57119224521E+02 -0.36732047410E+00 -0.11717845953E+03  0.13035924252E+03  0.00000000000E+00 0.  1.
          5    1    4    4  501    0 -0.46423775513E+02  0.80690509486E+02  0.18419194451E+03  0.20642255225E+03  0.41800000000E+01 0.  1.
         -5    1    4    4    0  501 -0.21140199198E+02 -0.46181954360E+02  0.14896886846E+03  0.15744483828E+03  0.41800000000E+01 0.  1.
</event>
<event>
11    1  0.8299058E-009  0.1530837E+03  0.7561462E-02  0.1093769E+00
         22   -1    0    0    0    0  0.00000000000E+00  0.00000000000E+00  0.24731529595E+03  0.24731529595E+03  0.00000000000E+00 0. -1.
         22   -1    0    0    0    0 -0.00000000000E+00 -0.00000000000E+00 -0.15428732519E+04  0.15428732519E+04  0.00000000000E+00 0. -1.
        -24    2    1    2    0    0  0.85600160523E+02 -0.10737837175E+02 -0.91313683260E+03  0.92068817962E+03  0.80032246087E+02 0.  0.
         25    2    1    2    0    0 -0.80220626846E+02  0.71940573911E+02 -0.60384114620E+03  0.62600569893E+03  0.12509280594E+03 0.  0.
         24    2    1    2    0    0 -0.53795336769E+01 -0.61202736735E+02  0.22142002285E+03  0.24349466929E+03  0.80548824246E+02 0.  0.
        -11    1    5    5    0    0 -0.41589470971E+02 -0.45237828239E+02  0.12568680352E+03  0.13990467390E+03  0.00000000000E+00 0.  1.
         12    1    5    5    0    0  0.36209937294E+02 -0.15964908497E+02  0.95733219333E+02  0.10358999539E+03  0.00000000000E+00 0. -1.
         13    1    3    3    0    0  0.52283756680E+02 -0.14238063161E+02 -0.81859724730E+03  0.82038879011E+03  0.00000000000E+00 0. -1.
        -14    1    3    3    0    0  0.33316403843E+02  0.35002259858E+01 -0.94539585298E+02  0.10029938951E+03  0.00000000000E+00 0.  1.
          5    1    4    4  501    0 -0.91219811395E+02  0.36277215055E+02 -0.55875163856E+03  0.56732526501E+03  0.41800000000E+01 0.  1.
         -5    1    4    4    0  501  0.10999184549E+02  0.35663358856E+02 -0.45089507643E+02  0.58680433921E+02  0.41800000000E+01 0.  1.
</event>
<event>
11    1  0.8299058E-009  0.1387832E+03  0.7561462E-02  0.1108925E+00
         22   -1    0    0    0    0  0.00000000000E+00  0.00000000000E+00  0.10978678937E+03  0.10978678937E+03  0.00000000000E+00 0.  1.
         22   -1    0    0    0    0 -0.00000000000E+00 -0.00000000000E+00 -0.16551978559E+04  0.16551978559E+04  0.00000000000E+00 0. -1.
        -24    2    1    2    0    0  0.54858582745E+02 -0.29536637804E+01 -0.14461793527E+04  0.14494946212E+04  0.81127975723E+02 0.  0.
         25    2    1    2    0    0  0.13425354638E+02  0.31329618790E+01 -0.15404260078E+03  0.19891186457E+03  0.12508697540E+03 0.  0.
         24    2    1    2    0    0 -0.68283937384E+02 -0.17929809861E+00  0.54810886945E+02  0.11657815952E+03  0.76964314438E+02 0.  0.
        -11    1    5    5    0    0 -0.68376307243E+02  0.43311725710E+01  0.71655873668E+02  0.99139511191E+02  0.00000000000E+00 0.  1.
         12    1    5    5    0    0  0.92369859601E-01 -0.45104706696E+01 -0.16844986723E+02  0.17438648329E+02  0.00000000000E+00 0. -1.
         11    1    3    3    0    0  0.17043718478E+02 -0.18644346366E+02 -0.11723012063E+04  0.11725733317E+04  0.00000000000E+00 0. -1.
        -12    1    3    3    0    0  0.37814864268E+02  0.15690682585E+02 -0.27387814642E+03  0.27692128947E+03  0.00000000000E+00 0.  1.
          5    1    4    4  501    0 -0.24119624537E+02  0.40598951572E+02 -0.14508639922E+02  0.49578263271E+02  0.41800000000E+01 0. -1.
         -5    1    4    4    0  501  0.37544979175E+02 -0.37465989693E+02 -0.13953396085E+03  0.14933360130E+03  0.41800000000E+01 0. -1.
</event>
<event>
11    1  0.8299058E-009  0.1285229E+03  0.7561462E-02  0.1121097E+00
         22   -1    0    0    0    0  0.00000000000E+00  0.00000000000E+00  0.13665045587E+04  0.13665045587E+04  0.00000000000E+00 0.  1.
         22   -1    0    0    0    0 -0.00000000000E+00 -0.00000000000E+00 -0.10376392496E+03  0.10376392496E+03  0.00000000000E+00 0.  1.
        -24    2    1    2    0    0  0.28462887234E+02 -0.25722829973E+01 -0.68603903189E+02  0.10963817816E+03  0.80605719324E+02 0.  0.
         25    2    1    2    0    0 -0.44491514667E+02  0.58660306506E+01  0.32720683654E+03  0.35316549097E+03  0.12509054698E+03 0.  0.
         24    2    1    2    0    0  0.16028627433E+02 -0.32937476533E+01  0.10041377004E+04  0.10074648145E+04  0.80156506209E+02 0.  0.
        -11    1    5    5    0    0 -0.26314909952E+02 -0.15985329672E+02  0.22803567514E+03  0.23010492039E+03  0.00000000000E+00 0.  1.
         12    1    5    5    0    0  0.42343537385E+02  0.12691582018E+02  0.77610202527E+03  0.77735989416E+03  0.00000000000E+00 0. -1.
         11    1    3    3    0    0 -0.13896411534E+02  0.22207128581E+02 -0.51300683313E+02  0.57602316982E+02  0.00000000000E+00 0. -1.
        -12    1    3    3    0    0  0.42359298768E+02 -0.24779411578E+02 -0.17303219876E+02  0.52035861176E+02  0.00000000000E+00 0.  1.
          5    1    4    4  501    0  0.43973509413E+02  0.28613652062E+01  0.11173543841E+03  0.12018376570E+03  0.41800000000E+01 0.  1.
         -5    1    4    4    0  501 -0.88465024080E+02  0.30046654444E+01  0.21547139812E+03  0.23298172527E+03  0.41800000000E+01 0.  1.
</event>
<event>
11    1  0.8299058E-009  0.1370743E+03  0.7561462E-02  0.1110870E+00
         22   -1    0    0    0    0  0.00000000000E+00  0.00000000000E+00  0.43115329839E+03  0.43115329839E+03  0.00000000000E+00 0. -1.
         22   -1    0    0    0    0 -0.00000000000E+00 -0.00000000000E+00 -0.19897656912E+04  0.19897656912E+04  0.00000000000E+00 0.  1.
         24    2    1    2    0    0  0.36122874504E+00 -0.56535026260E+02 -0.19054233812E+04  0.19079093357E+04  0.79268102944E+02 0.  0.
         25    2    1    2    0    0  0.19429569837E+02  0.34238892581E+02 -0.23261615533E+02  0.13318997954E+03  0.12509459598E+03 0.  0.
        -24    2    1    2    0    0 -0.19790798582E+02  0.22296133679E+02  0.37007260391E+03  0.37981967432E+03  0.80127770166E+02 0.  0.
        -13    1    3    3    0    0 -0.20719888503E+02 -0.41866340731E+02 -0.17285535359E+04  0.17291846144E+04  0.00000000000E+00 0.  1.
         14    1    3    3    0    0  0.21081117248E+02 -0.14668685529E+02 -0.17686984531E+03  0.17872472134E+03  0.00000000000E+00 0. -1.
         13    1    5    5    0    0 -0.35602390083E+02  0.35452882753E+02  0.33802547784E+03  0.34173917063E+03  0.00000000000E+00 0. -1.
        -14    1    5    5    0    0  0.15811591501E+02 -0.13156749074E+02  0.32047126072E+02  0.38080503692E+02  0.00000000000E+00 0.  1.
          5    1    4    4  501    0 -0.26824991306E+02  0.63594390667E+02  0.85961248991E+01  0.69679211004E+02  0.41800000000E+01 0. -1.
         -5    1    4    4    0  501  0.46254561142E+02 -0.29355498086E+02 -0.31857740432E+02  0.63510768534E+02  0.41800000000E+01 0. -1.
</event>
<event>
11    1  0.8299058E-009  0.2468917E+03  0.7561462E-02  0.1025568E+00
         22   -1    0    0    0    0  0.00000000000E+00  0.00000000000E+00  0.20648696200E+03  0.20648696200E+03  0.00000000000E+00 0.  1.
         22   -1    0    0    0    0 -0.00000000000E+00 -0.00000000000E+00 -0.11326210953E+04  0.11326210953E+04  0.00000000000E+00 0. -1.
        -24    2    1    2    0    0 -0.20096287672E+03 -0.10213148858E+03 -0.90832206773E+03  0.93937204064E+03  0.80956366141E+02 0.  0.
         25    2    1    2    0    0  0.12296831979E+03  0.11744381424E+03 -0.12421454816E+03  0.24493116826E+03  0.12509103099E+03 0.  0.
         24    2    1    2    0    0  0.77994556936E+02 -0.15312325661E+02  0.10640248258E+03  0.15480484842E+03  0.79532600644E+02 0.  0.
        -11    1    5    5    0    0  0.44862963280E+02 -0.27389781697E+02  0.10735001585E+03  0.11952786921E+03  0.00000000000E+00 0.  1.
         12    1    5    5    0    0  0.33131593657E+02  0.12077456037E+02 -0.94753326694E+00  0.35276979205E+02  0.00000000000E+00 0. -1.
         13    1    3    3    0    0 -0.15646762008E+03 -0.11337722546E+03 -0.75447566604E+03  0.77882606661E+03  0.00000000000E+00 0. -1.
        -14    1    3    3    0    0 -0.44495256649E+02  0.11245736881E+02 -0.15384640170E+03  0.16054597403E+03  0.00000000000E+00 0.  1.
          5    1    4    4  501    0  0.89322948006E+02  0.14211914060E+03 -0.88256015173E+02  0.18969194969E+03  0.41800000000E+01 0.  1.
         -5    1    4    4    0  501  0.33645371782E+02 -0.24675326355E+02 -0.35958532988E+02  0.55239218565E+02  0.41800000000E+01 0.  1.
</event>
<event>
11    1  0.8299058E-009  0.1361500E+03  0.7561462E-02  0.1111935E+00
         22   -1    0    0    0    0  0.00000000000E+00  0.00000000000E+00  0.25262998787E+03  0.25262998787E+03  0.00000000000E+00 0. -1.
         22   -1    0    0    0    0 -0.00000000000E+00 -0.00000000000E+00 -0.18486606743E+04  0.18486606743E+04  0.00000000000E+00 0.  1.
         24    2    1    2    0    0  0.36042287455E+02  0.45093992432E+02 -0.10670703256E+04  0.10715576523E+04  0.79146747820E+02 0.  0.
         25    2    1    2    0    0 -0.58269245374E+02 -0.93233271313E+02 -0.75995997778E+03  0.77799269112E+03  0.12508281967E+03 0.  0.
        -24    2    1    2    0    0  0.22226957920E+02  0.48139278881E+02  0.23099961695E+03  0.25174031880E+03  0.84858336340E+02 0.  0.
        -11    1    3    3    0    0  0.47227153247E+02 -0.96181106070E+00 -0.67124140902E+03  0.67290144766E+03  0.00000000000E+00 0.  1.
         12    1    3    3    0    0 -0.11184865792E+02  0.46055803493E+02 -0.39582891662E+03  0.39865620463E+03  0.00000000000E+00 0. -1.
         11    1    5    5    0    0  0.42536401050E+02  0.51412409995E+02  0.10740429828E+03  0.12644470968E+03  0.00000000000E+00 0. -1.
        -12    1    5    5    0    0 -0.20309443131E+02 -0.32731311141E+01  0.12359531867E+03  0.12529560912E+03  0.00000000000E+00 0.  1.
          5    1    4    4  501    0  0.13607464003E+02 -0.52529023778E+02 -0.10933013952E+03  0.12212703724E+03  0.41800000000E+01 0. -1.
         -5    1    4    4    0  501 -0.71876709377E+02 -0.40704247535E+02 -0.65062983825E+03  0.65586565388E+03  0.41800000000E+01 0. -1.
</event>
<event>
11    1  0.8299058E-009  0.1363448E+03  0.7561462E-02  0.1111710E+00
         22   -1    0    0    0    0  0.00000000000E+00  0.00000000000E+00  0.26388820906E+03  0.26388820906E+03  0.00000000000E+00 0.  1.
         22   -1    0    0    0    0 -0.00000000000E+00 -0.00000000000E+00 -0.18486486423E+04  0.18486486423E+04  0.00000000000E+00 0. -1.
         24    2    1    2    0    0 -0.32755966935E+02  0.19887148298E+02 -0.86519548574E+03  0.86968190041E+03  0.79466516897E+02 0.  0.
         25    2    1    2    0    0  0.34840524381E+02  0.34487711582E+02 -0.96764901250E+03  0.97693146833E+03  0.12508884053E+03 0.  0.
        -24    2    1    2    0    0 -0.20845574459E+01 -0.54374859880E+02  0.24808406500E+03  0.26592348264E+03  0.78794825635E+02 0.  0.
        -13    1    3    3    0    0 -0.17124638679E+02  0.23357281302E+02 -0.94924926890E+02  0.99244937326E+02  0.00000000000E+00 0.  1.
         14    1    3    3    0    0 -0.15631328256E+02 -0.34701330038E+01 -0.77027055885E+03  0.77043696308E+03  0.00000000000E+00 0. -1.
         13    1    5    5    0    0 -0.11827320005E+02 -0.53771323908E+02  0.77529301060E+02  0.95089606668E+02  0.00000000000E+00 0. -1.
        -14    1    5    5    0    0  0.97427625589E+01 -0.60353597198E+00  0.17055476394E+03  0.17083387597E+03  0.00000000000E+00 0.  1.
          5    1    4    4  501    0 -0.14597461844E+02  0.39528703609E+02 -0.11054201183E+03  0.11837488365E+03  0.41800000000E+01 0. -1.
         -5    1    4    4    0  501  0.49437986225E+02 -0.50409920260E+01 -0.85710700068E+03  0.85855658468E+03  0.41800000000E+01 0. -1.
</event>
<event>
11    1  0.8299058E-009  0.1374606E+03  0.7561462E-02  0.1110428E+00
         22   -1    0    0    0    0  0.00000000000E+00  0.00000000000E+00  0.54089767439E+03  0.54089767439E+03  0.00000000000E+00 0.  1.
         22   -1    0    0    0    0 -0.00000000000E+00 -0.00000000000E+00 -0.58465903171E+03  0.58465903171E+03  0.00000000000E+00 0.  1.
         24    2    1    2    0    0 -0.49680068979E+02  0.31295944095E+02 -0.28830775843E+03  0.30519243132E+03  0.81077192808E+02 0.  0.
         25    2    1    2    0    0  0.65319487079E+02  0.16767222379E+02 -0.26596241497E+03  0.30155456699E+03  0.12510545774E+03 0.  0.
        -24    2    1    2    0    0 -0.15639418101E+02 -0.48063166475E+02  0.51050881609E+03  0.51880970779E+03  0.77392520458E+02 0.  0.
        -13    1    3    3    0    0 -0.15705030555E+02 -0.23448825184E+02 -0.14975839972E+03  0.15239446734E+03  0.00000000000E+00 0.  1.
         14    1    3    3    0    0 -0.33975038424E+02  0.54744769279E+02 -0.13854935871E+03  0.15279796398E+03  0.00000000000E+00 0. -1.
         11    1    5    5    0    0 -0.46014491357E+02 -0.26531033340E+02  0.24412421156E+03  0.24983566562E+03  0.00000000000E+00 0. -1.
        -12    1    5    5    0    0  0.30375073256E+02 -0.21532133135E+02  0.26638460452E+03  0.26897404217E+03  0.00000000000E+00 0.  1.
          5    1    4    4  501    0  0.56982722535E+02 -0.24563040100E+02 -0.24775001533E+03  0.25543671643E+03  0.41800000000E+01 0.  1.
         -5    1    4    4    0  501  0.83367645443E+01  0.41330262479E+02 -0.18212399648E+02  0.46117850563E+02  0.41800000000E+01 0.  1.
</event>
<event>
11    1  0.8299058E-009  0.1377048E+03  0.7561462E-02  0.1110149E+00
         22   -1    0    0    0    0  0.00000000000E+00  0.00000000000E+00  0.59935943809E+03  0.59935943809E+03  0.00000000000E+00 0.  1.
         22   -1    0    0    0    0 -0.00000000000E+00 -0.00000000000E+00 -0.52670445938E+03  0.52670445938E+03  0.00000000000E+00 0.  1.
        -24    2    1    2    0    0 -0.20816706241E+02  0.16536023560E+01 -0.49193709971E+03  0.49785248593E+03  0.73613300516E+02 0.  0.
         25    2    1    2    0    0  0.37534829957E+02 -0.55099086124E+02  0.16865875386E+03  0.22031263892E+03  0.12508841218E+03 0.  0.
         24    2    1    2    0    0 -0.16718123716E+02  0.53445483768E+02  0.39593332456E+03  0.40789877263E+03  0.80512705966E+02 0.  0.
        -13    1    5    5    0    0  0.15839542574E+01  0.46498953055E+02  0.37949480117E+03  0.38233619455E+03  0.00000000000E+00 0.  1.
         14    1    5    5    0    0 -0.18302077973E+02  0.69465307134E+01  0.16438523390E+02  0.25562578085E+02  0.00000000000E+00 0. -1.
         13    1    3    3    0    0  0.53209241975E+01  0.25821709595E+02 -0.76946086087E+02  0.81337402742E+02  0.00000000000E+00 0. -1.
        -14    1    3    3    0    0 -0.26137630439E+02 -0.24168107239E+02 -0.41499101362E+03  0.41651508318E+03  0.00000000000E+00 0.  1.
          5    1    4    4  501    0  0.64721768775E+02 -0.13840322437E+01  0.35113418615E+02  0.73764811838E+02  0.41800000000E+01 0.  1.
         -5    1    4    4    0  501 -0.27186938818E+02 -0.53715053880E+02  0.13354533525E+03  0.14654782708E+03  0.41800000000E+01 0.  1.
</event>
<event>
11    1  0.8299058E-009  0.1254952E+03  0.7561462E-02  0.1124931E+00
         22   -1    0    0    0    0  0.00000000000E+00  0.00000000000E+00  0.13536836494E+04  0.13536836494E+04  0.00000000000E+00 0.  1.
         22   -1    0    0    0    0 -0.00000000000E+00 -0.00000000000E+00 -0.98774415682E+03  0.98774415682E+03  0.00000000000E+00 0. -1.
        -24    2    1    2    0    0 -0.23657992795E+02  0.17741040373E+01 -0.97363815571E+03  0.97658204686E+03  0.71961016594E+02 0.  0.
         25    2    1    2    0    0  0.30632569250E+02 -0.11170694685E+01  0.36650779764E+03  0.38847804608E+03  0.12509046489E+03 0.  0.
         24    2    1    2    0    0 -0.69745764544E+01 -0.65703456876E+00  0.97306985064E+03  0.97636771328E+03  0.79874281811E+02 0.  0.
        -13    1    5    5    0    0  0.29948915943E+02  0.20456554855E+02  0.35931189249E+03  0.36113770821E+03  0.00000000000E+00 0.  1.
         14    1    5    5    0    0 -0.36923492397E+02 -0.21113589423E+02  0.61375795815E+03  0.61523000507E+03  0.00000000000E+00 0. -1.
         13    1    3    3    0    0 -0.47429953222E+02 -0.85890751090E+01 -0.72329236022E+03  0.72489668990E+03  0.00000000000E+00 0. -1.
        -14    1    3    3    0    0  0.23771960427E+02  0.10363179146E+02 -0.25034579549E+03  0.25168535695E+03  0.00000000000E+00 0.  1.
          5    1    4    4  501    0  0.65593882283E+02 -0.36254979082E+02  0.26517220614E+03  0.27559164032E+03  0.41800000000E+01 0. -1.
         -5    1    4    4    0  501 -0.34961313033E+02  0.35137909613E+02  0.10133559150E+03  0.11288640576E+03  0.41800000000E+01 0. -1.
</event>
<event>
11    1  0.8299058E-009  0.1301566E+03  0.7561462E-02  0.1119077E+00
         22   -1    0    0    0    0  0.00000000000E+00  0.00000000000E+00  0.47332927431E+03  0.47332927431E+03  0.00000000000E+00 0.  1.
         22   -1    0    0    0    0 -0.00000000000E+00 -0.00000000000E+00 -0.33240655570E+03  0.33240655570E+03  0.00000000000E+00 0.  1.
        -24    2    1    2    0    0 -0.46606953929E+01  0.29851370941E+01 -0.29395585568E+03  0.30493957797E+03  0.80916425999E+02 0.  0.
         25    2    1    2    0    0 -0.47024330517E+00  0.33241420018E+02  0.12684552894E+03  0.18122458686E+03  0.12508936620E+03 0.  0.
         24    2    1    2    0    0  0.51309386981E+01 -0.36226557112E+02  0.30803304535E+03  0.31957166519E+03  0.76830997612E+02 0.  0.
        -13    1    5    5    0    0 -0.26360694463E+02 -0.91763787051E+01  0.22514469877E+03  0.22686830435E+03  0.00000000000E+00 0.  1.
         14    1    5    5    0    0  0.31491633161E+02 -0.27050178407E+02  0.82888346584E+02  0.92703360836E+02  0.00000000000E+00 0. -1.
         13    1    3    3    0    0 -0.31398913136E+02 -0.19032905790E+02 -0.77833704064E+02  0.86059448855E+02  0.00000000000E+00 0. -1.
        -14    1    3    3    0    0  0.26738217743E+02  0.22018042884E+02 -0.21612215162E+03  0.21888012911E+03  0.00000000000E+00 0.  1.
          5    1    4    4  501    0 -0.36794474540E+02  0.68765191588E+02  0.83192902617E+02  0.11410966820E+03  0.41800000000E+01 0.  1.
         -5    1    4    4    0  501  0.36324231235E+02 -0.35523771570E+02  0.43652626323E+02  0.67114918656E+02  0.41800000000E+01 0.  1.
</event>
<event>
11    1  0.8299058E-009  0.2097180E+03  0.7561462E-02  0.1047857E+00
         22   -1    0    0    0    0  0.00000000000E+00  0.00000000000E+00  0.90467999746E+03  0.90467999746E+03  0.00000000000E+00 0. -1.
         22   -1    0    0    0    0 -0.00000000000E+00 -0.00000000000E+00 -0.20104830563E+04  0.20104830563E+04  0.00000000000E+00 0.  1.
        -24    2    1    2    0    0 -0.18383911222E+02  0.16705745409E+03 -0.19748696600E+04  0.19837023821E+04  0.81968322495E+02 0.  0.
         25    2    1    2    0    0  0.22352908093E+02 -0.20813121743E+03  0.66615499676E+03  0.70938540430E+03  0.12508763308E+03 0.  0.
         24    2    1    2    0    0 -0.39689968709E+01  0.41073763340E+02  0.20291160431E+03  0.22207526737E+03  0.80258944955E+02 0.  0.
        -13    1    5    5    0    0  0.12775758055E+02 -0.21041242174E+02  0.40602915944E+02  0.47482108728E+02  0.00000000000E+00 0.  1.
         14    1    5    5    0    0 -0.16744754926E+02  0.62115005514E+02  0.16230868836E+03  0.17459315865E+03  0.00000000000E+00 0. -1.
         11    1    3    3    0    0  0.19710705469E+02  0.68840330478E+02 -0.50351034272E+03  0.50857661000E+03  0.00000000000E+00 0. -1.
        -12    1    3    3    0    0 -0.38094616691E+02  0.98217123613E+02 -0.14713593172E+04  0.14751257721E+04  0.00000000000E+00 0.  1.
          5    1    4    4  501    0 -0.42953137222E+02 -0.13480547349E+03  0.45439101036E+03  0.47592662289E+03  0.41800000000E+01 0. -1.
         -5    1    4    4    0  501  0.65306045315E+02 -0.73325743946E+02  0.21176398640E+03  0.23345878141E+03  0.41800000000E+01 0. -1.
</event>
<event>
11    1  0.8299058E-009  0.1388483E+03  0.7561462E-02  0.1108851E+00
         22   -1    0    0    0    0  0.00000000000E+00  0.00000000000E+00  0.37224641940E+03  0.37224641940E+03  0.00000000000E+00 0. -1.
         22   -1    0    0    0    0 -0.00000000000E+00 -0.00000000000E+00 -0.25300552617E+03  0.25300552617E+03  0.00000000000E+00 0. -1.
        -24    2    1    2    0    0  0.11016266788E+02 -0.55344890780E+02 -0.75662757940E+02  0.12255189315E+03  0.78164560422E+02 0.  0.
         25    2    1    2    0    0 -0.52142871859E+02  0.95918664882E+02 -0.98457877959E+02  0.19302718612E+03  0.12508505702E+03 0.  0.
         24    2    1    2    0    0  0.41126605071E+02 -0.40573774102E+02  0.29336152913E+03  0.30967286630E+03  0.80614319828E+02 0.  0.
        -13    1    5    5    0    0  0.62137364316E+02 -0.19756149769E+02  0.23958744619E+03  0.24830123211E+03  0.00000000000E+00 0.  1.
         14    1    5    5    0    0 -0.21010759245E+02 -0.20817624333E+02  0.53774082940E+02  0.61371634188E+02  0.00000000000E+00 0. -1.
         11    1    3    3    0    0  0.11521558936E+02 -0.71151840906E+02 -0.37517653346E+02  0.81258261717E+02  0.00000000000E+00 0. -1.
        -12    1    3    3    0    0 -0.50529214802E+00  0.15806950126E+02 -0.38145104594E+02  0.41293631432E+02  0.00000000000E+00 0.  1.
          5    1    4    4  501    0 -0.76222022588E+02  0.90700223890E+02 -0.33142612841E+02  0.12309440494E+03  0.41800000000E+01 0.  1.
         -5    1    4    4    0  501  0.24079150729E+02  0.52184409923E+01 -0.65315265119E+02  0.69932781181E+02  0.41800000000E+01 0.  1.
</event>
<event>
11    1  0.8299058E-009  0.1367009E+03  0.7561462E-02  0.1111299E+00
         22   -1    0    0    0    0  0.00000000000E+00  0.00000000000E+00  0.26985066280E+03  0.26985066280E+03  0.00000000000E+00 0. -1.
         22   -1    0    0    0    0 -0.00000000000E+00 -0.00000000000E+00 -0.81710897344E+03  0.81710897344E+03  0.00000000000E+00 0. -1.
        -24    2    1    2    0    0  0.52839628073E+02  0.29926508997E+02 -0.54699686628E+03  0.55649130800E+03  0.82397705821E+02 0.  0.
         25    2    1    2    0    0 -0.13867774501E+01 -0.56413770112E+02 -0.23712193000E+03  0.27396972511E+03  0.12509262161E+03 0.  0.
         24    2    1    2    0    0 -0.51452850623E+02  0.26487261115E+02  0.23686048564E+03  0.25649860313E+03  0.79622062975E+02 0.  0.
        -11    1    5    5    0    0 -0.20499061291E+02 -0.28316577523E+02  0.97709367254E+02  0.10377456589E+03  0.00000000000E+00 0.  1.
         12    1    5    5    0    0 -0.30953789331E+02  0.54803838638E+02  0.13915111839E+03  0.15272403724E+03  0.00000000000E+00 0. -1.
         11    1    3    3    0    0  0.24080206702E+02  0.96296147158E+01 -0.48095900039E+03  0.48165770615E+03  0.00000000000E+00 0. -1.
        -12    1    3    3    0    0  0.28759421371E+02  0.20296894281E+02 -0.66037865886E+02  0.74833601850E+02  0.00000000000E+00 0.  1.
          5    1    4    4  501    0  0.18106232122E+02  0.31155377044E+01 -0.20030956358E+03  0.20119377694E+03  0.41800000000E+01 0.  1.
         -5    1    4    4    0  501 -0.19493009572E+02 -0.59529307816E+02 -0.36812366415E+02  0.72775948172E+02  0.41800000000E+01 0.  1.
</event>
<event>
11    1  0.8299058E-009  0.1552385E+03  0.7561462E-02  0.1091643E+00
         22   -1    0    0    0    0  0.00000000000E+00  0.00000000000E+00  0.27906739287E+03  0.27906739287E+03  0.00000000000E+00 0. -1.
         22   -1    0    0    0    0 -0.00000000000E+00 -0.00000000000E+00 -0.21708072494E+03  0.21708072494E+03  0.00000000000E+00 0. -1.
         24    2    1    2    0    0  0.38355722260E+02  0.88377316616E+02 -0.12677262286E+03  0.17808307089E+03  0.79753186193E+02 0.  0.
         25    2    1    2    0    0 -0.68940511638E+02 -0.48223522836E+02  0.52110198776E+02  0.15950305356E+03  0.12508976368E+03 0.  0.
        -24    2    1    2    0    0  0.30584789378E+02 -0.40153793780E+02  0.13664909201E+03  0.15856199336E+03  0.62619285338E+02 0.  0.
        -11    1    3    3    0    0  0.33465347207E+01 -0.13339061582E+02 -0.29616058343E+01  0.14067727878E+02  0.00000000000E+00 0.  1.
         12    1    3    3    0    0  0.35009187539E+02  0.10171637820E+03 -0.12381101703E+03  0.16401534301E+03  0.00000000000E+00 0. -1.
         13    1    5    5    0    0  0.21177030771E+02 -0.30669036197E+02  0.22293543911E+02  0.43428775180E+02  0.00000000000E+00 0. -1.
        -14    1    5    5    0    0  0.94077586072E+01 -0.94847575830E+01  0.11435554810E+03  0.11513321818E+03  0.00000000000E+00 0.  1.
          5    1    4    4  501    0 -0.30425482495E+02  0.40169979703E+02  0.34977362970E+02  0.61483539055E+02  0.41800000000E+01 0. -1.
         -5    1    4    4    0  501 -0.38515029143E+02 -0.88393502539E+02  0.17132835805E+02  0.98019514504E+02  0.41800000000E+01 0. -1.
</event>
<event>
11    1  0.8299058E-009  0.1517230E+03  0.7561462E-02  0.1095131E+00
         22   -1    0    0    0    0  0.00000000000E+00  0.00000000000E+00  0.96707832066E+03  0.96707832066E+03  0.00000000000E+00 0. -1.
         22   -1    0    0    0    0 -0.00000000000E+00 -0.00000000000E+00 -0.27114956372E+03  0.27114956372E+03  0.00000000000E+00 0. -1.
        -24    2    1    2    0    0  0.87234483068E+02  0.11227282228E+02 -0.19862846727E+03  0.23174565495E+03  0.80727155756E+02 0.  0.
         25    2    1    2    0    0 -0.70159060187E+02 -0.27434596174E+02  0.45174989561E+02  0.15284963902E+03  0.12508909494E+03 0.  0.
         24    2    1    2    0    0 -0.17075422881E+02  0.16207313946E+02  0.84938223465E+03  0.85363259042E+03  0.81756784334E+02 0.  0.
        -11    1    5    5    0    0  0.11061391522E+02  0.57616598776E+01  0.19120711248E+02  0.22828769252E+02  0.00000000000E+00 0.  1.
         12    1    5    5    0    0 -0.28136814403E+02  0.10445654068E+02  0.83026152340E+03  0.83080382116E+03  0.00000000000E+00 0. -1.
         11    1    3    3    0    0  0.81560217432E+02  0.36880445675E+02 -0.17428963968E+03  0.19593140340E+03  0.00000000000E+00 0. -1.
        -12    1    3    3    0    0  0.56742656356E+01 -0.25653163447E+02 -0.24338827590E+02  0.35814251546E+02  0.00000000000E+00 0.  1.
          5    1    4    4  501    0 -0.56822252227E+02  0.44605107814E+02  0.27152647473E+02  0.77285979686E+02  0.41800000000E+01 0. -1.
         -5    1    4    4    0  501 -0.13336807961E+02 -0.72039703988E+02  0.18022342088E+02  0.75563659332E+02  0.41800000000E+01 0. -1.
</event>
<event>
11    1  0.8299058E-009  0.1430727E+03  0.7561462E-02  0.1104175E+00
         22   -1    0    0    0    0  0.00000000000E+00  0.00000000000E+00  0.83110642211E+03  0.83110642211E+03  0.00000000000E+00 0.  1.
         22   -1    0    0    0    0 -0.00000000000E+00 -0.00000000000E+00 -0.11865142401E+03  0.11865142401E+03  0.00000000000E+00 0. -1.
        -24    2    1    2    0    0  0.35392044295E+02 -0.55244392632E+02 -0.36043071802E+02  0.11117739891E+03  0.82199582038E+02 0.  0.
         25    2    1    2    0    0 -0.31549374162E+02  0.78033720084E+02  0.91763173566E+02  0.17650319295E+03  0.12509305584E+03 0.  0.
         24    2    1    2    0    0 -0.38426701326E+01 -0.22789327451E+02  0.65673489634E+03  0.66207725425E+03  0.80693537332E+02 0.  0.
        -11    1    5    5    0    0 -0.10401736251E+02  0.23280807041E+02  0.42226230163E+03  0.42303149229E+03  0.00000000000E+00 0.  1.
         12    1    5    5    0    0  0.65590661182E+01 -0.46070134493E+02  0.23447259472E+03  0.23904576197E+03  0.00000000000E+00 0. -1.
         13    1    3    3    0    0  0.19509921560E+02 -0.29817262549E+02 -0.62007830770E+02  0.71516971845E+02  0.00000000000E+00 0. -1.
        -14    1    3    3    0    0  0.15882122735E+02 -0.25427130083E+02  0.25964758968E+02  0.39660427066E+02  0.00000000000E+00 0.  1.
          5    1    4    4  501    0 -0.21927558064E+02 -0.18146893843E+02  0.72300986980E+02  0.77814090479E+02  0.41800000000E+01 0. -1.
         -5    1    4    4    0  501 -0.96218160982E+01  0.96180613927E+02  0.19462186586E+02  0.98689102474E+02  0.41800000000E+01 0. -1.
</event>
<event>
11    1  0.8299058E-009  0.1534670E+03  0.7561462E-02  0.1093388E+00
         22   -1    0    0    0    0  0.00000000000E+00  0.00000000000E+00  0.13531080571E+04  0.13531080571E+04  0.00000000000E+00 0. -1.
         22   -1    0    0    0    0 -0.00000000000E+00 -0.00000000000E+00 -0.14032051842E+04  0.14032051842E+04  0.00000000000E+00 0.  1.
         24    2    1    2    0    0  0.24890231548E+02  0.41756958681E+02 -0.13284939757E+04  0.13317694787E+04  0.79690234368E+02 0.  0.
         25    2    1    2    0    0  0.63013852463E+01 -0.12372882916E+03  0.40202284202E+02  0.18058862997E+03  0.12508996362E+03 0.  0.
        -24    2    1    2    0    0 -0.31191616794E+02  0.81971870482E+02  0.12381945645E+04  0.12439551327E+04  0.81279075486E+02 0.  0.
        -13    1    3    3    0    0  0.49573777922E+02  0.63784305859E+01 -0.75905594501E+03  0.76069979065E+03  0.00000000000E+00 0.  1.
         14    1    3    3    0    0 -0.24683546374E+02  0.35378528095E+02 -0.56943803073E+03  0.57106968801E+03  0.00000000000E+00 0. -1.
         11    1    5    5    0    0 -0.31820119358E+01  0.89562081124E+02  0.99742005008E+03  0.10014380899E+04  0.00000000000E+00 0. -1.
        -12    1    5    5    0    0 -0.28009604858E+02 -0.75902106418E+01  0.24077451442E+03  0.24251704282E+03  0.00000000000E+00 0.  1.
          5    1    4    4  501    0  0.52092885282E+02 -0.37402822731E+02 -0.18043210235E+02  0.66750802848E+02  0.41800000000E+01 0.  1.
         -5    1    4    4    0  501 -0.45791500036E+02 -0.86326006433E+02  0.58245494437E+02  0.11383782712E+03  0.41800000000E+01 0.  1.
</event>
<event>
11    1  0.8299058E-009  0.2783862E+03  0.7561462E-02  0.1009778E+00
         22   -1    0    0    0    0  0.00000000000E+00  0.00000000000E+00  0.56194063373E+03  0.56194063373E+03  0.00000000000E+00 0.  1.
         22   -1    0    0    0    0 -0.00000000000E+00 -0.00000000000E+00 -0.10275091631E+04  0.10275091631E+04  0.00000000000E+00 0. -1.
         24    2    1    2    0    0  0.14495070394E+03 -0.19623082701E+03 -0.85923588971E+03  0.89672681213E+03  0.79469600417E+02 0.  0.
         25    2    1    2    0    0 -0.22261563858E+03  0.29141093847E+03  0.38675996995E+03  0.54745826663E+03  0.12509684945E+03 0.  0.
        -24    2    1    2    0    0  0.77664934645E+02 -0.95180111464E+02  0.69073904318E+01  0.14526471804E+03  0.77220661560E+02 0.  0.
        -11    1    3    3    0    0  0.97223213707E+02 -0.10851580582E+03 -0.37516867139E+03  0.40246685005E+03  0.00000000000E+00 0.  1.
         12    1    3    3    0    0  0.47727490230E+02 -0.87715021190E+02 -0.48406721832E+03  0.49425996209E+03  0.00000000000E+00 0. -1.
         13    1    5    5    0    0  0.72359402186E+01 -0.48971996703E+02 -0.24664705963E+02  0.55307892856E+02  0.00000000000E+00 0. -1.
        -14    1    5    5    0    0  0.70428994426E+02 -0.46208114761E+02  0.31572096395E+02  0.89956825180E+02  0.00000000000E+00 0.  1.
          5    1    4    4  501    0 -0.20033217471E+03  0.25921051317E+03  0.38829278518E+03  0.50804707438E+03  0.41800000000E+01 0.  1.
         -5    1    4    4    0  501 -0.22283463873E+02  0.32200425299E+02 -0.15328152361E+01  0.39411192245E+02  0.41800000000E+01 0.  1.
</event>
<event>
11    1  0.8299058E-009  0.3557810E+03  0.7561462E-02  0.9790068E-01
         22   -1    0    0    0    0  0.00000000000E+00  0.00000000000E+00  0.14309319788E+04  0.14309319788E+04  0.00000000000E+00 0. -1.
         22   -1    0    0    0    0 -0.00000000000E+00 -0.00000000000E+00 -0.16287917156E+03  0.16287917156E+03  0.00000000000E+00 0. -1.
        -24    2    1    2    0    0 -0.31340149990E+03  0.95875558374E+02  0.16683668828E+03  0.37657254079E+03  0.80992438475E+02 0.  0.
         25    2    1    2    0    0  0.36194374398E+03  0.96189934528E+00  0.81825569493E+03  0.90343454576E+03  0.12508955643E+03 0.  0.
         24    2    1    2    0    0 -0.48542244083E+02 -0.96837457720E+02  0.28296042398E+03  0.31380406376E+03  0.81685654902E+02 0.  0.
        -13    1    5    5    0    0 -0.16889569679E+02 -0.54223636748E+02  0.52609560566E+02  0.77415929944E+02  0.00000000000E+00 0.  1.
         14    1    5    5    0    0 -0.31652674404E+02 -0.42613820971E+02  0.23035086342E+03  0.23638813382E+03  0.00000000000E+00 0. -1.
         11    1    3    3    0    0 -0.14257545792E+03  0.31675468693E+02  0.11771772230E+03  0.18758613665E+03  0.00000000000E+00 0. -1.
        -12    1    3    3    0    0 -0.17082604198E+03  0.64200089681E+02  0.49118965980E+02  0.18898640414E+03  0.00000000000E+00 0.  1.
          5    1    4    4  501    0  0.45438701503E+02  0.16566703743E+02  0.39236191979E+02  0.62418606426E+02  0.41800000000E+01 0. -1.
         -5    1    4    4    0  501  0.31650504248E+03 -0.15604804398E+02  0.77901950295E+03  0.84101593934E+03  0.41800000000E+01 0. -1.
</event>
<event>
11    1  0.8299058E-009  0.2105388E+03  0.7561462E-02  0.1047312E+00
         22   -1    0    0    0    0  0.00000000000E+00  0.00000000000E+00  0.22278341570E+04  0.22278341570E+04  0.00000000000E+00 0.  1.
         22   -1    0    0    0    0 -0.00000000000E+00 -0.00000000000E+00 -0.11074243999E+03  0.11074243999E+03  0.00000000000E+00 0.  1.
        -24    2    1    2    0    0  0.91734735965E+02  0.40194472768E+02 -0.16468648927E+02  0.12993469669E+03  0.81123064435E+02 0.  0.
         25    2    1    2    0    0 -0.24570048655E+03 -0.66628723435E+02  0.58673656354E+03  0.65170243440E+03  0.12509257424E+03 0.  0.
         24    2    1    2    0    0  0.15396575058E+03  0.26434250666E+02  0.15468238024E+04  0.15569394659E+04  0.83620588632E+02 0.  0.
        -13    1    5    5    0    0  0.13213810274E+03  0.47964510739E+02  0.13940410658E+04  0.14011108328E+04  0.00000000000E+00 0.  1.
         14    1    5    5    0    0  0.21827647844E+02 -0.21530260072E+02  0.15278273659E+03  0.15582863315E+03  0.00000000000E+00 0. -1.
         13    1    3    3    0    0  0.39434728323E+01 -0.20564188730E+02 -0.93508459535E+01  0.22931967995E+02  0.00000000000E+00 0. -1.
        -14    1    3    3    0    0  0.87791263133E+02  0.60758661498E+02 -0.71178029734E+01  0.10700272870E+03  0.00000000000E+00 0.  1.
          5    1    4    4  501    0 -0.98786179162E+02  0.22392413403E+02  0.30802170248E+03  0.32427607215E+03  0.41800000000E+01 0.  1.
         -5    1    4    4    0  501 -0.14691430739E+03 -0.89021136837E+02  0.27871486106E+03  0.32742636224E+03  0.41800000000E+01 0.  1.
</event>
<event>
11    1  0.8299058E-009  0.1874836E+03  0.7561462E-02  0.1063745E+00
         22   -1    0    0    0    0  0.00000000000E+00  0.00000000000E+00  0.31547632098E+03  0.31547632098E+03  0.00000000000E+00 0. -1.
         22   -1    0    0    0    0 -0.00000000000E+00 -0.00000000000E+00 -0.70511305769E+03  0.70511305769E+03  0.00000000000E+00 0. -1.
         24    2    1    2    0    0 -0.59108125072E+01 -0.51754611947E+02 -0.39618144517E+03  0.40707546522E+03  0.77699545196E+02 0.  0.
         25    2    1    2    0    0 -0.96085142048E+02 -0.48192096509E+02 -0.25545734848E+03  0.30406772411E+03  0.12507554223E+03 0.  0.
        -24    2    1    2    0    0  0.10199595456E+03  0.99946708456E+02  0.26200205695E+03  0.30944618934E+03  0.81971622975E+02 0.  0.
        -11    1    3    3    0    0  0.12270025748E+02  0.15862664417E+01 -0.77974465389E+01  0.14624292995E+02  0.00000000000E+00 0.  1.
         12    1    3    3    0    0 -0.18180838255E+02 -0.53340878388E+02 -0.38838399863E+03  0.39245117223E+03  0.00000000000E+00 0. -1.
         11    1    5    5    0    0  0.10785525669E+03  0.94927129779E+02  0.26477554791E+03  0.30124741847E+03  0.00000000000E+00 0. -1.
        -12    1    5    5    0    0 -0.58593021373E+01  0.50195786771E+01 -0.27734909601E+01  0.81987708675E+01  0.00000000000E+00 0.  1.
          5    1    4    4  501    0 -0.29069430501E+02  0.41358216407E+02 -0.57648174787E+02  0.76787487980E+02  0.41800000000E+01 0.  1.
         -5    1    4    4    0  501 -0.67015711547E+02 -0.89550312916E+02 -0.19780917370E+03  0.22728023613E+03  0.41800000000E+01 0.  1.
</event>
<event>
11    1  0.8299058E-009  0.1582503E+03  0.7561462E-02  0.1088735E+00
         22   -1    0    0    0    0  0.00000000000E+00  0.00000000000E+00  0.98410453152E+03  0.98410453152E+03  0.00000000000E+00 0.  1.
         22   -1    0    0    0    0 -0.00000000000E+00 -0.00000000000E+00 -0.51520782781E+03  0.51520782781E+03  0.00000000000E+00 0. -1.
         24    2    1    2    0    0  0.97757582476E+01  0.98566654017E+02 -0.42675234974E+03  0.44516807443E+03  0.79032245009E+02 0.  0.
         25    2    1    2    0    0 -0.22824827006E+02 -0.78425037047E+02 -0.53826335544E+01  0.14948667352E+03  0.12508330685E+03 0.  0.
        -24    2    1    2    0    0  0.13049068759E+02 -0.20141616971E+02  0.90103168700E+03  0.90465761137E+03  0.77274380654E+02 0.  0.
        -11    1    3    3    0    0 -0.23891709195E+02  0.13577276301E+02 -0.45891595511E+02  0.53490136835E+02  0.00000000000E+00 0.  1.
         12    1    3    3    0    0  0.33667467443E+02  0.84989377717E+02 -0.38086075423E+03  0.39167793760E+03  0.00000000000E+00 0. -1.
         13    1    5    5    0    0  0.37366826744E+02 -0.19722824633E+02  0.28194935777E+03  0.28509771991E+03  0.00000000000E+00 0. -1.
        -14    1    5    5    0    0 -0.24317757985E+02 -0.41879233838E+00  0.61908232923E+03  0.61955989146E+03  0.00000000000E+00 0.  1.
          5    1    4    4  501    0 -0.67895389733E+02 -0.19039826195E+02 -0.19968726779E+02  0.73406548602E+02  0.41800000000E+01 0.  1.
         -5    1    4    4    0  501  0.45070562726E+02 -0.59385210851E+02  0.14586093224E+02  0.76080124920E+02  0.41800000000E+01 0.  1.
</event>
<event>
11    1  0.8299058E-009  0.1367439E+03  0.7561462E-02  0.1111250E+00
         22   -1    0    0    0    0  0.00000000000E+00  0.00000000000E+00  0.10130518120E+04  0.10130518120E+04  0.00000000000E+00 0.  1.
         22   -1    0    0    0    0 -0.00000000000E+00 -0.00000000000E+00 -0.10286190765E+03  0.10286190765E+03  0.00000000000E+00 0. -1.
        -24    2    1    2    0    0  0.44461615015E+02  0.27450018424E+02 -0.53716538392E+02  0.11059916181E+03  0.81341068196E+02 0.  0.
         25    2    1    2    0    0 -0.81657179246E+02 -0.40713407457E+02  0.32177837528E+03  0.35709106760E+03  0.12508889357E+03 0.  0.
         24    2    1    2    0    0  0.37195564232E+02  0.13263389033E+02  0.64212806746E+03  0.64822349023E+03  0.79409135357E+02 0.  0.
        -13    1    5    5    0    0  0.37400285322E+02  0.15129513703E+02  0.64418011917E+03  0.64544225881E+03  0.00000000000E+00 0.  1.
         14    1    5    5    0    0 -0.20472109019E+00 -0.18661246701E+01 -0.20520517064E+01  0.27812314206E+01  0.00000000000E+00 0. -1.
         11    1    3    3    0    0  0.47393296293E+02  0.43519464640E+02 -0.64436396878E+02  0.91061065109E+02  0.00000000000E+00 0. -1.
        -12    1    3    3    0    0 -0.29316812784E+01 -0.16069446216E+02  0.10719858486E+02  0.19538096703E+02  0.00000000000E+00 0.  1.
          5    1    4    4  501    0  0.11061965210E+02 -0.45873211784E+00 -0.65527180555E+01  0.13527306582E+02  0.41800000000E+01 0. -1.
         -5    1    4    4    0  501 -0.92719144456E+02 -0.40254675339E+02  0.32833109334E+03  0.34356376102E+03  0.41800000000E+01 0. -1.
</event>
<event>
11    1  0.8299058E-009  0.1506291E+03  0.7561462E-02  0.1096238E+00
         22   -1    0    0    0    0  0.00000000000E+00  0.00000000000E+00  0.68807560430E+03  0.68807560430E+03  0.00000000000E+00 0. -1.
         22   -1    0    0    0    0 -0.00000000000E+00 -0.00000000000E+00 -0.36667344989E+03  0.36667344989E+03  0.00000000000E+00 0.  1.
        -24    2    1    2    0    0 -0.69521133872E+02 -0.47408061427E+02 -0.30147211520E+03  0.32266287662E+03  0.78391219904E+02 0.  0.
         25    2    1    2    0    0  0.86935533639E+02  0.15695481328E+02  0.63172549274E+02  0.16566095192E+03  0.12509454371E+03 0.  0.
         24    2    1    2    0    0 -0.17414399767E+02  0.31712580099E+02  0.55970172034E+03  0.56642522566E+03  0.79136410421E+02 0.  0.
        -13    1    5    5    0    0  0.14275160018E+02  0.41374235093E+02  0.17853783085E+03  0.18382427633E+03  0.00000000000E+00 0.  1.
         14    1    5    5    0    0 -0.31689559785E+02 -0.96616549937E+01  0.38116388949E+03  0.38260094933E+03  0.00000000000E+00 0. -1.
         13    1    3    3    0    0  0.26672437587E+01 -0.31082861339E+02 -0.38928518040E+02  0.49886751499E+02  0.00000000000E+00 0. -1.
        -14    1    3    3    0    0 -0.72188377631E+02 -0.16325200088E+02 -0.26254359716E+03  0.27277612512E+03  0.00000000000E+00 0.  1.
          5    1    4    4  501    0 -0.13550861876E+01 -0.50841998606E+01  0.73922736152E+02  0.74227546551E+02  0.41800000000E+01 0.  1.
         -5    1    4    4    0  501  0.88290619826E+02  0.20779681188E+02 -0.10750186878E+02  0.91433405370E+02  0.41800000000E+01 0.  1.
</event>
<event>
11    1  0.8299058E-009  0.1552865E+03  0.7561462E-02  0.1091596E+00
         22   -1    0    0    0    0  0.00000000000E+00  0.00000000000E+00  0.21773383733E+04  0.21773383733E+04  0.00000000000E+00 0.  1.
         22   -1    0    0    0    0 -0.00000000000E+00 -0.00000000000E+00 -0.27344665695E+03  0.27344665695E+03  0.00000000000E+00 0.  1.
         24    2    1    2    0    0  0.85707159145E+02  0.47871472601E+02 -0.23403151467E+03  0.26652093618E+03  0.81395728076E+02 0.  0.
         25    2    1    2    0    0 -0.22718005539E+02 -0.22932953594E+01  0.16564809340E+03  0.20882762443E+03  0.12509324082E+03 0.  0.
        -24    2    1    2    0    0 -0.62989153606E+02 -0.45578177242E+02  0.19722751376E+04  0.19754364696E+04  0.80218597373E+02 0.  0.
        -13    1    3    3    0    0 -0.93049613819E+01  0.29264405868E+02 -0.56461577085E+02  0.64272058035E+02  0.00000000000E+00 0.  1.
         14    1    3    3    0    0  0.95012120527E+02  0.18607066733E+02 -0.17756993758E+03  0.20224887815E+03  0.00000000000E+00 0. -1.
         13    1    5    5    0    0 -0.39988519529E+02 -0.36614868859E+02  0.49594445318E+03  0.49889941968E+03  0.00000000000E+00 0. -1.
        -14    1    5    5    0    0 -0.23000634077E+02 -0.89633083824E+01  0.14763306844E+04  0.14765370500E+04  0.00000000000E+00 0.  1.
          5    1    4    4  501    0 -0.59171836799E+02 -0.42237551569E+02  0.99024099933E+02  0.12291688981E+03  0.41800000000E+01 0. -1.
         -5    1    4    4    0  501  0.36453831260E+02  0.39944256210E+02  0.66623993471E+02  0.85910734625E+02  0.41800000000E+01 0. -1.
</event>
<event>
11    1  0.8299058E-009  0.1640736E+03  0.7561462E-02  0.1083307E+00
         22   -1    0    0    0    0  0.00000000000E+00  0.00000000000E+00  0.12158388304E+03  0.12158388304E+03  0.00000000000E+00 0.  1.
         22   -1    0    0    0    0 -0.00000000000E+00 -0.00000000000E+00 -0.14533929704E+04  0.14533929704E+04  0.00000000000E+00 0.  1.
         24    2    1    2    0    0  0.10660490018E+03 -0.41514866754E+02 -0.12828082454E+04  0.12904048035E+04  0.80370850063E+02 0.  0.
         25    2    1    2    0    0 -0.37516489730E+02 -0.12869244029E+02 -0.89476605666E+02  0.15885608920E+03  0.12512429688E+03 0.  0.
        -24    2    1    2    0    0 -0.69088410453E+02  0.54384110783E+02  0.40475763712E+02  0.12571596073E+03  0.80220791384E+02 0.  0.
        -13    1    3    3    0    0  0.44426983107E+02 -0.16273704438E+02 -0.93414642674E+03  0.93534386023E+03  0.00000000000E+00 0.  1.
         14    1    3    3    0    0  0.62177917075E+02 -0.25241162316E+02 -0.34866181870E+03  0.35506094331E+03  0.00000000000E+00 0. -1.
         13    1    5    5    0    0  0.16766060055E+02  0.10049811412E+02 -0.29710983750E+01  0.19771871554E+02  0.00000000000E+00 0. -1.
        -14    1    5    5    0    0 -0.85854470507E+02  0.44334299370E+02  0.43446862087E+02  0.10594408918E+03  0.00000000000E+00 0.  1.
          5    1    4    4  501    0  0.21084934497E+02  0.43806785453E+02 -0.42261395731E+02  0.64553132252E+02  0.41800000000E+01 0.  1.
         -5    1    4    4    0  501 -0.58601424227E+02 -0.56676029482E+02 -0.47215209935E+02  0.94302956945E+02  0.41800000000E+01 0.  1.
</event>
<event>
11    1  0.8299058E-009  0.1538866E+03  0.7561462E-02  0.1092972E+00
         22   -1    0    0    0    0  0.00000000000E+00  0.00000000000E+00  0.11664677969E+04  0.11664677969E+04  0.00000000000E+00 0.  1.
         22   -1    0    0    0    0 -0.00000000000E+00 -0.00000000000E+00 -0.10304529837E+03  0.10304529837E+03  0.00000000000E+00 0. -1.
         24    2    1    2    0    0 -0.51306040526E+02  0.71499834962E+02 -0.43773922475E+02  0.12169811893E+03  0.71761686639E+02 0.  0.
         25    2    1    2    0    0  0.71998046580E+02 -0.77740125293E+02  0.35523348259E+03  0.39123575630E+03  0.12508934434E+03 0.  0.
        -24    2    1    2    0    0 -0.20692006055E+02  0.62402903314E+01  0.75196293843E+03  0.75657922006E+03  0.80602451012E+02 0.  0.
        -13    1    3    3    0    0  0.10300996494E+02 -0.18588370856E+01  0.76568080736E+01  0.12968905658E+02  0.00000000000E+00 0.  1.
         14    1    3    3    0    0 -0.61607037020E+02  0.73358672047E+02 -0.51430730549E+02  0.10872921328E+03  0.00000000000E+00 0. -1.
         11    1    5    5    0    0 -0.29120995905E+02 -0.52954941004E+01  0.95968484462E+02  0.10042920228E+03  0.00000000000E+00 0. -1.
        -12    1    5    5    0    0  0.84289898503E+01  0.11535784432E+02  0.65599445397E+03  0.65615001778E+03  0.00000000000E+00 0.  1.
          5    1    4    4  501    0  0.64967656843E+02  0.28806672458E+01  0.25036326355E+03  0.25870510396E+03  0.41800000000E+01 0.  1.
         -5    1    4    4    0  501  0.70303897373E+01 -0.80620792539E+02  0.10487021904E+03  0.13253065234E+03  0.41800000000E+01 0.  1.
</event>
<event>
11    1  0.8299058E-009  0.3262093E+03  0.7561462E-02  0.9896710E-01
         22   -1    0    0    0    0  0.00000000000E+00  0.00000000000E+00  0.52020941977E+03  0.52020941977E+03  0.00000000000E+00 0. -1.
         22   -1    0    0    0    0 -0.00000000000E+00 -0.00000000000E+00 -0.14812291818E+04  0.14812291818E+04  0.00000000000E+00 0. -1.
         24    2    1    2    0    0  0.66970404384E+02 -0.45026041145E+01 -0.10900516617E+04  0.10951404932E+04  0.81331212919E+02 0.  0.
         25    2    1    2    0    0  0.95336526915E+02  0.26357301168E+03 -0.26200597818E+03  0.40355226819E+03  0.12509002641E+03 0.  0.
        -24    2    1    2    0    0 -0.16230693130E+03 -0.25907040756E+03  0.39103787791E+03  0.50274584010E+03  0.79885804471E+02 0.  0.
        -11    1    3    3    0    0  0.39665718597E+02  0.25631139166E+02 -0.27130983555E+03  0.27538945404E+03  0.00000000000E+00 0.  1.
         12    1    3    3    0    0  0.27304685787E+02 -0.30133743280E+02 -0.81874182616E+03  0.81975103919E+03  0.00000000000E+00 0. -1.
         11    1    5    5    0    0 -0.66470039221E+02 -0.13636337159E+03  0.25129056427E+03  0.29353054852E+03  0.00000000000E+00 0. -1.
        -12    1    5    5    0    0 -0.95836892079E+02 -0.12270703598E+03  0.13974731365E+03  0.20921529159E+03  0.00000000000E+00 0.  1.
          5    1    4    4  501    0 -0.16980398920E+02  0.61024118367E+01 -0.44691083266E+02  0.48377047256E+02  0.41800000000E+01 0. -1.
         -5    1    4    4    0  501  0.11231692584E+03  0.25747059984E+03 -0.21731489491E+03  0.35517522093E+03  0.41800000000E+01 0. -1.
</event>
<event>
11    1  0.8299058E-009  0.1314527E+03  0.7561462E-02  0.1117497E+00
         22   -1    0    0    0    0  0.00000000000E+00  0.00000000000E+00  0.54783685881E+03  0.54783685881E+03  0.00000000000E+00 0.  1.
         22   -1    0    0    0    0 -0.00000000000E+00 -0.00000000000E+00 -0.25756799591E+03  0.25756799591E+03  0.00000000000E+00 0.  1.
        -24    2    1    2    0    0 -0.27186024677E+02  0.77115704017E+01 -0.19981009803E+03  0.21671231422E+03  0.79003820176E+02 0.  0.
         25    2    1    2    0    0  0.39815777932E+02  0.30370117893E+02  0.61212499230E+02  0.14799074390E+03  0.12508656996E+03 0.  0.
         24    2    1    2    0    0 -0.12629753255E+02 -0.38081688295E+02  0.42886646170E+03  0.44070179660E+03  0.93176745542E+02 0.  0.
        -11    1    5    5    0    0  0.10178367270E+02  0.17248654399E+01  0.34461099267E+03  0.34476558788E+03  0.00000000000E+00 0.  1.
         12    1    5    5    0    0 -0.22808120525E+02 -0.39806553735E+02  0.84255469029E+02  0.95936208719E+02  0.00000000000E+00 0. -1.
         11    1    3    3    0    0 -0.85597725803E+00 -0.75983885983E+01  0.53317277264E+01  0.93217770252E+01  0.00000000000E+00 0. -1.
        -12    1    3    3    0    0 -0.26330047419E+02  0.15309959000E+02 -0.20514182576E+03  0.20739053719E+03  0.00000000000E+00 0.  1.
          5    1    4    4  501    0  0.76351962632E+02 -0.19606369711E+01  0.62846004441E+02  0.98997772547E+02  0.41800000000E+01 0. -1.
         -5    1    4    4    0  501 -0.36536184701E+02  0.32330754864E+02 -0.16335052112E+01  0.48992971352E+02  0.41800000000E+01 0. -1.
</event>
<event>
11    1  0.8299058E-009  0.1709949E+03  0.7561462E-02  0.1077169E+00
         22   -1    0    0    0    0  0.00000000000E+00  0.00000000000E+00  0.80320381048E+03  0.80320381048E+03  0.00000000000E+00 0. -1.
         22   -1    0    0    0    0 -0.00000000000E+00 -0.00000000000E+00 -0.28427078237E+03  0.28427078237E+03  0.00000000000E+00 0.  1.
         24    2    1    2    0    0  0.29362332857E+02  0.11264294884E+03 -0.16852540828E+03  0.22004582265E+03  0.80428666015E+02 0.  0.
         25    2    1    2    0    0  0.33886731994E+01 -0.12081783078E+03  0.20970405910E+01  0.17395859506E+03  0.12509501938E+03 0.  0.
        -24    2    1    2    0    0 -0.32751006056E+02  0.81748819396E+01  0.68536139580E+03  0.69347017514E+03  0.10020570771E+03 0.  0.
        -11    1    3    3    0    0  0.45895141550E+02  0.31618413292E+02 -0.46200234918E+02  0.72391641669E+02  0.00000000000E+00 0.  1.
         12    1    3    3    0    0 -0.16532808694E+02  0.81024535546E+02 -0.12232517336E+03  0.14765418098E+03  0.00000000000E+00 0. -1.
         13    1    5    5    0    0 -0.10564550297E+02  0.49644985194E+02  0.48566604585E+03  0.48831111228E+03  0.00000000000E+00 0. -1.
        -14    1    5    5    0    0 -0.22186455759E+02 -0.41470103254E+02  0.19969534995E+03  0.20515906286E+03  0.00000000000E+00 0.  1.
          5    1    4    4  501    0 -0.18912647459E+02  0.43524700488E+01 -0.36047602986E+02  0.41152573559E+02  0.41800000000E+01 0. -1.
         -5    1    4    4    0  501  0.22301320659E+02 -0.12517030083E+03  0.38144643577E+02  0.13280602150E+03  0.41800000000E+01 0. -1.
</event>
<event>
11    1  0.8299058E-009  0.1490638E+03  0.7561462E-02  0.1097839E+00
         22   -1    0    0    0    0  0.00000000000E+00  0.00000000000E+00  0.77241962470E+02  0.77241962470E+02  0.00000000000E+00 0. -1.
         22   -1    0    0    0    0 -0.00000000000E+00 -0.00000000000E+00 -0.24060122644E+04  0.24060122644E+04  0.00000000000E+00 0. -1.
         24    2    1    2    0    0 -0.51732274719E+02  0.44235044166E+02 -0.74548592284E+03  0.75291039493E+03  0.80571919777E+02 0.  0.
         25    2    1    2    0    0  0.51235459360E+02 -0.81598499624E+02 -0.16241554725E+04  0.16318121880E+04  0.12508649351E+03 0.  0.
        -24    2    1    2    0    0  0.49681535914E+00  0.37363455457E+02  0.40871093342E+02  0.98531643936E+02  0.81497018084E+02 0.  0.
        -13    1    3    3    0    0 -0.52619698515E+01 -0.62016441883E+01 -0.56510893492E+01  0.99037128487E+01  0.00000000000E+00 0.  1.
         14    1    3    3    0    0 -0.46470304867E+02  0.50436688355E+02 -0.73983483349E+03  0.74300668208E+03  0.00000000000E+00 0. -1.
         11    1    5    5    0    0  0.39437727820E+02  0.28112708691E+02  0.30319342447E+02  0.57139489777E+02  0.00000000000E+00 0. -1.
        -12    1    5    5    0    0 -0.38940912461E+02  0.92507467660E+01  0.10551750896E+02  0.41392154160E+02  0.00000000000E+00 0.  1.
          5    1    4    4  501    0  0.11414662198E+02 -0.98668908084E+02 -0.13964273536E+04  0.13999616689E+04  0.41800000000E+01 0. -1.
         -5    1    4    4    0  501  0.39820797161E+02  0.17070408461E+02 -0.22772811882E+03  0.23185051916E+03  0.41800000000E+01 0. -1.
</event>
<event>
11    1  0.8299058E-009  0.1426176E+03  0.7561462E-02  0.1104670E+00
         22   -1    0    0    0    0  0.00000000000E+00  0.00000000000E+00  0.29162835427E+03  0.29162835427E+03  0.00000000000E+00 0. -1.
         22   -1    0    0    0    0 -0.00000000000E+00 -0.00000000000E+00 -0.13321524566E+04  0.13321524566E+04  0.00000000000E+00 0.  1.
        -24    2    1    2    0    0  0.52693555697E+02  0.42067331862E+02 -0.12124367782E+04  0.12169914623E+04  0.80740367337E+02 0.  0.
         25    2    1    2    0    0 -0.77715015325E+02 -0.54842025255E+02 -0.53627367851E+02  0.16604503514E+03  0.12509111787E+03 0.  0.
         24    2    1    2    0    0  0.25021459628E+02  0.12774693393E+02  0.22554004368E+03  0.24074431349E+03  0.79374094905E+02 0.  0.
        -11    1    5    5    0    0  0.19936130954E+02  0.22695182908E+02  0.23178047436E+02  0.38075484601E+02  0.00000000000E+00 0.  1.
         12    1    5    5    0    0  0.50853286737E+01 -0.99204895147E+01  0.20236199624E+03  0.20266882889E+03  0.00000000000E+00 0. -1.
         13    1    3    3    0    0  0.18140610289E+02  0.87735375079E+00 -0.48108394466E+02  0.51422457247E+02  0.00000000000E+00 0. -1.
        -14    1    3    3    0    0  0.34552945408E+02  0.41189978111E+02 -0.11643283837E+04  0.11655690050E+04  0.00000000000E+00 0.  1.
          5    1    4    4  501    0 -0.87144275364E+01 -0.48238268219E+01 -0.76858557471E+02  0.77613921490E+02  0.41800000000E+01 0.  1.
         -5    1    4    4    0  501 -0.69000587789E+02 -0.50018198433E+02  0.23231189620E+02  0.88431113647E+02  0.41800000000E+01 0.  1.
</event>
<event>
11    1  0.8299058E-009  0.1357180E+03  0.7561462E-02  0.1112436E+00
         22   -1    0    0    0    0  0.00000000000E+00  0.00000000000E+00  0.42648208740E+03  0.42648208740E+03  0.00000000000E+00 0.  1.
         22   -1    0    0    0    0 -0.00000000000E+00 -0.00000000000E+00 -0.87131140616E+02  0.87131140616E+02  0.00000000000E+00 0.  1.
        -24    2    1    2    0    0 -0.82122249142E+01  0.21238647297E+02 -0.17961840011E+02  0.85197676635E+02  0.80109273061E+02 0.  0.
         25    2    1    2    0    0  0.49451429261E+02  0.14870248353E+02  0.17171137854E+03  0.21862653221E+03  0.12508475097E+03 0.  0.
         24    2    1    2    0    0 -0.41239204347E+02 -0.36108895650E+02  0.18560140826E+03  0.20978901917E+03  0.80987810792E+02 0.  0.
        -13    1    5    5    0    0 -0.48020665428E+01 -0.41922917389E+02  0.35271291486E+02  0.54996862170E+02  0.00000000000E+00 0.  1.
         14    1    5    5    0    0 -0.36437137804E+02  0.58140217390E+01  0.15033011677E+03  0.15479215700E+03  0.00000000000E+00 0. -1.
         11    1    3    3    0    0 -0.41423127049E+02  0.74312993509E+01  0.52207567301E+01  0.42407027311E+02  0.00000000000E+00 0. -1.
        -12    1    3    3    0    0  0.33210902134E+02  0.13807347946E+02 -0.23182596741E+02  0.42790649324E+02  0.00000000000E+00 0.  1.
          5    1    4    4  501    0  0.51981615896E+02 -0.16891115938E+02  0.12525550139E+02  0.56229529565E+02  0.41800000000E+01 0.  1.
         -5    1    4    4    0  501 -0.25301866350E+01  0.31761364291E+02  0.15918582840E+03  0.16239700265E+03  0.41800000000E+01 0.  1.
</event>
<event>
11    1  0.8299058E-009  0.1679761E+03  0.7561462E-02  0.1079806E+00
         22   -1    0    0    0    0  0.00000000000E+00  0.00000000000E+00  0.57384284018E+03  0.57384284018E+03  0.00000000000E+00 0.  1.
         22   -1    0    0    0    0 -0.00000000000E+00 -0.00000000000E+00 -0.66279828801E+03  0.66279828801E+03  0.00000000000E+00 0.  1.
        -24    2    1    2    0    0 -0.31311695578E+01 -0.75750831099E+02 -0.56789389171E+03  0.57797179678E+03  0.76157291172E+02 0.  0.
         25    2    1    2    0    0  0.11375232763E+03  0.51137088302E+02  0.18448147942E+02  0.17759607000E+03  0.12508171759E+03 0.  0.
         24    2    1    2    0    0 -0.11062115807E+03  0.24613742797E+02  0.46049029595E+03  0.48107326141E+03  0.80853529525E+02 0.  0.
        -11    1    5    5    0    0 -0.95808284903E+02  0.32059451189E+02  0.45055941519E+03  0.46174757442E+03  0.00000000000E+00 0.  1.
         12    1    5    5    0    0 -0.14812873171E+02 -0.74457083915E+01  0.99308807519E+01  0.19325686988E+02  0.00000000000E+00 0. -1.
         13    1    3    3    0    0 -0.28598943381E+02 -0.16980464408E+02 -0.92811827266E+02  0.98591434793E+02  0.00000000000E+00 0. -1.
        -14    1    3    3    0    0  0.25467773823E+02 -0.58770366691E+02 -0.47508206445E+03  0.47938036199E+03  0.00000000000E+00 0.  1.
          5    1    4    4  501    0  0.62811734994E+02  0.16906506636E+02 -0.52498487177E+02  0.83694131070E+02  0.41800000000E+01 0.  1.
         -5    1    4    4    0  501  0.50940592638E+02  0.34230581666E+02  0.70946635119E+02  0.93901938927E+02  0.41800000000E+01 0.  1.
</event>
<event>
11    1  0.8299058E-009  0.1710902E+03  0.7561462E-02  0.1077087E+00
         22   -1    0    0    0    0  0.00000000000E+00  0.00000000000E+00  0.13074704610E+04  0.13074704610E+04  0.00000000000E+00 0. -1.
         22   -1    0    0    0    0 -0.00000000000E+00 -0.00000000000E+00 -0.11392180865E+04  0.11392180865E+04  0.00000000000E+00 0.  1.
         24    2    1    2    0    0 -0.35708665409E+02 -0.17801120166E+02 -0.10436220347E+04  0.10475134305E+04  0.80903937232E+02 0.  0.
         25    2    1    2    0    0 -0.64989765395E+02 -0.44543398675E+02 -0.28704995530E+02  0.15058606175E+03  0.12507758093E+03 0.  0.
        -24    2    1    2    0    0  0.10069843080E+03  0.62344518841E+02  0.12405794047E+04  0.12485890553E+04  0.76878843505E+02 0.  0.
        -13    1    3    3    0    0 -0.32498246991E+02  0.80648193519E+01 -0.94223262303E+03  0.94282739315E+03  0.00000000000E+00 0.  1.
         14    1    3    3    0    0 -0.32104184174E+01 -0.25865939518E+02 -0.10138941170E+03  0.10468603736E+03  0.00000000000E+00 0. -1.
         13    1    5    5    0    0  0.56601175142E+01  0.43148779561E+02  0.32830040064E+03  0.33117217149E+03  0.00000000000E+00 0. -1.
        -14    1    5    5    0    0  0.95038313290E+02  0.19195739281E+02  0.91227900405E+03  0.91741688377E+03  0.00000000000E+00 0.  1.
          5    1    4    4  501    0 -0.14070008549E+02 -0.81005379686E+02 -0.30500285771E+02  0.87792804436E+02  0.41800000000E+01 0.  1.
         -5    1    4    4    0  501 -0.50919756847E+02  0.36461981011E+02  0.17952902415E+01  0.62793257310E+02  0.41800000000E+01 0.  1.
</event>
<event>
11    1  0.8299058E-009  0.1660367E+03  0.7561462E-02  0.1081533E+00
         22   -1    0    0    0    0  0.00000000000E+00  0.00000000000E+00  0.75168107341E+02  0.75168107341E+02  0.00000000000E+00 0.  1.
         22   -1    0    0    0    0 -0.00000000000E+00 -0.00000000000E+00 -0.90305075467E+03  0.90305075467E+03  0.00000000000E+00 0. -1.
         24    2    1    2    0    0 -0.91120540921E+02  0.69567410763E+02 -0.61670057646E+03  0.63281507646E+03  0.83622618797E+02 0.  0.
         25    2    1    2    0    0  0.95413972294E+02 -0.20431633081E+02 -0.19293465589E+03  0.24977824934E+03  0.12507643528E+03 0.  0.
        -24    2    1    2    0    0 -0.42934313732E+01 -0.49135777681E+02 -0.18247414983E+02  0.95625536209E+02  0.79865617260E+02 0.  0.
        -11    1    3    3    0    0 -0.11545555455E+02  0.49422665270E+02 -0.13610826234E+03  0.14526306747E+03  0.00000000000E+00 0.  1.
         12    1    3    3    0    0 -0.79574985466E+02  0.20144745492E+02 -0.48059231412E+03  0.48755200900E+03  0.00000000000E+00 0. -1.
         13    1    5    5    0    0  0.27556240988E+02 -0.42676080813E+02 -0.32322008372E+02  0.60210518318E+02  0.00000000000E+00 0. -1.
        -14    1    5    5    0    0 -0.31849672361E+02 -0.64596968683E+01  0.14074593389E+02  0.35415017891E+02  0.00000000000E+00 0.  1.
          5    1    4    4  501    0  0.19982973348E+01  0.16725715189E+02 -0.12987605411E+03  0.13103054824E+03  0.41800000000E+01 0. -1.
         -5    1    4    4    0  501  0.93415674959E+02 -0.37157348271E+02 -0.63058601778E+02  0.11874770110E+03  0.41800000000E+01 0. -1.
</event>
<event>
11    1  0.8299058E-009  0.2675400E+03  0.7561462E-02  0.1014949E+00
         22   -1    0    0    0    0  0.00000000000E+00  0.00000000000E+00  0.37795321390E+03  0.37795321390E+03  0.00000000000E+00 0. -1.
         22   -1    0    0    0    0 -0.00000000000E+00 -0.00000000000E+00 -0.31359488093E+03  0.31359488093E+03  0.00000000000E+00 0. -1.
        -24    2    1    2    0    0  0.24271150510E+03  0.83613769059E+02 -0.76421673517E+02  0.27952944157E+03  0.79976868149E+02 0.  0.
         25    2    1    2    0    0 -0.21726284121E+03  0.34435150587E+02  0.75489254941E+02  0.26407263815E+03  0.12508720494E+03 0.  0.
         24    2    1    2    0    0 -0.25448663891E+02 -0.11804891965E+03  0.65290751540E+02  0.14794601511E+03  0.55153959315E+02 0.  0.
        -11    1    5    5    0    0  0.63663527885E+00 -0.10203753639E+03  0.52766230611E+02  0.11487532037E+03  0.00000000000E+00 0.  1.
         12    1    5    5    0    0 -0.26085299170E+02 -0.16011383261E+02  0.12524520928E+02  0.33070694749E+02  0.00000000000E+00 0. -1.
         11    1    3    3    0    0  0.15983976040E+03  0.14727179454E+02 -0.36546976099E+02  0.16462478636E+03  0.00000000000E+00 0. -1.
        -12    1    3    3    0    0  0.82871744693E+02  0.68886589605E+02 -0.39874697417E+02  0.11490465521E+03  0.00000000000E+00 0.  1.
          5    1    4    4  501    0 -0.65636787777E+02  0.60885994990E+00 -0.33929000290E+02  0.74008162258E+02  0.41800000000E+01 0. -1.
         -5    1    4    4    0  501 -0.15162605343E+03  0.33826290637E+02  0.10941825523E+03  0.19006447589E+03  0.41800000000E+01 0. -1.
</event>
<event>
11    1  0.8299058E-009  0.1428957E+03  0.7561462E-02  0.1104367E+00
         22   -1    0    0    0    0  0.00000000000E+00  0.00000000000E+00  0.17448371820E+03  0.17448371820E+03  0.00000000000E+00 0. -1.
         22   -1    0    0    0    0 -0.00000000000E+00 -0.00000000000E+00 -0.54592423963E+03  0.54592423963E+03  0.00000000000E+00 0.  1.
        -24    2    1    2    0    0  0.10065856265E+02 -0.67395236346E+02 -0.36798374756E+03  0.38303797414E+03  0.81624823558E+02 0.  0.
         25    2    1    2    0    0 -0.23265940318E+02  0.70368859444E+02 -0.12462507631E+03  0.19149819024E+03  0.12508823631E+03 0.  0.
         24    2    1    2    0    0  0.13200084054E+02 -0.29736230982E+01  0.12116830243E+03  0.14587179345E+03  0.80085816206E+02 0.  0.
        -11    1    5    5    0    0  0.85181309490E+01  0.35694435549E+02  0.32475906126E+02  0.49003426030E+02  0.00000000000E+00 0.  1.
         12    1    5    5    0    0  0.46819531047E+01 -0.38668058647E+02  0.88692396303E+02  0.96868367419E+02  0.00000000000E+00 0. -1.
         13    1    3    3    0    0  0.13082954052E+02  0.98909603668E+01 -0.16956457636E+02  0.23590596416E+02  0.00000000000E+00 0. -1.
        -14    1    3    3    0    0 -0.30170977874E+01 -0.77286196713E+02 -0.35102728992E+03  0.35944737772E+03  0.00000000000E+00 0.  1.
          5    1    4    4  501    0 -0.44294350176E+02  0.88156789809E+02 -0.47661830560E+02  0.10964821722E+03  0.41800000000E+01 0. -1.
         -5    1    4    4    0  501  0.21028409857E+02 -0.17787930365E+02 -0.76963245746E+02  0.81849973021E+02  0.41800000000E+01 0. -1.
</event>
<event>
11    1  0.8299058E-009  0.1500974E+03  0.7561462E-02  0.1096779E+00
         22   -1    0    0    0    0  0.00000000000E+00  0.00000000000E+00  0.91943338808E+03  0.91943338808E+03  0.00000000000E+00 0. -1.
         22   -1    0    0    0    0 -0.00000000000E+00 -0.00000000000E+00 -0.31925950816E+03  0.31925950816E+03  0.00000000000E+00 0. -1.
        -24    2    1    2    0    0  0.47203826373E+00 -0.81038566246E+02 -0.24708823492E+03  0.27381159696E+03  0.85748018932E+02 0.  0.
         25    2    1    2    0    0 -0.19994864925E+02  0.99045512005E+02  0.57993128923E+02  0.17093873669E+03  0.12508813145E+03 0.  0.
         24    2    1    2    0    0  0.19522826661E+02 -0.18006945759E+02  0.78926898591E+03  0.79394256259E+03  0.81816072476E+02 0.  0.
        -13    1    5    5    0    0 -0.97067998379E+01 -0.37708778789E+02  0.20849463435E+03  0.21209947316E+03  0.00000000000E+00 0.  1.
         14    1    5    5    0    0  0.29229626499E+02  0.19701833030E+02  0.58077435156E+03  0.58184308944E+03  0.00000000000E+00 0. -1.
         11    1    3    3    0    0  0.28261656083E+02 -0.14431107884E+02 -0.14717949924E+03  0.15056155909E+03  0.00000000000E+00 0. -1.
        -12    1    3    3    0    0 -0.27789617819E+02 -0.66607458361E+02 -0.99908735683E+02  0.12325003786E+03  0.00000000000E+00 0.  1.
          5    1    4    4  501    0  0.30091374002E+02  0.81894773882E+02  0.75048953273E+02  0.11516102885E+03  0.41800000000E+01 0.  1.
         -5    1    4    4    0  501 -0.50086238927E+02  0.17150738123E+02 -0.17055824351E+02  0.55777707844E+02  0.41800000000E+01 0.  1.
</event>
<event>
11    1  0.1471277E-008  0.1577970E+03  0.7561462E-02  0.1089168E+00
         22   -1    0    0    0    0  0.00000000000E+00  0.00000000000E+00  0.88360414929E+03  0.88360414929E+03  0.00000000000E+00 0. -1.
         22   -1    0    0    0    0 -0.00000000000E+00 -0.00000000000E+00 -0.49086051928E+03  0.49086051928E+03  0.00000000000E+00 0. -1.
        -24    2    1    2    0    0 -0.18336112073E+02 -0.87531895235E+02 -0.42053461420E+03  0.43762681442E+03  0.81668973703E+02 0.  0.
         25    2    1    2    0    0  0.87704203981E+01 -0.16026567698E+02  0.14484838001E+02  0.12722070056E+03  0.12506608242E+03 0.  0.
         24    2    1    2    0    0  0.95656916750E+01  0.10355846293E+03  0.79879340621E+03  0.80961715359E+03  0.81198348977E+02 0.  0.
        -11    1    5    5    0    0 -0.12664826349E+02  0.10701839444E+02  0.25276467819E+02  0.30229571934E+02  0.00000000000E+00 0.  1.
         12    1    5    5    0    0  0.22230518024E+02  0.92856623489E+02  0.77351693840E+03  0.77938758166E+03  0.00000000000E+00 0. -1.
         13    1    3    3    0    0  0.98091496320E+01 -0.66385433717E+02 -0.37001611290E+03  0.37605208287E+03  0.00000000000E+00 0. -1.
        -14    1    3    3    0    0 -0.28145261705E+02 -0.21146461518E+02 -0.50518501303E+02  0.61574731547E+02  0.00000000000E+00 0.  1.
          5    1    4    4  501    0  0.57091561020E+02 -0.24049133694E+02 -0.22136667203E+02  0.65918977586E+02  0.41800000000E+01 0.  1.
         -5    1    4    4    0  501 -0.48321140622E+02  0.80225659964E+01  0.36621505204E+02  0.61301722974E+02  0.41800000000E+01 0.  1.
</event>
<event>
11    1  0.8299058E-009  0.1805427E+03  0.7561462E-02  0.1069205E+00
         22   -1    0    0    0    0  0.00000000000E+00  0.00000000000E+00  0.86589251777E+03  0.86589251777E+03  0.00000000000E+00 0. -1.
         22   -1    0    0    0    0 -0.00000000000E+00 -0.00000000000E+00 -0.90373638389E+03  0.90373638389E+03  0.00000000000E+00 0.  1.
        -24    2    1    2    0    0  0.75739492088E+00 -0.12814195351E+03 -0.82920406795E+03  0.84296289051E+03  0.81154880184E+02 0.  0.
         25    2    1    2    0    0  0.78143822118E+02  0.21831740824E+03  0.23889600752E+03  0.35565099866E+03  0.12508949900E+03 0.  0.
         24    2    1    2    0    0 -0.78901217039E+02 -0.90175454725E+02  0.55246419431E+03  0.57101501250E+03  0.80526044346E+02 0.  0.
        -11    1    5    5    0    0 -0.13065890445E+02 -0.60878261327E+02  0.15441575624E+03  0.16649656444E+03  0.00000000000E+00 0.  1.
         12    1    5    5    0    0 -0.65835326594E+02 -0.29297193399E+02  0.39804843807E+03  0.40451844806E+03  0.00000000000E+00 0. -1.
         13    1    3    3    0    0 -0.38791086010E+01 -0.56537012428E+02 -0.15653048428E+03  0.16647304217E+03  0.00000000000E+00 0. -1.
        -14    1    3    3    0    0  0.46365035219E+01 -0.71604941084E+02 -0.67267358366E+03  0.67648984834E+03  0.00000000000E+00 0.  1.
          5    1    4    4  501    0  0.18323316550E+02  0.79437171842E+02  0.17171582940E+03  0.19013102500E+03  0.41800000000E+01 0.  1.
         -5    1    4    4    0  501  0.59820505568E+02  0.13888023640E+03  0.67180178118E+02  0.16551997366E+03  0.41800000000E+01 0.  1.
</event>
<event>
11    1  0.8299058E-009  0.4404279E+03  0.7561462E-02  0.9537471E-01
         22   -1    0    0    0    0  0.00000000000E+00  0.00000000000E+00  0.43798677170E+03  0.43798677170E+03  0.00000000000E+00 0. -1.
         22   -1    0    0    0    0 -0.00000000000E+00 -0.00000000000E+00 -0.15276796406E+04  0.15276796406E+04  0.00000000000E+00 0.  1.
         24    2    1    2    0    0  0.43298952636E+03  0.10963595246E+03 -0.11583060505E+04  0.12450917953E+04  0.95292707726E+02 0.  0.
         25    2    1    2    0    0 -0.29378209582E+03 -0.22811526065E+03 -0.15467983634E+03  0.42181504996E+03  0.12513030266E+03 0.  0.
        -24    2    1    2    0    0 -0.13920743054E+03  0.11847930818E+03  0.22329301795E+03  0.29875956700E+03  0.77339846264E+02 0.  0.
        -13    1    3    3    0    0  0.22648475573E+03  0.46803974983E+02 -0.72509038883E+03  0.76107951531E+03  0.00000000000E+00 0.  1.
         14    1    3    3    0    0  0.20650477063E+03  0.62831977479E+02 -0.43321566168E+03  0.48401228002E+03  0.00000000000E+00 0. -1.
         11    1    5    5    0    0 -0.63782694577E+02  0.96070795606E+02  0.16283212385E+03  0.19952977335E+03  0.00000000000E+00 0. -1.
        -12    1    5    5    0    0 -0.75424735967E+02  0.22408512578E+02  0.60460894101E+02  0.99229793646E+02  0.00000000000E+00 0.  1.
          5    1    4    4  501    0 -0.22881245029E+03 -0.13331961352E+03 -0.15488486702E+03  0.30681598913E+03  0.41800000000E+01 0. -1.
         -5    1    4    4    0  501 -0.64969645529E+02 -0.94795647123E+02  0.20503068652E+00  0.11499906083E+03  0.41800000000E+01 0. -1.
</event>
<event>
11    1  0.8299058E-009  0.1438686E+03  0.7561462E-02  0.1103314E+00
         22   -1    0    0    0    0  0.00000000000E+00  0.00000000000E+00  0.17203678834E+04  0.17203678834E+04  0.00000000000E+00 0.  1.
         22   -1    0    0    0    0 -0.00000000000E+00 -0.00000000000E+00 -0.39760077523E+03  0.39760077523E+03  0.00000000000E+00 0.  1.
        -24    2    1    2    0    0 -0.43752971495E+02  0.49719722649E+02 -0.34278305340E+03  0.35824376022E+03  0.80324321994E+02 0.  0.
         25    2    1    2    0    0  0.69818858879E+01  0.14187120266E+02  0.42861945877E+02  0.13317145095E+03  0.12508983905E+03 0.  0.
         24    2    1    2    0    0  0.36771085608E+02 -0.63906842915E+02  0.16226882157E+04  0.16265534475E+04  0.84397125470E+02 0.  0.
        -13    1    5    5    0    0  0.50072653649E+02 -0.77159215715E+02  0.14289645995E+04  0.14319220097E+04  0.00000000000E+00 0.  1.
         14    1    5    5    0    0 -0.13301568042E+02  0.13252372800E+02  0.19372361616E+03  0.19463143773E+03  0.00000000000E+00 0. -1.
         11    1    3    3    0    0 -0.16017548781E+02  0.42538891865E+02 -0.66923170740E+02  0.80900123436E+02  0.00000000000E+00 0. -1.
        -12    1    3    3    0    0 -0.27735422714E+02  0.71808307845E+01 -0.27585988266E+03  0.27734363678E+03  0.00000000000E+00 0.  1.
          5    1    4    4  501    0  0.29082635801E+02  0.59400938093E+02  0.48834674424E+02  0.82319918474E+02  0.41800000000E+01 0. -1.
         -5    1    4    4    0  501 -0.22100749913E+02 -0.45213817828E+02 -0.59727285473E+01  0.50851532480E+02  0.41800000000E+01 0. -1.
</event>
<event>
11    1  0.8299058E-009  0.1648357E+03  0.7561462E-02  0.1082615E+00
         22   -1    0    0    0    0  0.00000000000E+00  0.00000000000E+00  0.15217799912E+04  0.15217799912E+04  0.00000000000E+00 0.  1.
         22   -1    0    0    0    0 -0.00000000000E+00 -0.00000000000E+00 -0.31418205816E+03  0.31418205816E+03  0.00000000000E+00 0.  1.
         24    2    1    2    0    0  0.80681180302E+02 -0.80800773081E+02 -0.25931515624E+03  0.29451287839E+03  0.80344679324E+02 0.  0.
         25    2    1    2    0    0  0.57077386435E+01  0.72219557444E+02  0.11599407564E+03  0.18535360239E+03  0.12511230787E+03 0.  0.
        -24    2    1    2    0    0 -0.86388918945E+02  0.85812156372E+01  0.13509190136E+04  0.13560955686E+04  0.80475630431E+02 0.  0.
        -11    1    3    3    0    0  0.61535098131E+02 -0.12866323965E+02 -0.16604365962E+03  0.17754607147E+03  0.00000000000E+00 0.  1.
         12    1    3    3    0    0  0.19146082171E+02 -0.67934449116E+02 -0.93271496623E+02  0.11696680692E+03  0.00000000000E+00 0. -1.
         11    1    5    5    0    0 -0.65401750153E+02  0.28953538663E+02  0.54850431252E+03  0.55314797042E+03  0.00000000000E+00 0. -1.
        -12    1    5    5    0    0 -0.20987168792E+02 -0.20372323026E+02  0.80241470111E+03  0.80294759814E+03  0.00000000000E+00 0.  1.
          5    1    4    4  501    0  0.15609503749E+02  0.38523612042E+02 -0.18934672930E+02  0.45866322406E+02  0.41800000000E+01 0.  1.
         -5    1    4    4    0  501 -0.99017651058E+01  0.33695945402E+02  0.13492874857E+03  0.13948727999E+03  0.41800000000E+01 0.  1.
</event>
<event>
11    1  0.8299058E-009  0.1292099E+03  0.7561462E-02  0.1120244E+00
         22   -1    0    0    0    0  0.00000000000E+00  0.00000000000E+00  0.11356305742E+04  0.11356305742E+04  0.00000000000E+00 0.  1.
         22   -1    0    0    0    0 -0.00000000000E+00 -0.00000000000E+00 -0.17725415064E+03  0.17725415064E+03  0.00000000000E+00 0. -1.
        -24    2    1    2    0    0 -0.12737031970E+02  0.24238660302E+02 -0.14697011551E+03  0.17043352496E+03  0.81839030678E+02 0.  0.
         25    2    1    2    0    0  0.34193476867E+02  0.14824890700E+01  0.24180715819E+03  0.27438942085E+03  0.12508981131E+03 0.  0.
         24    2    1    2    0    0 -0.21456444897E+02 -0.25721149372E+02  0.86353938092E+03  0.86806177907E+03  0.81908688925E+02 0.  0.
        -11    1    5    5    0    0 -0.32783306748E+02 -0.35240973829E+02  0.83011098969E+03  0.83150521745E+03  0.00000000000E+00 0.  1.
         12    1    5    5    0    0  0.11326861851E+02  0.95198244576E+01  0.33428391229E+02  0.36556561617E+02  0.00000000000E+00 0. -1.
         11    1    3    3    0    0 -0.41576226037E+02  0.91357122675E+01 -0.39250138925E+02  0.57901789400E+02  0.00000000000E+00 0. -1.
        -12    1    3    3    0    0  0.28839194067E+02  0.15102948034E+02 -0.10771997658E+03  0.11253173556E+03  0.00000000000E+00 0.  1.
          5    1    4    4  501    0  0.67795345849E+02  0.39454984939E+02  0.15511548793E+03  0.17387119299E+03  0.41800000000E+01 0. -1.
         -5    1    4    4    0  501 -0.33601868982E+02 -0.37972495869E+02  0.86691670254E+02  0.10051822786E+03  0.41800000000E+01 0. -1.
</event>
<event>
11    1  0.1102757E-008  0.1620671E+03  0.7561462E-02  0.1085149E+00
         22   -1    0    0    0    0  0.00000000000E+00  0.00000000000E+00  0.12927072956E+04  0.12927072956E+04  0.00000000000E+00 0.  1.
         22   -1    0    0    0    0 -0.00000000000E+00 -0.00000000000E+00 -0.21352480422E+03  0.21352480422E+03  0.00000000000E+00 0.  1.
         24    2    1    2    0    0  0.28746918238E+02 -0.24125532322E+02 -0.12142199293E+03  0.15118040809E+03  0.81876668266E+02 0.  0.
         25    2    1    2    0    0  0.22974774717E+02  0.11288077230E+03  0.24528573718E+02  0.17181675710E+03  0.12509771406E+03 0.  0.
        -24    2    1    2    0    0 -0.51721692955E+02 -0.88755239977E+02  0.11760759106E+04  0.11832349346E+04  0.79609904543E+02 0.  0.
        -13    1    3    3    0    0 -0.18442193275E+02  0.13851278544E+02 -0.62735153945E+02  0.66840645947E+02  0.00000000000E+00 0.  1.
         14    1    3    3    0    0  0.47189111513E+02 -0.37976810866E+02 -0.58686838981E+02  0.84339762144E+02  0.00000000000E+00 0. -1.
         11    1    5    5    0    0 -0.22713878179E+02 -0.16454713622E+02  0.87729169205E+02  0.92103664377E+02  0.00000000000E+00 0. -1.
        -12    1    5    5    0    0 -0.29007814776E+02 -0.72300526356E+02  0.10883467414E+04  0.10911312702E+04  0.00000000000E+00 0.  1.
          5    1    4    4  501    0 -0.47583484468E+02  0.59474429936E+02 -0.95939184490E+01  0.76882452364E+02  0.41800000000E+01 0.  1.
         -5    1    4    4    0  501  0.70558259185E+02  0.53406342363E+02  0.34122492167E+02  0.94934304735E+02  0.41800000000E+01 0.  1.
</event>
<event>
11    1  0.8299058E-009  0.1372166E+03  0.7561462E-02  0.1110707E+00
         22   -1    0    0    0    0  0.00000000000E+00  0.00000000000E+00  0.25601627387E+03  0.25601627387E+03  0.00000000000E+00 0.  1.
         22   -1    0    0    0    0 -0.00000000000E+00 -0.00000000000E+00 -0.73836369866E+03  0.73836369866E+03  0.00000000000E+00 0.  1.
        -24    2    1    2    0    0  0.70277573606E+01 -0.31102698793E+02 -0.61106671241E+03  0.61732276087E+03  0.81658415537E+02 0.  0.
         25    2    1    2    0    0  0.47229064970E+02  0.10712611256E+02 -0.72809230316E+02  0.15262386345E+03  0.12509002781E+03 0.  0.
         24    2    1    2    0    0 -0.54256822331E+02  0.20390087537E+02  0.20152851794E+03  0.22443334821E+03  0.79981409141E+02 0.  0.
        -13    1    5    5    0    0 -0.15799651918E+02  0.24274272594E+02  0.17540604097E+03  0.17778118157E+03  0.00000000000E+00 0.  1.
         14    1    5    5    0    0 -0.38457170412E+02 -0.38841850571E+01  0.26122476968E+02  0.46652166645E+02  0.00000000000E+00 0. -1.
         13    1    3    3    0    0  0.10905770092E+02 -0.12607985862E+02 -0.20360603472E+02  0.26314469452E+02  0.00000000000E+00 0. -1.
        -14    1    3    3    0    0 -0.38780127312E+01 -0.18494712931E+02 -0.59070610894E+03  0.59100829142E+03  0.00000000000E+00 0.  1.
          5    1    4    4  501    0  0.83309322449E+02  0.34024477213E+02 -0.57286442476E+02  0.10675821818E+03  0.41800000000E+01 0.  1.
         -5    1    4    4    0  501 -0.36080257479E+02 -0.23311865957E+02 -0.15522787840E+02  0.45865645274E+02  0.41800000000E+01 0.  1.
</event>
<event>
11    1  0.8299058E-009  0.1636343E+03  0.7561462E-02  0.1083708E+00
         22   -1    0    0    0    0  0.00000000000E+00  0.00000000000E+00  0.20066475863E+03  0.20066475863E+03  0.00000000000E+00 0.  1.
         22   -1    0    0    0    0 -0.00000000000E+00 -0.00000000000E+00 -0.16823400775E+04  0.16823400775E+04  0.00000000000E+00 0. -1.
        -24    2    1    2    0    0  0.10584837919E+03  0.32211759947E+02 -0.14979180336E+04  0.15040406797E+04  0.78348286135E+02 0.  0.
         25    2    1    2    0    0 -0.59199354371E+02 -0.19642432193E+01 -0.13857004378E+03  0.19585141814E+03  0.12509076364E+03 0.  0.
         24    2    1    2    0    0 -0.46649024815E+02 -0.30247516728E+02  0.15481275846E+03  0.18311273834E+03  0.80450239123E+02 0.  0.
        -11    1    5    5    0    0 -0.60251279269E+02 -0.30589047930E+02  0.70289841615E+02  0.97501632504E+02  0.00000000000E+00 0.  1.
         12    1    5    5    0    0  0.13602254454E+02  0.34153120218E+00  0.84522916846E+02  0.85611105833E+02  0.00000000000E+00 0. -1.
         11    1    3    3    0    0  0.51486926708E+02  0.71504305886E+01 -0.11373738555E+04  0.11385610741E+04  0.00000000000E+00 0. -1.
        -12    1    3    3    0    0  0.54361452478E+02  0.25061329358E+02 -0.36054417806E+03  0.36547960556E+03  0.00000000000E+00 0.  1.
          5    1    4    4  501    0 -0.28843552290E+02 -0.12457709660E+02  0.17670753866E+02  0.36288744548E+02  0.41800000000E+01 0.  1.
         -5    1    4    4    0  501 -0.30355802081E+02  0.10493466440E+02 -0.15624079764E+03  0.15956267360E+03  0.41800000000E+01 0.  1.
</event>
<event>
11    1  0.8299058E-009  0.1545214E+03  0.7561462E-02  0.1092346E+00
         22   -1    0    0    0    0  0.00000000000E+00  0.00000000000E+00  0.20101885833E+04  0.20101885833E+04  0.00000000000E+00 0.  1.
         22   -1    0    0    0    0 -0.00000000000E+00 -0.00000000000E+00 -0.49044204898E+02  0.49044204898E+02  0.00000000000E+00 0.  1.
         24    2    1    2    0    0 -0.95959891726E+02  0.18388198453E+02  0.58169407314E+02  0.13860981430E+03  0.79262689907E+02 0.  0.
         25    2    1    2    0    0  0.33561738200E+02 -0.42728122524E+02  0.68036864352E+03  0.69390308520E+03  0.12509163776E+03 0.  0.
        -24    2    1    2    0    0  0.62398153526E+02  0.24339924071E+02  0.12226063276E+04  0.12267198887E+04  0.74762902879E+02 0.  0.
        -11    1    3    3    0    0 -0.10281791351E+03  0.77186135446E+01  0.29475443859E+02  0.10723759660E+03  0.00000000000E+00 0.  1.
         12    1    3    3    0    0  0.68580217839E+01  0.10669584909E+02  0.28693963455E+02  0.31372217704E+02  0.00000000000E+00 0. -1.
         11    1    5    5    0    0  0.11009034567E+02 -0.21905823643E+02  0.16004749121E+03  0.16191437056E+03  0.00000000000E+00 0. -1.
        -12    1    5    5    0    0  0.51389118959E+02  0.46245747714E+02  0.10625588364E+04  0.10648055181E+04  0.00000000000E+00 0.  1.
          5    1    4    4  501    0  0.32931738627E+02 -0.74563215715E+02  0.26474856675E+03  0.27704412743E+03  0.41800000000E+01 0.  1.
         -5    1    4    4    0  501  0.62999957289E+00  0.31835093191E+02  0.41562007677E+03  0.41685895777E+03  0.41800000000E+01 0.  1.
</event>
<event>
11    1  0.8299058E-009  0.1903858E+03  0.7561462E-02  0.1061539E+00
         22   -1    0    0    0    0  0.00000000000E+00  0.00000000000E+00  0.19681971778E+04  0.19681971778E+04  0.00000000000E+00 0.  1.
         22   -1    0    0    0    0 -0.00000000000E+00 -0.00000000000E+00 -0.13884993398E+04  0.13884993398E+04  0.00000000000E+00 0.  1.
         24    2    1    2    0    0  0.94997545229E+02  0.10725892331E+03 -0.13002739094E+04  0.13105924659E+04  0.80070982071E+02 0.  0.
         25    2    1    2    0    0 -0.13787948097E+03 -0.77234503368E+02  0.42268856838E+02  0.20593160133E+03  0.12508096732E+03 0.  0.
        -24    2    1    2    0    0  0.42881935741E+02 -0.30024419947E+02  0.18377028906E+04  0.18401724504E+04  0.79639230617E+02 0.  0.
        -13    1    3    3    0    0  0.10728001490E+03  0.10746947148E+03 -0.12026288969E+04  0.12121777727E+04  0.00000000000E+00 0.  1.
         14    1    3    3    0    0 -0.12282469673E+02 -0.21054816476E+00 -0.97645012481E+02  0.98414693284E+02  0.00000000000E+00 0. -1.
         13    1    5    5    0    0  0.20457264824E+02 -0.31399056140E+02  0.30348040215E+03  0.30578547202E+03  0.00000000000E+00 0. -1.
        -14    1    5    5    0    0  0.22424670917E+02  0.13746361932E+01  0.15342224884E+04  0.15343869784E+04  0.00000000000E+00 0.  1.
          5    1    4    4  501    0  0.10295379911E+02 -0.19422589174E+02  0.41125716064E+02  0.46819106564E+02  0.41800000000E+01 0. -1.
         -5    1    4    4    0  501 -0.14817486088E+03 -0.57811914193E+02  0.11431407741E+01  0.15911249477E+03  0.41800000000E+01 0. -1.
</event>
<event>
11    1  0.8299058E-009  0.1433013E+03  0.7561462E-02  0.1103927E+00
         22   -1    0    0    0    0  0.00000000000E+00  0.00000000000E+00  0.14957404332E+04  0.14957404332E+04  0.00000000000E+00 0. -1.
         22   -1    0    0    0    0 -0.00000000000E+00 -0.00000000000E+00 -0.53967964287E+03  0.53967964287E+03  0.00000000000E+00 0. -1.
        -24    2    1    2    0    0 -0.29161133971E+02  0.64882750891E+02 -0.47286386307E+03  0.48562580158E+03  0.84687915689E+02 0.  0.
         25    2    1    2    0    0  0.15618971675E+02 -0.52915948566E+02  0.19640338265E+02  0.13812456345E+03  0.12509437338E+03 0.  0.
         24    2    1    2    0    0  0.13542162297E+02 -0.11966802326E+02  0.14092843151E+04  0.14116697111E+04  0.80015608911E+02 0.  0.
        -13    1    5    5    0    0  0.61090445053E+01 -0.45422393587E+02  0.65098422281E+03  0.65259556588E+03  0.00000000000E+00 0.  1.
         14    1    5    5    0    0  0.74331177914E+01  0.33455591261E+02  0.75830009234E+03  0.75907414518E+03  0.00000000000E+00 0. -1.
         13    1    3    3    0    0 -0.12622054719E+02  0.47876470896E+02 -0.44987643246E+03  0.45259283822E+03  0.00000000000E+00 0. -1.
        -14    1    3    3    0    0 -0.16539079252E+02  0.17006279996E+02 -0.22987430611E+02  0.33032963353E+02  0.00000000000E+00 0.  1.
          5    1    4    4  501    0 -0.71703760735E+01 -0.84018947994E+02 -0.15440740658E+02  0.85828240032E+02  0.41800000000E+01 0.  1.
         -5    1    4    4    0  501  0.22789347748E+02  0.31102999428E+02  0.35081078923E+02  0.52296323414E+02  0.41800000000E+01 0.  1.
</event>
<event>
11    1  0.8299058E-009  0.3344132E+03  0.7561462E-02  0.9865944E-01
         22   -1    0    0    0    0  0.00000000000E+00  0.00000000000E+00  0.89152202071E+03  0.89152202071E+03  0.00000000000E+00 0.  1.
         22   -1    0    0    0    0 -0.00000000000E+00 -0.00000000000E+00 -0.27874293748E+03  0.27874293748E+03  0.00000000000E+00 0.  1.
         24    2    1    2    0    0 -0.75713623580E+02  0.10913226684E+02 -0.13153893647E+03  0.17166063645E+03  0.79455843002E+02 0.  0.
         25    2    1    2    0    0  0.18599673599E+03  0.26939196143E+03  0.34129905234E+03  0.48918115900E+03  0.12508536488E+03 0.  0.
        -24    2    1    2    0    0 -0.11028311241E+03 -0.28030518812E+03  0.40301896736E+03  0.50942316274E+03  0.79713909170E+02 0.  0.
        -13    1    3    3    0    0 -0.46647141551E+02 -0.28952297635E+02 -0.40891587389E+02  0.68456652507E+02  0.00000000000E+00 0.  1.
         14    1    3    3    0    0 -0.29066482029E+02  0.39865524319E+02 -0.90647349085E+02  0.10320398395E+03  0.00000000000E+00 0. -1.
         11    1    5    5    0    0 -0.73724622695E+02 -0.16545749809E+03  0.30201291622E+03  0.35216942688E+03  0.00000000000E+00 0. -1.
        -12    1    5    5    0    0 -0.36558489713E+02 -0.11484769003E+03  0.10100605114E+03  0.15725373586E+03  0.00000000000E+00 0.  1.
          5    1    4    4  501    0  0.13980326939E+03  0.26397420314E+03  0.26299017583E+03  0.39800582789E+03  0.41800000000E+01 0.  1.
         -5    1    4    4    0  501  0.46193466596E+02  0.54177582937E+01  0.78308876513E+02  0.91175331103E+02  0.41800000000E+01 0.  1.
</event>
<event>
11    1  0.8299058E-009  0.1947153E+03  0.7561462E-02  0.1058325E+00
         22   -1    0    0    0    0  0.00000000000E+00  0.00000000000E+00  0.18074329527E+04  0.18074329527E+04  0.00000000000E+00 0.  1.
         22   -1    0    0    0    0 -0.00000000000E+00 -0.00000000000E+00 -0.10540482797E+04  0.10540482797E+04  0.00000000000E+00 0.  1.
        -24    2    1    2    0    0 -0.13092327202E+03 -0.73255304830E+02 -0.10305415274E+04  0.10444367875E+04  0.79530627495E+02 0.  0.
         25    2    1    2    0    0  0.95376083748E+02  0.32256595339E+02  0.41843608678E+03  0.44818922329E+03  0.12509091037E+03 0.  0.
         24    2    1    2    0    0  0.35547188267E+02  0.40998709490E+02  0.13654901135E+04  0.13688552216E+04  0.79100383925E+02 0.  0.
        -11    1    5    5    0    0  0.11077244299E+02 -0.45163204111E+01  0.96138475368E+03  0.96145917599E+03  0.00000000000E+00 0.  1.
         12    1    5    5    0    0  0.24469943968E+02  0.45515029901E+02  0.40410535986E+03  0.40739604561E+03  0.00000000000E+00 0. -1.
         13    1    3    3    0    0 -0.53860545217E+02 -0.19938521816E+01 -0.54619633843E+03  0.54884913582E+03  0.00000000000E+00 0. -1.
        -14    1    3    3    0    0 -0.77062726798E+02 -0.71261452648E+02 -0.48434518893E+03  0.49558765172E+03  0.00000000000E+00 0.  1.
          5    1    4    4  501    0  0.21175568249E+02  0.13150246925E+02  0.33056228829E+03  0.33152712185E+03  0.41800000000E+01 0. -1.
         -5    1    4    4    0  501  0.74200515499E+02  0.19106348415E+02  0.87873798495E+02  0.11666210144E+03  0.41800000000E+01 0. -1.
</event>
<event>
11    1  0.8299058E-009  0.1525416E+03  0.7561462E-02  0.1094310E+00
         22   -1    0    0    0    0  0.00000000000E+00  0.00000000000E+00  0.41727210084E+03  0.41727210084E+03  0.00000000000E+00 0. -1.
         22   -1    0    0    0    0 -0.00000000000E+00 -0.00000000000E+00 -0.24019561849E+03  0.24019561849E+03  0.00000000000E+00 0.  1.
        -24    2    1    2    0    0 -0.62901255611E+02 -0.59842959352E+02 -0.14582460662E+03  0.18788311366E+03  0.80607076371E+02 0.  0.
         25    2    1    2    0    0  0.43898508259E+01  0.11752393913E+03  0.58127614953E+02  0.18126981265E+03  0.12509507704E+03 0.  0.
         24    2    1    2    0    0  0.58511404785E+02 -0.57680979775E+02  0.26477347402E+03  0.28831479301E+03  0.79181736589E+02 0.  0.
        -11    1    5    5    0    0 -0.10464293435E+02 -0.41438638899E+02  0.86769034234E+02  0.96723975997E+02  0.00000000000E+00 0.  1.
         12    1    5    5    0    0  0.68975698221E+02 -0.16242340876E+02  0.17800443978E+03  0.19159081702E+03  0.00000000000E+00 0. -1.
         13    1    3    3    0    0 -0.44239715379E+02  0.10523116550E+02 -0.50843575164E+02  0.68212590730E+02  0.00000000000E+00 0. -1.
        -14    1    3    3    0    0 -0.18661540233E+02 -0.70366075901E+02 -0.94981031461E+02  0.11967052293E+03  0.00000000000E+00 0.  1.
          5    1    4    4  501    0  0.11378098865E+02  0.12592888344E+03  0.47241062839E+01  0.12659910900E+03  0.41800000000E+01 0.  1.
         -5    1    4    4    0  501 -0.69882480391E+01 -0.84049443153E+01  0.53403508669E+02  0.54670703651E+02  0.41800000000E+01 0.  1.
</event>
<event>
11    1  0.8299058E-009  0.1257285E+03  0.7561462E-02  0.1124631E+00
         22   -1    0    0    0    0  0.00000000000E+00  0.00000000000E+00  0.44885878551E+03  0.44885878551E+03  0.00000000000E+00 0. -1.
         22   -1    0    0    0    0 -0.00000000000E+00 -0.00000000000E+00 -0.93317222099E+03  0.93317222099E+03  0.00000000000E+00 0.  1.
         24    2    1    2    0    0  0.62920268406E+01 -0.21871113261E+02 -0.81533827684E+03  0.81940831520E+03  0.78329727097E+02 0.  0.
         25    2    1    2    0    0 -0.18665225061E+02  0.19831223560E+02 -0.74828183731E+02  0.14828418714E+03  0.12508906835E+03 0.  0.
        -24    2    1    2    0    0  0.12373198221E+02  0.20398897006E+01  0.40585302509E+03  0.41433850416E+03  0.82477032370E+02 0.  0.
        -13    1    3    3    0    0 -0.26651717938E+02 -0.65731250187E+01 -0.62693490295E+03  0.62753557077E+03  0.00000000000E+00 0.  1.
         14    1    3    3    0    0  0.32943744778E+02 -0.15297988242E+02 -0.18840337389E+03  0.19187274444E+03  0.00000000000E+00 0. -1.
         11    1    5    5    0    0  0.78874515693E+01  0.32922609022E+02  0.33755786388E+03  0.33925126610E+03  0.00000000000E+00 0. -1.
        -12    1    5    5    0    0  0.44857466513E+01 -0.30882719322E+02  0.68295161208E+02  0.75087238064E+02  0.00000000000E+00 0.  1.
          5    1    4    4  501    0 -0.10715086624E+02 -0.45175751910E+02 -0.67806259540E+02  0.82285010025E+02  0.41800000000E+01 0.  1.
         -5    1    4    4    0  501 -0.79501384376E+01  0.65006975470E+02 -0.70219241909E+01  0.65999177118E+02  0.41800000000E+01 0.  1.
</event>
<event>
11    1  0.8299058E-009  0.1417869E+03  0.7561462E-02  0.1105579E+00
         22   -1    0    0    0    0  0.00000000000E+00  0.00000000000E+00  0.59756869727E+03  0.59756869727E+03  0.00000000000E+00 0. -1.
         22   -1    0    0    0    0 -0.00000000000E+00 -0.00000000000E+00 -0.16132393424E+04  0.16132393424E+04  0.00000000000E+00 0.  1.
        -24    2    1    2    0    0  0.18126410012E+01 -0.96192825068E+01 -0.13643409876E+04  0.13668423580E+04  0.82072436554E+02 0.  0.
         25    2    1    2    0    0  0.59987815644E+02  0.34729128691E+02 -0.22184176693E+03  0.26394533284E+03  0.12509483909E+03 0.  0.
         24    2    1    2    0    0 -0.61800456645E+02 -0.25109846184E+02  0.57051210943E+03  0.58002034883E+03  0.80558905383E+02 0.  0.
        -13    1    5    5    0    0  0.10070746832E+02 -0.52330329682E+01  0.11867127428E+02  0.16420514279E+02  0.00000000000E+00 0.  1.
         14    1    5    5    0    0 -0.71871203476E+02 -0.19876813216E+02  0.55864498200E+03  0.56359983455E+03  0.00000000000E+00 0. -1.
         13    1    3    3    0    0 -0.31094478623E+02  0.72977925679E+01 -0.27103184907E+03  0.27290728753E+03  0.00000000000E+00 0. -1.
        -14    1    3    3    0    0  0.32907119624E+02 -0.16917075075E+02 -0.10933091385E+04  0.10939350704E+04  0.00000000000E+00 0.  1.
          5    1    4    4  501    0  0.53938863172E+02  0.31904576992E+02 -0.26050373358E+02  0.67995568571E+02  0.41800000000E+01 0.  1.
         -5    1    4    4    0  501  0.60489524721E+01  0.28245516991E+01 -0.19579139357E+03  0.19594976427E+03  0.41800000000E+01 0.  1.
</event>
<event>
11    1  0.8299058E-009  0.1329003E+03  0.7561462E-02  0.1115756E+00
         22   -1    0    0    0    0  0.00000000000E+00  0.00000000000E+00  0.79180035864E+03  0.79180035864E+03  0.00000000000E+00 0.  1.
         22   -1    0    0    0    0 -0.00000000000E+00 -0.00000000000E+00 -0.29069823918E+03  0.29069823918E+03  0.00000000000E+00 0.  1.
         24    2    1    2    0    0  0.27948015342E+02  0.30079508506E+02 -0.17041711647E+03  0.19347273564E+03  0.81876965341E+02 0.  0.
         25    2    1    2    0    0 -0.13953397964E+02 -0.66345570045E+02 -0.58313402601E+02  0.15376618053E+03  0.12508858211E+03 0.  0.
        -24    2    1    2    0    0 -0.13994617378E+02  0.36266061539E+02  0.72983263853E+03  0.73525968164E+03  0.80249876336E+02 0.  0.
        -13    1    3    3    0    0  0.19978516448E+02  0.22015655863E+02 -0.17758706392E+03  0.18005831137E+03  0.00000000000E+00 0.  1.
         14    1    3    3    0    0  0.79694988937E+01  0.80638526424E+01  0.71699474429E+01  0.13414424266E+02  0.00000000000E+00 0. -1.
         11    1    5    5    0    0 -0.32279642992E+02  0.68601075283E+01  0.12029976412E+03  0.12474401659E+03  0.00000000000E+00 0. -1.
        -12    1    5    5    0    0  0.18285025613E+02  0.29405954011E+02  0.60953287441E+03  0.61051566506E+03  0.00000000000E+00 0.  1.
          5    1    4    4  501    0  0.41341653055E+02  0.11621552844E+02 -0.34308615728E+02  0.55124824544E+02  0.41800000000E+01 0. -1.
         -5    1    4    4    0  501 -0.55295051018E+02 -0.77967122889E+02 -0.24004786872E+02  0.98641355990E+02  0.41800000000E+01 0. -1.
</event>
<event>
11    1  0.8299058E-009  0.1570645E+03  0.7561462E-02  0.1089871E+00
         22   -1    0    0    0    0  0.00000000000E+00  0.00000000000E+00  0.72062545480E+03  0.72062545480E+03  0.00000000000E+00 0. -1.
         22   -1    0    0    0    0 -0.00000000000E+00 -0.00000000000E+00 -0.44348014941E+03  0.44348014941E+03  0.00000000000E+00 0.  1.
        -24    2    1    2    0    0  0.60166559441E+02  0.46362212259E+02 -0.39415280487E+03  0.40928914498E+03  0.79948114475E+02 0.  0.
         25    2    1    2    0    0  0.15524490917E+02 -0.10741609668E+03  0.16642153462E+03  0.23478378975E+03  0.12509225835E+03 0.  0.
         24    2    1    2    0    0 -0.75691050358E+02  0.61053884421E+02  0.50487657564E+03  0.52003266949E+03  0.77954530302E+02 0.  0.
        -13    1    5    5    0    0 -0.39568018821E+02 -0.24767131483E+01  0.84342990649E+02  0.93196042261E+02  0.00000000000E+00 0.  1.
         14    1    5    5    0    0 -0.36123031537E+02  0.63530597570E+02  0.42053358500E+03  0.42683662723E+03  0.00000000000E+00 0. -1.
         11    1    3    3    0    0 -0.17019373942E+01 -0.19658180518E+02 -0.76202988098E+02  0.78716173987E+02  0.00000000000E+00 0. -1.
        -12    1    3    3    0    0  0.61868496835E+02  0.66020392776E+02 -0.31794981678E+03  0.33057297099E+03  0.00000000000E+00 0.  1.
          5    1    4    4  501    0 -0.24168249914E+02 -0.11950022536E+03  0.13866981760E+03  0.18469217330E+03  0.41800000000E+01 0. -1.
         -5    1    4    4    0  501  0.39692740831E+02  0.12084128683E+02  0.27751717016E+02  0.50091616445E+02  0.41800000000E+01 0. -1.
</event>
<event>
11    1  0.8299058E-009  0.1512290E+03  0.7561462E-02  0.1095630E+00
         22   -1    0    0    0    0  0.00000000000E+00  0.00000000000E+00  0.99394460583E+03  0.99394460583E+03  0.00000000000E+00 0. -1.
         22   -1    0    0    0    0 -0.00000000000E+00 -0.00000000000E+00 -0.49438378243E+03  0.49438378243E+03  0.00000000000E+00 0.  1.
        -24    2    1    2    0    0  0.80347841541E+02  0.16572491107E+02 -0.41256908072E+03  0.42862176900E+03  0.82297942787E+02 0.  0.
         25    2    1    2    0    0 -0.11985339387E+03 -0.39945101554E+02  0.39412910706E+02  0.18210621704E+03  0.12509536199E+03 0.  0.
         24    2    1    2    0    0  0.39505552329E+02  0.23372610448E+02  0.87271699341E+03  0.87760040222E+03  0.80253023624E+02 0.  0.
        -13    1    5    5    0    0  0.11615050984E+02 -0.27068332264E+02  0.17082935704E+03  0.17335014637E+03  0.00000000000E+00 0.  1.
         14    1    5    5    0    0  0.27890501346E+02  0.50440942712E+02  0.70188763638E+03  0.70425025585E+03  0.00000000000E+00 0. -1.
         13    1    3    3    0    0 -0.17123803838E+02  0.20857864172E+01 -0.75360521631E+02  0.77309659056E+02  0.00000000000E+00 0. -1.
        -14    1    3    3    0    0  0.97471645379E+02  0.14486704689E+02 -0.33720855909E+03  0.35131210994E+03  0.00000000000E+00 0.  1.
          5    1    4    4  501    0 -0.56947740677E+02 -0.81483018593E+02  0.38253793605E+02  0.10659902726E+03  0.41800000000E+01 0.  1.
         -5    1    4    4    0  501 -0.62905653194E+02  0.41537917038E+02  0.11591171003E+01  0.75507189777E+02  0.41800000000E+01 0.  1.
</event>
<event>
11    1  0.8299058E-009  0.5212708E+03  0.7561462E-02  0.9347208E-01
         22   -1    0    0    0    0  0.00000000000E+00  0.00000000000E+00  0.15200808168E+03  0.15200808168E+03  0.00000000000E+00 0.  1.
         22   -1    0    0    0    0 -0.00000000000E+00 -0.00000000000E+00 -0.37921141305E+04  0.37921141305E+04  0.00000000000E+00 0.  1.
         24    2    1    2    0    0 -0.55685023869E+02 -0.67499570432E+02 -0.19948422467E+04  0.19983524110E+04  0.79748076967E+02 0.  0.
         25    2    1    2    0    0  0.36998922260E+03  0.40984247408E+03 -0.86237957687E+03  0.10316035192E+04  0.12507760678E+03 0.  0.
        -24    2    1    2    0    0 -0.31430419874E+03 -0.34234290365E+03 -0.78288422532E+03  0.91416628202E+03  0.82501441841E+02 0.  0.
        -11    1    3    3    0    0 -0.68660832166E+01 -0.25669754981E+02 -0.14636158471E+03  0.14875413573E+03  0.00000000000E+00 0.  1.
         12    1    3    3    0    0 -0.48818940652E+02 -0.41829815451E+02 -0.18484806619E+04  0.18495982753E+04  0.00000000000E+00 0. -1.
         11    1    5    5    0    0 -0.10513731885E+03 -0.14592444890E+03 -0.36964552647E+03  0.41107860056E+03  0.00000000000E+00 0. -1.
        -12    1    5    5    0    0 -0.20916687988E+03 -0.19641845474E+03 -0.41323869886E+03  0.50308768146E+03  0.00000000000E+00 0.  1.
          5    1    4    4  501    0  0.58289535572E+02  0.36033400241E+02 -0.51365938805E+02  0.85743850855E+02  0.41800000000E+01 0. -1.
         -5    1    4    4    0  501  0.31169968703E+03  0.37380907384E+03 -0.81101363807E+03  0.94585966830E+03  0.41800000000E+01 0. -1.
</event>
<event>
11    1  0.8299058E-009  0.1644736E+03  0.7561462E-02  0.1082944E+00
         22   -1    0    0    0    0  0.00000000000E+00  0.00000000000E+00  0.40972029982E+03  0.40972029982E+03  0.00000000000E+00 0.  1.
         22   -1    0    0    0    0 -0.00000000000E+00 -0.00000000000E+00 -0.97571900931E+02  0.97571900931E+02  0.00000000000E+00 0.  1.
        -24    2    1    2    0    0 -0.13051696746E+02  0.92882734298E+02  0.32114270846E+02  0.12830623789E+03  0.81447008365E+02 0.  0.
         25    2    1    2    0    0  0.10059184897E+01 -0.11480700099E+03  0.22640764872E+03  0.28298688928E+03  0.12505797358E+03 0.  0.
         24    2    1    2    0    0  0.12045778256E+02  0.21924266694E+02  0.53626479322E+02  0.95999073577E+02  0.75592649109E+02 0.  0.
        -13    1    5    5    0    0 -0.15371373274E+02 -0.19461976964E+02  0.28114170497E+01  0.24959000971E+02  0.00000000000E+00 0.  1.
         14    1    5    5    0    0  0.27417151530E+02  0.41386243658E+02  0.50815062272E+02  0.71040072606E+02  0.00000000000E+00 0. -1.
         11    1    3    3    0    0 -0.69179499938E+01 -0.10811345594E+02 -0.99468282411E+01  0.16238307108E+02  0.00000000000E+00 0. -1.
        -12    1    3    3    0    0 -0.61337467518E+01  0.10369407989E+03  0.42061099087E+02  0.11206793078E+03  0.00000000000E+00 0.  1.
          5    1    4    4  501    0  0.38722395635E+01  0.26391136018E+02  0.23874295255E+02  0.36040819545E+02  0.41800000000E+01 0.  1.
         -5    1    4    4    0  501 -0.28663210738E+01 -0.14119813701E+03  0.20253335347E+03  0.24694606974E+03  0.41800000000E+01 0.  1.
</event>
<event>
11    1  0.8299058E-009  0.1420741E+03  0.7561462E-02  0.1105264E+00
         22   -1    0    0    0    0  0.00000000000E+00  0.00000000000E+00  0.42109669523E+03  0.42109669523E+03  0.00000000000E+00 0. -1.
         22   -1    0    0    0    0 -0.00000000000E+00 -0.00000000000E+00 -0.40482232037E+03  0.40482232037E+03  0.00000000000E+00 0.  1.
         24    2    1    2    0    0 -0.26996905694E+02  0.62038786811E+01 -0.36226937959E+03  0.37225762749E+03  0.81051322084E+02 0.  0.
         25    2    1    2    0    0  0.15244260187E+02 -0.71266132140E+02  0.19625861802E+03  0.24387801090E+03  0.12509112676E+03 0.  0.
        -24    2    1    2    0    0  0.11752645507E+02  0.65062253459E+02  0.18228513643E+03  0.20978337722E+03  0.80062306318E+02 0.  0.
        -11    1    3    3    0    0  0.11630890922E+02 -0.16861415480E+02 -0.25650923366E+03  0.25732580886E+03  0.00000000000E+00 0.  1.
         12    1    3    3    0    0 -0.38627796616E+02  0.23065294161E+02 -0.10576014593E+03  0.11493181863E+03  0.00000000000E+00 0. -1.
         11    1    5    5    0    0  0.10172596865E+02  0.82460489632E+02  0.12665870735E+03  0.15147819059E+03  0.00000000000E+00 0. -1.
        -12    1    5    5    0    0  0.15800486425E+01 -0.17398236173E+02  0.55626429076E+02  0.58305186625E+02  0.00000000000E+00 0.  1.
          5    1    4    4  501    0  0.30777895457E+02  0.98490485357E+01  0.18785447198E+01  0.32638687720E+02  0.41800000000E+01 0. -1.
         -5    1    4    4    0  501 -0.15533635270E+02 -0.81115180676E+02  0.19438007330E+03  0.21123932318E+03  0.41800000000E+01 0. -1.
</event>
<event>
11    1  0.8299058E-009  0.1622833E+03  0.7561462E-02  0.1084949E+00
         22   -1    0    0    0    0  0.00000000000E+00  0.00000000000E+00  0.20687287574E+03  0.20687287574E+03  0.00000000000E+00 0. -1.
         22   -1    0    0    0    0 -0.00000000000E+00 -0.00000000000E+00 -0.28496175902E+04  0.28496175902E+04  0.00000000000E+00 0. -1.
        -24    2    1    2    0    0  0.22823905302E+02  0.64641227812E+00 -0.13405819992E+04  0.13432481396E+04  0.81450103905E+02 0.  0.
         25    2    1    2    0    0 -0.55111618910E+02 -0.98742828979E+02 -0.14814091426E+04  0.14909755224E+04  0.12509006249E+03 0.  0.
         24    2    1    2    0    0  0.32287713608E+02  0.98096416701E+02  0.17924642740E+03  0.22226680393E+03  0.81288664480E+02 0.  0.
        -11    1    5    5    0    0  0.10814978843E+01 -0.14405232000E+02  0.15836111047E+02  0.21435082452E+02  0.00000000000E+00 0.  1.
         12    1    5    5    0    0  0.31206215724E+02  0.11250164870E+03  0.16341031635E+03  0.20083172147E+03  0.00000000000E+00 0. -1.
         11    1    3    3    0    0  0.24709441200E+02 -0.26800616032E+02 -0.11608954489E+04  0.11614676374E+04  0.00000000000E+00 0. -1.
        -12    1    3    3    0    0 -0.18855358986E+01  0.27447028310E+02 -0.17968655027E+03  0.18178050214E+03  0.00000000000E+00 0.  1.
          5    1    4    4  501    0 -0.28367776935E+02  0.17972573481E+02 -0.13240841940E+03  0.13666457512E+03  0.41800000000E+01 0. -1.
         -5    1    4    4    0  501 -0.26743841975E+02 -0.11671540246E+03 -0.13490007232E+04  0.13543109473E+04  0.41800000000E+01 0. -1.
</event>
<event>
11    1  0.8299058E-009  0.1665422E+03  0.7561462E-02  0.1081081E+00
         22   -1    0    0    0    0  0.00000000000E+00  0.00000000000E+00  0.43198512844E+03  0.43198512844E+03  0.00000000000E+00 0.  1.
         22   -1    0    0    0    0 -0.00000000000E+00 -0.00000000000E+00 -0.99071196433E+03  0.99071196433E+03  0.00000000000E+00 0.  1.
         24    2    1    2    0    0  0.97317744230E+02 -0.67508494085E+02 -0.82778994652E+03  0.84029270453E+03  0.82628648921E+02 0.  0.
         25    2    1    2    0    0 -0.73726866384E+02  0.38761777089E+00 -0.11395234547E+03  0.18457585707E+03  0.12508920378E+03 0.  0.
        -24    2    1    2    0    0 -0.23590877846E+02  0.67120876314E+02  0.38301545611E+03  0.39782853116E+03  0.80653326247E+02 0.  0.
        -11    1    3    3    0    0  0.34797569267E+02 -0.63633480868E+02 -0.58800279294E+03  0.59245875402E+03  0.00000000000E+00 0.  1.
         12    1    3    3    0    0  0.62520174963E+02 -0.38750132169E+01 -0.23978715358E+03  0.24783395051E+03  0.00000000000E+00 0. -1.
         13    1    5    5    0    0  0.19277326223E+01 -0.16961059586E+02  0.10128028448E+03  0.10270876165E+03  0.00000000000E+00 0. -1.
        -14    1    5    5    0    0 -0.25518610468E+02  0.84081935900E+02  0.28173517163E+03  0.29511976951E+03  0.00000000000E+00 0.  1.
          5    1    4    4  501    0  0.21974601398E+02  0.26072410414E+02 -0.11462168866E+01  0.34372080306E+02  0.41800000000E+01 0.  1.
         -5    1    4    4    0  501 -0.95701467783E+02 -0.25684792643E+02 -0.11280612859E+03  0.15020377677E+03  0.41800000000E+01 0.  1.
</event>
<event>
11    1  0.8299058E-009  0.1394509E+03  0.7561462E-02  0.1108173E+00
         22   -1    0    0    0    0  0.00000000000E+00  0.00000000000E+00  0.38251351210E+03  0.38251351210E+03  0.00000000000E+00 0. -1.
         22   -1    0    0    0    0 -0.00000000000E+00 -0.00000000000E+00 -0.94654131969E+02  0.94654131969E+02  0.00000000000E+00 0. -1.
        -24    2    1    2    0    0 -0.37920005093E+02  0.51635446989E+02  0.23558192065E+02  0.10433766354E+03  0.78912695105E+02 0.  0.
         25    2    1    2    0    0 -0.17651461776E+02 -0.79467955183E+02  0.10053607699E+03  0.17995033554E+03  0.12509152841E+03 0.  0.
         24    2    1    2    0    0  0.55571466869E+02  0.27832508194E+02  0.16376511108E+03  0.19287964499E+03  0.80750909603E+02 0.  0.
        -11    1    5    5    0    0  0.35722238468E+01 -0.14929122461E+02  0.96491752187E+02  0.97705157084E+02  0.00000000000E+00 0.  1.
         12    1    5    5    0    0  0.51999243022E+02  0.42761630655E+02  0.67273358890E+02  0.95174487902E+02  0.00000000000E+00 0. -1.
         11    1    3    3    0    0  0.14944456422E+01  0.49353908020E+02 -0.12429052458E+02  0.50916823837E+02  0.00000000000E+00 0. -1.
        -12    1    3    3    0    0 -0.39414450735E+02  0.22815389687E+01  0.35987244522E+02  0.53420839708E+02  0.00000000000E+00 0.  1.
          5    1    4    4  501    0 -0.55317744788E+02 -0.92037377931E+01  0.65173689186E+01  0.56610159649E+02  0.41800000000E+01 0.  1.
         -5    1    4    4    0  501  0.37666283012E+02 -0.70264217389E+02  0.94018708074E+02  0.12334017589E+03  0.41800000000E+01 0.  1.
</event>
<event>
11    1  0.8299058E-009  0.1497220E+03  0.7561462E-02  0.1097163E+00
         22   -1    0    0    0    0  0.00000000000E+00  0.00000000000E+00  0.10874538776E+04  0.10874538776E+04  0.00000000000E+00 0. -1.
         22   -1    0    0    0    0 -0.00000000000E+00 -0.00000000000E+00 -0.17725539110E+03  0.17725539110E+03  0.00000000000E+00 0.  1.
         24    2    1    2    0    0  0.29524491071E+02 -0.73596554321E+02 -0.16025885708E+02  0.11376866632E+03  0.79989574591E+02 0.  0.
         25    2    1    2    0    0 -0.72719871837E+02  0.14080986671E+03 -0.15367052839E+02  0.20248155870E+03  0.12508811685E+03 0.  0.
        -24    2    1    2    0    0  0.43195380767E+02 -0.67213312392E+02  0.94159142506E+03  0.94845904368E+03  0.81219920642E+02 0.  0.
        -13    1    3    3    0    0  0.18698219869E+02 -0.90159351072E+02 -0.18210007483E+02  0.93861261362E+02  0.00000000000E+00 0.  1.
         14    1    3    3    0    0  0.10826271201E+02  0.16562796751E+02  0.21841217744E+01  0.19907404961E+02  0.00000000000E+00 0. -1.
         11    1    5    5    0    0 -0.11960636384E+02 -0.55990266058E+02  0.43554248891E+03  0.43928945624E+03  0.00000000000E+00 0. -1.
        -12    1    5    5    0    0  0.55156017151E+02 -0.11223046333E+02  0.50604893615E+03  0.50916958744E+03  0.00000000000E+00 0.  1.
          5    1    4    4  501    0 -0.89956983103E+02  0.51207651954E+02 -0.34441441705E+02  0.10917036106E+03  0.41800000000E+01 0. -1.
         -5    1    4    4    0  501  0.17237111266E+02  0.89602214758E+02  0.19074388866E+02  0.93311197640E+02  0.41800000000E+01 0. -1.
</event>
<event>
11    1  0.8299058E-009  0.1467549E+03  0.7561462E-02  0.1100241E+00
         22   -1    0    0    0    0  0.00000000000E+00  0.00000000000E+00  0.90448474285E+02  0.90448474285E+02  0.00000000000E+00 0. -1.
         22   -1    0    0    0    0 -0.00000000000E+00 -0.00000000000E+00 -0.37275652749E+03  0.37275652749E+03  0.00000000000E+00 0.  1.
         24    2    1    2    0    0  0.94228160108E+02 -0.16034796215E+02 -0.16145868387E+03  0.20396416600E+03  0.79977581659E+02 0.  0.
         25    2    1    2    0    0 -0.42026943596E+02  0.11845234311E+02 -0.79324517159E+02  0.15442105194E+03  0.12508760408E+03 0.  0.
        -24    2    1    2    0    0 -0.52201216512E+02  0.41895619037E+01 -0.41524852177E+02  0.10481978384E+03  0.80748710836E+02 0.  0.
        -13    1    3    3    0    0  0.72478791746E+02 -0.43898746483E+02 -0.13661140729E+03  0.16075743155E+03  0.00000000000E+00 0.  1.
         14    1    3    3    0    0  0.21749368362E+02  0.27863950269E+02 -0.24847276584E+02  0.43206734456E+02  0.00000000000E+00 0. -1.
         13    1    5    5    0    0 -0.61927523691E+02  0.10239965654E+02 -0.10731903570E+01  0.62777598111E+02  0.00000000000E+00 0. -1.
        -14    1    5    5    0    0  0.97263071788E+01 -0.60504037498E+01 -0.40451661820E+02  0.42042185729E+02  0.00000000000E+00 0.  1.
          5    1    4    4  501    0  0.43666581041E+01  0.57082985548E+02 -0.67177104089E+02  0.88361590388E+02  0.41800000000E+01 0. -1.
         -5    1    4    4    0  501 -0.46393601700E+02 -0.45237751237E+02 -0.12147413070E+02  0.66059461548E+02  0.41800000000E+01 0. -1.
</event>
<event>
11    1  0.8299058E-009  0.1535374E+03  0.7561462E-02  0.1093318E+00
         22   -1    0    0    0    0  0.00000000000E+00  0.00000000000E+00  0.11137854459E+04  0.11137854459E+04  0.00000000000E+00 0.  1.
         22   -1    0    0    0    0 -0.00000000000E+00 -0.00000000000E+00 -0.90099354342E+03  0.90099354342E+03  0.00000000000E+00 0.  1.
        -24    2    1    2    0    0 -0.71379834400E+02  0.21505479562E+01 -0.85254523283E+03  0.85934467809E+03  0.80871478983E+02 0.  0.
         25    2    1    2    0    0  0.15192481866E+03  0.15966816663E+02  0.19777492578E+03  0.27946080866E+03  0.12508929832E+03 0.  0.
         24    2    1    2    0    0 -0.80544984259E+02 -0.18117364619E+02  0.86756220958E+03  0.87597350261E+03  0.88598286629E+02 0.  0.
        -13    1    5    5    0    0 -0.82143378691E+02  0.18282960477E+02  0.64095792073E+03  0.64645870514E+03  0.00000000000E+00 0.  1.
         14    1    5    5    0    0  0.15983944316E+01 -0.36400325096E+02  0.22660428885E+03  0.22951479747E+03  0.00000000000E+00 0. -1.
         11    1    3    3    0    0 -0.46355925637E+02 -0.11855606690E+02 -0.18193866725E+03  0.18812523991E+03  0.00000000000E+00 0. -1.
        -12    1    3    3    0    0 -0.25023908763E+02  0.14006154646E+02 -0.67060656559E+03  0.67121943818E+03  0.00000000000E+00 0.  1.
          5    1    4    4  501    0  0.16634482047E+03  0.36487681471E+02  0.18315650445E+03  0.25013142089E+03  0.41800000000E+01 0.  1.
         -5    1    4    4    0  501 -0.14420001813E+02 -0.20520864809E+02  0.14618421330E+02  0.29329387770E+02  0.41800000000E+01 0.  1.
</event>
<event>
11    1  0.8299058E-009  0.4481836E+03  0.7561462E-02  0.9517397E-01
         22   -1    0    0    0    0  0.00000000000E+00  0.00000000000E+00  0.23692206922E+03  0.23692206922E+03  0.00000000000E+00 0. -1.
         22   -1    0    0    0    0 -0.00000000000E+00 -0.00000000000E+00 -0.15485164399E+04  0.15485164399E+04  0.00000000000E+00 0. -1.
         24    2    1    2    0    0 -0.97207584296E+02 -0.41531852148E+03 -0.10545223261E+04  0.11403640477E+04  0.80461396841E+02 0.  0.
         25    2    1    2    0    0  0.12557780674E+02  0.45109212670E+03 -0.20068259388E+03  0.50947187858E+03  0.12508511882E+03 0.  0.
        -24    2    1    2    0    0  0.84649803621E+02 -0.35773605217E+02 -0.56389450652E+02  0.13560258276E+03  0.82237158407E+02 0.  0.
        -11    1    3    3    0    0  0.10722940673E+02 -0.96393287552E+02 -0.21634695555E+03  0.23709207603E+03  0.00000000000E+00 0.  1.
         12    1    3    3    0    0 -0.10793052497E+03 -0.31892523393E+03 -0.83817537056E+03  0.90327197171E+03  0.00000000000E+00 0. -1.
         11    1    5    5    0    0  0.85178534413E+02 -0.30477050570E+02 -0.12423755609E+02  0.91315842216E+02  0.00000000000E+00 0. -1.
        -12    1    5    5    0    0 -0.52873079156E+00 -0.52965546471E+01 -0.43965695043E+02  0.44286740544E+02  0.00000000000E+00 0.  1.
          5    1    4    4  501    0 -0.14778462315E+02  0.42962809488E+03 -0.20075174001E+03  0.47446542169E+03  0.41800000000E+01 0. -1.
         -5    1    4    4    0  501  0.27336242990E+02  0.21464031817E+02  0.69146134879E-01  0.35006456888E+02  0.41800000000E+01 0. -1.
</event>
<event>
11    1  0.8299058E-009  0.1488862E+03  0.7561462E-02  0.1098022E+00
         22   -1    0    0    0    0  0.00000000000E+00  0.00000000000E+00  0.78371855540E+02  0.78371855540E+02  0.00000000000E+00 0.  1.
         22   -1    0    0    0    0 -0.00000000000E+00 -0.00000000000E+00 -0.19866544450E+04  0.19866544450E+04  0.00000000000E+00 0. -1.
        -24    2    1    2    0    0 -0.50776612751E+02 -0.68804190448E+02 -0.16170761723E+04  0.16214130207E+04  0.82052153330E+02 0.  0.
         25    2    1    2    0    0 -0.31736907018E+02  0.71946302623E+02 -0.29406456821E+03  0.32909724446E+03  0.12509006478E+03 0.  0.
         24    2    1    2    0    0  0.82513519769E+02 -0.31421121752E+01  0.28581509770E+01  0.11451603539E+03  0.79293124041E+02 0.  0.
        -13    1    5    5    0    0  0.65956570574E+02 -0.37354671851E+02 -0.39497203468E+01  0.75902839221E+02  0.00000000000E+00 0.  1.
         14    1    5    5    0    0  0.16556949195E+02  0.34212559676E+02  0.68078713238E+01  0.38613196166E+02  0.00000000000E+00 0. -1.
         13    1    3    3    0    0  0.14788792391E+02 -0.30508812885E+02 -0.82751664192E+03  0.82821089627E+03  0.00000000000E+00 0. -1.
        -14    1    3    3    0    0 -0.65565405141E+02 -0.38295377563E+02 -0.78955953035E+03  0.79320212447E+03  0.00000000000E+00 0.  1.
          5    1    4    4  501    0  0.29093819847E+02  0.33569511983E+01 -0.18134557263E+03  0.18374277833E+03  0.41800000000E+01 0. -1.
         -5    1    4    4    0  501 -0.60830726866E+02  0.68589351425E+02 -0.11271899557E+03  0.14535446613E+03  0.41800000000E+01 0. -1.
</event>
<event>
11    1  0.8299058E-009  0.1484973E+03  0.7561462E-02  0.1098424E+00
         22   -1    0    0    0    0  0.00000000000E+00  0.00000000000E+00  0.45401702716E+03  0.45401702716E+03  0.00000000000E+00 0.  1.
         22   -1    0    0    0    0 -0.00000000000E+00 -0.00000000000E+00 -0.54239432684E+03  0.54239432684E+03  0.00000000000E+00 0. -1.
        -24    2    1    2    0    0 -0.32962479441E+02 -0.60593649197E+02 -0.48106565263E+03  0.49265476250E+03  0.80786369543E+02 0.  0.
         25    2    1    2    0    0  0.10577294816E+03  0.42764445286E+02  0.12060189512E+03  0.20786928528E+03  0.12509239909E+03 0.  0.
         24    2    1    2    0    0 -0.72810468722E+02  0.17829203911E+02  0.27208645782E+03  0.29588730622E+03  0.88876389340E+02 0.  0.
        -13    1    5    5    0    0 -0.82791150499E+02 -0.12068643045E+02  0.21448950245E+03  0.23022982736E+03  0.00000000000E+00 0.  1.
         14    1    5    5    0    0  0.99806817772E+01  0.29897846956E+02  0.57596955371E+02  0.65657478854E+02  0.00000000000E+00 0. -1.
         11    1    3    3    0    0 -0.45527736997E+02 -0.47007011007E+01 -0.27461584123E+03  0.27840390026E+03  0.00000000000E+00 0. -1.
        -12    1    3    3    0    0  0.12565257555E+02 -0.55892948097E+02 -0.20644981140E+03  0.21425086224E+03  0.00000000000E+00 0.  1.
          5    1    4    4  501    0  0.63325661778E+02  0.66716228009E+01  0.13573060781E+03  0.14998306667E+03  0.41800000000E+01 0. -1.
         -5    1    4    4    0  501  0.42447286386E+02  0.36092822485E+02 -0.15128712696E+02  0.57886218604E+02  0.41800000000E+01 0. -1.
</event>
<event>
11    1  0.8299058E-009  0.1645231E+03  0.7561462E-02  0.1082899E+00
         22   -1    0    0    0    0  0.00000000000E+00  0.00000000000E+00  0.45448666180E+02  0.45448666180E+02  0.00000000000E+00 0.  1.
         22   -1    0    0    0    0 -0.00000000000E+00 -0.00000000000E+00 -0.18438072584E+04  0.18438072584E+04  0.00000000000E+00 0.  1.
         24    2    1    2    0    0  0.92301068258E+02 -0.46026362449E+02 -0.10820643127E+04  0.10897272332E+04  0.77487758741E+02 0.  0.
         25    2    1    2    0    0 -0.12189481497E+03  0.14663015907E+02 -0.68007898872E+03  0.70230190548E+03  0.12508871089E+03 0.  0.
        -24    2    1    2    0    0  0.29593746713E+02  0.31363346542E+02 -0.36215290836E+02  0.97226785917E+02  0.79259392241E+02 0.  0.
        -11    1    3    3    0    0  0.82362764018E+02 -0.43482569945E+02 -0.10693136227E+04  0.10733619997E+04  0.00000000000E+00 0.  1.
         12    1    3    3    0    0  0.99383042399E+01 -0.25437925040E+01 -0.12750690007E+02  0.16365233488E+02  0.00000000000E+00 0. -1.
         11    1    5    5    0    0  0.83041320908E+01  0.17592749713E+02 -0.59624410114E+02  0.62717890061E+02  0.00000000000E+00 0. -1.
        -12    1    5    5    0    0  0.21289614622E+02  0.13770596830E+02  0.23409119278E+02  0.34508895856E+02  0.00000000000E+00 0.  1.
          5    1    4    4  501    0 -0.12330469299E+03 -0.27894493135E+02 -0.41685651803E+03  0.43562481459E+03  0.41800000000E+01 0. -1.
         -5    1    4    4    0  501  0.14098780144E+01  0.42557509041E+02 -0.26322247069E+03  0.26667709089E+03  0.41800000000E+01 0. -1.
</event>
<event>
11    1  0.8299058E-009  0.1513631E+03  0.7561462E-02  0.1095494E+00
         22   -1    0    0    0    0  0.00000000000E+00  0.00000000000E+00  0.17215215060E+03  0.17215215060E+03  0.00000000000E+00 0. -1.
         22   -1    0    0    0    0 -0.00000000000E+00 -0.00000000000E+00 -0.17860458556E+04  0.17860458556E+04  0.00000000000E+00 0. -1.
        -24    2    1    2    0    0 -0.27520767526E+02  0.63995781838E+01 -0.78272553719E+03  0.78738090614E+03  0.80691248210E+02 0.  0.
         25    2    1    2    0    0  0.87781479753E+02 -0.65947284225E+02 -0.97330901590E+03  0.98743820447E+03  0.12509650164E+03 0.  0.
         24    2    1    2    0    0 -0.60260712227E+02  0.59547706041E+02  0.14214084812E+03  0.18337889556E+03  0.79034903037E+02 0.  0.
        -11    1    5    5    0    0  0.14553440460E+02  0.11521548332E+02  0.38190471890E+01  0.18950826542E+02  0.00000000000E+00 0.  1.
         12    1    5    5    0    0 -0.74814152687E+02  0.48026157709E+02  0.13832180093E+03  0.16442806902E+03  0.00000000000E+00 0. -1.
         13    1    3    3    0    0 -0.31625991450E+02  0.48009032684E+01 -0.78230127430E+03  0.78295500239E+03  0.00000000000E+00 0. -1.
        -14    1    3    3    0    0  0.41052239232E+01  0.15986749154E+01 -0.42426289093E+00  0.44259037433E+01  0.00000000000E+00 0.  1.
          5    1    4    4  501    0  0.44132564177E+02 -0.36125478090E+02 -0.86455802672E+03  0.86644722133E+03  0.41800000000E+01 0.  1.
         -5    1    4    4    0  501  0.43648915576E+02 -0.29821806135E+02 -0.10875098919E+03  0.12099098314E+03  0.41800000000E+01 0.  1.
</event>
<event>
11    1  0.8299058E-009  0.1326989E+03  0.7561462E-02  0.1115997E+00
         22   -1    0    0    0    0  0.00000000000E+00  0.00000000000E+00  0.29986487725E+03  0.29986487725E+03  0.00000000000E+00 0. -1.
         22   -1    0    0    0    0 -0.00000000000E+00 -0.00000000000E+00 -0.30967425669E+03  0.30967425669E+03  0.00000000000E+00 0.  1.
         24    2    1    2    0    0 -0.22734620376E+02 -0.80106444564E+01 -0.24673968848E+03  0.26056366393E+03  0.80199225074E+02 0.  0.
         25    2    1    2    0    0 -0.17283917080E+02 -0.19954010243E+02  0.45606203400E+02  0.13573379638E+03  0.12508733500E+03 0.  0.
        -24    2    1    2    0    0  0.40018537456E+02  0.27964654699E+02  0.19132410565E+03  0.21324167363E+03  0.80520759552E+02 0.  0.
        -13    1    3    3    0    0 -0.23586661893E+02  0.33263911192E+02 -0.14862226651E+03  0.15411488088E+03  0.00000000000E+00 0.  1.
         14    1    3    3    0    0  0.85204151647E+00 -0.41274555648E+02 -0.98117421970E+02  0.10644878305E+03  0.00000000000E+00 0. -1.
         11    1    5    5    0    0  0.46228139321E+02  0.42020321098E+02  0.18717493607E+03  0.19732512496E+03  0.00000000000E+00 0. -1.
        -12    1    5    5    0    0 -0.62096018643E+01 -0.14055666399E+02  0.41491695768E+01  0.15916548665E+02  0.00000000000E+00 0.  1.
          5    1    4    4  501    0 -0.35619525370E+02 -0.26223957650E+02 -0.32566796595E+02  0.55086433746E+02  0.41800000000E+01 0. -1.
         -5    1    4    4    0  501  0.18335608290E+02  0.62699474074E+01  0.78172999995E+02  0.80647362636E+02  0.41800000000E+01 0. -1.
</event>
<event>
11    1  0.8299058E-009  0.1745831E+03  0.7561462E-02  0.1074111E+00
         22   -1    0    0    0    0  0.00000000000E+00  0.00000000000E+00  0.18945505022E+03  0.18945505022E+03  0.00000000000E+00 0. -1.
         22   -1    0    0    0    0 -0.00000000000E+00 -0.00000000000E+00 -0.41578941610E+03  0.41578941610E+03  0.00000000000E+00 0.  1.
        -24    2    1    2    0    0  0.30191167950E+01  0.80351310569E+01 -0.21704979743E+03  0.23186241399E+03  0.81091837172E+02 0.  0.
         25    2    1    2    0    0 -0.52800087339E+02 -0.11722980390E+03 -0.98525673792E+02  0.20465956593E+03  0.12509018102E+03 0.  0.
         24    2    1    2    0    0  0.49780970543E+02  0.10919467284E+03  0.89241105343E+02  0.16872248640E+03  0.78113257065E+02 0.  0.
        -11    1    5    5    0    0 -0.63468081534E+01  0.54784235794E+02  0.68315071851E+02  0.87798311529E+02  0.00000000000E+00 0.  1.
         12    1    5    5    0    0  0.56127778697E+02  0.54410437049E+02  0.20926033493E+02  0.80924174874E+02  0.00000000000E+00 0. -1.
         11    1    3    3    0    0  0.54295919386E+01 -0.33980102752E+02 -0.13892832903E+03  0.14312654701E+03  0.00000000000E+00 0. -1.
        -12    1    3    3    0    0 -0.24104751436E+01  0.42015233809E+02 -0.78121468402E+02  0.88735866975E+02  0.00000000000E+00 0.  1.
          5    1    4    4  501    0 -0.75428758470E+02 -0.69665393331E+02 -0.11005978635E+03  0.15057686942E+03  0.41800000000E+01 0. -1.
         -5    1    4    4    0  501  0.22628671132E+02 -0.47564410569E+02  0.11534112558E+02  0.54082696516E+02  0.41800000000E+01 0. -1.
</event>
<event>
11    1  0.8299058E-009  0.1429271E+03  0.7561462E-02  0.1104333E+00
         22   -1    0    0    0    0  0.00000000000E+00  0.00000000000E+00  0.37039785119E+03  0.37039785119E+03  0.00000000000E+00 0. -1.
         22   -1    0    0    0    0 -0.00000000000E+00 -0.00000000000E+00 -0.41993192245E+03  0.41993192245E+03  0.00000000000E+00 0. -1.
         24    2    1    2    0    0 -0.64989384750E+02 -0.98060057596E+01 -0.27736095953E+03  0.29568880213E+03  0.78631977925E+02 0.  0.
         25    2    1    2    0    0  0.92451540229E+02 -0.42560379996E+02 -0.73676315159E+02  0.17729681776E+03  0.12508912397E+03 0.  0.
        -24    2    1    2    0    0 -0.27462155479E+02  0.52366385755E+02  0.30150320342E+03  0.31734415376E+03  0.79414872101E+02 0.  0.
        -13    1    3    3    0    0  0.26223748154E+01 -0.29395840277E+02 -0.54536530232E+02  0.62009881511E+02  0.00000000000E+00 0.  1.
         14    1    3    3    0    0 -0.67611759566E+02  0.19589834518E+02 -0.22282442930E+03  0.23367892061E+03  0.00000000000E+00 0. -1.
         13    1    5    5    0    0 -0.47751130447E+02  0.42689838006E+02  0.27606205254E+03  0.28339521799E+03  0.00000000000E+00 0. -1.
        -14    1    5    5    0    0  0.20288974968E+02  0.96765477490E+01  0.25441150884E+02  0.33948935770E+02  0.00000000000E+00 0.  1.
          5    1    4    4  501    0  0.17459283906E+02 -0.76690161321E+02 -0.35707659248E+02  0.86479574276E+02  0.41800000000E+01 0. -1.
         -5    1    4    4    0  501  0.74992256323E+02  0.34129781326E+02 -0.37968655911E+02  0.90817243481E+02  0.41800000000E+01 0. -1.
</event>
<event>
11    1  0.8299058E-009  0.1578116E+03  0.7561462E-02  0.1089154E+00
         22   -1    0    0    0    0  0.00000000000E+00  0.00000000000E+00  0.10720860540E+04  0.10720860540E+04  0.00000000000E+00 0.  1.
         22   -1    0    0    0    0 -0.00000000000E+00 -0.00000000000E+00 -0.24507948713E+03  0.24507948713E+03  0.00000000000E+00 0. -1.
        -24    2    1    2    0    0 -0.45020978646E+02  0.50276624008E+02 -0.19360115940E+03  0.22079403460E+03  0.81938814709E+02 0.  0.
         25    2    1    2    0    0  0.10854802717E+03  0.22887907633E+02  0.17695127966E+03  0.24344639243E+03  0.12509140696E+03 0.  0.
         24    2    1    2    0    0 -0.63527048524E+02 -0.73164531641E+02  0.84365644662E+03  0.85292511412E+03  0.79600978470E+02 0.  0.
        -11    1    5    5    0    0 -0.52187818983E+02 -0.75353972573E+02  0.82997485771E+03  0.83502099019E+03  0.00000000000E+00 0.  1.
         12    1    5    5    0    0 -0.11339229541E+02  0.21894409319E+01  0.13681588914E+02  0.17904123921E+02  0.00000000000E+00 0. -1.
         11    1    3    3    0    0 -0.65070047952E+02  0.16934207073E+02 -0.12410110845E+03  0.14114518635E+03  0.00000000000E+00 0. -1.
        -12    1    3    3    0    0  0.20049069306E+02  0.33342416935E+02 -0.69500050944E+02  0.79648848255E+02  0.00000000000E+00 0.  1.
          5    1    4    4  501    0  0.11414028568E+03 -0.14855325837E+02  0.83035419318E+02  0.14198957279E+03  0.41800000000E+01 0.  1.
         -5    1    4    4    0  501 -0.55922585048E+01  0.37743233470E+02  0.93915860346E+02  0.10145681964E+03  0.41800000000E+01 0.  1.
</event>
<event>
11    1  0.8299058E-009  0.1390396E+03  0.7561462E-02  0.1108636E+00
         22   -1    0    0    0    0  0.00000000000E+00  0.00000000000E+00  0.12501922997E+03  0.12501922997E+03  0.00000000000E+00 0. -1.
         22   -1    0    0    0    0 -0.00000000000E+00 -0.00000000000E+00 -0.97345845842E+03  0.97345845842E+03  0.00000000000E+00 0.  1.
         24    2    1    2    0    0 -0.20531198251E+02  0.67426449269E+02 -0.61469675884E+03  0.62385389003E+03  0.79835547302E+02 0.  0.
         25    2    1    2    0    0  0.31975844694E+01 -0.34461035052E+02 -0.32388524276E+03  0.34892016692E+03  0.12508335189E+03 0.  0.
        -24    2    1    2    0    0  0.17333613782E+02 -0.32965414217E+02  0.90142773151E+02  0.12570363144E+03  0.79300130542E+02 0.  0.
        -13    1    3    3    0    0 -0.45212788424E+02  0.37893211376E+02 -0.48476662751E+03  0.48834288656E+03  0.00000000000E+00 0.  1.
         14    1    3    3    0    0  0.24681590173E+02  0.29533237893E+02 -0.12993013133E+03  0.13551100347E+03  0.00000000000E+00 0. -1.
         13    1    5    5    0    0 -0.31801353041E+01 -0.26436511612E+02  0.98930683100E+02  0.10245136634E+03  0.00000000000E+00 0. -1.
        -14    1    5    5    0    0  0.20513749086E+02 -0.65289026051E+01 -0.87879099491E+01  0.23252265095E+02  0.00000000000E+00 0.  1.
          5    1    4    4  501    0  0.59909348400E+02  0.48397775872E+01 -0.16470064409E+03  0.17537482156E+03  0.41800000000E+01 0.  1.
         -5    1    4    4    0  501 -0.56711763931E+02 -0.39300812639E+02 -0.15918459867E+03  0.17354534536E+03  0.41800000000E+01 0.  1.
</event>
<event>
11    1  0.8299058E-009  0.1699542E+03  0.7561462E-02  0.1078072E+00
         22   -1    0    0    0    0  0.00000000000E+00  0.00000000000E+00  0.83709818107E+03  0.83709818107E+03  0.00000000000E+00 0. -1.
         22   -1    0    0    0    0 -0.00000000000E+00 -0.00000000000E+00 -0.35158550876E+03  0.35158550876E+03  0.00000000000E+00 0. -1.
         24    2    1    2    0    0  0.11609448057E+03 -0.44674893982E+02 -0.28802862727E+03  0.32457065724E+03  0.83137517667E+02 0.  0.
         25    2    1    2    0    0 -0.16306914478E+02  0.75024134393E+02  0.99628147474E+02  0.17739039212E+03  0.12508815789E+03 0.  0.
        -24    2    1    2    0    0 -0.99787566097E+02 -0.30349240412E+02  0.67391315210E+03  0.68672264047E+03  0.80934625570E+02 0.  0.
        -13    1    3    3    0    0 -0.75942860448E+01 -0.68903410718E+01 -0.72457790526E+02  0.73179788115E+02  0.00000000000E+00 0.  1.
         14    1    3    3    0    0  0.12368876662E+03 -0.37784552910E+02 -0.21557083674E+03  0.25139086913E+03  0.00000000000E+00 0. -1.
         13    1    5    5    0    0 -0.73898528266E+02 -0.17774651924E+02  0.62766470864E+03  0.63224988509E+03  0.00000000000E+00 0. -1.
        -14    1    5    5    0    0 -0.25889037831E+02 -0.12574588488E+02  0.46248443466E+02  0.54472755378E+02  0.00000000000E+00 0.  1.
          5    1    4    4  501    0  0.23479624487E+02 -0.21409842500E+02  0.55407009709E+02  0.64008462306E+02  0.41800000000E+01 0.  1.
         -5    1    4    4    0  501 -0.39786538964E+02  0.96433976894E+02  0.44221137765E+02  0.11338192981E+03  0.41800000000E+01 0.  1.
</event>
<event>
11    1  0.8299058E-009  0.1336597E+03  0.7561462E-02  0.1114852E+00
         22   -1    0    0    0    0  0.00000000000E+00  0.00000000000E+00  0.22662602186E+03  0.22662602186E+03  0.00000000000E+00 0.  1.
         22   -1    0    0    0    0 -0.00000000000E+00 -0.00000000000E+00 -0.35935370708E+03  0.35935370708E+03  0.00000000000E+00 0. -1.
         24    2    1    2    0    0  0.49200744218E+02 -0.57681836243E+00 -0.29189689294E+03  0.30694750595E+03  0.81190697445E+02 0.  0.
         25    2    1    2    0    0 -0.22413734985E+02  0.48351837647E+01  0.41136551291E+02  0.13366293240E+03  0.12509120324E+03 0.  0.
        -24    2    1    2    0    0 -0.26787009232E+02 -0.42583654023E+01  0.11803265643E+03  0.14536929059E+03  0.80404260603E+02 0.  0.
        -13    1    3    3    0    0  0.84361504497E+01  0.84173691523E+01  0.16395968566E+00  0.11918373238E+02  0.00000000000E+00 0.  1.
         14    1    3    3    0    0  0.40764593768E+02 -0.89941875148E+01 -0.29206085263E+03  0.29502913272E+03  0.00000000000E+00 0. -1.
         11    1    5    5    0    0 -0.48995947070E+02  0.18950442859E+02  0.78017164682E+02  0.94055303406E+02  0.00000000000E+00 0. -1.
        -12    1    5    5    0    0  0.22208937838E+02 -0.23208808261E+02  0.40015491749E+02  0.51313987184E+02  0.00000000000E+00 0.  1.
          5    1    4    4  501    0 -0.48754290882E+02 -0.47400375331E+02  0.27367079523E+02  0.73418021647E+02  0.41800000000E+01 0.  1.
         -5    1    4    4    0  501  0.26340555897E+02  0.52235559096E+02  0.13769471768E+02  0.60244910755E+02  0.41800000000E+01 0.  1.
</event>
<event>
11    1  0.8299058E-009  0.1318631E+03  0.7561462E-02  0.1117001E+00
         22   -1    0    0    0    0  0.00000000000E+00  0.00000000000E+00  0.76897284360E+03  0.76897284360E+03  0.00000000000E+00 0.  1.
         22   -1    0    0    0    0 -0.00000000000E+00 -0.00000000000E+00 -0.12243445316E+03  0.12243445316E+03  0.00000000000E+00 0. -1.
         24    2    1    2    0    0  0.40421085195E+02  0.62683158638E+01 -0.69392764658E+02  0.11234047883E+03  0.78306267211E+02 0.  0.
         25    2    1    2    0    0 -0.50024832907E+02  0.13619645711E+02  0.13230791171E+03  0.18931251133E+03  0.12508343131E+03 0.  0.
        -24    2    1    2    0    0  0.96037477118E+01 -0.19887961574E+02  0.58362324339E+03  0.58975430660E+03  0.81891934559E+02 0.  0.
        -11    1    3    3    0    0  0.38554082503E+02  0.29236448039E+02 -0.11078047352E+02  0.49637791094E+02  0.00000000000E+00 0.  1.
         12    1    3    3    0    0  0.18670026921E+01 -0.22968132175E+02 -0.58314717306E+02  0.62702687735E+02  0.00000000000E+00 0. -1.
         11    1    5    5    0    0  0.42274776801E+02 -0.21521585689E+02  0.24467396813E+03  0.24923018694E+03  0.00000000000E+00 0. -1.
        -12    1    5    5    0    0 -0.32671029089E+02  0.16336241144E+01  0.33894927526E+03  0.34052411966E+03  0.00000000000E+00 0.  1.
          5    1    4    4  501    0 -0.32837932839E+02  0.68673653414E+02  0.61892888928E+02  0.98196754560E+02  0.41800000000E+01 0.  1.
         -5    1    4    4    0  501 -0.17186900068E+02 -0.55054007704E+02  0.70415022786E+02  0.91115756772E+02  0.41800000000E+01 0.  1.
</event>
<event>
11    1  0.8299058E-009  0.2264449E+03  0.7561462E-02  0.1037254E+00
         22   -1    0    0    0    0  0.00000000000E+00  0.00000000000E+00  0.56592496709E+03  0.56592496709E+03  0.00000000000E+00 0.  1.
         22   -1    0    0    0    0 -0.00000000000E+00 -0.00000000000E+00 -0.20398688889E+03  0.20398688889E+03  0.00000000000E+00 0.  1.
         24    2    1    2    0    0  0.30406780710E+02  0.57568898546E+02 -0.37795643071E+02  0.11077287326E+03  0.81261112605E+02 0.  0.
         25    2    1    2    0    0  0.16328318197E+03 -0.67866647960E+02  0.10471877132E+02  0.21684316807E+03  0.12507605649E+03 0.  0.
        -24    2    1    2    0    0 -0.19368996268E+03  0.10297749414E+02  0.38926184414E+03  0.44229581465E+03  0.80491981410E+02 0.  0.
        -13    1    3    3    0    0  0.22017641553E+02 -0.63600393284E+01  0.15040564759E+02  0.27412501310E+02  0.00000000000E+00 0.  1.
         14    1    3    3    0    0  0.83891391570E+01  0.63928937875E+02 -0.52836207829E+02  0.83360371948E+02  0.00000000000E+00 0. -1.
         11    1    5    5    0    0 -0.21080802433E+02 -0.17148635225E+02  0.10621065945E+03  0.10963202134E+03  0.00000000000E+00 0. -1.
        -12    1    5    5    0    0 -0.17260916024E+03  0.27446384639E+02  0.28305118469E+03  0.33266379332E+03  0.00000000000E+00 0.  1.
          5    1    4    4  501    0  0.10361024264E+03  0.24488207720E+02  0.42137374006E+01  0.10663012089E+03  0.41800000000E+01 0. -1.
         -5    1    4    4    0  501  0.59672939326E+02 -0.92354855680E+02  0.62581397311E+01  0.11021304718E+03  0.41800000000E+01 0. -1.
</event>
<event>
11    1  0.8299058E-009  0.3906894E+03  0.7561462E-02  0.9677636E-01
         22   -1    0    0    0    0  0.00000000000E+00  0.00000000000E+00  0.31859934792E+04  0.31859934792E+04  0.00000000000E+00 0. -1.
         22   -1    0    0    0    0 -0.00000000000E+00 -0.00000000000E+00 -0.10209667072E+04  0.10209667072E+04  0.00000000000E+00 0. -1.
         24    2    1    2    0    0  0.60008494939E+02  0.17332583428E+02 -0.93751223203E+03  0.94306693968E+03  0.80898885033E+02 0.  0.
         25    2    1    2    0    0  0.14721223516E+03  0.29895184504E+03  0.40616523756E+03  0.54005710469E+03  0.12509127983E+03 0.  0.
        -24    2    1    2    0    0 -0.20722073009E+03 -0.31628442846E+03  0.26963737665E+04  0.27238361420E+04  0.76652263402E+02 0.  0.
        -11    1    3    3    0    0 -0.15567362385E+02  0.80864048144E+01 -0.37688647477E+03  0.37729451040E+03  0.00000000000E+00 0.  1.
         12    1    3    3    0    0  0.75575857324E+02  0.92461786136E+01 -0.56062575726E+03  0.56577242928E+03  0.00000000000E+00 0. -1.
         13    1    5    5    0    0 -0.19391967839E+03 -0.27524687444E+03  0.25130482915E+04  0.25355033818E+04  0.00000000000E+00 0. -1.
        -14    1    5    5    0    0 -0.13301051707E+02 -0.41037554020E+02  0.18332547498E+03  0.18833276028E+03  0.00000000000E+00 0.  1.
          5    1    4    4  501    0  0.54940237003E+02  0.23641640983E+03  0.25352809472E+03  0.35100586276E+03  0.41800000000E+01 0.  1.
         -5    1    4    4    0  501  0.92271998153E+02  0.62535435204E+02  0.15263714284E+03  0.18905124192E+03  0.41800000000E+01 0.  1.
</event>
<event>
11    1  0.8299058E-009  0.1739915E+03  0.7561462E-02  0.1074609E+00
         22   -1    0    0    0    0  0.00000000000E+00  0.00000000000E+00  0.16901585606E+03  0.16901585606E+03  0.00000000000E+00 0.  1.
         22   -1    0    0    0    0 -0.00000000000E+00 -0.00000000000E+00 -0.64740592471E+03  0.64740592471E+03  0.00000000000E+00 0. -1.
         24    2    1    2    0    0  0.30693539764E+02  0.42384025770E+02 -0.42432531285E+03  0.43509449124E+03  0.80726365919E+02 0.  0.
         25    2    1    2    0    0 -0.10363668292E+03 -0.12481352400E+03 -0.11141344336E+03  0.23319522893E+03  0.12509229239E+03 0.  0.
        -24    2    1    2    0    0  0.72943143160E+02  0.82429498227E+02  0.57348687558E+02  0.14813206060E+03  0.80863533816E+02 0.  0.
        -11    1    3    3    0    0 -0.18879614068E+00 -0.23156030292E+02 -0.83363496595E+02  0.86519997385E+02  0.00000000000E+00 0.  1.
         12    1    3    3    0    0  0.30882335905E+02  0.65540056062E+02 -0.34096181626E+03  0.34857449385E+03  0.00000000000E+00 0. -1.
         13    1    5    5    0    0  0.29290012991E+02 -0.19165376950E+01 -0.10759112410E+02  0.31262381189E+02  0.00000000000E+00 0. -1.
        -14    1    5    5    0    0  0.43653130169E+02  0.84346035922E+02  0.68107799968E+02  0.11686967941E+03  0.00000000000E+00 0.  1.
          5    1    4    4  501    0 -0.97038498194E+02 -0.13654487183E+03 -0.57014572823E+02  0.17700029963E+03  0.41800000000E+01 0. -1.
         -5    1    4    4    0  501 -0.65981847297E+01  0.11731347836E+02 -0.54398870534E+02  0.56194929301E+02  0.41800000000E+01 0. -1.
</event>
<event>
11    1  0.8299058E-009  0.1596625E+03  0.7561462E-02  0.1087395E+00
         22   -1    0    0    0    0  0.00000000000E+00  0.00000000000E+00  0.21536762387E+03  0.21536762387E+03  0.00000000000E+00 0.  1.
         22   -1    0    0    0    0 -0.00000000000E+00 -0.00000000000E+00 -0.17002597079E+04  0.17002597079E+04  0.00000000000E+00 0. -1.
        -24    2    1    2    0    0 -0.40350819404E+02 -0.35990582549E+02 -0.11873343543E+04  0.11912473304E+04  0.79898827731E+02 0.  0.
         25    2    1    2    0    0  0.69475155623E+02 -0.59820150250E+02 -0.47748487048E+03  0.50204072568E+03  0.12509133096E+03 0.  0.
         24    2    1    2    0    0 -0.29124336219E+02  0.95810732799E+02  0.17992714077E+03  0.22233927566E+03  0.83863305672E+02 0.  0.
        -13    1    5    5    0    0  0.17310290515E+01  0.15726947298E+02  0.11139109669E+03  0.11250915410E+03  0.00000000000E+00 0.  1.
         14    1    5    5    0    0 -0.30855365270E+02  0.80083785501E+02  0.68536044072E+02  0.10983012157E+03  0.00000000000E+00 0. -1.
         11    1    3    3    0    0 -0.58130401577E+02 -0.22151381995E+02 -0.10676456065E+04  0.10694563892E+04  0.00000000000E+00 0. -1.
        -12    1    3    3    0    0  0.17779582173E+02 -0.13839200553E+02 -0.11968874773E+03  0.12179094115E+03  0.00000000000E+00 0.  1.
          5    1    4    4  501    0 -0.25681050323E+02 -0.27848844561E+01 -0.22120979448E+03  0.22275214365E+03  0.41800000000E+01 0. -1.
         -5    1    4    4    0  501  0.95156205946E+02 -0.57035265794E+02 -0.25627507599E+03  0.27928858203E+03  0.41800000000E+01 0. -1.
</event>
<event>
11    1  0.8299058E-009  0.1614458E+03  0.7561462E-02  0.1085725E+00
         22   -1    0    0    0    0  0.00000000000E+00  0.00000000000E+00  0.44094834336E+03  0.44094834336E+03  0.00000000000E+00 0. -1.
         22   -1    0    0    0    0 -0.00000000000E+00 -0.00000000000E+00 -0.97939353855E+03  0.97939353855E+03  0.00000000000E+00 0. -1.
        -24    2    1    2    0    0 -0.32318038419E+02  0.14438925607E+02 -0.80899793852E+03  0.81384942252E+03  0.81365102030E+02 0.  0.
         25    2    1    2    0    0  0.13123113287E+03 -0.28500820434E+02 -0.10383121234E+03  0.21086250012E+03  0.12509263088E+03 0.  0.
         24    2    1    2    0    0 -0.98913094449E+02  0.14061894826E+02  0.37438395568E+03  0.39562995926E+03  0.79863516421E+02 0.  0.
        -11    1    5    5    0    0 -0.17531071496E+02 -0.19649342551E+02  0.18375948438E+03  0.18563669688E+03  0.00000000000E+00 0.  1.
         12    1    5    5    0    0 -0.81382022954E+02  0.33711237378E+02  0.19062447130E+03  0.20999326238E+03  0.00000000000E+00 0. -1.
         11    1    3    3    0    0 -0.38144357900E+02  0.43560966590E+02 -0.47002495298E+03  0.47357787773E+03  0.00000000000E+00 0. -1.
        -12    1    3    3    0    0  0.58263194816E+01 -0.29122040983E+02 -0.33897298555E+03  0.34027154480E+03  0.00000000000E+00 0.  1.
          5    1    4    4  501    0  0.37244449499E+02 -0.48128625561E+02  0.10078412848E+02  0.61826858423E+02  0.41800000000E+01 0.  1.
         -5    1    4    4    0  501  0.93986683369E+02  0.19627805127E+02 -0.11390962519E+03  0.14903564170E+03  0.41800000000E+01 0.  1.
</event>
<event>
11    1  0.8299058E-009  0.1347416E+03  0.7561462E-02  0.1113577E+00
         22   -1    0    0    0    0  0.00000000000E+00  0.00000000000E+00  0.19802773056E+03  0.19802773056E+03  0.00000000000E+00 0.  1.
         22   -1    0    0    0    0 -0.00000000000E+00 -0.00000000000E+00 -0.31270628248E+03  0.31270628248E+03  0.00000000000E+00 0.  1.
        -24    2    1    2    0    0  0.31568410778E+02  0.68801096823E+01 -0.20676791237E+03  0.22349733270E+03  0.78448630769E+02 0.  0.
         25    2    1    2    0    0 -0.62544151364E+02 -0.39902954102E+02 -0.14575408297E+02  0.14616558920E+03  0.12509164769E+03 0.  0.
         24    2    1    2    0    0  0.30975740586E+02  0.33022844420E+02  0.10666476875E+03  0.14107109115E+03  0.80459151793E+02 0.  0.
        -11    1    5    5    0    0  0.45824805363E+02  0.95868630115E+01  0.10292956918E+03  0.11307659767E+03  0.00000000000E+00 0.  1.
         12    1    5    5    0    0 -0.14849064777E+02  0.23435981409E+02  0.37351995691E+01  0.27994493479E+02  0.00000000000E+00 0. -1.
         13    1    3    3    0    0  0.31899877993E+00  0.46862610804E+01  0.64563380529E+01  0.79841783666E+01  0.00000000000E+00 0. -1.
        -14    1    3    3    0    0  0.31249411998E+02  0.21938486019E+01 -0.21322425043E+03  0.21551315434E+03  0.00000000000E+00 0.  1.
          5    1    4    4  501    0  0.14701663363E+02  0.34116367363E+02  0.36404670896E+01  0.37560495582E+02  0.41800000000E+01 0.  1.
         -5    1    4    4    0  501 -0.77245814727E+02 -0.74019321466E+02 -0.18215875386E+02  0.10860509362E+03  0.41800000000E+01 0.  1.
</event>
<event>
11    1  0.8299058E-009  0.1804734E+03  0.7561462E-02  0.1069261E+00
         22   -1    0    0    0    0  0.00000000000E+00  0.00000000000E+00  0.12674585091E+04  0.12674585091E+04  0.00000000000E+00 0.  1.
         22   -1    0    0    0    0 -0.00000000000E+00 -0.00000000000E+00 -0.90204844103E+02  0.90204844103E+02  0.00000000000E+00 0.  1.
        -24    2    1    2    0    0  0.94336684306E+02  0.28701393707E+02  0.10755399891E+03  0.16628510625E+03  0.79747688822E+02 0.  0.
         25    2    1    2    0    0 -0.15739317506E+03 -0.88912722962E+02  0.15471119373E+03  0.26881227319E+03  0.12508557428E+03 0.  0.
         24    2    1    2    0    0  0.63056490749E+02  0.60211329255E+02  0.91498847239E+03  0.92256597380E+03  0.79514440220E+02 0.  0.
        -13    1    5    5    0    0  0.71907291525E+02  0.69680694678E+02  0.87013381588E+03  0.87587608446E+03  0.00000000000E+00 0.  1.
         14    1    5    5    0    0 -0.88508007764E+01 -0.94693654225E+01  0.44854656506E+02  0.46689889336E+02  0.00000000000E+00 0. -1.
         11    1    3    3    0    0  0.46542551562E+01  0.15211932909E+02  0.63496058227E+02  0.65458493752E+02  0.00000000000E+00 0. -1.
        -12    1    3    3    0    0  0.89682429150E+02  0.13489460798E+02  0.44057940687E+02  0.10082661250E+03  0.00000000000E+00 0.  1.
          5    1    4    4  501    0 -0.10778182797E+03 -0.11358242512E+03  0.14285507478E+03  0.21199748707E+03  0.41800000000E+01 0. -1.
         -5    1    4    4    0  501 -0.49611347090E+02  0.24669702157E+02  0.11856118948E+02  0.56814786113E+02  0.41800000000E+01 0. -1.
</event>
<event>
11    1  0.8299058E-009  0.1572983E+03  0.7561462E-02  0.1089646E+00
         22   -1    0    0    0    0  0.00000000000E+00  0.00000000000E+00  0.81745045315E+03  0.81745045315E+03  0.00000000000E+00 0.  1.
         22   -1    0    0    0    0 -0.00000000000E+00 -0.00000000000E+00 -0.85745700110E+03  0.85745700110E+03  0.00000000000E+00 0. -1.
         24    2    1    2    0    0  0.84335220549E+02  0.44070917287E+02 -0.82967324771E+03  0.83920331718E+03  0.82763726588E+02 0.  0.
         25    2    1    2    0    0 -0.10074061838E+03 -0.70638596682E+02  0.60030175803E+03  0.62541929922E+03  0.12509442676E+03 0.  0.
        -24    2    1    2    0    0  0.16405397834E+02  0.26567679394E+02  0.18936494173E+03  0.21028483786E+03  0.85939823194E+02 0.  0.
        -13    1    3    3    0    0  0.10550918780E+02  0.87228107298E+01 -0.14524956549E+02  0.19959551019E+02  0.00000000000E+00 0.  1.
         14    1    3    3    0    0  0.73784301769E+02  0.35348106557E+02 -0.81514829116E+03  0.81924376616E+03  0.00000000000E+00 0. -1.
         11    1    5    5    0    0  0.38003439146E+01 -0.30008559433E+02  0.40620378479E+02  0.50645546704E+02  0.00000000000E+00 0. -1.
        -12    1    5    5    0    0  0.12605053919E+02  0.56576238827E+02  0.14874456325E+03  0.15963929115E+03  0.00000000000E+00 0.  1.
          5    1    4    4  501    0 -0.10593555676E+03 -0.12748639332E+02  0.27624570123E+03  0.29616554466E+03  0.41800000000E+01 0. -1.
         -5    1    4    4    0  501  0.51949383773E+01 -0.57889957350E+02  0.32405605680E+03  0.32925375456E+03  0.41800000000E+01 0. -1.
</event>
<event>
11    1  0.8299058E-009  0.1736687E+03  0.7561462E-02  0.1074882E+00
         22   -1    0    0    0    0  0.00000000000E+00  0.00000000000E+00  0.10914034918E+03  0.10914034918E+03  0.00000000000E+00 0. -1.
         22   -1    0    0    0    0 -0.00000000000E+00 -0.00000000000E+00 -0.20591670921E+04  0.20591670921E+04  0.00000000000E+00 0. -1.
         24    2    1    2    0    0 -0.21426768454E+02  0.12065572639E+03 -0.16267091653E+04  0.16333065824E+04  0.80565333065E+02 0.  0.
         25    2    1    2    0    0  0.50434657840E+02 -0.10144485320E+03 -0.39029869930E+03  0.42522950867E+03  0.12510934184E+03 0.  0.
        -24    2    1    2    0    0 -0.29007889387E+02 -0.19210873197E+02  0.66981121672E+02  0.10977135022E+03  0.79704224312E+02 0.  0.
        -13    1    3    3    0    0 -0.44717233074E+01  0.34988898104E+02 -0.15305024200E+03  0.15706239485E+03  0.00000000000E+00 0.  1.
         14    1    3    3    0    0 -0.16955045146E+02  0.85666828289E+02 -0.14736589233E+04  0.14762441876E+04  0.00000000000E+00 0. -1.
         11    1    5    5    0    0 -0.31639147503E+02 -0.23446996341E+02  0.83605152052E+02  0.92415468087E+02  0.00000000000E+00 0. -1.
        -12    1    5    5    0    0  0.26312581166E+01  0.42361231437E+01 -0.16624030380E+02  0.17355882134E+02  0.00000000000E+00 0.  1.
          5    1    4    4  501    0  0.33192965691E+02 -0.91027506491E+02 -0.39271696372E+03  0.40451435809E+03  0.41800000000E+01 0. -1.
         -5    1    4    4    0  501  0.17241692149E+02 -0.10417346704E+02  0.24182644211E+01  0.20715150575E+02  0.41800000000E+01 0. -1.
</event>
<event>
11    1  0.8299058E-009  0.1297002E+03  0.7561462E-02  0.1119638E+00
         22   -1    0    0    0    0  0.00000000000E+00  0.00000000000E+00  0.51774886331E+03  0.51774886331E+03  0.00000000000E+00 0.  1.
         22   -1    0    0    0    0 -0.00000000000E+00 -0.00000000000E+00 -0.33184640416E+03  0.33184640416E+03  0.00000000000E+00 0.  1.
        -24    2    1    2    0    0  0.23646670233E+02  0.25154231356E+02 -0.28592723319E+03  0.29893333578E+03  0.80092797390E+02 0.  0.
         25    2    1    2    0    0 -0.14776274878E+02 -0.27103389253E+02  0.80627400641E+02  0.15198925101E+03  0.12508805970E+03 0.  0.
         24    2    1    2    0    0 -0.88703953554E+01  0.19491578966E+01  0.39120229170E+03  0.39867268068E+03  0.76277061823E+02 0.  0.
        -11    1    5    5    0    0 -0.22152041247E+02  0.16018710698E+02  0.36540372751E+03  0.36642488467E+03  0.00000000000E+00 0.  1.
         12    1    5    5    0    0  0.13281645891E+02 -0.14069552802E+02  0.25798564188E+02  0.32247796015E+02  0.00000000000E+00 0. -1.
         11    1    3    3    0    0  0.15749510801E+01 -0.28750488260E+02 -0.85878658864E+02  0.90577122356E+02  0.00000000000E+00 0. -1.
        -12    1    3    3    0    0  0.22071719153E+02  0.53904719616E+02 -0.20004857433E+03  0.20835621343E+03  0.00000000000E+00 0.  1.
          5    1    4    4  501    0  0.13508141541E+02  0.95067046812E+01  0.10015914074E+03  0.10159809642E+03  0.41800000000E+01 0. -1.
         -5    1    4    4    0  501 -0.28284416418E+02 -0.36610093934E+02 -0.19531740097E+02  0.50391154593E+02  0.41800000000E+01 0. -1.
</event>
<event>
11    1  0.8299058E-009  0.1287774E+03  0.7561462E-02  0.1120780E+00
         22   -1    0    0    0    0  0.00000000000E+00  0.00000000000E+00  0.21474097636E+04  0.21474097636E+04  0.00000000000E+00 0. -1.
         22   -1    0    0    0    0 -0.00000000000E+00 -0.00000000000E+00 -0.67529125048E+03  0.67529125048E+03  0.00000000000E+00 0.  1.
        -24    2    1    2    0    0 -0.19074065249E+02  0.24567795759E+02 -0.63421603970E+03  0.64065015182E+03  0.85060187247E+02 0.  0.
         25    2    1    2    0    0  0.31836276001E+01 -0.15076718447E+02  0.70178644049E+02  0.14425549939E+03  0.12508862499E+03 0.  0.
         24    2    1    2    0    0  0.15890437649E+02 -0.94910773120E+01  0.20361559088E+04  0.20377953628E+04  0.79601944255E+02 0.  0.
        -11    1    5    5    0    0  0.45866525856E+02  0.60291462212E+01  0.96578104484E+03  0.96688836758E+03  0.00000000000E+00 0.  1.
         12    1    5    5    0    0 -0.29976088207E+02 -0.15520223533E+02  0.10703748639E+04  0.10709069953E+04  0.00000000000E+00 0. -1.
         13    1    3    3    0    0 -0.20687340033E+02  0.48092433704E+02 -0.23602509286E+03  0.24176164435E+03  0.00000000000E+00 0. -1.
        -14    1    3    3    0    0  0.16132747834E+01 -0.23524637944E+02 -0.39819094684E+03  0.39888850747E+03  0.00000000000E+00 0.  1.
          5    1    4    4  501    0 -0.57915462276E+02  0.88615272096E+00  0.14249066668E+02  0.59795437436E+02  0.41800000000E+01 0. -1.
         -5    1    4    4    0  501  0.61099089876E+02 -0.15962871168E+02  0.55929577381E+02  0.84460061956E+02  0.41800000000E+01 0. -1.
</event>
<event>
11    1  0.8299058E-009  0.1318126E+03  0.7561462E-02  0.1117062E+00
         22   -1    0    0    0    0  0.00000000000E+00  0.00000000000E+00  0.15458310396E+04  0.15458310396E+04  0.00000000000E+00 0.  1.
         22   -1    0    0    0    0 -0.00000000000E+00 -0.00000000000E+00 -0.70062582212E+02  0.70062582212E+02  0.00000000000E+00 0. -1.
        -24    2    1    2    0    0  0.39330691897E+02 -0.14804251759E+02 -0.25783742024E+02  0.93851307733E+02  0.79857356676E+02 0.  0.
         25    2    1    2    0    0 -0.38523398569E+02 -0.39257138861E+01  0.48261949252E+03  0.50006809902E+03  0.12508823135E+03 0.  0.
         24    2    1    2    0    0 -0.80729332795E+00  0.18729965646E+02  0.10189327069E+04  0.10219742150E+04  0.76524321312E+02 0.  0.
        -11    1    5    5    0    0 -0.62178755935E+01  0.23632590826E+02  0.10105992486E+04  0.10108946545E+04  0.00000000000E+00 0.  1.
         12    1    5    5    0    0  0.54105822655E+01 -0.49026251806E+01  0.83334582837E+01  0.11079560509E+02  0.00000000000E+00 0. -1.
         11    1    3    3    0    0 -0.23306176664E+02 -0.37448545484E+00 -0.17275586708E+02  0.29013169530E+02  0.00000000000E+00 0. -1.
        -12    1    3    3    0    0  0.62636868562E+02 -0.14429766305E+02 -0.85081553154E+01  0.64838138203E+02  0.00000000000E+00 0.  1.
          5    1    4    4  501    0  0.16400414817E+02  0.37303200080E+02  0.65085466483E+02  0.76903138360E+02  0.41800000000E+01 0. -1.
         -5    1    4    4    0  501 -0.54923813386E+02 -0.41228913966E+02  0.41753402604E+03  0.42316496065E+03  0.41800000000E+01 0. -1.
</event>
<event>
11    1  0.8299058E-009  0.2089704E+03  0.7561462E-02  0.1048355E+00
         22   -1    0    0    0    0  0.00000000000E+00  0.00000000000E+00  0.12482499532E+04  0.12482499532E+04  0.00000000000E+00 0. -1.
         22   -1    0    0    0    0 -0.00000000000E+00 -0.00000000000E+00 -0.31768132278E+03  0.31768132278E+03  0.00000000000E+00 0. -1.
        -24    2    1    2    0    0 -0.16410266020E+03  0.43761950187E+02 -0.26480483025E+03  0.32456622478E+03  0.79855148705E+02 0.  0.
         25    2    1    2    0    0  0.12916468217E+03 -0.36186700703E+02  0.38695218572E+03  0.42821886699E+03  0.12508561704E+03 0.  0.
         24    2    1    2    0    0  0.34937978033E+02 -0.75752494837E+01  0.80842127500E+03  0.81314618426E+03  0.79898137536E+02 0.  0.
        -11    1    5    5    0    0  0.21984419183E+02  0.34570764576E+02  0.48605496881E+03  0.48777852059E+03  0.00000000000E+00 0.  1.
         12    1    5    5    0    0  0.12953558849E+02 -0.42146014060E+02  0.32236630620E+03  0.32536766366E+03  0.00000000000E+00 0. -1.
         11    1    3    3    0    0 -0.15905010370E+03  0.54193491425E+02 -0.26401301380E+03  0.31294846454E+03  0.00000000000E+00 0. -1.
        -12    1    3    3    0    0 -0.50525565069E+01 -0.10431541239E+02 -0.79181645128E+00  0.11617760247E+02  0.00000000000E+00 0.  1.
          5    1    4    4  501    0  0.10321876671E+03 -0.48983504292E+02  0.14569420297E+03  0.18519657306E+03  0.41800000000E+01 0. -1.
         -5    1    4    4    0  501  0.25945915463E+02  0.12796803589E+02  0.24125798275E+03  0.24302229394E+03  0.41800000000E+01 0. -1.
</event>
<event>
11    1  0.8299058E-009  0.1523368E+03  0.7561462E-02  0.1094515E+00
         22   -1    0    0    0    0  0.00000000000E+00  0.00000000000E+00  0.19170289837E+04  0.19170289837E+04  0.00000000000E+00 0.  1.
         22   -1    0    0    0    0 -0.00000000000E+00 -0.00000000000E+00 -0.16599631393E+04  0.16599631393E+04  0.00000000000E+00 0.  1.
        -24    2    1    2    0    0 -0.82093821799E+00  0.91239639013E+02 -0.16380823913E+04  0.16425939140E+04  0.80470489827E+02 0.  0.
         25    2    1    2    0    0  0.39400821723E+02 -0.26631948961E+01  0.23103310659E+03  0.26567539993E+03  0.12509038504E+03 0.  0.
         24    2    1    2    0    0 -0.38579883505E+02 -0.88576444117E+02  0.16641151291E+04  0.16687228091E+04  0.77604489193E+02 0.  0.
        -13    1    5    5    0    0 -0.22052449700E+02 -0.88126147189E+01  0.89327244324E+03  0.89358806537E+03  0.00000000000E+00 0.  1.
         14    1    5    5    0    0 -0.16527433805E+02 -0.79763829398E+02  0.77084268590E+03  0.77513474374E+03  0.00000000000E+00 0. -1.
         13    1    3    3    0    0 -0.16104710407E+02  0.41205514664E+02 -0.27736260207E+03  0.28086877569E+03  0.00000000000E+00 0. -1.
        -14    1    3    3    0    0  0.15283772189E+02  0.50034124349E+02 -0.13607197893E+04  0.13617251383E+04  0.00000000000E+00 0.  1.
          5    1    4    4  501    0  0.81203949142E+02  0.86051492471E+01  0.18541827966E+03  0.20264634411E+03  0.41800000000E+01 0. -1.
         -5    1    4    4    0  501 -0.41803127419E+02 -0.11268344143E+02  0.45614826929E+02  0.63029055820E+02  0.41800000000E+01 0. -1.
</event>
<event>
11    1  0.8299058E-009  0.1415243E+03  0.7561462E-02  0.1105868E+00
         22   -1    0    0    0    0  0.00000000000E+00  0.00000000000E+00  0.89252208424E+02  0.89252208424E+02  0.00000000000E+00 0. -1.
         22   -1    0    0    0    0 -0.00000000000E+00 -0.00000000000E+00 -0.21564479933E+04  0.21564479933E+04  0.00000000000E+00 0.  1.
        -24    2    1    2    0    0 -0.21082010646E+02 -0.10833496310E+02 -0.95180434861E+03  0.95556795899E+03  0.81343656142E+02 0.  0.
         25    2    1    2    0    0  0.83344776036E+02  0.31371501916E+02 -0.11653112168E+04  0.11753843123E+04  0.12509007438E+03 0.  0.
         24    2    1    2    0    0 -0.62262765390E+02 -0.20538005607E+02  0.49919780489E+02  0.11474793051E+03  0.79853875574E+02 0.  0.
        -11    1    5    5    0    0 -0.46312516228E+01  0.12648069693E+02 -0.16132611593E+02  0.21016263116E+02  0.00000000000E+00 0.  1.
         12    1    5    5    0    0 -0.57631513767E+02 -0.33186075299E+02  0.66052392082E+02  0.93731667395E+02  0.00000000000E+00 0. -1.
         13    1    3    3    0    0  0.12285800052E+02  0.22536827923E+02 -0.60780966998E+03  0.60835141523E+03  0.00000000000E+00 0. -1.
        -14    1    3    3    0    0 -0.33367810698E+02 -0.33370324233E+02 -0.34399467863E+03  0.34721654376E+03  0.00000000000E+00 0.  1.
          5    1    4    4  501    0  0.13964470472E+02  0.70504724642E+02 -0.46415055701E+03  0.46970111199E+03  0.41800000000E+01 0. -1.
         -5    1    4    4    0  501  0.69380305564E+02 -0.39133222725E+02 -0.70116065978E+03  0.70568320027E+03  0.41800000000E+01 0. -1.
</event>
<event>
11    1  0.8299058E-009  0.1416347E+03  0.7561462E-02  0.1105747E+00
         22   -1    0    0    0    0  0.00000000000E+00  0.00000000000E+00  0.67674593707E+02  0.67674593707E+02  0.00000000000E+00 0.  1.
         22   -1    0    0    0    0 -0.00000000000E+00 -0.00000000000E+00 -0.13016401341E+04  0.13016401341E+04  0.00000000000E+00 0.  1.
        -24    2    1    2    0    0  0.57639635304E+01  0.67846332351E+02 -0.10666438832E+04  0.10718659545E+04  0.80815238413E+02 0.  0.
         25    2    1    2    0    0 -0.35558261409E+01 -0.51135638799E+02 -0.16720108244E+03  0.21501339381E+03  0.12508820925E+03 0.  0.
         24    2    1    2    0    0 -0.22081373895E+01 -0.16710693553E+02 -0.12057479302E+00  0.82435379535E+02  0.80693581597E+02 0.  0.
        -13    1    5    5    0    0 -0.23645765513E+02 -0.40426175689E+02  0.11832193415E+02  0.48305265847E+02  0.00000000000E+00 0.  1.
         14    1    5    5    0    0  0.21437628124E+02  0.23715482136E+02 -0.11952768208E+02  0.34130113688E+02  0.00000000000E+00 0. -1.
         11    1    3    3    0    0  0.27393496053E+02  0.47817003595E+02 -0.32519314205E+03  0.32982942424E+03  0.00000000000E+00 0. -1.
        -12    1    3    3    0    0 -0.21629532522E+02  0.20029328757E+02 -0.74145074114E+03  0.74203653025E+03  0.00000000000E+00 0.  1.
          5    1    4    4  501    0  0.13627542155E+02 -0.57814130889E+02 -0.18168827497E+03  0.19119698035E+03  0.41800000000E+01 0.  1.
         -5    1    4    4    0  501 -0.17183368296E+02  0.66784920903E+01  0.14487192528E+02  0.23816413457E+02  0.41800000000E+01 0.  1.
</event>
<event>
11    1  0.8299058E-009  0.2883628E+03  0.7561462E-02  0.1005240E+00
         22   -1    0    0    0    0  0.00000000000E+00  0.00000000000E+00  0.17982371799E+04  0.17982371799E+04  0.00000000000E+00 0.  1.
         22   -1    0    0    0    0 -0.00000000000E+00 -0.00000000000E+00 -0.70638068256E+02  0.70638068256E+02  0.00000000000E+00 0.  1.
         24    2    1    2    0    0 -0.19922210725E+03 -0.18998972472E+03  0.78828589992E+03  0.83907224795E+03  0.82837393359E+02 0.  0.
         25    2    1    2    0    0  0.24034233666E+03  0.91509657914E+02  0.58382715292E+03  0.65010798740E+03  0.12509114484E+03 0.  0.
        -24    2    1    2    0    0 -0.41120229414E+02  0.98480066810E+02  0.35548605885E+03  0.37969501286E+03  0.80054780776E+02 0.  0.
        -11    1    3    3    0    0 -0.90618602146E+02 -0.14150688796E+03  0.48608130225E+03  0.51430629278E+03  0.00000000000E+00 0.  1.
         12    1    3    3    0    0 -0.10860350510E+03 -0.48482836767E+02  0.30220459767E+03  0.32476595517E+03  0.00000000000E+00 0. -1.
         13    1    5    5    0    0 -0.52585093203E+02  0.31771551406E+02  0.21735969332E+03  0.22587576184E+03  0.00000000000E+00 0. -1.
        -14    1    5    5    0    0  0.11464863789E+02  0.66708515404E+02  0.13812636553E+03  0.15381925102E+03  0.00000000000E+00 0.  1.
          5    1    4    4  501    0  0.94394151366E+02  0.78711841465E+02  0.16097067764E+03  0.20257058340E+03  0.41800000000E+01 0.  1.
         -5    1    4    4    0  501  0.14594818529E+03  0.12797816449E+02  0.42285647528E+03  0.44753740400E+03  0.41800000000E+01 0.  1.
</event>
<event>
11    1  0.8299058E-009  0.1704294E+03  0.7561462E-02  0.1077659E+00
         22   -1    0    0    0    0  0.00000000000E+00  0.00000000000E+00  0.48627919438E+02  0.48627919438E+02  0.00000000000E+00 0. -1.
         22   -1    0    0    0    0 -0.00000000000E+00 -0.00000000000E+00 -0.24749561520E+04  0.24749561520E+04  0.00000000000E+00 0. -1.
         24    2    1    2    0    0 -0.94348546974E+01 -0.14768034556E+02 -0.12075982093E+04  0.12103664987E+04  0.79915673180E+02 0.  0.
         25    2    1    2    0    0  0.11925234787E+03  0.47100156482E+02 -0.11376992776E+04  0.11517149524E+04  0.12509251841E+03 0.  0.
        -24    2    1    2    0    0 -0.10981749317E+03 -0.32332121926E+02 -0.81030745685E+02  0.16150262031E+03  0.80074132570E+02 0.  0.
        -13    1    3    3    0    0  0.28837471418E+02 -0.14610791339E+02 -0.26093342304E+03  0.26292836713E+03  0.00000000000E+00 0.  1.
         14    1    3    3    0    0 -0.38272326116E+02 -0.15724321739E+00 -0.94666478625E+03  0.94743813159E+03  0.00000000000E+00 0. -1.
         13    1    5    5    0    0 -0.53607999368E+02  0.22810208115E+02 -0.19052359400E+02  0.61295314578E+02  0.00000000000E+00 0. -1.
        -14    1    5    5    0    0 -0.56209493801E+02 -0.55142330041E+02 -0.61978386285E+02  0.10020730573E+03  0.00000000000E+00 0.  1.
          5    1    4    4  501    0  0.94339075338E+01 -0.26471376227E+02 -0.48059932785E+03  0.48143838515E+03  0.41800000000E+01 0.  1.
         -5    1    4    4    0  501  0.10981844033E+03  0.73571532709E+02 -0.65709994974E+03  0.67027656725E+03  0.41800000000E+01 0.  1.
</event>
<event>
11    1  0.8299058E-009  0.1613026E+03  0.7561462E-02  0.1085858E+00
         22   -1    0    0    0    0  0.00000000000E+00  0.00000000000E+00  0.68847722630E+03  0.68847722630E+03  0.00000000000E+00 0. -1.
         22   -1    0    0    0    0 -0.00000000000E+00 -0.00000000000E+00 -0.18218507417E+03  0.18218507417E+03  0.00000000000E+00 0. -1.
        -24    2    1    2    0    0 -0.33623985564E+02  0.58668890768E+01 -0.72986183849E+02  0.10028549916E+03  0.59709341944E+02 0.  0.
         25    2    1    2    0    0  0.39592241035E+02  0.96057560630E+02 -0.13740197293E+02  0.16318773820E+03  0.12508734697E+03 0.  0.
         24    2    1    2    0    0 -0.59682554710E+01 -0.10192444971E+03  0.59301853328E+03  0.60718906312E+03  0.81137932197E+02 0.  0.
        -11    1    5    5    0    0  0.73696115977E+01 -0.50898560535E+02  0.11148267669E+03  0.12277362030E+03  0.00000000000E+00 0.  1.
         12    1    5    5    0    0 -0.13337867069E+02 -0.51025889172E+02  0.48153585659E+03  0.48441544282E+03  0.00000000000E+00 0. -1.
         11    1    3    3    0    0 -0.17758706425E+02  0.11411369997E+02 -0.79504811728E+02  0.82259383094E+02  0.00000000000E+00 0. -1.
        -12    1    3    3    0    0 -0.15865279139E+02 -0.55444809197E+01  0.65186278790E+01  0.18026116062E+02  0.00000000000E+00 0.  1.
          5    1    4    4  501    0 -0.30328059891E+02 -0.10912503898E+02 -0.13838234350E+02  0.35324822547E+02  0.41800000000E+01 0. -1.
         -5    1    4    4    0  501  0.69920300927E+02  0.10697006453E+03  0.98037056471E-01  0.12786291565E+03  0.41800000000E+01 0. -1.
</event>
<event>
11    1  0.8299058E-009  0.1617782E+03  0.7561462E-02  0.1085417E+00
         22   -1    0    0    0    0  0.00000000000E+00  0.00000000000E+00  0.21084698628E+04  0.21084698628E+04  0.00000000000E+00 0.  1.
         22   -1    0    0    0    0 -0.00000000000E+00 -0.00000000000E+00 -0.53953285622E+02  0.53953285622E+02  0.00000000000E+00 0. -1.
         24    2    1    2    0    0 -0.30621866657E+02 -0.23689371391E+02  0.69769044550E+02  0.11422714842E+03  0.81738833025E+02 0.  0.
         25    2    1    2    0    0  0.15441846502E+02  0.12367962294E+03  0.23643754934E+03  0.29510331518E+03  0.12509257429E+03 0.  0.
        -24    2    1    2    0    0  0.15180020154E+02 -0.99990251547E+02  0.17483099833E+04  0.17530926849E+04  0.80732152657E+02 0.  0.
        -11    1    3    3    0    0  0.87676700856E+01 -0.28913357381E+01  0.69064084453E+02  0.69678401405E+02  0.00000000000E+00 0.  1.
         12    1    3    3    0    0 -0.39389536742E+02 -0.20798035653E+02  0.70496009665E+00  0.44548747014E+02  0.00000000000E+00 0. -1.
         11    1    5    5    0    0  0.19787618610E+02 -0.98804890910E+02  0.10628233973E+04  0.10675895888E+04  0.00000000000E+00 0. -1.
        -12    1    5    5    0    0 -0.46075984557E+01 -0.11853606371E+01  0.68548658608E+03  0.68550309608E+03  0.00000000000E+00 0.  1.
          5    1    4    4  501    0 -0.14247948871E+02  0.83000692644E+01  0.14200817429E+03  0.14302338677E+03  0.41800000000E+01 0. -1.
         -5    1    4    4    0  501  0.29689795373E+02  0.11537955367E+03  0.94429375045E+02  0.15207992841E+03  0.41800000000E+01 0. -1.
</event>
<event>
11    1  0.8299058E-009  0.1767591E+03  0.7561462E-02  0.1072295E+00
         22   -1    0    0    0    0  0.00000000000E+00  0.00000000000E+00  0.41911263876E+03  0.41911263876E+03  0.00000000000E+00 0. -1.
         22   -1    0    0    0    0 -0.00000000000E+00 -0.00000000000E+00 -0.26445226689E+03  0.26445226689E+03  0.00000000000E+00 0. -1.
         24    2    1    2    0    0  0.54992269418E+02 -0.10416921980E+03 -0.16583110738E+03  0.21890408588E+03  0.80892932887E+02 0.  0.
         25    2    1    2    0    0 -0.72509740507E+02  0.16860978130E+03  0.16092298994E+03  0.27428116073E+03  0.12508807146E+03 0.  0.
        -24    2    1    2    0    0  0.17517471088E+02 -0.64440561502E+02  0.15956848930E+03  0.19037965904E+03  0.79516438785E+02 0.  0.
        -11    1    3    3    0    0  0.10037065378E+02  0.69501663891E+01  0.22946006173E+01  0.12422265745E+02  0.00000000000E+00 0.  1.
         12    1    3    3    0    0  0.44955204040E+02 -0.11111938618E+03 -0.16812570799E+03  0.20648182013E+03  0.00000000000E+00 0. -1.
         11    1    5    5    0    0 -0.13056192017E+02 -0.68179059476E+02  0.13154514873E+03  0.14873793886E+03  0.00000000000E+00 0. -1.
        -12    1    5    5    0    0  0.30573663105E+02  0.37384979747E+01  0.28023340572E+02  0.41641720180E+02  0.00000000000E+00 0.  1.
          5    1    4    4  501    0  0.34621349047E+01  0.12791685492E+03  0.13042586084E+03  0.18276511080E+03  0.41800000000E+01 0.  1.
         -5    1    4    4    0  501 -0.75971875411E+02  0.40692926378E+02  0.30497129104E+02  0.91516049928E+02  0.41800000000E+01 0.  1.
</event>
<event>
11    1  0.8299058E-009  0.2916828E+03  0.7561462E-02  0.1003774E+00
         22   -1    0    0    0    0  0.00000000000E+00  0.00000000000E+00  0.64814567702E+03  0.64814567702E+03  0.00000000000E+00 0. -1.
         22   -1    0    0    0    0 -0.00000000000E+00 -0.00000000000E+00 -0.22712263964E+03  0.22712263964E+03  0.00000000000E+00 0. -1.
        -24    2    1    2    0    0  0.44183741994E+02 -0.48066036206E+02 -0.21196292795E+02  0.10823912854E+03  0.83689182253E+02 0.  0.
         25    2    1    2    0    0 -0.22741337821E+03 -0.14194585973E+03  0.70463888349E+02  0.30410257047E+03  0.12509093541E+03 0.  0.
         24    2    1    2    0    0  0.18322963621E+03  0.19001189593E+03  0.37175544183E+03  0.46292661765E+03  0.80133168013E+02 0.  0.
        -11    1    5    5    0    0  0.89836420267E+02  0.75228520382E+02  0.22939026909E+03  0.25758456522E+03  0.00000000000E+00 0.  1.
         12    1    5    5    0    0  0.93393215947E+02  0.11478337555E+03  0.14236517274E+03  0.20534205243E+03  0.00000000000E+00 0. -1.
         11    1    3    3    0    0  0.64229642466E+02 -0.51547915210E+02 -0.27681675431E+02  0.86884461721E+02  0.00000000000E+00 0. -1.
        -12    1    3    3    0    0 -0.20045900472E+02  0.34818790048E+01  0.64853826361E+01  0.21354666822E+02  0.00000000000E+00 0.  1.
          5    1    4    4  501    0 -0.17189145898E+03 -0.36642367735E+02  0.53629723531E+02  0.18380140486E+03  0.41800000000E+01 0.  1.
         -5    1    4    4    0  501 -0.55521919228E+02 -0.10530349199E+03  0.16834164818E+02  0.12030116560E+03  0.41800000000E+01 0.  1.
</event>
<event>
11    1  0.8299058E-009  0.1722978E+03  0.7561462E-02  0.1076049E+00
         22   -1    0    0    0    0  0.00000000000E+00  0.00000000000E+00  0.17719932195E+03  0.17719932195E+03  0.00000000000E+00 0. -1.
         22   -1    0    0    0    0 -0.00000000000E+00 -0.00000000000E+00 -0.55305782221E+03  0.55305782221E+03  0.00000000000E+00 0. -1.
         24    2    1    2    0    0  0.18177857442E+02 -0.32340782344E+02 -0.20715151304E+03  0.22586722920E+03  0.82023747589E+02 0.  0.
         25    2    1    2    0    0 -0.62104830154E+02  0.13815769057E+03 -0.26880176891E+03  0.33293893442E+03  0.12509750474E+03 0.  0.
        -24    2    1    2    0    0  0.43926972711E+02 -0.10581690823E+03  0.10009478170E+03  0.17145098054E+03  0.79054894899E+02 0.  0.
        -11    1    3    3    0    0 -0.11660960526E+01  0.15373476350E+02 -0.14196752426E+03  0.14280224613E+03  0.00000000000E+00 0.  1.
         12    1    3    3    0    0  0.19343953495E+02 -0.47714258694E+02 -0.65183988783E+02  0.83064983075E+02  0.00000000000E+00 0. -1.
         13    1    5    5    0    0 -0.14834402677E+02 -0.60703441478E+02  0.29437465397E+02  0.69076274358E+02  0.00000000000E+00 0. -1.
        -14    1    5    5    0    0  0.58761375389E+02 -0.45113466747E+02  0.70657316298E+02  0.10237470618E+03  0.00000000000E+00 0.  1.
          5    1    4    4  501    0  0.36718740154E+02  0.45947869088E+02 -0.59618718075E+02  0.83853064924E+02  0.41800000000E+01 0. -1.
         -5    1    4    4    0  501 -0.98823570307E+02  0.92209821481E+02 -0.20918305083E+03  0.24908586949E+03  0.41800000000E+01 0. -1.
</event>
<event>
11    1  0.8299058E-009  0.1326104E+03  0.7561462E-02  0.1116103E+00
         22   -1    0    0    0    0  0.00000000000E+00  0.00000000000E+00  0.27486250431E+03  0.27486250431E+03  0.00000000000E+00 0.  1.
         22   -1    0    0    0    0 -0.00000000000E+00 -0.00000000000E+00 -0.29250070187E+03  0.29250070187E+03  0.00000000000E+00 0. -1.
         24    2    1    2    0    0 -0.31678233119E+01 -0.45569006694E+02 -0.22543541187E+03  0.24411357462E+03  0.81754161438E+02 0.  0.
         25    2    1    2    0    0  0.43298770285E+02  0.21855620624E+02  0.52719164396E+02  0.14415144641E+03  0.12509147671E+03 0.  0.
        -24    2    1    2    0    0 -0.40130946974E+02  0.23713386070E+02  0.15507804991E+03  0.17909818515E+03  0.76512357022E+02 0.  0.
        -13    1    3    3    0    0 -0.30856818750E+01  0.21904151591E+02 -0.29406675548E+02  0.36797633842E+02  0.00000000000E+00 0.  1.
         14    1    3    3    0    0 -0.82141436943E-01 -0.67473158285E+02 -0.19602873632E+03  0.20731594078E+03  0.00000000000E+00 0. -1.
         11    1    5    5    0    0 -0.34838581147E+01  0.53036856938E+01 -0.84152793567E+01  0.10539605114E+02  0.00000000000E+00 0. -1.
        -12    1    5    5    0    0 -0.36647088859E+02  0.18409700376E+02  0.16349332927E+03  0.16855858004E+03  0.00000000000E+00 0.  1.
          5    1    4    4  501    0  0.33961183641E+02  0.73604698033E+02  0.36189401456E+02  0.88871585698E+02  0.41800000000E+01 0. -1.
         -5    1    4    4    0  501  0.93375866449E+01 -0.51749077409E+02  0.16529762940E+02  0.55279860708E+02  0.41800000000E+01 0. -1.
</event>
<event>
11    1  0.8299058E-009  0.1995529E+03  0.7561462E-02  0.1054840E+00
         22   -1    0    0    0    0  0.00000000000E+00  0.00000000000E+00  0.99044036572E+03  0.99044036572E+03  0.00000000000E+00 0.  1.
         22   -1    0    0    0    0 -0.00000000000E+00 -0.00000000000E+00 -0.29794729082E+03  0.29794729082E+03  0.00000000000E+00 0. -1.
         24    2    1    2    0    0 -0.14048820857E+03 -0.25698817670E+02 -0.12096663067E+03  0.20253384390E+03  0.77392933859E+02 0.  0.
         25    2    1    2    0    0  0.19093629552E+03 -0.27507023168E+02 -0.33034075001E+02  0.23227560711E+03  0.12508957700E+03 0.  0.
        -24    2    1    2    0    0 -0.50448086951E+02  0.53205840838E+02  0.84649378058E+03  0.85357820553E+03  0.81658811024E+02 0.  0.
        -11    1    3    3    0    0 -0.33190746430E+02 -0.37639885399E+02 -0.17913818342E+02  0.53285002665E+02  0.00000000000E+00 0.  1.
         12    1    3    3    0    0 -0.10729746214E+03  0.11941067730E+02 -0.10305281233E+03  0.14924884123E+03  0.00000000000E+00 0. -1.
         11    1    5    5    0    0  0.18954075426E+02  0.23502831426E+02  0.15024716271E+03  0.15325093789E+03  0.00000000000E+00 0. -1.
        -12    1    5    5    0    0 -0.69402162377E+02  0.29703009413E+02  0.69624661787E+03  0.70032726765E+03  0.00000000000E+00 0.  1.
          5    1    4    4  501    0  0.20695396853E+02  0.20957434451E+02 -0.45962620502E+02  0.54749871169E+02  0.41800000000E+01 0.  1.
         -5    1    4    4    0  501  0.17024089867E+03 -0.48464457619E+02  0.12928545500E+02  0.17752573594E+03  0.41800000000E+01 0.  1.
</event>
<event>
11    1  0.8299058E-009  0.1377240E+03  0.7561462E-02  0.1110127E+00
         22   -1    0    0    0    0  0.00000000000E+00  0.00000000000E+00  0.99076461291E+03  0.99076461291E+03  0.00000000000E+00 0.  1.
         22   -1    0    0    0    0 -0.00000000000E+00 -0.00000000000E+00 -0.12123216584E+03  0.12123216584E+03  0.00000000000E+00 0.  1.
         24    2    1    2    0    0  0.18833104819E+02  0.63392560721E+02 -0.37088159104E+02  0.11258628673E+03  0.83227626560E+02 0.  0.
         25    2    1    2    0    0  0.21764513984E+02 -0.40188519407E+02  0.57143823225E+02  0.14492474617E+03  0.12509578074E+03 0.  0.
        -24    2    1    2    0    0 -0.40597618804E+02 -0.23204041314E+02  0.84947678295E+03  0.85448574585E+03  0.79677417772E+02 0.  0.
        -13    1    3    3    0    0  0.15053919259E+02  0.81849758757E+02 -0.41851432652E+02  0.93153346202E+02  0.00000000000E+00 0.  1.
         14    1    3    3    0    0  0.37791855602E+01 -0.18457198036E+02  0.47632735476E+01  0.19432940532E+02  0.00000000000E+00 0. -1.
         13    1    5    5    0    0 -0.73576036468E+01 -0.45985085393E+02  0.30674312974E+03  0.31025813454E+03  0.00000000000E+00 0. -1.
        -14    1    5    5    0    0 -0.33240015157E+02  0.22781044079E+02  0.54273365321E+03  0.54422761130E+03  0.00000000000E+00 0.  1.
          5    1    4    4  501    0  0.61250618006E+02 -0.56482905588E+02  0.14977135384E+02  0.84756969118E+02  0.41800000000E+01 0.  1.
         -5    1    4    4    0  501 -0.39486104021E+02  0.16294386180E+02  0.42166687841E+02  0.60167777051E+02  0.41800000000E+01 0.  1.
</event>
<event>
11    1  0.8299058E-009  0.1462202E+03  0.7561462E-02  0.1100805E+00
         22   -1    0    0    0    0  0.00000000000E+00  0.00000000000E+00  0.51663009963E+03  0.51663009963E+03  0.00000000000E+00 0. -1.
         22   -1    0    0    0    0 -0.00000000000E+00 -0.00000000000E+00 -0.49633693762E+03  0.49633693762E+03  0.00000000000E+00 0. -1.
         24    2    1    2    0    0  0.30515279261E+02  0.70254748640E+00 -0.41838006120E+03  0.42714758323E+03  0.80507803393E+02 0.  0.
         25    2    1    2    0    0 -0.53116899293E+02 -0.71900943290E+02  0.22517780908E+02  0.15539052768E+03  0.12509202613E+03 0.  0.
        -24    2    1    2    0    0  0.22601620032E+02  0.71198395804E+02  0.41615544230E+03  0.43042892633E+03  0.80645295407E+02 0.  0.
        -11    1    3    3    0    0  0.27659706958E+02  0.23928564612E+02 -0.80051037700E+02  0.88010250711E+02  0.00000000000E+00 0.  1.
         12    1    3    3    0    0  0.28555723035E+01 -0.23226017126E+02 -0.33832902350E+03  0.33913733252E+03  0.00000000000E+00 0. -1.
         11    1    5    5    0    0  0.39110133608E+02  0.28136347808E+02  0.32201251436E+03  0.32559686120E+03  0.00000000000E+00 0. -1.
        -12    1    5    5    0    0 -0.16508513576E+02  0.43062047996E+02  0.94142927946E+02  0.10483206513E+03  0.00000000000E+00 0.  1.
          5    1    4    4  501    0 -0.51951216396E+02 -0.40890644546E+02  0.71362633544E+02  0.97370794198E+02  0.41800000000E+01 0.  1.
         -5    1    4    4    0  501 -0.11656828973E+01 -0.31010298744E+02 -0.48844852636E+02  0.58019733486E+02  0.41800000000E+01 0.  1.
</event>
<event>
11    1  0.8299058E-009  0.1482461E+03  0.7561462E-02  0.1098685E+00
         22   -1    0    0    0    0  0.00000000000E+00  0.00000000000E+00  0.19586195628E+04  0.19586195628E+04  0.00000000000E+00 0. -1.
         22   -1    0    0    0    0 -0.00000000000E+00 -0.00000000000E+00 -0.29709237044E+03  0.29709237044E+03  0.00000000000E+00 0. -1.
         24    2    1    2    0    0 -0.44396276411E+02  0.22117903913E+02 -0.17417846944E+03  0.19778466610E+03  0.79500967876E+02 0.  0.
         25    2    1    2    0    0  0.12319448256E+03 -0.18558904049E+02 -0.38063201930E+02  0.18059603843E+03  0.12507920811E+03 0.  0.
        -24    2    1    2    0    0 -0.78798206146E+02 -0.35589998636E+01  0.18737688637E+04  0.18773312287E+04  0.84504223890E+02 0.  0.
        -13    1    3    3    0    0 -0.66227427043E+02  0.68674906618E+01 -0.11486939552E+03  0.13277127908E+03  0.00000000000E+00 0.  1.
         14    1    3    3    0    0  0.21831150632E+02  0.15250413251E+02 -0.59309073921E+02  0.65013387018E+02  0.00000000000E+00 0. -1.
         11    1    5    5    0    0 -0.11946351710E+02 -0.74415950652E+00  0.12367474345E+04  0.12368053549E+04  0.00000000000E+00 0. -1.
        -12    1    5    5    0    0 -0.66851854436E+02 -0.28148403571E+01  0.63702142924E+03  0.64052587386E+03  0.00000000000E+00 0.  1.
          5    1    4    4  501    0  0.18627436154E+02  0.30003132741E+02  0.30104256066E+02  0.46593003608E+02  0.41800000000E+01 0. -1.
         -5    1    4    4    0  501  0.10456704640E+03 -0.48562036790E+02 -0.68167457996E+02  0.13400303482E+03  0.41800000000E+01 0. -1.
</event>
<event>
11    1  0.8299058E-009  0.1481245E+03  0.7561462E-02  0.1098811E+00
         22   -1    0    0    0    0  0.00000000000E+00  0.00000000000E+00  0.90634840322E+03  0.90634840322E+03  0.00000000000E+00 0.  1.
         22   -1    0    0    0    0 -0.00000000000E+00 -0.00000000000E+00 -0.28609444851E+03  0.28609444851E+03  0.00000000000E+00 0. -1.
        -24    2    1    2    0    0  0.59187187911E+02  0.54287581228E+02 -0.25855301364E+03  0.28202655576E+03  0.78987673723E+02 0.  0.
         25    2    1    2    0    0 -0.92404517220E+01 -0.52132555214E+02  0.40821261096E+03  0.43022885797E+03  0.12512451884E+03 0.  0.
         24    2    1    2    0    0 -0.49946736189E+02 -0.21550260148E+01  0.47059435739E+03  0.48018743800E+03  0.81373250028E+02 0.  0.
        -11    1    5    5    0    0  0.19323115870E+02 -0.55330201471E+01  0.19370020285E+03  0.19474025189E+03  0.00000000000E+00 0.  1.
         12    1    5    5    0    0 -0.69269852059E+02  0.33779941323E+01  0.27689415453E+03  0.28544718612E+03  0.00000000000E+00 0. -1.
         11    1    3    3    0    0 -0.14095516908E+02  0.29109293272E+02 -0.10747413159E+03  0.11223512602E+03  0.00000000000E+00 0. -1.
        -12    1    3    3    0    0  0.73282704819E+02  0.25178287957E+02 -0.15107888206E+03  0.16979142974E+03  0.00000000000E+00 0.  1.
          5    1    4    4  501    0 -0.23078042957E+02  0.11626994304E+02  0.12243952456E+02  0.28899305096E+02  0.41800000000E+01 0. -1.
         -5    1    4    4    0  501  0.13837591235E+02 -0.63759549517E+02  0.39596865851E+03  0.40132955287E+03  0.41800000000E+01 0. -1.
</event>
<event>
11    1  0.8299058E-009  0.1995234E+03  0.7561462E-02  0.1054861E+00
         22   -1    0    0    0    0  0.00000000000E+00  0.00000000000E+00  0.90581391133E+03  0.90581391133E+03  0.00000000000E+00 0.  1.
         22   -1    0    0    0    0 -0.00000000000E+00 -0.00000000000E+00 -0.48119243536E+03  0.48119243536E+03  0.00000000000E+00 0.  1.
         24    2    1    2    0    0  0.59662782553E+02 -0.14122803155E+03 -0.40184829312E+03  0.43763000172E+03  0.80826748085E+02 0.  0.
         25    2    1    2    0    0 -0.10754577557E+03  0.15046053219E+03  0.15798659156E+03  0.27352824066E+03  0.12511382710E+03 0.  0.
        -24    2    1    2    0    0  0.47882993020E+02 -0.92325006450E+01  0.66848317753E+03  0.67584810431E+03  0.86734545395E+02 0.  0.
        -13    1    3    3    0    0  0.50266793579E+02 -0.13107769688E+03 -0.26324976445E+03  0.29834301004E+03  0.00000000000E+00 0.  1.
         14    1    3    3    0    0  0.93959889747E+01 -0.10150334672E+02 -0.13859852867E+03  0.13928699169E+03  0.00000000000E+00 0. -1.
         11    1    5    5    0    0  0.20679420203E+02  0.10312792574E+02  0.37992406649E+02  0.44468135486E+02  0.00000000000E+00 0. -1.
        -12    1    5    5    0    0  0.27203572816E+02 -0.19545293219E+02  0.63049077088E+03  0.63137996882E+03  0.00000000000E+00 0.  1.
          5    1    4    4  501    0  0.25253633652E+02  0.51101110519E+02  0.35170342849E+02  0.67108083902E+02  0.41800000000E+01 0.  1.
         -5    1    4    4    0  501 -0.13279940922E+03  0.99359421675E+02  0.12281624871E+03  0.20642015675E+03  0.41800000000E+01 0.  1.
</event>
<event>
11    1  0.8299058E-009  0.2979848E+03  0.7561462E-02  0.1001048E+00
         22   -1    0    0    0    0  0.00000000000E+00  0.00000000000E+00  0.15246198239E+04  0.15246198239E+04  0.00000000000E+00 0.  1.
         22   -1    0    0    0    0 -0.00000000000E+00 -0.00000000000E+00 -0.38109815685E+03  0.38109815685E+03  0.00000000000E+00 0.  1.
         24    2    1    2    0    0 -0.27308313955E+02 -0.18092723128E+02 -0.24831246024E+03  0.26247750467E+03  0.78500139525E+02 0.  0.
         25    2    1    2    0    0  0.94322637308E+02  0.27706336239E+03  0.11866920806E+03  0.33969241630E+03  0.12509072731E+03 0.  0.
        -24    2    1    2    0    0 -0.67014323353E+02 -0.25897063926E+03  0.12731649192E+04  0.13035480598E+04  0.82048285077E+02 0.  0.
        -11    1    3    3    0    0 -0.10551608388E+02 -0.29994396506E+01 -0.23698820944E+03  0.23724195348E+03  0.00000000000E+00 0.  1.
         12    1    3    3    0    0 -0.16756705567E+02 -0.15093283477E+02 -0.11324250800E+02  0.25235551188E+02  0.00000000000E+00 0. -1.
         13    1    5    5    0    0  0.41358743341E+01  0.42917320826E+01  0.49847280518E+02  0.50202348509E+02  0.00000000000E+00 0. -1.
        -14    1    5    5    0    0 -0.71150197687E+02 -0.26326237134E+03  0.12233176387E+04  0.12533457113E+04  0.00000000000E+00 0.  1.
          5    1    4    4  501    0 -0.29982997458E+02  0.46223132538E+02  0.11590602639E+02  0.56456820560E+02  0.41800000000E+01 0. -1.
         -5    1    4    4    0  501  0.12430563477E+03  0.23084022985E+03  0.10707860542E+03  0.28323559574E+03  0.41800000000E+01 0. -1.
</event>
<event>
11    1  0.8299058E-009  0.1464876E+03  0.7561462E-02  0.1100523E+00
         22   -1    0    0    0    0  0.00000000000E+00  0.00000000000E+00  0.30481645016E+04  0.30481645016E+04  0.00000000000E+00 0.  1.
         22   -1    0    0    0    0 -0.00000000000E+00 -0.00000000000E+00 -0.25276934178E+02  0.25276934178E+02  0.00000000000E+00 0.  1.
        -24    2    1    2    0    0 -0.18100760431E+01 -0.59773579360E+01  0.71534390500E+02  0.10679643995E+03  0.79052548210E+02 0.  0.
         25    2    1    2    0    0 -0.33007596785E+02 -0.63184715657E+02  0.83686544966E+03  0.84916063438E+03  0.12509273522E+03 0.  0.
         24    2    1    2    0    0  0.34817672828E+02  0.69162073593E+02  0.21144877272E+04  0.21174843614E+04  0.81768022338E+02 0.  0.
        -11    1    5    5    0    0  0.40121454698E+02  0.45597310082E+02  0.19740843997E+04  0.19750184969E+04  0.00000000000E+00 0.  1.
         12    1    5    5    0    0 -0.53037818698E+01  0.23564763511E+02  0.14040332748E+03  0.14246586450E+03  0.00000000000E+00 0. -1.
         13    1    3    3    0    0 -0.10644337074E+02 -0.39605938976E+02  0.54136995739E+02  0.67917204165E+02  0.00000000000E+00 0. -1.
        -14    1    3    3    0    0  0.88342610307E+01  0.33628581040E+02  0.17397394761E+02  0.38879235785E+02  0.00000000000E+00 0.  1.
          5    1    4    4  501    0 -0.63969384543E+02 -0.78196687826E+02  0.47524675650E+03  0.48588450902E+03  0.41800000000E+01 0. -1.
         -5    1    4    4    0  501  0.30961787758E+02  0.15011972169E+02  0.36161869316E+03  0.36327612536E+03  0.41800000000E+01 0. -1.
</event>
<event>
11    1  0.8299058E-009  0.1725460E+03  0.7561462E-02  0.1075837E+00
         22   -1    0    0    0    0  0.00000000000E+00  0.00000000000E+00  0.22347818081E+03  0.22347818081E+03  0.00000000000E+00 0.  1.
         22   -1    0    0    0    0 -0.00000000000E+00 -0.00000000000E+00 -0.14593336858E+04  0.14593336858E+04  0.00000000000E+00 0.  1.
         24    2    1    2    0    0  0.16136801426E+02  0.36521090473E+02 -0.13172329129E+04  0.13203916765E+04  0.82081949173E+02 0.  0.
         25    2    1    2    0    0 -0.11615666276E+03 -0.85351177674E+02 -0.21039782893E+02  0.19200623555E+03  0.12508608312E+03 0.  0.
        -24    2    1    2    0    0  0.10001986134E+03  0.48830087201E+02  0.10241719075E+03  0.17041395453E+03  0.78506591169E+02 0.  0.
        -13    1    3    3    0    0  0.37434654534E+02  0.14600249918E+02 -0.11272604552E+04  0.11279763537E+04  0.00000000000E+00 0.  1.
         14    1    3    3    0    0 -0.21297853109E+02  0.21920840555E+02 -0.18997245763E+03  0.19241532282E+03  0.00000000000E+00 0. -1.
         11    1    5    5    0    0  0.80594360869E+01  0.11081244421E+02 -0.12444403117E+02  0.18509771930E+02  0.00000000000E+00 0. -1.
        -12    1    5    5    0    0  0.91960425252E+02  0.37748842779E+02  0.11486159387E+03  0.15190418260E+03  0.00000000000E+00 0.  1.
          5    1    4    4  501    0 -0.36401059306E+02  0.21537335596E+02 -0.38614907741E+02  0.57423666228E+02  0.41800000000E+01 0.  1.
         -5    1    4    4    0  501 -0.79755603458E+02 -0.10688851327E+03  0.17575124847E+02  0.13458256932E+03  0.41800000000E+01 0.  1.
</event>
<event>
11    1  0.8299058E-009  0.1278974E+03  0.7561462E-02  0.1121880E+00
         22   -1    0    0    0    0  0.00000000000E+00  0.00000000000E+00  0.49914143696E+03  0.49914143696E+03  0.00000000000E+00 0. -1.
         22   -1    0    0    0    0 -0.00000000000E+00 -0.00000000000E+00 -0.75259257703E+03  0.75259257703E+03  0.00000000000E+00 0.  1.
         24    2    1    2    0    0 -0.31636276498E+02 -0.74500323613E+01 -0.59848864612E+03  0.60281977580E+03  0.64394608355E+02 0.  0.
         25    2    1    2    0    0  0.55196920463E+02  0.17836683218E+02 -0.11542573588E+03  0.17981970031E+03  0.12508867582E+03 0.  0.
        -24    2    1    2    0    0 -0.23560643966E+02 -0.10386650857E+02  0.46046324192E+03  0.46909453788E+03  0.85792201574E+02 0.  0.
        -13    1    3    3    0    0 -0.17738594017E+02 -0.14514088036E+02 -0.56901987479E+03  0.56948128536E+03  0.00000000000E+00 0.  1.
         14    1    3    3    0    0 -0.13897682480E+02  0.70640556743E+01 -0.29468771323E+02  0.33338490430E+02  0.00000000000E+00 0. -1.
         13    1    5    5    0    0 -0.26006302761E+02  0.47077100034E+01  0.44950720215E+03  0.45028348304E+03  0.00000000000E+00 0. -1.
        -14    1    5    5    0    0  0.24456587956E+01 -0.15094360860E+02  0.10956039771E+02  0.18811054840E+02  0.00000000000E+00 0.  1.
          5    1    4    4  501    0  0.54832669002E+02 -0.44055467787E+02 -0.36262738220E+02  0.79246226503E+02  0.41800000000E+01 0. -1.
         -5    1    4    4    0  501  0.36425146137E+00  0.61892151005E+02 -0.79162997660E+02  0.10057347381E+03  0.41800000000E+01 0. -1.
</event>
<event>
11    1  0.8734156E-009  0.1531823E+03  0.7561462E-02  0.1093671E+00
         22   -1    0    0    0    0  0.00000000000E+00  0.00000000000E+00  0.11203456242E+04  0.11203456242E+04  0.00000000000E+00 0.  1.
         22   -1    0    0    0    0 -0.00000000000E+00 -0.00000000000E+00 -0.15748298171E+04  0.15748298171E+04  0.00000000000E+00 0. -1.
        -24    2    1    2    0    0 -0.58066103291E+02 -0.54671871348E+02 -0.14550538966E+04  0.14594791809E+04  0.80851418174E+02 0.  0.
         25    2    1    2    0    0  0.63795192696E+00  0.12170259833E+03 -0.47441735013E+02  0.18086418148E+03  0.12509678053E+03 0.  0.
         24    2    1    2    0    0  0.57428151364E+02 -0.67030726980E+02  0.10480114387E+04  0.10548320788E+04  0.80942127191E+02 0.  0.
        -11    1    5    5    0    0  0.27410424380E+02 -0.26618299790E+01  0.64656599037E+03  0.64715222058E+03  0.00000000000E+00 0.  1.
         12    1    5    5    0    0  0.30017726983E+02 -0.64368897001E+02  0.40144544829E+03  0.40767985821E+03  0.00000000000E+00 0. -1.
         13    1    3    3    0    0 -0.74400239411E+02 -0.22910596813E+02 -0.10035188511E+04  0.10065338423E+04  0.00000000000E+00 0. -1.
        -14    1    3    3    0    0  0.16334136121E+02 -0.31761274535E+02 -0.45153504541E+03  0.45294533864E+03  0.00000000000E+00 0.  1.
          5    1    4    4  501    0 -0.58755384933E+02  0.57951874114E+02 -0.43881000858E+02  0.93560833730E+02  0.41800000000E+01 0.  1.
         -5    1    4    4    0  501  0.59393336860E+02  0.63750724214E+02 -0.35607341551E+01  0.87303347753E+02  0.41800000000E+01 0.  1.
</event>
<event>
11    1  0.8299058E-009  0.3291860E+03  0.7561462E-02  0.9885436E-01
         22   -1    0    0    0    0  0.00000000000E+00  0.00000000000E+00  0.11762669465E+03  0.11762669465E+03  0.00000000000E+00 0. -1.
         22   -1    0    0    0    0 -0.00000000000E+00 -0.00000000000E+00 -0.23877349626E+04  0.23877349626E+04  0.00000000000E+00 0. -1.
         24    2    1    2    0    0 -0.16463024862E+03 -0.21238369769E+03 -0.12516805232E+04  0.12825638172E+04  0.77819400241E+02 0.  0.
         25    2    1    2    0    0  0.26349690126E+03  0.31718696911E+03 -0.95199777428E+03  0.10449810601E+04  0.12508982137E+03 0.  0.
        -24    2    1    2    0    0 -0.98866652633E+02 -0.10480327142E+03 -0.66429970420E+02  0.17781677996E+03  0.80296485371E+02 0.  0.
        -13    1    3    3    0    0 -0.54000975402E+02 -0.80545831538E+02 -0.29511265432E+03  0.31063678961E+03  0.00000000000E+00 0.  1.
         14    1    3    3    0    0 -0.11062927322E+03 -0.13183786615E+03 -0.95656786892E+03  0.97192702756E+03  0.00000000000E+00 0. -1.
         13    1    5    5    0    0 -0.87636392814E+02 -0.49263836561E+02 -0.15680634213E+02  0.10174942372E+03  0.00000000000E+00 0. -1.
        -14    1    5    5    0    0 -0.11230259819E+02 -0.55539434861E+02 -0.50749336207E+02  0.76067356243E+02  0.00000000000E+00 0.  1.
          5    1    4    4  501    0  0.54402893767E+02  0.43558139232E+02 -0.29544560085E+03  0.30358287469E+03  0.41800000000E+01 0. -1.
         -5    1    4    4    0  501  0.20909400749E+03  0.27362882988E+03 -0.65655217343E+03  0.74139818542E+03  0.41800000000E+01 0. -1.
</event>
<event>
11    1  0.8299058E-009  0.1706197E+03  0.7561462E-02  0.1077494E+00
         22   -1    0    0    0    0  0.00000000000E+00  0.00000000000E+00  0.12561602765E+04  0.12561602765E+04  0.00000000000E+00 0.  1.
         22   -1    0    0    0    0 -0.00000000000E+00 -0.00000000000E+00 -0.38390639290E+03  0.38390639290E+03  0.00000000000E+00 0. -1.
         24    2    1    2    0    0  0.59740941340E+02 -0.98610578064E+02 -0.35291360559E+03  0.37894316534E+03  0.75874128469E+02 0.  0.
         25    2    1    2    0    0 -0.72090657822E+02  0.13831346857E+03  0.68398252541E+03  0.71260577093E+03  0.12508881311E+03 0.  0.
        -24    2    1    2    0    0  0.12349716482E+02 -0.39702890511E+02  0.54118496380E+03  0.54851773314E+03  0.79130926459E+02 0.  0.
        -11    1    3    3    0    0 -0.14342054478E+02 -0.51395795893E+01 -0.18911620311E+02  0.24284958057E+02  0.00000000000E+00 0.  1.
         12    1    3    3    0    0  0.74082995818E+02 -0.93470998474E+02 -0.33400198528E+03  0.35465820729E+03  0.00000000000E+00 0. -1.
         11    1    5    5    0    0 -0.11588325381E+02  0.15510802981E+02  0.27198190394E+03  0.27267018606E+03  0.00000000000E+00 0. -1.
        -12    1    5    5    0    0  0.23938041863E+02 -0.55213693492E+02  0.26920305985E+03  0.27584754708E+03  0.00000000000E+00 0.  1.
          5    1    4    4  501    0 -0.74969763427E+02  0.10614232895E+03  0.65860873072E+03  0.67131929214E+03  0.41800000000E+01 0. -1.
         -5    1    4    4    0  501  0.28791056049E+01  0.32171139625E+02  0.25373794693E+02  0.41286478791E+02  0.41800000000E+01 0. -1.
</event>
<event>
11    1  0.8299058E-009  0.1358820E+03  0.7561462E-02  0.1112246E+00
         22   -1    0    0    0    0  0.00000000000E+00  0.00000000000E+00  0.17741624757E+04  0.17741624757E+04  0.00000000000E+00 0.  1.
         22   -1    0    0    0    0 -0.00000000000E+00 -0.00000000000E+00 -0.14149383089E+04  0.14149383089E+04  0.00000000000E+00 0. -1.
         24    2    1    2    0    0 -0.33269861569E+02 -0.92575908831E+01 -0.13442130169E+04  0.13471502261E+04  0.81929909185E+02 0.  0.
         25    2    1    2    0    0  0.85051719113E+02  0.93360404270E+00  0.16370054830E+02  0.15215308253E+03  0.12509162757E+03 0.  0.
        -24    2    1    2    0    0 -0.51781857545E+02  0.83239868404E+01  0.16870671288E+04  0.16897974760E+04  0.80432352189E+02 0.  0.
        -13    1    3    3    0    0 -0.37901452354E+02 -0.72370124841E+01 -0.25300482077E+03  0.25593032992E+03  0.00000000000E+00 0.  1.
         14    1    3    3    0    0  0.46315907854E+01 -0.20205783991E+01 -0.10912081962E+04  0.10912198961E+04  0.00000000000E+00 0. -1.
         13    1    5    5    0    0  0.56015464941E+01  0.27439669442E+02  0.88928105789E+03  0.88972192999E+03  0.00000000000E+00 0. -1.
        -14    1    5    5    0    0 -0.57383404039E+02 -0.19115682601E+02  0.79778607095E+03  0.80007554605E+03  0.00000000000E+00 0.  1.
          5    1    4    4  501    0 -0.17210152142E+01 -0.38952280437E+02 -0.26561681966E+02  0.47362827127E+02  0.41800000000E+01 0. -1.
         -5    1    4    4    0  501  0.86772734328E+02  0.39885884480E+02  0.42931736796E+02  0.10479025540E+03  0.41800000000E+01 0. -1.
</event>
<event>
11    1  0.8299058E-009  0.1285578E+03  0.7561462E-02  0.1121054E+00
         22   -1    0    0    0    0  0.00000000000E+00  0.00000000000E+00  0.13960858018E+03  0.13960858018E+03  0.00000000000E+00 0. -1.
         22   -1    0    0    0    0 -0.00000000000E+00 -0.00000000000E+00 -0.41772669269E+03  0.41772669269E+03  0.00000000000E+00 0.  1.
         24    2    1    2    0    0 -0.46365739439E+01  0.10215871601E+02 -0.32221245813E+03  0.33293998377E+03  0.83080098497E+02 0.  0.
         25    2    1    2    0    0  0.89158717558E+01 -0.36172673121E+02  0.36165384268E+01  0.13060053691E+03  0.12512180402E+03 0.  0.
        -24    2    1    2    0    0 -0.42792978119E+01  0.25956801521E+02  0.40477807189E+02  0.93794752193E+02  0.80417253927E+02 0.  0.
        -13    1    3    3    0    0  0.28503974214E+02  0.32939139971E+02 -0.17536479495E+03  0.18069387039E+03  0.00000000000E+00 0.  1.
         14    1    3    3    0    0 -0.33140548158E+02 -0.22723268371E+02 -0.14684766318E+03  0.15224611338E+03  0.00000000000E+00 0. -1.
         11    1    5    5    0    0  0.32474689622E+02 -0.52158757582E+01  0.29908904214E+02  0.44456196163E+02  0.00000000000E+00 0. -1.
        -12    1    5    5    0    0 -0.36753987434E+02  0.31172677279E+02  0.10568902975E+02  0.49338556030E+02  0.00000000000E+00 0.  1.
          5    1    4    4  501    0 -0.45813861502E+02 -0.34417876274E+02  0.35071936295E+02  0.67312801371E+02  0.41800000000E+01 0.  1.
         -5    1    4    4    0  501  0.54729733258E+02 -0.17547968469E+01 -0.31455397868E+02  0.63287735538E+02  0.41800000000E+01 0.  1.
</event>
<event>
11    1  0.8299058E-009  0.1816967E+03  0.7561462E-02  0.1068279E+00
         22   -1    0    0    0    0  0.00000000000E+00  0.00000000000E+00  0.33471521477E+04  0.33471521477E+04  0.00000000000E+00 0. -1.
         22   -1    0    0    0    0 -0.00000000000E+00 -0.00000000000E+00 -0.26485376427E+04  0.26485376427E+04  0.00000000000E+00 0.  1.
        -24    2    1    2    0    0 -0.13077327776E+03 -0.18049229238E+02 -0.26267517608E+04  0.26312554971E+04  0.79077514740E+02 0.  0.
         25    2    1    2    0    0  0.92156384409E+02  0.37213358797E+02  0.32378065540E+03  0.36105291500E+03  0.12509061260E+03 0.  0.
         24    2    1    2    0    0  0.38616893350E+02 -0.19164129559E+02  0.30015856105E+04  0.30033813783E+04  0.94472207908E+02 0.  0.
        -13    1    5    5    0    0  0.25482943772E+01  0.28930518569E+02  0.38062033217E+03  0.38172674254E+03  0.00000000000E+00 0.  1.
         14    1    5    5    0    0  0.36068598973E+02 -0.48094648128E+02  0.26209652783E+04  0.26216546357E+04  0.00000000000E+00 0. -1.
         13    1    3    3    0    0 -0.34147306996E+02  0.16741218402E+02 -0.32564442996E+03  0.32785759368E+03  0.00000000000E+00 0. -1.
        -14    1    3    3    0    0 -0.96625970763E+02 -0.34790447640E+02 -0.23011073309E+04  0.23033979035E+04  0.00000000000E+00 0.  1.
          5    1    4    4  501    0  0.68918763654E+02 -0.57036783554E+01  0.29750941030E+03  0.30546955585E+03  0.41800000000E+01 0. -1.
         -5    1    4    4    0  501  0.23237620755E+02  0.42917037152E+02  0.26271245097E+02  0.55583359157E+02  0.41800000000E+01 0. -1.
</event>
<event>
11    1  0.8299058E-009  0.1265496E+03  0.7561462E-02  0.1123583E+00
         22   -1    0    0    0    0  0.00000000000E+00  0.00000000000E+00  0.22710419704E+03  0.22710419704E+03  0.00000000000E+00 0.  1.
         22   -1    0    0    0    0 -0.00000000000E+00 -0.00000000000E+00 -0.30713866416E+03  0.30713866416E+03  0.00000000000E+00 0.  1.
        -24    2    1    2    0    0 -0.31958123174E+01 -0.42436491849E+00 -0.25021663869E+03  0.26317493357E+03  0.81500221357E+02 0.  0.
         25    2    1    2    0    0 -0.42019893641E+01  0.18373889432E+02  0.93713443213E+02  0.15743493818E+03  0.12509314047E+03 0.  0.
         24    2    1    2    0    0  0.73978016815E+01 -0.17949524514E+02  0.76468728364E+02  0.11363298945E+03  0.81780663809E+02 0.  0.
        -13    1    5    5    0    0 -0.10551387772E+01 -0.15226802166E+02  0.93333295692E+02  0.94573108793E+02  0.00000000000E+00 0.  1.
         14    1    5    5    0    0  0.84529404587E+01 -0.27227223475E+01 -0.16864567328E+02  0.19059880654E+02  0.00000000000E+00 0. -1.
         11    1    3    3    0    0 -0.30171198593E+02  0.15740304258E+02 -0.49865601422E+02  0.60370825801E+02  0.00000000000E+00 0. -1.
        -12    1    3    3    0    0  0.26975386276E+02 -0.16164669177E+02 -0.20035103727E+03  0.20280410777E+03  0.00000000000E+00 0.  1.
          5    1    4    4  501    0 -0.39996080666E+02  0.54955741505E+02  0.78408417766E+02  0.10385168448E+03  0.41800000000E+01 0. -1.
         -5    1    4    4    0  501  0.35794091302E+02 -0.36581852073E+02  0.15305025446E+02  0.53583253700E+02  0.41800000000E+01 0. -1.
</event>
<event>
11    1  0.8299058E-009  0.1727256E+03  0.7561462E-02  0.1075684E+00
         22   -1    0    0    0    0  0.00000000000E+00  0.00000000000E+00  0.15418078970E+04  0.15418078970E+04  0.00000000000E+00 0. -1.
         22   -1    0    0    0    0 -0.00000000000E+00 -0.00000000000E+00 -0.31876027470E+03  0.31876027470E+03  0.00000000000E+00 0. -1.
        -24    2    1    2    0    0 -0.11201429834E+03 -0.56684545312E+02 -0.25342110008E+03  0.29442349382E+03  0.81869402352E+02 0.  0.
         25    2    1    2    0    0  0.15060006487E+02  0.10895730388E+03  0.12647837564E+03  0.20915241550E+03  0.12509778391E+03 0.  0.
         24    2    1    2    0    0  0.96954291852E+02 -0.52272758569E+02  0.13499903467E+04  0.13569922624E+04  0.82592299077E+02 0.  0.
        -11    1    5    5    0    0 -0.69270471236E+01 -0.27367589667E+02  0.18886363940E+03  0.19096188948E+03  0.00000000000E+00 0.  1.
         12    1    5    5    0    0  0.10388133898E+03 -0.24905168902E+02  0.11611267073E+04  0.11660303729E+04  0.00000000000E+00 0. -1.
         13    1    3    3    0    0 -0.11218819009E+03 -0.64335002166E+02 -0.25561008938E+03  0.28646413439E+03  0.00000000000E+00 0. -1.
        -14    1    3    3    0    0  0.17389175366E+00  0.76504568543E+01  0.21889893017E+01  0.79593594331E+01  0.00000000000E+00 0.  1.
          5    1    4    4  501    0 -0.54835846047E+01  0.27454417679E+02  0.12160419219E+03  0.12485538317E+03  0.41800000000E+01 0.  1.
         -5    1    4    4    0  501  0.20543591092E+02  0.81502886202E+02  0.48741834533E+01  0.84297032324E+02  0.41800000000E+01 0.  1.
</event>
<event>
11    1  0.8299058E-009  0.1531865E+03  0.7561462E-02  0.1093667E+00
         22   -1    0    0    0    0  0.00000000000E+00  0.00000000000E+00  0.64563590968E+03  0.64563590968E+03  0.00000000000E+00 0.  1.
         22   -1    0    0    0    0 -0.00000000000E+00 -0.00000000000E+00 -0.20202990547E+03  0.20202990547E+03  0.00000000000E+00 0.  1.
        -24    2    1    2    0    0 -0.97235697993E+00  0.10741697876E+02 -0.76071268017E+02  0.11120274675E+03  0.80392061278E+02 0.  0.
         25    2    1    2    0    0  0.73433900495E+02  0.40472838430E+02 -0.46248412637E+02  0.15754078121E+03  0.12509833604E+03 0.  0.
         24    2    1    2    0    0 -0.72461543515E+02 -0.51214536307E+02  0.56592568486E+03  0.57892228719E+03  0.83699042999E+02 0.  0.
        -13    1    5    5    0    0 -0.78371161910E+02 -0.65647459166E+02  0.42439624722E+03  0.43653614120E+03  0.00000000000E+00 0.  1.
         14    1    5    5    0    0  0.59096183954E+01  0.14432922859E+02  0.14152943764E+03  0.14238614599E+03  0.00000000000E+00 0. -1.
         13    1    3    3    0    0 -0.30174120089E+01 -0.22369889031E+01  0.16897599452E+02  0.17310048001E+02  0.00000000000E+00 0. -1.
        -14    1    3    3    0    0  0.20450550290E+01  0.12978686779E+02 -0.92968867469E+02  0.93892698752E+02  0.00000000000E+00 0.  1.
          5    1    4    4  501    0  0.82031127029E+02 -0.23543252596E+02 -0.20415772391E+02  0.87850251604E+02  0.41800000000E+01 0.  1.
         -5    1    4    4    0  501 -0.85972265344E+01  0.64016091026E+02 -0.25832640246E+02  0.69690529604E+02  0.41800000000E+01 0.  1.
</event>
<event>
11    1  0.8299058E-009  0.2176550E+03  0.7561462E-02  0.1042696E+00
         22   -1    0    0    0    0  0.00000000000E+00  0.00000000000E+00  0.36210176074E+03  0.36210176074E+03  0.00000000000E+00 0.  1.
         22   -1    0    0    0    0 -0.00000000000E+00 -0.00000000000E+00 -0.28263075508E+04  0.28263075508E+04  0.00000000000E+00 0.  1.
        -24    2    1    2    0    0  0.13847876776E+03  0.10391941462E+03 -0.25023380585E+04  0.25099174866E+04  0.89523272973E+02 0.  0.
         25    2    1    2    0    0 -0.27197636263E+03 -0.12960168175E+03 -0.20780682230E+03  0.38678152732E+03  0.12509411152E+03 0.  0.
         24    2    1    2    0    0  0.13349759488E+03  0.25682267126E+02  0.24593909071E+03  0.29171029770E+03  0.78279465793E+02 0.  0.
        -11    1    5    5    0    0  0.56745675821E-01  0.12120830718E+02  0.66970219891E+02  0.68058269958E+02  0.00000000000E+00 0.  1.
         12    1    5    5    0    0  0.13344084920E+03  0.13561436408E+02  0.17896887082E+03  0.22365202774E+03  0.00000000000E+00 0. -1.
         11    1    3    3    0    0  0.30283517985E+02  0.25149069433E+01 -0.15808675275E+03  0.16098086102E+03  0.00000000000E+00 0. -1.
        -12    1    3    3    0    0  0.10819524977E+03  0.10140450768E+03 -0.23442513058E+04  0.23489366255E+04  0.00000000000E+00 0.  1.
          5    1    4    4  501    0 -0.26897905167E+03 -0.14660905270E+03 -0.20540181867E+03  0.36885135771E+03  0.41800000000E+01 0.  1.
         -5    1    4    4    0  501 -0.29973109575E+01  0.17007370950E+02 -0.24050036281E+01  0.17930169605E+02  0.41800000000E+01 0.  1.
</event>
<event>
11    1  0.8299058E-009  0.1491095E+03  0.7561462E-02  0.1097792E+00
         22   -1    0    0    0    0  0.00000000000E+00  0.00000000000E+00  0.23718952926E+02  0.23718952926E+02  0.00000000000E+00 0. -1.
         22   -1    0    0    0    0 -0.00000000000E+00 -0.00000000000E+00 -0.15676681073E+04  0.15676681073E+04  0.00000000000E+00 0. -1.
         24    2    1    2    0    0  0.66116206582E+02  0.61174389505E+02 -0.88726499445E+03  0.89447965513E+03  0.68855096884E+02 0.  0.
         25    2    1    2    0    0 -0.44187474818E+02 -0.36620531956E+02 -0.48127090185E+03  0.50056165440E+03  0.12508674030E+03 0.  0.
        -24    2    1    2    0    0 -0.21928731765E+02 -0.24553857549E+02 -0.17541325806E+03  0.19634575068E+03  0.81841807828E+02 0.  0.
        -11    1    3    3    0    0  0.16280680139E+02  0.47191447996E+01 -0.34942384459E+02  0.38836852409E+02  0.00000000000E+00 0.  1.
         12    1    3    3    0    0  0.49835526444E+02  0.56455244706E+02 -0.85232260999E+03  0.85564280272E+03  0.00000000000E+00 0. -1.
         13    1    5    5    0    0 -0.62945805356E+01 -0.54163663673E+02 -0.10212200102E+03  0.11576798910E+03  0.00000000000E+00 0. -1.
        -14    1    5    5    0    0 -0.15634151229E+02  0.29609806124E+02 -0.73291257035E+02  0.80577761579E+02  0.00000000000E+00 0.  1.
          5    1    4    4  501    0 -0.44829804746E+02  0.31811069116E+02 -0.11031410625E+03  0.12332205784E+03  0.41800000000E+01 0.  1.
         -5    1    4    4    0  501  0.64232992814E+00 -0.68431601072E+02 -0.37095679559E+03  0.37723959656E+03  0.41800000000E+01 0.  1.
</event>
<event>
11    1  0.8299058E-009  0.1904356E+03  0.7561462E-02  0.1061501E+00
         22   -1    0    0    0    0  0.00000000000E+00  0.00000000000E+00  0.38292122164E+03  0.38292122164E+03  0.00000000000E+00 0.  1.
         22   -1    0    0    0    0 -0.00000000000E+00 -0.00000000000E+00 -0.71955337523E+03  0.71955337523E+03  0.00000000000E+00 0.  1.
        -24    2    1    2    0    0  0.19153316052E+02 -0.45773719205E+02 -0.58057646739E+03  0.58829363021E+03  0.80983195616E+02 0.  0.
         25    2    1    2    0    0  0.54193352502E+02 -0.87374974836E+02 -0.53414310280E+02  0.17052605726E+03  0.12511891135E+03 0.  0.
         24    2    1    2    0    0 -0.73346668554E+02  0.13314869404E+03  0.29735862408E+03  0.34365490939E+03  0.81044660040E+02 0.  0.
        -11    1    5    5    0    0 -0.66290865833E+02  0.14369919517E+03  0.26197200747E+03  0.30606089310E+03  0.00000000000E+00 0.  1.
         12    1    5    5    0    0 -0.70558027209E+01 -0.10550501127E+02  0.35386616614E+02  0.37594016299E+02  0.00000000000E+00 0. -1.
         13    1    3    3    0    0  0.21908555416E+02 -0.41453822511E+02 -0.13914326634E+03  0.14683069423E+03  0.00000000000E+00 0. -1.
        -14    1    3    3    0    0 -0.27552393638E+01 -0.43198966938E+01 -0.44143320105E+03  0.44146293598E+03  0.00000000000E+00 0.  1.
          5    1    4    4  501    0  0.23745214008E+02 -0.11662193618E+03 -0.33842616505E+02  0.12380349865E+03  0.41800000000E+01 0.  1.
         -5    1    4    4    0  501  0.30448138494E+02  0.29246961343E+02 -0.19571693774E+02  0.46722558606E+02  0.41800000000E+01 0.  1.
</event>
<event>
11    1  0.8299058E-009  0.1363294E+03  0.7561462E-02  0.1111728E+00
         22   -1    0    0    0    0  0.00000000000E+00  0.00000000000E+00  0.82695409032E+03  0.82695409032E+03  0.00000000000E+00 0. -1.
         22   -1    0    0    0    0 -0.00000000000E+00 -0.00000000000E+00 -0.12751729282E+04  0.12751729282E+04  0.00000000000E+00 0. -1.
         24    2    1    2    0    0 -0.54625902534E+02  0.15404099343E+01 -0.12336764495E+04  0.12374672693E+04  0.79883029034E+02 0.  0.
         25    2    1    2    0    0  0.29286519212E+02  0.11827101633E+02  0.75308905318E+02  0.14938117899E+03  0.12508287203E+03 0.  0.
        -24    2    1    2    0    0  0.25339383322E+02 -0.13367511568E+02  0.71014870628E+03  0.71527857029E+03  0.80569680259E+02 0.  0.
        -11    1    3    3    0    0 -0.79930824381E+01 -0.14513624130E+02 -0.48256228752E+02  0.51021547072E+02  0.00000000000E+00 0.  1.
         12    1    3    3    0    0 -0.46632820096E+02  0.16054034065E+02 -0.11854202208E+04  0.11864457222E+04  0.00000000000E+00 0. -1.
         13    1    5    5    0    0  0.15111659829E+02 -0.47510272250E+02  0.42052565276E+03  0.42347067533E+03  0.00000000000E+00 0. -1.
        -14    1    5    5    0    0  0.10227723493E+02  0.34142760682E+02  0.28962305352E+03  0.29180789497E+03  0.00000000000E+00 0.  1.
          5    1    4    4  501    0  0.70975916198E+02  0.35857573127E+02  0.56073961457E+02  0.97391518030E+02  0.41800000000E+01 0.  1.
         -5    1    4    4    0  501 -0.41689396986E+02 -0.24030471494E+02  0.19234943862E+02  0.51989660959E+02  0.41800000000E+01 0.  1.
</event>
<event>
11    1  0.8299058E-009  0.1715858E+03  0.7561462E-02  0.1076660E+00
         22   -1    0    0    0    0  0.00000000000E+00  0.00000000000E+00  0.44493807588E+03  0.44493807588E+03  0.00000000000E+00 0.  1.
         22   -1    0    0    0    0 -0.00000000000E+00 -0.00000000000E+00 -0.31673857093E+04  0.31673857093E+04  0.00000000000E+00 0.  1.
         24    2    1    2    0    0 -0.36286066296E+02 -0.53923046801E+02 -0.30297600752E+04  0.30315565839E+04  0.81638436357E+02 0.  0.
         25    2    1    2    0    0 -0.62342819868E+02  0.11760207050E+03 -0.55808923776E+02  0.19099393600E+03  0.12508866232E+03 0.  0.
        -24    2    1    2    0    0  0.98628886164E+02 -0.63679023704E+02  0.36312136556E+03  0.38977326531E+03  0.79267881170E+02 0.  0.
        -13    1    3    3    0    0 -0.35097247030E+00 -0.37890743579E+02 -0.25183022553E+04  0.25185873184E+04  0.00000000000E+00 0.  1.
         14    1    3    3    0    0 -0.35935093825E+02 -0.16032303222E+02 -0.51145781994E+03  0.51296926545E+03  0.00000000000E+00 0. -1.
         11    1    5    5    0    0  0.30568450031E+02 -0.17359886450E+02  0.28741569636E+02  0.45407858571E+02  0.00000000000E+00 0. -1.
        -12    1    5    5    0    0  0.68060436133E+02 -0.46319137254E+02  0.33437979592E+03  0.34436540674E+03  0.00000000000E+00 0.  1.
          5    1    4    4  501    0  0.64277267609E+01  0.42899861762E+02 -0.75789033198E+02  0.87425189526E+02  0.41800000000E+01 0.  1.
         -5    1    4    4    0  501 -0.68770546629E+02  0.74702208742E+02  0.19980109422E+02  0.10356874648E+03  0.41800000000E+01 0.  1.
</event>
<event>
11    1  0.8299058E-009  0.1541870E+03  0.7561462E-02  0.1092676E+00
         22   -1    0    0    0    0  0.00000000000E+00  0.00000000000E+00  0.10539289687E+04  0.10539289687E+04  0.00000000000E+00 0. -1.
         22   -1    0    0    0    0 -0.00000000000E+00 -0.00000000000E+00 -0.10402735535E+04  0.10402735535E+04  0.00000000000E+00 0.  1.
        -24    2    1    2    0    0 -0.49593617270E+02  0.92800493929E+02 -0.85388548468E+03  0.86412105215E+03  0.80705100675E+02 0.  0.
         25    2    1    2    0    0  0.31541405383E+02 -0.63143238852E+01 -0.15433879102E+03  0.20125256607E+03  0.12508957589E+03 0.  0.
         24    2    1    2    0    0  0.18052211888E+02 -0.86486170044E+02  0.10218796910E+04  0.10288289040E+04  0.80281198943E+02 0.  0.
        -13    1    5    5    0    0  0.42490211872E+02 -0.17467761244E+02  0.42472641034E+03  0.42720377389E+03  0.00000000000E+00 0.  1.
         14    1    5    5    0    0 -0.24437999984E+02 -0.69018408800E+02  0.59715328064E+03  0.60162513010E+03  0.00000000000E+00 0. -1.
         13    1    3    3    0    0 -0.38268512976E+01 -0.12896401604E+01 -0.32288818141E+03  0.32291343369E+03  0.00000000000E+00 0. -1.
        -14    1    3    3    0    0 -0.45766765973E+02  0.94090134090E+02 -0.53099730327E+03  0.54120761846E+03  0.00000000000E+00 0.  1.
          5    1    4    4  501    0 -0.12152440001E+02 -0.58386236125E+02 -0.86304850085E+02  0.10498873232E+03  0.41800000000E+01 0.  1.
         -5    1    4    4    0  501  0.43693845384E+02  0.52071912240E+02 -0.68033940931E+02  0.96263833745E+02  0.41800000000E+01 0.  1.
</event>
<event>
11    1  0.8299058E-009  0.1495961E+03  0.7561462E-02  0.1097292E+00
         22   -1    0    0    0    0  0.00000000000E+00  0.00000000000E+00  0.59055226472E+03  0.59055226472E+03  0.00000000000E+00 0.  1.
         22   -1    0    0    0    0 -0.00000000000E+00 -0.00000000000E+00 -0.91263018583E+03  0.91263018583E+03  0.00000000000E+00 0. -1.
        -24    2    1    2    0    0 -0.30255930765E+02  0.30903721791E+02 -0.82176714850E+03  0.82681373016E+03  0.80307139554E+02 0.  0.
         25    2    1    2    0    0  0.10947740167E+03 -0.39182261811E+02  0.69482996920E+01  0.17091455809E+03  0.12507180410E+03 0.  0.
         24    2    1    2    0    0 -0.79221470902E+02  0.82785400198E+01  0.49274092770E+03  0.50545416230E+03  0.79659981697E+02 0.  0.
        -13    1    5    5    0    0 -0.69919460718E+02 -0.26494036797E+02  0.37298206401E+03  0.38040279316E+03  0.00000000000E+00 0.  1.
         14    1    5    5    0    0 -0.93020101834E+01  0.34772576817E+02  0.11975886369E+03  0.12505136914E+03  0.00000000000E+00 0. -1.
         13    1    3    3    0    0 -0.36485376235E+02  0.11164400409E+02 -0.77161779072E+03  0.77256057463E+03  0.00000000000E+00 0. -1.
        -14    1    3    3    0    0  0.62294454704E+01  0.19739321382E+02 -0.50149357777E+02  0.54253155529E+02  0.00000000000E+00 0.  1.
          5    1    4    4  501    0  0.90493770007E+02  0.16897373221E+02  0.42764897074E+02  0.10159208854E+03  0.41800000000E+01 0. -1.
         -5    1    4    4    0  501  0.18983631659E+02 -0.56079635032E+02 -0.35816597382E+02  0.69322469548E+02  0.41800000000E+01 0. -1.
</event>
<event>
11    1  0.8299058E-009  0.1464748E+03  0.7561462E-02  0.1100536E+00
         22   -1    0    0    0    0  0.00000000000E+00  0.00000000000E+00  0.12164811876E+04  0.12164811876E+04  0.00000000000E+00 0.  1.
         22   -1    0    0    0    0 -0.00000000000E+00 -0.00000000000E+00 -0.28264770663E+03  0.28264770663E+03  0.00000000000E+00 0. -1.
         24    2    1    2    0    0  0.64616209513E+02 -0.38156405036E+02 -0.25241746921E+03  0.27423980019E+03  0.76561893065E+02 0.  0.
         25    2    1    2    0    0 -0.11185867266E+03  0.83010069371E+02  0.56830396194E+03  0.59834752193E+03  0.12508928645E+03 0.  0.
        -24    2    1    2    0    0  0.47242463142E+02 -0.44853664335E+02  0.61794698820E+03  0.62654157207E+03  0.80325337049E+02 0.  0.
        -13    1    3    3    0    0  0.51917409347E+01 -0.27403950217E+01  0.49862052265E+01  0.77023490812E+01  0.00000000000E+00 0.  1.
         14    1    3    3    0    0  0.59424468579E+02 -0.35416010014E+02 -0.25740367444E+03  0.26653745111E+03  0.00000000000E+00 0. -1.
         13    1    5    5    0    0  0.99331826573E+01 -0.17030053953E+00  0.55414230902E+01  0.11375609427E+02  0.00000000000E+00 0. -1.
        -14    1    5    5    0    0  0.37309280485E+02 -0.44683363796E+02  0.61240556511E+03  0.61516596264E+03  0.00000000000E+00 0.  1.
          5    1    4    4  501    0 -0.60918480091E+02  0.17467111088E+02  0.44584579509E+03  0.45034665158E+03  0.41800000000E+01 0. -1.
         -5    1    4    4    0  501 -0.50940192565E+02  0.65542958283E+02  0.12245816685E+03  0.14800087036E+03  0.41800000000E+01 0. -1.
</event>
<event>
11    1  0.8299058E-009  0.2447130E+03  0.7561462E-02  0.1026754E+00
         22   -1    0    0    0    0  0.00000000000E+00  0.00000000000E+00  0.12700011850E+04  0.12700011850E+04  0.00000000000E+00 0.  1.
         22   -1    0    0    0    0 -0.00000000000E+00 -0.00000000000E+00 -0.74001671275E+03  0.74001671275E+03  0.00000000000E+00 0.  1.
         24    2    1    2    0    0  0.21664087015E+02 -0.73706661697E+02 -0.50046060544E+03  0.51264030032E+03  0.80232507595E+02 0.  0.
         25    2    1    2    0    0  0.17919307011E+03  0.13584669545E+03 -0.14869136039E+03  0.29718752645E+03  0.12508726628E+03 0.  0.
        -24    2    1    2    0    0 -0.20085715712E+03 -0.62140033750E+02  0.11791364381E+04  0.12001900710E+04  0.76736467925E+02 0.  0.
        -11    1    3    3    0    0  0.23818094798E+02 -0.78077730878E+02 -0.50111811821E+03  0.50772315497E+03  0.00000000000E+00 0.  1.
         12    1    3    3    0    0 -0.21540077833E+01  0.43710691813E+01  0.65751277323E+00  0.49171453472E+01  0.00000000000E+00 0. -1.
         13    1    5    5    0    0 -0.10125594005E+03 -0.72587481598E+01  0.39433937224E+03  0.40719650701E+03  0.00000000000E+00 0. -1.
        -14    1    5    5    0    0 -0.99601217067E+02 -0.54881285590E+02  0.78479706585E+03  0.79299356398E+03  0.00000000000E+00 0.  1.
          5    1    4    4  501    0  0.14541393577E+03  0.98541565466E+02 -0.16802266303E+03  0.24311466540E+03  0.41800000000E+01 0. -1.
         -5    1    4    4    0  501  0.33779134337E+02  0.37305129981E+02  0.19331302650E+02  0.54072861045E+02  0.41800000000E+01 0. -1.
</event>
<event>
11    1  0.8299058E-009  0.1333118E+03  0.7561462E-02  0.1115265E+00
         22   -1    0    0    0    0  0.00000000000E+00  0.00000000000E+00  0.89041463222E+03  0.89041463222E+03  0.00000000000E+00 0. -1.
         22   -1    0    0    0    0 -0.00000000000E+00 -0.00000000000E+00 -0.41764615741E+03  0.41764615741E+03  0.00000000000E+00 0. -1.
        -24    2    1    2    0    0  0.37702658820E+02  0.27038983386E+02 -0.39446605194E+03  0.40420269999E+03  0.74991729168E+02 0.  0.
         25    2    1    2    0    0 -0.39409258737E+02  0.72243351649E+01  0.26917130685E+03  0.29951062307E+03  0.12509252660E+03 0.  0.
         24    2    1    2    0    0  0.17065999169E+01 -0.34263318551E+02  0.59806321990E+03  0.60434746656E+03  0.79870882437E+02 0.  0.
        -11    1    5    5    0    0 -0.14180024933E+02  0.13551274324E+02  0.46228685472E+02  0.50217541790E+02  0.00000000000E+00 0.  1.
         12    1    5    5    0    0  0.15886624850E+02 -0.47814592876E+02  0.55183453443E+03  0.55412992477E+03  0.00000000000E+00 0. -1.
         11    1    3    3    0    0  0.49187419484E+02  0.36107566256E+02 -0.37455520972E+03  0.37949277161E+03  0.00000000000E+00 0. -1.
        -12    1    3    3    0    0 -0.11484760664E+02 -0.90685828697E+01 -0.19910842224E+02  0.24709928386E+02  0.00000000000E+00 0.  1.
          5    1    4    4  501    0 -0.20942801809E+02 -0.58723531405E+02  0.11902110993E+03  0.13442674993E+03  0.41800000000E+01 0.  1.
         -5    1    4    4    0  501 -0.18466456928E+02  0.65947866570E+02  0.15015019692E+03  0.16508387315E+03  0.41800000000E+01 0.  1.
</event>
<event>
11    1  0.8299058E-009  0.1289937E+03  0.7561462E-02  0.1120512E+00
         22   -1    0    0    0    0  0.00000000000E+00  0.00000000000E+00  0.45851472691E+03  0.45851472691E+03  0.00000000000E+00 0. -1.
         22   -1    0    0    0    0 -0.00000000000E+00 -0.00000000000E+00 -0.45954086861E+03  0.45954086861E+03  0.00000000000E+00 0. -1.
        -24    2    1    2    0    0 -0.13008581716E+01 -0.85154456191E+01 -0.41693113990E+03  0.42313131090E+03  0.71654209923E+02 0.  0.
         25    2    1    2    0    0 -0.24414380789E+02  0.25753533140E+02  0.90327580511E+02  0.15832327129E+03  0.12509148641E+03 0.  0.
         24    2    1    2    0    0  0.25715238960E+02 -0.17238087521E+02  0.32557741768E+03  0.33660101333E+03  0.79631413997E+02 0.  0.
        -13    1    5    5    0    0  0.29438342152E+01  0.97151462824E+01  0.11000522233E+01  0.10210795369E+02  0.00000000000E+00 0.  1.
         14    1    5    5    0    0  0.22771404745E+02 -0.26953233804E+02  0.32447736546E+03  0.32639021796E+03  0.00000000000E+00 0. -1.
         13    1    3    3    0    0 -0.11329037534E+02 -0.19434757706E+02 -0.39997799458E+03  0.40061010103E+03  0.00000000000E+00 0. -1.
        -14    1    3    3    0    0  0.10028179363E+02  0.10919312087E+02 -0.16953145318E+02  0.22521209869E+02  0.00000000000E+00 0.  1.
          5    1    4    4  501    0  0.12137689202E+02 -0.27882199062E+02  0.88044989606E+02  0.93242335441E+02  0.41800000000E+01 0.  1.
         -5    1    4    4    0  501 -0.36552069991E+02  0.53635732202E+02  0.22825909049E+01  0.65080935847E+02  0.41800000000E+01 0.  1.
</event>
<event>
11    1  0.8299058E-009  0.1651099E+03  0.7561462E-02  0.1082367E+00
         22   -1    0    0    0    0  0.00000000000E+00  0.00000000000E+00  0.20907722504E+03  0.20907722504E+03  0.00000000000E+00 0. -1.
         22   -1    0    0    0    0 -0.00000000000E+00 -0.00000000000E+00 -0.98631530605E+03  0.98631530605E+03  0.00000000000E+00 0. -1.
        -24    2    1    2    0    0 -0.56018257255E+02  0.71613422136E+02 -0.74110653774E+03  0.75091355197E+03  0.79785555583E+02 0.  0.
         25    2    1    2    0    0  0.14651019906E+03 -0.16330229949E+02 -0.16828855065E+03  0.25631662002E+03  0.12508100806E+03 0.  0.
         24    2    1    2    0    0 -0.90491941802E+02 -0.55283192187E+02  0.13215700738E+03  0.18816235909E+03  0.81820388111E+02 0.  0.
        -13    1    5    5    0    0  0.11057677606E+02  0.85307567054E+01  0.12455048171E+02  0.18712943888E+02  0.00000000000E+00 0.  1.
         14    1    5    5    0    0 -0.10154961941E+03 -0.63813948892E+02  0.11970195921E+03  0.16944941521E+03  0.00000000000E+00 0. -1.
         11    1    3    3    0    0 -0.51940892054E+02  0.84727987140E+02 -0.70984627708E+03  0.71676943654E+03  0.00000000000E+00 0. -1.
        -12    1    3    3    0    0 -0.40773652008E+01 -0.13114565004E+02 -0.31260260657E+02  0.34144115431E+02  0.00000000000E+00 0.  1.
          5    1    4    4  501    0  0.12147888380E+02 -0.24655350665E+02  0.12821584554E+02  0.30615730254E+02  0.41800000000E+01 0.  1.
         -5    1    4    4    0  501  0.13436231068E+03  0.83251207157E+01 -0.18111013521E+03  0.22570088976E+03  0.41800000000E+01 0.  1.
</event>
<event>
11    1  0.8299058E-009  0.1391493E+03  0.7561462E-02  0.1108512E+00
         22   -1    0    0    0    0  0.00000000000E+00  0.00000000000E+00  0.42568260029E+03  0.42568260029E+03  0.00000000000E+00 0.  1.
         22   -1    0    0    0    0 -0.00000000000E+00 -0.00000000000E+00 -0.13674352876E+04  0.13674352876E+04  0.00000000000E+00 0.  1.
         24    2    1    2    0    0 -0.47245446348E+02 -0.17480472663E+02 -0.12564685087E+04  0.12597573555E+04  0.75748151377E+02 0.  0.
         25    2    1    2    0    0  0.45376180910E+02  0.77369700449E+02 -0.44998214259E+02  0.16036330442E+03  0.12508589759E+03 0.  0.
        -24    2    1    2    0    0  0.18692654389E+01 -0.59889227786E+02  0.35971403560E+03  0.37299722796E+03  0.78374299980E+02 0.  0.
        -13    1    3    3    0    0 -0.17011768813E+02 -0.45449684822E+02 -0.78211650918E+03  0.78362064040E+03  0.00000000000E+00 0.  1.
         14    1    3    3    0    0 -0.30233677536E+02  0.27969212159E+02 -0.47435199947E+03  0.47613671512E+03  0.00000000000E+00 0. -1.
         11    1    5    5    0    0 -0.19227246388E+02 -0.61231434479E+02  0.16345913034E+03  0.17560712646E+03  0.00000000000E+00 0. -1.
        -12    1    5    5    0    0  0.21096511827E+02  0.13422066935E+01  0.19625490526E+03  0.19739010150E+03  0.00000000000E+00 0.  1.
          5    1    4    4  501    0  0.22795185240E+02  0.60361751104E+02 -0.87714164093E+02  0.10896975933E+03  0.41800000000E+01 0.  1.
         -5    1    4    4    0  501  0.22580995669E+02  0.17007949345E+02  0.42715949833E+02  0.51393545086E+02  0.41800000000E+01 0.  1.
</event>
<event>
11    1  0.8299058E-009  0.1584188E+03  0.7561462E-02  0.1088574E+00
         22   -1    0    0    0    0  0.00000000000E+00  0.00000000000E+00  0.84766285605E+03  0.84766285605E+03  0.00000000000E+00 0. -1.
         22   -1    0    0    0    0 -0.00000000000E+00 -0.00000000000E+00 -0.11819881362E+03  0.11819881362E+03  0.00000000000E+00 0. -1.
        -24    2    1    2    0    0 -0.10113819918E+03 -0.47402865840E+02 -0.29484396861E+02  0.14177257602E+03  0.82183737011E+02 0.  0.
         25    2    1    2    0    0  0.58669022762E+02 -0.19550081398E+02  0.16903903455E+03  0.21921169082E+03  0.12512118237E+03 0.  0.
         24    2    1    2    0    0  0.42469176421E+02  0.66952947238E+02  0.58990940473E+03  0.60487740283E+03  0.10769047576E+03 0.  0.
        -13    1    5    5    0    0  0.20568715010E+02 -0.24936870370E+02  0.79859324857E+02  0.86153533343E+02  0.00000000000E+00 0.  1.
         14    1    5    5    0    0  0.21900461410E+02  0.91889817608E+02  0.51005007988E+03  0.51872386948E+03  0.00000000000E+00 0. -1.
         11    1    3    3    0    0 -0.10182654861E+03 -0.17008508642E+02 -0.60999135338E+01  0.10341733081E+03  0.00000000000E+00 0. -1.
        -12    1    3    3    0    0  0.68834942327E+00 -0.30394357198E+02 -0.23384483328E+02  0.38355245207E+02  0.00000000000E+00 0.  1.
          5    1    4    4  501    0  0.80887856917E+02 -0.41276320335E+02  0.68299689477E+02  0.11370532089E+03  0.41800000000E+01 0.  1.
         -5    1    4    4    0  501 -0.22218834155E+02  0.21726238937E+02  0.10073934507E+03  0.10550636993E+03  0.41800000000E+01 0.  1.
</event>
<event>
11    1  0.8299058E-009  0.1454749E+03  0.7561462E-02  0.1101594E+00
         22   -1    0    0    0    0  0.00000000000E+00  0.00000000000E+00  0.10264478724E+04  0.10264478724E+04  0.00000000000E+00 0.  1.
         22   -1    0    0    0    0 -0.00000000000E+00 -0.00000000000E+00 -0.31138927464E+04  0.31138927464E+04  0.00000000000E+00 0. -1.
         24    2    1    2    0    0 -0.21602384061E+02 -0.20254568682E+02 -0.30713462497E+04  0.30727011599E+04  0.86300183823E+02 0.  0.
         25    2    1    2    0    0 -0.45225047225E+02  0.54360733835E+02  0.95295276398E+02  0.17242053380E+03  0.12508899429E+03 0.  0.
        -24    2    1    2    0    0  0.66827431286E+02 -0.34106165153E+02  0.88860609929E+03  0.89521892510E+03  0.78530173115E+02 0.  0.
        -13    1    3    3    0    0  0.26147552809E+02 -0.27980474583E+02 -0.89728544323E+03  0.89810231494E+03  0.00000000000E+00 0.  1.
         14    1    3    3    0    0 -0.47749936870E+02  0.77259059011E+01 -0.21740608065E+04  0.21745988450E+04  0.00000000000E+00 0. -1.
         11    1    5    5    0    0  0.63337575768E+02  0.55048470489E+01  0.40261140270E+03  0.40760016368E+03  0.00000000000E+00 0. -1.
        -12    1    5    5    0    0  0.34898555180E+01 -0.39611012202E+02  0.48599469659E+03  0.48761876142E+03  0.00000000000E+00 0.  1.
          5    1    4    4  501    0 -0.52694573052E+02  0.91117176583E+02  0.76986682192E+02  0.13047405693E+03  0.41800000000E+01 0. -1.
         -5    1    4    4    0  501  0.74695258268E+01 -0.36756442748E+02  0.18308594206E+02  0.41946476865E+02  0.41800000000E+01 0. -1.
</event>
<event>
11    1  0.8299058E-009  0.1401921E+03  0.7561462E-02  0.1107344E+00
         22   -1    0    0    0    0  0.00000000000E+00  0.00000000000E+00  0.71210722090E+03  0.71210722090E+03  0.00000000000E+00 0. -1.
         22   -1    0    0    0    0 -0.00000000000E+00 -0.00000000000E+00 -0.62268581194E+03  0.62268581194E+03  0.00000000000E+00 0.  1.
         24    2    1    2    0    0 -0.40601961806E+02 -0.50313819801E+02 -0.57352216408E+03  0.58284512513E+03  0.81245107156E+02 0.  0.
         25    2    1    2    0    0  0.67501943420E+01  0.36756118442E+02  0.62027437204E+02  0.14454387628E+03  0.12509577066E+03 0.  0.
        -24    2    1    2    0    0  0.33851767464E+02  0.13557701359E+02  0.60091613583E+03  0.60740403143E+03  0.80682722239E+02 0.  0.
        -11    1    3    3    0    0 -0.42125315840E+02 -0.66231256220E+02 -0.54033735394E+03  0.54600877062E+03  0.00000000000E+00 0.  1.
         12    1    3    3    0    0  0.15233540344E+01  0.15917436419E+02 -0.33184810142E+02  0.36836354513E+02  0.00000000000E+00 0. -1.
         13    1    5    5    0    0  0.10050656463E+02  0.43226891491E+02  0.43120102680E+03  0.43347884073E+03  0.00000000000E+00 0. -1.
        -14    1    5    5    0    0  0.23801111001E+02 -0.29669190132E+02  0.16971510903E+03  0.17392519070E+03  0.00000000000E+00 0.  1.
          5    1    4    4  501    0 -0.26138624719E+02  0.38775131579E+02 -0.23710856878E+02  0.52596726753E+02  0.41800000000E+01 0. -1.
         -5    1    4    4    0  501  0.32888819061E+02 -0.20190131371E+01  0.85738294083E+02  0.91947149524E+02  0.41800000000E+01 0. -1.
</event>
<event>
11    1  0.8299058E-009  0.1575666E+03  0.7561462E-02  0.1089389E+00
         22   -1    0    0    0    0  0.00000000000E+00  0.00000000000E+00  0.14704622742E+04  0.14704622742E+04  0.00000000000E+00 0.  1.
         22   -1    0    0    0    0 -0.00000000000E+00 -0.00000000000E+00 -0.13865813151E+04  0.13865813151E+04  0.00000000000E+00 0.  1.
        -24    2    1    2    0    0  0.34391760985E+02  0.24850652456E+02 -0.13561144740E+04  0.13591366428E+04  0.80034986552E+02 0.  0.
         25    2    1    2    0    0 -0.13822688347E+02  0.72241297303E+02  0.17874482143E+03  0.23023241584E+03  0.12508949743E+03 0.  0.
         24    2    1    2    0    0 -0.20569072638E+02 -0.97091949759E+02  0.12612506117E+04  0.12676745306E+04  0.79972973624E+02 0.  0.
        -13    1    5    5    0    0 -0.18887917649E+02 -0.41721119260E+02  0.97719826434E+03  0.97827084852E+03  0.00000000000E+00 0.  1.
         14    1    5    5    0    0 -0.16811549893E+01 -0.55370830499E+02  0.28405234740E+03  0.28940368211E+03  0.00000000000E+00 0. -1.
         11    1    3    3    0    0 -0.10119121228E+02 -0.19392328807E+01 -0.25423406524E+02  0.27431858083E+02  0.00000000000E+00 0. -1.
        -12    1    3    3    0    0  0.44510882214E+02  0.26789885336E+02 -0.13306910675E+04  0.13317047847E+04  0.00000000000E+00 0.  1.
          5    1    4    4  501    0 -0.58650291329E+02  0.16662555501E+02  0.13007910522E+03  0.14372036544E+03  0.41800000000E+01 0. -1.
         -5    1    4    4    0  501  0.44827602982E+02  0.55578741802E+02  0.48665716211E+02  0.86512050396E+02  0.41800000000E+01 0. -1.
</event>
<event>
11    1  0.8299058E-009  0.1922577E+03  0.7561462E-02  0.1060138E+00
         22   -1    0    0    0    0  0.00000000000E+00  0.00000000000E+00  0.12373367861E+03  0.12373367861E+03  0.00000000000E+00 0.  1.
         22   -1    0    0    0    0 -0.00000000000E+00 -0.00000000000E+00 -0.11532918488E+04  0.11532918488E+04  0.00000000000E+00 0.  1.
         24    2    1    2    0    0  0.13142359994E+03  0.41158044767E+02 -0.79035090886E+03  0.80617142653E+03  0.79320001015E+02 0.  0.
         25    2    1    2    0    0 -0.19069927320E+03 -0.19992809031E+02 -0.27977506360E+03  0.36150867234E+03  0.12509399966E+03 0.  0.
        -24    2    1    2    0    0  0.59275673259E+02 -0.21165235736E+02  0.40567802222E+02  0.10934542859E+03  0.79681262113E+02 0.  0.
        -11    1    3    3    0    0  0.12953443565E+03  0.28800526137E+02 -0.77544647717E+03  0.78671842439E+03  0.00000000000E+00 0.  1.
         12    1    3    3    0    0  0.18891642867E+01  0.12357518630E+02 -0.14904431687E+02  0.19453002142E+02  0.00000000000E+00 0. -1.
         11    1    5    5    0    0  0.15119412641E+01 -0.89231335480E+01 -0.21712857206E+02  0.23523529641E+02  0.00000000000E+00 0. -1.
        -12    1    5    5    0    0  0.57763731995E+02 -0.12242102188E+02  0.62280659429E+02  0.85821898947E+02  0.00000000000E+00 0.  1.
          5    1    4    4  501    0 -0.79901967458E+02 -0.70095872372E+02 -0.11461943593E+03  0.15637404906E+03  0.41800000000E+01 0. -1.
         -5    1    4    4    0  501 -0.11079730574E+03  0.50103063341E+02 -0.16515562767E+03  0.20513462327E+03  0.41800000000E+01 0. -1.
</event>
<event>
11    1  0.8299058E-009  0.1497490E+03  0.7561462E-02  0.1097136E+00
         22   -1    0    0    0    0  0.00000000000E+00  0.00000000000E+00  0.46713353755E+03  0.46713353755E+03  0.00000000000E+00 0.  1.
         22   -1    0    0    0    0 -0.00000000000E+00 -0.00000000000E+00 -0.75439322994E+03  0.75439322994E+03  0.00000000000E+00 0. -1.
         24    2    1    2    0    0 -0.22936293708E+02 -0.10092401539E+02 -0.68025306221E+03  0.68422866675E+03  0.69258281984E+02 0.  0.
         25    2    1    2    0    0 -0.55811517907E+02  0.40316585176E+02  0.16329508588E+02  0.14373588900E+03  0.12511195132E+03 0.  0.
        -24    2    1    2    0    0  0.78747811615E+02 -0.30224183637E+02  0.37666386123E+03  0.39356221173E+03  0.76816866863E+02 0.  0.
        -13    1    3    3    0    0  0.16722772655E+02  0.14451702265E+02 -0.11855721309E+03  0.12059981592E+03  0.00000000000E+00 0.  1.
         14    1    3    3    0    0 -0.39659066363E+02 -0.24544103804E+02 -0.56169584912E+03  0.56362885084E+03  0.00000000000E+00 0. -1.
         11    1    5    5    0    0  0.16026726846E+01  0.12250383899E+02  0.14818087364E+03  0.14869502944E+03  0.00000000000E+00 0. -1.
        -12    1    5    5    0    0  0.77145138931E+02 -0.42474567536E+02  0.22848298759E+03  0.24486718230E+03  0.00000000000E+00 0.  1.
          5    1    4    4  501    0 -0.73080350763E+02 -0.22386011247E+02 -0.14710253510E-01  0.76546350557E+02  0.41800000000E+01 0.  1.
         -5    1    4    4    0  501  0.17268832856E+02  0.62702596423E+02  0.16344218841E+02  0.67189538441E+02  0.41800000000E+01 0.  1.
</event>
<event>
11    1  0.8299058E-009  0.1318694E+03  0.7561462E-02  0.1116993E+00
         22   -1    0    0    0    0  0.00000000000E+00  0.00000000000E+00  0.23590986954E+03  0.23590986954E+03  0.00000000000E+00 0.  1.
         22   -1    0    0    0    0 -0.00000000000E+00 -0.00000000000E+00 -0.46367885200E+03  0.46367885200E+03  0.00000000000E+00 0. -1.
         24    2    1    2    0    0 -0.15075141525E+02 -0.38430553284E+02 -0.38759159129E+03  0.39800811929E+03  0.80492571475E+02 0.  0.
         25    2    1    2    0    0  0.32818497321E+02  0.38759432284E+02  0.16118303494E+02  0.13596809593E+03  0.12509266983E+03 0.  0.
        -24    2    1    2    0    0 -0.17743355796E+02 -0.32887900049E+00  0.14370430533E+03  0.16561250632E+03  0.80384327101E+02 0.  0.
        -13    1    3    3    0    0 -0.21294437421E+02  0.20976983471E+02 -0.10495169952E+03  0.10912536888E+03  0.00000000000E+00 0.  1.
         14    1    3    3    0    0  0.62192958956E+01 -0.59407536755E+02 -0.28263989177E+03  0.28888275041E+03  0.00000000000E+00 0. -1.
         11    1    5    5    0    0 -0.46364939024E+02  0.13798989644E+02  0.10375467269E+03  0.11447773491E+03  0.00000000000E+00 0. -1.
        -12    1    5    5    0    0  0.28621583229E+02 -0.14127868645E+02  0.39949632648E+02  0.51134771415E+02  0.00000000000E+00 0.  1.
          5    1    4    4  501    0  0.32693970436E+02  0.58408371013E+02  0.58545515576E+02  0.89025183523E+02  0.41800000000E+01 0. -1.
         -5    1    4    4    0  501  0.12452688431E+00 -0.19648938729E+02 -0.42427212081E+02  0.46942912405E+02  0.41800000000E+01 0. -1.
</event>
<event>
11    1  0.8299058E-009  0.1771064E+03  0.7561462E-02  0.1072008E+00
         22   -1    0    0    0    0  0.00000000000E+00  0.00000000000E+00  0.43564236964E+03  0.43564236964E+03  0.00000000000E+00 0. -1.
         22   -1    0    0    0    0 -0.00000000000E+00 -0.00000000000E+00 -0.61422831726E+03  0.61422831726E+03  0.00000000000E+00 0.  1.
        -24    2    1    2    0    0 -0.43570196117E+02 -0.10061751167E+03 -0.36117719696E+03  0.39076707978E+03  0.10113207895E+03 0.  0.
         25    2    1    2    0    0  0.87334283768E+02  0.16005533419E+03 -0.17712904821E+03  0.28331535297E+03  0.12509157598E+03 0.  0.
         24    2    1    2    0    0 -0.43764087651E+02 -0.59437822518E+02  0.35972029755E+03  0.37578825415E+03  0.79812087903E+02 0.  0.
        -11    1    5    5    0    0 -0.34474947213E+02 -0.67858972478E+02  0.17742323634E+03  0.19306052658E+03  0.00000000000E+00 0.  1.
         12    1    5    5    0    0 -0.92891404386E+01  0.84211499595E+01  0.18229706121E+03  0.18272772757E+03  0.00000000000E+00 0. -1.
         11    1    3    3    0    0 -0.30553665448E+01  0.20873210287E+02 -0.50776992016E+02  0.54984807816E+02  0.00000000000E+00 0. -1.
        -12    1    3    3    0    0 -0.40514829572E+02 -0.12149072196E+03 -0.31040020494E+03  0.33578227196E+03  0.00000000000E+00 0.  1.
          5    1    4    4  501    0  0.86159337471E+02  0.45685216393E+02 -0.42092728675E+02  0.10630070855E+03  0.41800000000E+01 0.  1.
         -5    1    4    4    0  501  0.11749462974E+01  0.11437011780E+03 -0.13503631954E+03  0.17701464442E+03  0.41800000000E+01 0.  1.
</event>
<event>
11    1  0.8299058E-009  0.1274714E+03  0.7561462E-02  0.1122415E+00
         22   -1    0    0    0    0  0.00000000000E+00  0.00000000000E+00  0.62639734301E+03  0.62639734301E+03  0.00000000000E+00 0. -1.
         22   -1    0    0    0    0 -0.00000000000E+00 -0.00000000000E+00 -0.26836088461E+03  0.26836088461E+03  0.00000000000E+00 0.  1.
        -24    2    1    2    0    0  0.17700865937E+02 -0.50457826703E+01 -0.15082988168E+03  0.17158164225E+03  0.79698344848E+02 0.  0.
         25    2    1    2    0    0 -0.25252458514E+02 -0.18263991228E+02 -0.64268836261E+02  0.14404573519E+03  0.12508968972E+03 0.  0.
         24    2    1    2    0    0  0.75515925776E+01  0.23309773898E+02  0.57313517634E+03  0.57913085018E+03  0.79424424195E+02 0.  0.
        -13    1    5    5    0    0 -0.81497892904E+01  0.19115843796E+02  0.34672500755E+02  0.40422974384E+02  0.00000000000E+00 0.  1.
         14    1    5    5    0    0  0.15701381868E+02  0.41939301027E+01  0.53846267559E+03  0.53870787580E+03  0.00000000000E+00 0. -1.
         13    1    3    3    0    0  0.14587592899E+02 -0.32157824907E+02 -0.13602611993E+03  0.14053479595E+03  0.00000000000E+00 0. -1.
        -14    1    3    3    0    0  0.31132730379E+01  0.27112042237E+02 -0.14803761753E+02  0.31046846302E+02  0.00000000000E+00 0.  1.
          5    1    4    4  501    0 -0.60122118750E+02 -0.34707055692E+02 -0.76497072808E+02  0.10338531533E+03  0.41800000000E+01 0. -1.
         -5    1    4    4    0  501  0.34869660236E+02  0.16443064463E+02  0.12228236546E+02  0.40660419857E+02  0.41800000000E+01 0. -1.
</event>
<event>
11    1  0.8299058E-009  0.1600387E+03  0.7561462E-02  0.1087041E+00
         22   -1    0    0    0    0  0.00000000000E+00  0.00000000000E+00  0.11024476677E+04  0.11024476677E+04  0.00000000000E+00 0.  1.
         22   -1    0    0    0    0 -0.00000000000E+00 -0.00000000000E+00 -0.33228729854E+03  0.33228729854E+03  0.00000000000E+00 0.  1.
         24    2    1    2    0    0 -0.49691952063E+02 -0.15613582500E+02 -0.25870734317E+03  0.27521567258E+03  0.78109557452E+02 0.  0.
         25    2    1    2    0    0  0.25469431095E+02 -0.83022223761E+02  0.33984013243E+02  0.15602213359E+03  0.12508641595E+03 0.  0.
        -24    2    1    2    0    0  0.24222520967E+02  0.98635806261E+02  0.99488369912E+03  0.10034971601E+04  0.83049519975E+02 0.  0.
        -13    1    3    3    0    0 -0.42738981336E+02 -0.41658189300E+02 -0.22064529204E+03  0.22857464899E+03  0.00000000000E+00 0.  1.
         14    1    3    3    0    0 -0.69529707264E+01  0.26044606800E+02 -0.38062051126E+02  0.46641023587E+02  0.00000000000E+00 0. -1.
         13    1    5    5    0    0  0.28835462978E+02  0.76657234157E+00  0.13486257163E+03  0.13791296091E+03  0.00000000000E+00 0. -1.
        -14    1    5    5    0    0 -0.46129420106E+01  0.97869233919E+02  0.86002112749E+03  0.86558419920E+03  0.00000000000E+00 0.  1.
          5    1    4    4  501    0 -0.40021833122E+02 -0.32961755191E+02  0.49765615311E+02  0.71988285845E+02  0.41800000000E+01 0. -1.
         -5    1    4    4    0  501  0.65491264217E+02 -0.50060468570E+02 -0.15781602067E+02  0.84033847740E+02  0.41800000000E+01 0. -1.
</event>
<event>
11    1  0.8299058E-009  0.1602098E+03  0.7561462E-02  0.1086880E+00
         22   -1    0    0    0    0  0.00000000000E+00  0.00000000000E+00  0.42570315943E+03  0.42570315943E+03  0.00000000000E+00 0.  1.
         22   -1    0    0    0    0 -0.00000000000E+00 -0.00000000000E+00 -0.11976179371E+04  0.11976179371E+04  0.00000000000E+00 0.  1.
        -24    2    1    2    0    0  0.20228837743E+01 -0.24506479054E+02 -0.94020355503E+03  0.94402968389E+03  0.81269056759E+02 0.  0.
         25    2    1    2    0    0 -0.58928032914E+02  0.10580887471E+03 -0.21429020663E+03  0.27610921768E+03  0.12509187184E+03 0.  0.
         24    2    1    2    0    0  0.56905149140E+02 -0.81302395657E+02  0.38257898403E+03  0.40318219493E+03  0.79629942512E+02 0.  0.
        -13    1    5    5    0    0  0.64606800051E+02 -0.75928153234E+02  0.38078688781E+03  0.39362136247E+03  0.00000000000E+00 0.  1.
         14    1    5    5    0    0 -0.77016509107E+01 -0.53742424222E+01  0.17920962231E+01  0.95608324552E+01  0.00000000000E+00 0. -1.
         11    1    3    3    0    0  0.25614404617E+02  0.15788456793E+02 -0.18936403367E+03  0.19173969422E+03  0.00000000000E+00 0. -1.
        -12    1    3    3    0    0 -0.23591520843E+02 -0.40294935848E+02 -0.75083952137E+03  0.75228998967E+03  0.00000000000E+00 0.  1.
          5    1    4    4  501    0 -0.45782623789E+02  0.98275065844E+02 -0.66012072722E+02  0.12700040690E+03  0.41800000000E+01 0. -1.
         -5    1    4    4    0  501 -0.13145409125E+02  0.75338088663E+01 -0.14827813390E+03  0.14910881078E+03  0.41800000000E+01 0. -1.
</event>
<event>
11    1  0.8299058E-009  0.1754597E+03  0.7561462E-02  0.1073376E+00
         22   -1    0    0    0    0  0.00000000000E+00  0.00000000000E+00  0.49102137545E+03  0.49102137545E+03  0.00000000000E+00 0.  1.
         22   -1    0    0    0    0 -0.00000000000E+00 -0.00000000000E+00 -0.14020948018E+04  0.14020948018E+04  0.00000000000E+00 0. -1.
         24    2    1    2    0    0 -0.11551741947E+03  0.34532763876E+02 -0.12305363525E+04  0.12391085880E+04  0.81446866099E+02 0.  0.
         25    2    1    2    0    0  0.14428660144E+03 -0.78406459533E+02 -0.96038449613E+02  0.22767739302E+03  0.12508962880E+03 0.  0.
        -24    2    1    2    0    0 -0.28769181972E+02  0.43873695657E+02  0.41550137575E+03  0.42633019627E+03  0.79771398361E+02 0.  0.
        -13    1    3    3    0    0 -0.34266226153E+02  0.38273743379E+02 -0.25112411467E+03  0.25632474452E+03  0.00000000000E+00 0.  1.
         14    1    3    3    0    0 -0.81251193319E+02 -0.37409795028E+01 -0.97941223783E+03  0.98278384346E+03  0.00000000000E+00 0. -1.
         13    1    5    5    0    0 -0.36855380293E+01 -0.14158154469E+02  0.15311323678E+02  0.21177184924E+02  0.00000000000E+00 0. -1.
        -14    1    5    5    0    0 -0.25083643943E+02  0.58031850126E+02  0.40019005207E+03  0.40515301134E+03  0.00000000000E+00 0.  1.
          5    1    4    4  501    0  0.33814181667E+02  0.23282159160E+02  0.11622282608E+02  0.42871991673E+02  0.41800000000E+01 0. -1.
         -5    1    4    4    0  501  0.11047241978E+03 -0.10168861869E+03 -0.10766073222E+03  0.18480540134E+03  0.41800000000E+01 0. -1.
</event>
<event>
11    1  0.8299058E-009  0.1404989E+03  0.7561462E-02  0.1107003E+00
         22   -1    0    0    0    0  0.00000000000E+00  0.00000000000E+00  0.72653526631E+03  0.72653526631E+03  0.00000000000E+00 0. -1.
         22   -1    0    0    0    0 -0.00000000000E+00 -0.00000000000E+00 -0.69730109124E+03  0.69730109124E+03  0.00000000000E+00 0.  1.
        -24    2    1    2    0    0 -0.20631424574E+02  0.37676126490E+02 -0.56530796375E+03  0.57258181795E+03  0.80197868968E+02 0.  0.
         25    2    1    2    0    0  0.83016393578E+02 -0.47635205375E+02 -0.74773046531E+02  0.17435862538E+03  0.12509631234E+03 0.  0.
         24    2    1    2    0    0 -0.62384969004E+02  0.99590788849E+01  0.66931518535E+03  0.67689591422E+03  0.78830157535E+02 0.  0.
        -13    1    5    5    0    0 -0.27422212987E+02 -0.70327069104E+01  0.60014403300E+02  0.66356351128E+02  0.00000000000E+00 0.  1.
         14    1    5    5    0    0 -0.34962756016E+02  0.16991785795E+02  0.60930078205E+03  0.61053956309E+03  0.00000000000E+00 0. -1.
         11    1    3    3    0    0 -0.35783602404E+02 -0.12354984395E+02 -0.19982557698E+03  0.20337987377E+03  0.00000000000E+00 0. -1.
        -12    1    3    3    0    0  0.15152177829E+02  0.50031110886E+02 -0.36548238677E+03  0.36920194419E+03  0.00000000000E+00 0.  1.
          5    1    4    4  501    0  0.30965288799E+02 -0.60761019284E+02  0.14743219653E+02  0.69896963458E+02  0.41800000000E+01 0. -1.
         -5    1    4    4    0  501  0.52051104778E+02  0.13125813909E+02 -0.89516266184E+02  0.10446166192E+03  0.41800000000E+01 0. -1.
</event>
<event>
11    1  0.8299058E-009  0.1340031E+03  0.7561462E-02  0.1114446E+00
         22   -1    0    0    0    0  0.00000000000E+00  0.00000000000E+00  0.75404415804E+03  0.75404415804E+03  0.00000000000E+00 0. -1.
         22   -1    0    0    0    0 -0.00000000000E+00 -0.00000000000E+00 -0.18522334994E+03  0.18522334994E+03  0.00000000000E+00 0.  1.
         24    2    1    2    0    0 -0.86793065993E+01  0.50080041450E+02 -0.14201432168E+03  0.17363259928E+03  0.86005064125E+02 0.  0.
         25    2    1    2    0    0  0.18469996908E+02 -0.15390571665E+02  0.14499759666E+03  0.19299995981E+03  0.12508665384E+03 0.  0.
        -24    2    1    2    0    0 -0.97906903088E+01 -0.34689469785E+02  0.56583753313E+03  0.57263494888E+03  0.80246207755E+02 0.  0.
        -13    1    3    3    0    0  0.37790354192E+02  0.14065023813E+02 -0.68664687721E+02  0.79628984074E+02  0.00000000000E+00 0.  1.
         14    1    3    3    0    0 -0.46469660792E+02  0.36015017637E+02 -0.73349633962E+02  0.94003615207E+02  0.00000000000E+00 0. -1.
         13    1    5    5    0    0 -0.85767489052E+01 -0.34400902859E+02  0.56854732149E+03  0.56965168262E+03  0.00000000000E+00 0. -1.
        -14    1    5    5    0    0 -0.12139414036E+01 -0.28856692592E+00 -0.27097883657E+01  0.29832662619E+01  0.00000000000E+00 0.  1.
          5    1    4    4  501    0  0.14503871876E+02 -0.16392543178E+02  0.16789505603E+03  0.16936735225E+03  0.41800000000E+01 0.  1.
         -5    1    4    4    0  501  0.39661250326E+01  0.10019715128E+01 -0.22897459365E+02  0.23632607560E+02  0.41800000000E+01 0.  1.
</event>
<event>
11    1  0.8299058E-009  0.1286183E+03  0.7561462E-02  0.1120978E+00
         22   -1    0    0    0    0  0.00000000000E+00  0.00000000000E+00  0.82858391667E+02  0.82858391667E+02  0.00000000000E+00 0. -1.
         22   -1    0    0    0    0 -0.00000000000E+00 -0.00000000000E+00 -0.22966859303E+04  0.22966859303E+04  0.00000000000E+00 0.  1.
         24    2    1    2    0    0 -0.31095986284E+02  0.30470867877E+01 -0.17651281631E+04  0.17671794077E+04  0.79179427674E+02 0.  0.
         25    2    1    2    0    0  0.19966225915E+02  0.29306034607E+01 -0.50053309086E+03  0.51632227924E+03  0.12509229543E+03 0.  0.
        -24    2    1    2    0    0  0.11129760369E+02 -0.59776902484E+01  0.51833715251E+02  0.96042635096E+02  0.79861438585E+02 0.  0.
        -11    1    3    3    0    0 -0.51270663709E+02  0.13848286346E+02 -0.15344869873E+04  0.15354057347E+04  0.00000000000E+00 0.  1.
         12    1    3    3    0    0  0.20174677425E+02 -0.10801199558E+02 -0.23064117579E+03  0.23177367299E+03  0.00000000000E+00 0. -1.
         11    1    5    5    0    0  0.32829374589E+02  0.25571879312E+02  0.34300109814E+02  0.53927603143E+02  0.00000000000E+00 0. -1.
        -12    1    5    5    0    0 -0.21699614220E+02 -0.31549569561E+02  0.17533605437E+02  0.42115031953E+02  0.00000000000E+00 0.  1.
          5    1    4    4  501    0  0.78351699959E+01 -0.57315755751E+02 -0.15831734743E+03  0.16860705988E+03  0.41800000000E+01 0.  1.
         -5    1    4    4    0  501  0.12131055919E+02  0.60246359212E+02 -0.34221574343E+03  0.34771521935E+03  0.41800000000E+01 0.  1.
</event>
<event>
11    1  0.8299058E-009  0.1889946E+03  0.7561462E-02  0.1062591E+00
         22   -1    0    0    0    0  0.00000000000E+00  0.00000000000E+00  0.95139307808E+02  0.95139307808E+02  0.00000000000E+00 0. -1.
         22   -1    0    0    0    0 -0.00000000000E+00 -0.00000000000E+00 -0.30404155130E+04  0.30404155130E+04  0.00000000000E+00 0.  1.
        -24    2    1    2    0    0 -0.13732370899E+02 -0.67620535059E+02 -0.21623085796E+04  0.21649266925E+04  0.81043666121E+02 0.  0.
         25    2    1    2    0    0 -0.12919433089E+03  0.58840655135E+02 -0.78424055618E+03  0.80674262617E+03  0.12508803735E+03 0.  0.
         24    2    1    2    0    0  0.14292670179E+03  0.87798799233E+01  0.12729305791E+01  0.16388550212E+03  0.79697610245E+02 0.  0.
        -13    1    5    5    0    0  0.12134613160E+02 -0.22128761607E+02  0.14050084750E+02  0.28884871616E+02  0.00000000000E+00 0.  1.
         14    1    5    5    0    0  0.13079208863E+03  0.30908641530E+02 -0.12777154171E+02  0.13500063051E+03  0.00000000000E+00 0. -1.
         11    1    3    3    0    0 -0.46496000067E+02 -0.52329550300E+02 -0.13495610994E+04  0.13513753812E+04  0.00000000000E+00 0. -1.
        -12    1    3    3    0    0  0.32763629168E+02 -0.15290984759E+02 -0.81274748021E+03  0.81355131135E+03  0.00000000000E+00 0.  1.
          5    1    4    4  501    0 -0.12955713853E+03  0.29605575177E+02 -0.74923758819E+03  0.76094413605E+03  0.41800000000E+01 0. -1.
         -5    1    4    4    0  501  0.36280763788E+00  0.29235079958E+02 -0.35002967993E+02  0.45798490127E+02  0.41800000000E+01 0. -1.
</event>
<event>
11    1  0.8299058E-009  0.1256017E+03  0.7561462E-02  0.1124794E+00
         22   -1    0    0    0    0  0.00000000000E+00  0.00000000000E+00  0.54163187206E+03  0.54163187206E+03  0.00000000000E+00 0.  1.
         22   -1    0    0    0    0 -0.00000000000E+00 -0.00000000000E+00 -0.71291764135E+03  0.71291764135E+03  0.00000000000E+00 0. -1.
         24    2    1    2    0    0  0.56683241286E+01  0.96458491968E+01 -0.68742934827E+03  0.69225633576E+03  0.80836583483E+02 0.  0.
         25    2    1    2    0    0 -0.28856394582E+02 -0.17668918797E+02  0.21673893734E+03  0.25252118381E+03  0.12508516744E+03 0.  0.
        -24    2    1    2    0    0  0.23188070453E+02  0.80230696001E+01  0.29940464163E+03  0.30977199384E+03  0.75587647666E+02 0.  0.
        -11    1    3    3    0    0 -0.13679970650E+01 -0.32518687701E+02 -0.17164511875E+03  0.17470370133E+03  0.00000000000E+00 0.  1.
         12    1    3    3    0    0  0.70363211936E+01  0.42164536898E+02 -0.51578422951E+03  0.51755263443E+03  0.00000000000E+00 0. -1.
         11    1    5    5    0    0  0.92472691058E+00 -0.20242763843E+02  0.21487353636E+02  0.29535249688E+02  0.00000000000E+00 0. -1.
        -12    1    5    5    0    0  0.22263343543E+02  0.28265833443E+02  0.27791728800E+03  0.28023674415E+03  0.00000000000E+00 0.  1.
          5    1    4    4  501    0  0.32400869453E+02  0.17989625135E+02  0.15175165313E+03  0.15626733370E+03  0.41800000000E+01 0.  1.
         -5    1    4    4    0  501 -0.61257264035E+02 -0.35658543932E+02  0.64987284214E+02  0.96253850115E+02  0.41800000000E+01 0.  1.
</event>
<event>
11    1  0.8299058E-009  0.2213905E+03  0.7561462E-02  0.1040350E+00
         22   -1    0    0    0    0  0.00000000000E+00  0.00000000000E+00  0.51052446707E+03  0.51052446707E+03  0.00000000000E+00 0. -1.
         22   -1    0    0    0    0 -0.00000000000E+00 -0.00000000000E+00 -0.55156814548E+03  0.55156814548E+03  0.00000000000E+00 0.  1.
         24    2    1    2    0    0 -0.22285327227E+02 -0.41415746817E+02 -0.44742628639E+03  0.45698389878E+03  0.80200387184E+02 0.  0.
         25    2    1    2    0    0  0.13943272522E+03 -0.10560946047E+03  0.10176007967E+03  0.23789798258E+03  0.12508194633E+03 0.  0.
        -24    2    1    2    0    0 -0.11714739799E+03  0.14702520728E+03  0.30462252831E+03  0.36721073119E+03  0.81907947809E+02 0.  0.
        -13    1    3    3    0    0 -0.13474949272E+02 -0.34661553389E+02 -0.44372652019E+03  0.44528218274E+03  0.00000000000E+00 0.  1.
         14    1    3    3    0    0 -0.88103779542E+01 -0.67541934272E+01 -0.36997661940E+01  0.11701716047E+02  0.00000000000E+00 0. -1.
         13    1    5    5    0    0 -0.90787665157E+02  0.10954090140E+03  0.28254793271E+03  0.31634623990E+03  0.00000000000E+00 0. -1.
        -14    1    5    5    0    0 -0.26359732834E+02  0.37484305883E+02  0.22074595599E+02  0.50864491284E+02  0.00000000000E+00 0.  1.
          5    1    4    4  501    0  0.14349452965E+03 -0.98926503802E+02  0.44465986681E+02  0.17992173178E+03  0.41800000000E+01 0.  1.
         -5    1    4    4    0  501 -0.40618044354E+01 -0.66829566663E+01  0.57294092993E+02  0.57976250802E+02  0.41800000000E+01 0.  1.
</event>
<event>
11    1  0.8299058E-009  0.1274634E+03  0.7561462E-02  0.1122426E+00
         22   -1    0    0    0    0  0.00000000000E+00  0.00000000000E+00  0.54979882099E+03  0.54979882099E+03  0.00000000000E+00 0. -1.
         22   -1    0    0    0    0 -0.00000000000E+00 -0.00000000000E+00 -0.31211231470E+03  0.31211231470E+03  0.00000000000E+00 0. -1.
         24    2    1    2    0    0 -0.17073414930E+02 -0.55716956169E+00 -0.27651519254E+03  0.28848843346E+03  0.80455656110E+02 0.  0.
         25    2    1    2    0    0  0.22586404765E+02  0.23553803482E+02  0.14302741426E+03  0.19278962809E+03  0.12508426012E+03 0.  0.
        -24    2    1    2    0    0 -0.55129898347E+01 -0.22996633920E+02  0.37117428456E+03  0.38063307414E+03  0.80944112708E+02 0.  0.
        -13    1    3    3    0    0 -0.28406273419E+02  0.33775265168E+02 -0.12017792361E+03  0.12802506876E+03  0.00000000000E+00 0.  1.
         14    1    3    3    0    0  0.11332858489E+02 -0.34332434730E+02 -0.15633726893E+03  0.16046336470E+03  0.00000000000E+00 0. -1.
         11    1    5    5    0    0  0.36181696196E+02 -0.13295213741E+02  0.22655855360E+03  0.22981439480E+03  0.00000000000E+00 0. -1.
        -12    1    5    5    0    0 -0.41694686031E+02 -0.97014201793E+01  0.14461573096E+03  0.15081867934E+03  0.00000000000E+00 0.  1.
          5    1    4    4  501    0  0.70801050775E+02  0.20513070110E+02  0.11535250178E+03  0.13695709877E+03  0.41800000000E+01 0. -1.
         -5    1    4    4    0  501 -0.48214646010E+02  0.30407333722E+01  0.27674912483E+02  0.55832529320E+02  0.41800000000E+01 0. -1.
</event>
<event>
11    1  0.8299058E-009  0.1351895E+03  0.7561462E-02  0.1113052E+00
         22   -1    0    0    0    0  0.00000000000E+00  0.00000000000E+00  0.20089483591E+04  0.20089483591E+04  0.00000000000E+00 0. -1.
         22   -1    0    0    0    0 -0.00000000000E+00 -0.00000000000E+00 -0.27626597785E+03  0.27626597785E+03  0.00000000000E+00 0. -1.
        -24    2    1    2    0    0  0.51806165241E+01  0.91695560021E+01 -0.26138238928E+03  0.27390531356E+03  0.81193890326E+02 0.  0.
         25    2    1    2    0    0  0.24105946505E+02  0.35425764296E+02  0.62484858940E+03  0.63868523842E+03  0.12508793974E+03 0.  0.
         24    2    1    2    0    0 -0.29286563029E+02 -0.44595320298E+02  0.13692161811E+04  0.13726237850E+04  0.80601855125E+02 0.  0.
        -13    1    5    5    0    0 -0.30919748986E+02 -0.63213964685E+02  0.79645939365E+03  0.79956213139E+03  0.00000000000E+00 0.  1.
         14    1    5    5    0    0  0.16331859574E+01  0.18618644387E+02  0.57275678749E+03  0.57306165360E+03  0.00000000000E+00 0. -1.
         11    1    3    3    0    0 -0.22004845388E+02 -0.28100948062E+02 -0.11882621337E+03  0.12407072775E+03  0.00000000000E+00 0. -1.
        -12    1    3    3    0    0  0.27185461912E+02  0.37270504064E+02 -0.14255617591E+03  0.14983458581E+03  0.00000000000E+00 0.  1.
          5    1    4    4  501    0  0.66032549715E+02 -0.11468199051E+02  0.26626952924E+03  0.27460654001E+03  0.41800000000E+01 0. -1.
         -5    1    4    4    0  501 -0.41926603211E+02  0.46893963346E+02  0.35857906015E+03  0.36407869841E+03  0.41800000000E+01 0. -1.
</event>
<event>
11    1  0.8299058E-009  0.4188178E+03  0.7561462E-02  0.9595811E-01
         22   -1    0    0    0    0  0.00000000000E+00  0.00000000000E+00  0.77221530838E+02  0.77221530838E+02  0.00000000000E+00 0. -1.
         22   -1    0    0    0    0 -0.00000000000E+00 -0.00000000000E+00 -0.56787376019E+03  0.56787376019E+03  0.00000000000E+00 0.  1.
         24    2    1    2    0    0  0.58793936671E+02 -0.15889552729E+02 -0.18798841452E+03  0.21382077082E+03  0.81672964712E+02 0.  0.
         25    2    1    2    0    0 -0.13718697911E+03  0.42920666437E+02 -0.20343491070E+03  0.27873756032E+03  0.12508562587E+03 0.  0.
        -24    2    1    2    0    0  0.78393042441E+02 -0.27031113709E+02 -0.99228904128E+02  0.15253695988E+03  0.80901165035E+02 0.  0.
        -13    1    3    3    0    0  0.43922764071E+02 -0.90129356079E+01 -0.19182318990E+03  0.19699385370E+03  0.00000000000E+00 0.  1.
         14    1    3    3    0    0  0.14871172599E+02 -0.68766171206E+01  0.38347753812E+01  0.16826917119E+02  0.00000000000E+00 0. -1.
         11    1    5    5    0    0  0.81790917205E+02  0.40571281078E+01 -0.85473869812E+02  0.11837228073E+03  0.00000000000E+00 0. -1.
        -12    1    5    5    0    0 -0.33978747640E+01 -0.31088241817E+02 -0.13755034315E+02  0.34164679146E+02  0.00000000000E+00 0.  1.
          5    1    4    4  501    0  0.30421048279E+01 -0.30903421259E+02 -0.25263250083E+02  0.40248975789E+02  0.41800000000E+01 0. -1.
         -5    1    4    4    0  501 -0.14022908394E+03  0.73824087696E+02 -0.17817166062E+03  0.23848858454E+03  0.41800000000E+01 0. -1.
</event>
<event>
11    1  0.8299058E-009  0.2066687E+03  0.7561462E-02  0.1049906E+00
         22   -1    0    0    0    0  0.00000000000E+00  0.00000000000E+00  0.67824521287E+03  0.67824521287E+03  0.00000000000E+00 0.  1.
         22   -1    0    0    0    0 -0.00000000000E+00 -0.00000000000E+00 -0.12309372243E+04  0.12309372243E+04  0.00000000000E+00 0. -1.
        -24    2    1    2    0    0 -0.14031424459E+03 -0.49427641057E+02 -0.68812892668E+03  0.70892476236E+03  0.83196875071E+02 0.  0.
         25    2    1    2    0    0  0.18291662900E+03  0.10093099853E+03 -0.50001897616E+03  0.55615736162E+03  0.12508586942E+03 0.  0.
         24    2    1    2    0    0 -0.42602384402E+02 -0.51503357472E+02  0.63545589141E+03  0.64410031318E+03  0.81200151037E+02 0.  0.
        -13    1    5    5    0    0 -0.59004575091E+02 -0.47786423172E+02  0.34960663653E+03  0.35775673638E+03  0.00000000000E+00 0.  1.
         14    1    5    5    0    0  0.16402190689E+02 -0.37169343004E+01  0.28584925488E+03  0.28634357681E+03  0.00000000000E+00 0. -1.
         13    1    3    3    0    0 -0.87830614641E+02 -0.48552269064E+02 -0.28014871437E+03  0.29758165579E+03  0.00000000000E+00 0. -1.
        -14    1    3    3    0    0 -0.52483629954E+02 -0.87537199292E+00 -0.40798021230E+03  0.41134310657E+03  0.00000000000E+00 0.  1.
          5    1    4    4  501    0 -0.16689323001E+02 -0.43095416251E+01 -0.32993637752E+02  0.37458753094E+02  0.41800000000E+01 0.  1.
         -5    1    4    4    0  501  0.19960595200E+03  0.10524054015E+03 -0.46702533841E+03  0.51869860852E+03  0.41800000000E+01 0.  1.
</event>
<event>
11    1  0.8299058E-009  0.1478238E+03  0.7561462E-02  0.1099123E+00
         22   -1    0    0    0    0  0.00000000000E+00  0.00000000000E+00  0.83948576562E+03  0.83948576562E+03  0.00000000000E+00 0. -1.
         22   -1    0    0    0    0 -0.00000000000E+00 -0.00000000000E+00 -0.93738787273E+02  0.93738787273E+02  0.00000000000E+00 0. -1.
         24    2    1    2    0    0  0.50606699140E+02  0.60106669642E+02  0.21621566332E+01  0.13281934025E+03  0.10706284365E+03 0.  0.
         25    2    1    2    0    0 -0.22849776266E+02 -0.82187176060E+02  0.20415139658E+03  0.25417081178E+03  0.12509262429E+03 0.  0.
        -24    2    1    2    0    0 -0.27756922875E+02  0.22080506418E+02  0.53943342513E+03  0.54623440086E+03  0.78266244312E+02 0.  0.
        -13    1    3    3    0    0 -0.27677492618E+02  0.24587745667E+02 -0.22580225485E+02  0.43364356533E+02  0.00000000000E+00 0.  1.
         14    1    3    3    0    0  0.78284191758E+02  0.35518923976E+02  0.24742382119E+02  0.89454983721E+02  0.00000000000E+00 0. -1.
         11    1    5    5    0    0 -0.23621717132E+02  0.44737404221E+02  0.47723197997E+03  0.47990601535E+03  0.00000000000E+00 0. -1.
        -12    1    5    5    0    0 -0.41352057423E+01 -0.22656897803E+02  0.62201445161E+02  0.66328385513E+02  0.00000000000E+00 0.  1.
          5    1    4    4  501    0  0.10284264480E+02 -0.10767388353E+03  0.13230156844E+03  0.17094036592E+03  0.41800000000E+01 0.  1.
         -5    1    4    4    0  501 -0.33134040745E+02  0.25486707471E+02  0.71849828143E+02  0.83230445860E+02  0.41800000000E+01 0.  1.
</event>
<event>
11    1  0.8299058E-009  0.1814688E+03  0.7561462E-02  0.1068461E+00
         22   -1    0    0    0    0  0.00000000000E+00  0.00000000000E+00  0.39510740597E+03  0.39510740597E+03  0.00000000000E+00 0.  1.
         22   -1    0    0    0    0 -0.00000000000E+00 -0.00000000000E+00 -0.74598333817E+03  0.74598333817E+03  0.00000000000E+00 0. -1.
        -24    2    1    2    0    0  0.94688386929E+02 -0.48478381333E+02 -0.54853668138E+03  0.56448906238E+03  0.80245664342E+02 0.  0.
         25    2    1    2    0    0  0.45305196336E+02  0.55657777992E+02 -0.14088848843E+03  0.20163685629E+03  0.12512995875E+03 0.  0.
         24    2    1    2    0    0 -0.13999358327E+03 -0.71793966591E+01  0.33854923761E+03  0.37496482548E+03  0.79581951269E+02 0.  0.
        -13    1    5    5    0    0 -0.11896598140E+03 -0.33140162384E+01  0.18527111064E+03  0.22020279715E+03  0.00000000000E+00 0.  1.
         14    1    5    5    0    0 -0.21027601869E+02 -0.38653804207E+01  0.15327812697E+03  0.15476202833E+03  0.00000000000E+00 0. -1.
         13    1    3    3    0    0  0.85190342638E+02 -0.67039713531E+02 -0.39738207324E+03  0.41190318013E+03  0.00000000000E+00 0. -1.
        -14    1    3    3    0    0  0.94980442911E+01  0.18561332199E+02 -0.15115460814E+03  0.15258588224E+03  0.00000000000E+00 0.  1.
          5    1    4    4  501    0  0.81670498088E+02  0.64687572491E+01 -0.69358897463E+02  0.10742459744E+03  0.41800000000E+01 0. -1.
         -5    1    4    4    0  501 -0.36365301752E+02  0.49189020743E+02 -0.71529590963E+02  0.94212258844E+02  0.41800000000E+01 0. -1.
</event>
<event>
11    1  0.8299058E-009  0.6413717E+03  0.7561462E-02  0.9123462E-01
         22   -1    0    0    0    0  0.00000000000E+00  0.00000000000E+00  0.14641355249E+04  0.14641355249E+04  0.00000000000E+00 0. -1.
         22   -1    0    0    0    0 -0.00000000000E+00 -0.00000000000E+00 -0.43381930245E+03  0.43381930245E+03  0.00000000000E+00 0. -1.
        -24    2    1    2    0    0 -0.19256483091E+03  0.51449533151E+03  0.45978882857E+03  0.72102295170E+03  0.81741481205E+02 0.  0.
         25    2    1    2    0    0  0.45781283674E+03 -0.55540558816E+03  0.30833208397E+03  0.79295931956E+03  0.12509135715E+03 0.  0.
         24    2    1    2    0    0 -0.26524800583E+03  0.40910256656E+02  0.26219530994E+03  0.38397255612E+03  0.81598955916E+02 0.  0.
        -11    1    5    5    0    0 -0.16162004737E+03  0.44079085029E+01  0.10721535031E+03  0.19399897090E+03  0.00000000000E+00 0.  1.
         12    1    5    5    0    0 -0.10362795846E+03  0.36502348153E+02  0.15497995963E+03  0.18997358522E+03  0.00000000000E+00 0. -1.
         13    1    3    3    0    0 -0.17739781003E+03  0.43496289802E+03  0.35609034700E+03  0.58945995698E+03  0.00000000000E+00 0. -1.
        -14    1    3    3    0    0 -0.15167020883E+02  0.79532433488E+02  0.10369848157E+03  0.13156299472E+03  0.00000000000E+00 0.  1.
          5    1    4    4  501    0  0.27434604097E+03 -0.23486543722E+03  0.14876895426E+03  0.39061131313E+03  0.41800000000E+01 0. -1.
         -5    1    4    4    0  501  0.18346679577E+03 -0.32054015094E+03  0.15956312971E+03  0.40234800643E+03  0.41800000000E+01 0. -1.
</event>
<event>
11    1  0.8299058E-009  0.1814863E+03  0.7561462E-02  0.1068447E+00
         22   -1    0    0    0    0  0.00000000000E+00  0.00000000000E+00  0.99376844398E+03  0.99376844398E+03  0.00000000000E+00 0.  1.
         22   -1    0    0    0    0 -0.00000000000E+00 -0.00000000000E+00 -0.29246787357E+03  0.29246787357E+03  0.00000000000E+00 0.  1.
         24    2    1    2    0    0 -0.13707336953E+03  0.92098796923E+01 -0.17957054921E+03  0.23987561912E+03  0.80129894458E+02 0.  0.
         25    2    1    2    0    0  0.11439482186E+03  0.30313782556E+02  0.12033477959E+02  0.17261870870E+03  0.12508922144E+03 0.  0.
        -24    2    1    2    0    0  0.22678547672E+02 -0.39523662248E+02  0.86883764166E+03  0.87374198973E+03  0.80434946711E+02 0.  0.
        -11    1    3    3    0    0 -0.65259584490E+02  0.38010217334E+02 -0.55759222869E+02  0.93875880420E+02  0.00000000000E+00 0.  1.
         12    1    3    3    0    0 -0.71813785043E+02 -0.28800337642E+02 -0.12381132634E+03  0.14599973870E+03  0.00000000000E+00 0. -1.
         11    1    5    5    0    0  0.30599073578E+02  0.14285667723E+01  0.12364885535E+03  0.12738674788E+03  0.00000000000E+00 0. -1.
        -12    1    5    5    0    0 -0.79205259056E+01 -0.40952229020E+02  0.74518878631E+03  0.74635524185E+03  0.00000000000E+00 0.  1.
          5    1    4    4  501    0 -0.54160620682E+01 -0.30770252976E+02  0.20830565080E+02  0.37782628788E+02  0.41800000000E+01 0.  1.
         -5    1    4    4    0  501  0.11981088393E+03  0.61084035532E+02 -0.87970871208E+01  0.13483607991E+03  0.41800000000E+01 0.  1.
</event>
<event>
11    1  0.8299058E-009  0.1432490E+03  0.7561462E-02  0.1103984E+00
         22   -1    0    0    0    0  0.00000000000E+00  0.00000000000E+00  0.15472828994E+03  0.15472828994E+03  0.00000000000E+00 0. -1.
         22   -1    0    0    0    0 -0.00000000000E+00 -0.00000000000E+00 -0.72689458700E+03  0.72689458700E+03  0.00000000000E+00 0.  1.
         24    2    1    2    0    0  0.57366483951E+02 -0.36263304948E+02 -0.29358925301E+03  0.31275761884E+03  0.83765970968E+02 0.  0.
         25    2    1    2    0    0 -0.71864436784E+02  0.18994918892E+02 -0.39745537727E+03  0.42325268072E+03  0.12508697214E+03 0.  0.
        -24    2    1    2    0    0  0.14497952833E+02  0.17268386056E+02  0.11887833321E+03  0.14561257739E+03  0.81009732707E+02 0.  0.
        -13    1    3    3    0    0  0.46423847479E+02 -0.56142225161E+02 -0.27144772989E+03  0.28105336348E+03  0.00000000000E+00 0.  1.
         14    1    3    3    0    0  0.10942636471E+02  0.19878920213E+02 -0.22141523117E+02  0.31704255356E+02  0.00000000000E+00 0. -1.
         11    1    5    5    0    0  0.38089041271E+01  0.48245725097E+02  0.88800063824E+02  0.10113164231E+03  0.00000000000E+00 0. -1.
        -12    1    5    5    0    0  0.10689048706E+02 -0.30977339041E+02  0.30078269387E+02  0.44480935080E+02  0.00000000000E+00 0.  1.
          5    1    4    4  501    0 -0.57039219149E+01 -0.20568857542E+02 -0.29067500182E+03  0.29148763561E+03  0.41800000000E+01 0.  1.
         -5    1    4    4    0  501 -0.66160514869E+02  0.39563776435E+02 -0.10678037544E+03  0.13176504511E+03  0.41800000000E+01 0.  1.
</event>
<event>
11    1  0.8299058E-009  0.1772142E+03  0.7561462E-02  0.1071919E+00
         22   -1    0    0    0    0  0.00000000000E+00  0.00000000000E+00  0.73886856262E+03  0.73886856262E+03  0.00000000000E+00 0. -1.
         22   -1    0    0    0    0 -0.00000000000E+00 -0.00000000000E+00 -0.54986360613E+03  0.54986360613E+03  0.00000000000E+00 0. -1.
         24    2    1    2    0    0  0.12488022174E+03  0.98609636058E+00 -0.18615747789E+03  0.23598064120E+03  0.73730687509E+02 0.  0.
         25    2    1    2    0    0 -0.10346118376E+03 -0.10730050435E+03 -0.30357726869E+03  0.36058932135E+03  0.12509150982E+03 0.  0.
        -24    2    1    2    0    0 -0.21419037975E+02  0.10631440799E+03  0.67873970307E+03  0.69216220619E+03  0.81482554067E+02 0.  0.
        -13    1    3    3    0    0  0.34296843890E+02 -0.20040897718E+02 -0.10603932221E+03  0.11323536964E+03  0.00000000000E+00 0.  1.
         14    1    3    3    0    0  0.90583377847E+02  0.21026994078E+02 -0.80118155683E+02  0.12274527157E+03  0.00000000000E+00 0. -1.
         13    1    5    5    0    0  0.93711445017E+00  0.76469613063E+02  0.60204501790E+03  0.60688275926E+03  0.00000000000E+00 0. -1.
        -14    1    5    5    0    0 -0.22356152425E+02  0.29844794928E+02  0.76694685173E+02  0.85279446934E+02  0.00000000000E+00 0.  1.
          5    1    4    4  501    0 -0.12439924491E+03 -0.95718763370E+02 -0.20038004542E+03  0.25457197175E+03  0.41800000000E+01 0. -1.
         -5    1    4    4    0  501  0.20938061142E+02 -0.11581740982E+02 -0.10319722326E+03  0.10601734961E+03  0.41800000000E+01 0. -1.
</event>
<event>
11    1  0.8299058E-009  0.1695486E+03  0.7561462E-02  0.1078425E+00
         22   -1    0    0    0    0  0.00000000000E+00  0.00000000000E+00  0.73900676565E+02  0.73900676565E+02  0.00000000000E+00 0. -1.
         22   -1    0    0    0    0 -0.00000000000E+00 -0.00000000000E+00 -0.15429836630E+04  0.15429836630E+04  0.00000000000E+00 0.  1.
         24    2    1    2    0    0  0.81453300378E+02  0.78453133519E+02 -0.12636522856E+04  0.12712968652E+04  0.81173187194E+02 0.  0.
         25    2    1    2    0    0 -0.11208719840E+03 -0.72638913641E+02 -0.13067720755E+03  0.22486000928E+03  0.12508213053E+03 0.  0.
        -24    2    1    2    0    0  0.30633898025E+02 -0.58142198781E+01 -0.74753493238E+02  0.12072746502E+03  0.89525388561E+02 0.  0.
        -13    1    3    3    0    0  0.95051823237E+02  0.66526882779E+02 -0.93888246257E+03  0.94602375961E+03  0.00000000000E+00 0.  1.
         14    1    3    3    0    0 -0.13598522860E+02  0.11926250741E+02 -0.32476982303E+03  0.32527310561E+03  0.00000000000E+00 0. -1.
         11    1    5    5    0    0  0.52724270319E+02 -0.10486403975E+02 -0.13472989234E+02  0.55419624574E+02  0.00000000000E+00 0. -1.
        -12    1    5    5    0    0 -0.22090372294E+02  0.46721840972E+01 -0.61280504004E+02  0.65307840443E+02  0.00000000000E+00 0.  1.
          5    1    4    4  501    0 -0.72883963705E+01 -0.57625454343E+02 -0.97977410396E+02  0.11397744978E+03  0.41800000000E+01 0. -1.
         -5    1    4    4    0  501 -0.10479880203E+03 -0.15013459298E+02 -0.32699797153E+02  0.11088255950E+03  0.41800000000E+01 0. -1.
</event>
<event>
11    1  0.8299058E-009  0.1358728E+03  0.7561462E-02  0.1112257E+00
         22   -1    0    0    0    0  0.00000000000E+00  0.00000000000E+00  0.11425011418E+04  0.11425011418E+04  0.00000000000E+00 0.  1.
         22   -1    0    0    0    0 -0.00000000000E+00 -0.00000000000E+00 -0.61266991491E+03  0.61266991491E+03  0.00000000000E+00 0.  1.
        -24    2    1    2    0    0 -0.41597978268E+02 -0.79868590229E-01 -0.50471333564E+03  0.51280918229E+03  0.80667887625E+02 0.  0.
         25    2    1    2    0    0  0.91041757992E+02  0.16966721270E+02 -0.42280893121E+02  0.16127817131E+03  0.12508598359E+03 0.  0.
         24    2    1    2    0    0 -0.49443779724E+02 -0.16886852679E+02  0.10768254556E+04  0.10810837031E+04  0.80368265197E+02 0.  0.
        -11    1    5    5    0    0 -0.52084426362E+02  0.18432476214E+02  0.81544211808E+03  0.81731168571E+03  0.00000000000E+00 0.  1.
         12    1    5    5    0    0  0.26406466385E+01 -0.35319328894E+02  0.26138333755E+03  0.26377201739E+03  0.00000000000E+00 0. -1.
         13    1    3    3    0    0 -0.20339960126E+02  0.39068368679E+02 -0.19528662934E+03  0.20019220516E+03  0.00000000000E+00 0. -1.
        -14    1    3    3    0    0 -0.21258018142E+02 -0.39148237269E+02 -0.30942670630E+03  0.31261697713E+03  0.00000000000E+00 0.  1.
          5    1    4    4  501    0  0.91076191066E+02 -0.20670394691E+02  0.12880696182E+02  0.94369076131E+02  0.41800000000E+01 0.  1.
         -5    1    4    4    0  501 -0.34433073803E-01  0.37637115960E+02 -0.55161589303E+02  0.66909095180E+02  0.41800000000E+01 0.  1.
</event>
<event>
11    1  0.8299058E-009  0.1759367E+03  0.7561462E-02  0.1072978E+00
         22   -1    0    0    0    0  0.00000000000E+00  0.00000000000E+00  0.51920148182E+03  0.51920148182E+03  0.00000000000E+00 0.  1.
         22   -1    0    0    0    0 -0.00000000000E+00 -0.00000000000E+00 -0.64539401974E+03  0.64539401974E+03  0.00000000000E+00 0.  1.
         24    2    1    2    0    0 -0.10427725575E+03  0.45924628425E+02 -0.41365274818E+03  0.43635602582E+03  0.79468028979E+02 0.  0.
         25    2    1    2    0    0  0.13567946514E+03 -0.11155115061E+03 -0.15856859824E+03  0.26766391569E+03  0.12508954774E+03 0.  0.
        -24    2    1    2    0    0 -0.31402209388E+02  0.65626522187E+02  0.44602880850E+03  0.46057556004E+03  0.88854990426E+02 0.  0.
        -13    1    3    3    0    0 -0.69316941655E+02  0.53243050941E+02 -0.36881511640E+03  0.37903067285E+03  0.00000000000E+00 0.  1.
         14    1    3    3    0    0 -0.34960314094E+02 -0.73184225161E+01 -0.44837631774E+02  0.57325352967E+02  0.00000000000E+00 0. -1.
         13    1    5    5    0    0 -0.59305366614E+02  0.62835243791E+02  0.31952778975E+03  0.33100362958E+03  0.00000000000E+00 0. -1.
        -14    1    5    5    0    0  0.27903157226E+02  0.27912783956E+01  0.12650101875E+03  0.12957193046E+03  0.00000000000E+00 0.  1.
          5    1    4    4  501    0  0.11186974172E+03 -0.19544136693E+02 -0.52490491150E+02  0.12517801905E+03  0.41800000000E+01 0. -1.
         -5    1    4    4    0  501  0.23809723420E+02 -0.92007013920E+02 -0.10607810709E+03  0.14248589665E+03  0.41800000000E+01 0. -1.
</event>
<event>
11    1  0.8299058E-009  0.1366364E+03  0.7561462E-02  0.1111374E+00
         22   -1    0    0    0    0  0.00000000000E+00  0.00000000000E+00  0.30735625353E+04  0.30735625353E+04  0.00000000000E+00 0. -1.
         22   -1    0    0    0    0 -0.00000000000E+00 -0.00000000000E+00 -0.12132762618E+03  0.12132762618E+03  0.00000000000E+00 0. -1.
         24    2    1    2    0    0 -0.44754068529E+02  0.31326902133E+02 -0.80966773960E+02  0.12628551270E+03  0.80050676352E+02 0.  0.
         25    2    1    2    0    0  0.50704787086E+02 -0.31225233911E+02  0.26337695526E+03  0.29758875981E+03  0.12508260766E+03 0.  0.
        -24    2    1    2    0    0 -0.59507185573E+01 -0.10166822256E+00  0.27698247278E+04  0.27710158889E+04  0.81022297596E+02 0.  0.
        -11    1    3    3    0    0 -0.15627598974E+02 -0.17303393151E+02  0.44832923807E+01  0.23742981590E+02  0.00000000000E+00 0.  1.
         12    1    3    3    0    0 -0.29126469555E+02  0.48630295284E+02 -0.85450066340E+02  0.10254253111E+03  0.00000000000E+00 0. -1.
         11    1    5    5    0    0 -0.34560264634E+02  0.13332900186E+01  0.23313118271E+04  0.23315683615E+04  0.00000000000E+00 0. -1.
        -12    1    5    5    0    0  0.28609546077E+02 -0.14349582411E+01  0.43851290073E+03  0.43944752740E+03  0.00000000000E+00 0.  1.
          5    1    4    4  501    0 -0.10096414248E+02 -0.38894531505E+02  0.17278274847E+02  0.43940110871E+02  0.41800000000E+01 0.  1.
         -5    1    4    4    0  501  0.60801201334E+02  0.76692975942E+01  0.24609868041E+03  0.25364864894E+03  0.41800000000E+01 0.  1.
</event>
<event>
11    1  0.8299058E-009  0.1828856E+03  0.7561462E-02  0.1067332E+00
         22   -1    0    0    0    0  0.00000000000E+00  0.00000000000E+00  0.71197618603E+03  0.71197618603E+03  0.00000000000E+00 0. -1.
         22   -1    0    0    0    0 -0.00000000000E+00 -0.00000000000E+00 -0.27315863407E+04  0.27315863407E+04  0.00000000000E+00 0. -1.
        -24    2    1    2    0    0 -0.53217822243E+02  0.12928512413E+03 -0.22958652205E+04  0.23018072378E+04  0.88162743246E+02 0.  0.
         25    2    1    2    0    0  0.63373137065E+02 -0.81971006117E+02 -0.41427949944E+03  0.44498330705E+03  0.12508892657E+03 0.  0.
         24    2    1    2    0    0 -0.10155314823E+02 -0.47314118013E+02  0.69053456523E+03  0.69677198194E+03  0.79444652744E+02 0.  0.
        -13    1    5    5    0    0 -0.29454907604E+02 -0.22908121958E+02  0.12672475293E+03  0.13210426427E+03  0.00000000000E+00 0.  1.
         14    1    5    5    0    0  0.19299592782E+02 -0.24405996055E+02  0.56380981230E+03  0.56466771767E+03  0.00000000000E+00 0. -1.
         11    1    3    3    0    0 -0.33318980668E+02  0.12283991718E+03 -0.22003726912E+04  0.22040507661E+04  0.00000000000E+00 0. -1.
        -12    1    3    3    0    0 -0.19898841575E+02  0.64452069525E+01 -0.95492529339E+02  0.97756471643E+02  0.00000000000E+00 0.  1.
          5    1    4    4  501    0 -0.38159790609E+02 -0.26405008337E+02 -0.11604025368E+03  0.12504481980E+03  0.41800000000E+01 0. -1.
         -5    1    4    4    0  501  0.10153292767E+03 -0.55565997781E+02 -0.29823924577E+03  0.31993848725E+03  0.41800000000E+01 0. -1.
</event>
<event>
11    1  0.8299058E-009  0.1556795E+03  0.7561462E-02  0.1091213E+00
         22   -1    0    0    0    0  0.00000000000E+00  0.00000000000E+00  0.16353855977E+03  0.16353855977E+03  0.00000000000E+00 0. -1.
         22   -1    0    0    0    0 -0.00000000000E+00 -0.00000000000E+00 -0.74847285807E+03  0.74847285807E+03  0.00000000000E+00 0.  1.
        -24    2    1    2    0    0 -0.58051713256E+02 -0.82753760899E+02 -0.41131307090E+03  0.43074818631E+03  0.78405174376E+02 0.  0.
         25    2    1    2    0    0  0.38219422612E+01  0.85991854700E+02 -0.29179781218E+03  0.32894304616E+03  0.12509339754E+03 0.  0.
         24    2    1    2    0    0  0.54229770995E+02 -0.32380938010E+01  0.11817658477E+03  0.15232018536E+03  0.79274083824E+02 0.  0.
        -11    1    5    5    0    0  0.41086396614E+02  0.34117392023E+02  0.48321163940E+02  0.72020992146E+02  0.00000000000E+00 0.  1.
         12    1    5    5    0    0  0.13143374380E+02 -0.37355485824E+02  0.69855420829E+02  0.80299193212E+02  0.00000000000E+00 0. -1.
         11    1    3    3    0    0 -0.70825194614E+02 -0.41377303026E+02 -0.22548002523E+03  0.23993651489E+03  0.00000000000E+00 0. -1.
        -12    1    3    3    0    0  0.12773481358E+02 -0.41376457873E+02 -0.18583304566E+03  0.19081167143E+03  0.00000000000E+00 0.  1.
          5    1    4    4  501    0 -0.43974247159E+01  0.78002887393E+02 -0.64720435918E+02  0.10153814560E+03  0.41800000000E+01 0. -1.
         -5    1    4    4    0  501  0.82193669771E+01  0.79889673073E+01 -0.22707737626E+03  0.22740490056E+03  0.41800000000E+01 0. -1.
</event>
<event>
11    1  0.8299058E-009  0.1431592E+03  0.7561462E-02  0.1104081E+00
         22   -1    0    0    0    0  0.00000000000E+00  0.00000000000E+00  0.78831106704E+03  0.78831106704E+03  0.00000000000E+00 0.  1.
         22   -1    0    0    0    0 -0.00000000000E+00 -0.00000000000E+00 -0.58729864809E+03  0.58729864809E+03  0.00000000000E+00 0. -1.
         24    2    1    2    0    0 -0.15466397001E+02  0.12711289874E+02 -0.30657898848E+03  0.31771072497E+03  0.80923681715E+02 0.  0.
         25    2    1    2    0    0  0.84869000379E+02 -0.13945840934E+02 -0.25029864763E+03  0.29273555848E+03  0.12508980970E+03 0.  0.
        -24    2    1    2    0    0 -0.69402603378E+02  0.12345510601E+01  0.75789005506E+03  0.76516343167E+03  0.79116977618E+02 0.  0.
        -11    1    3    3    0    0  0.14168891364E+02 -0.15378047066E+02 -0.22979996084E+03  0.23074935280E+03  0.00000000000E+00 0.  1.
         12    1    3    3    0    0 -0.29635288365E+02  0.28089336940E+02 -0.76779027633E+02  0.86961372175E+02  0.00000000000E+00 0. -1.
         11    1    5    5    0    0 -0.84217029697E+02  0.13584641307E+02  0.64842064547E+03  0.65400793882E+03  0.00000000000E+00 0. -1.
        -12    1    5    5    0    0  0.14814426318E+02 -0.12350090247E+02  0.10946940959E+03  0.11115549285E+03  0.00000000000E+00 0.  1.
          5    1    4    4  501    0  0.84946677802E+01  0.45865529226E+02 -0.41954719566E+02  0.62876681256E+02  0.41800000000E+01 0. -1.
         -5    1    4    4    0  501  0.76374332599E+02 -0.59811370160E+02 -0.20834392806E+03  0.22985887723E+03  0.41800000000E+01 0. -1.
</event>
<event>
11    1  0.8299058E-009  0.1356919E+03  0.7561462E-02  0.1112467E+00
         22   -1    0    0    0    0  0.00000000000E+00  0.00000000000E+00  0.13521213366E+04  0.13521213366E+04  0.00000000000E+00 0. -1.
         22   -1    0    0    0    0 -0.00000000000E+00 -0.00000000000E+00 -0.45347410631E+03  0.45347410631E+03  0.00000000000E+00 0.  1.
         24    2    1    2    0    0  0.48075094995E+02  0.56082439897E+01 -0.42625958369E+03  0.43643004733E+03  0.80195301400E+02 0.  0.
         25    2    1    2    0    0 -0.32262935882E+02  0.46350096708E+02  0.21615900148E+03  0.25604939347E+03  0.12508936597E+03 0.  0.
        -24    2    1    2    0    0 -0.15812159113E+02 -0.51958340698E+02  0.11087478125E+04  0.11131160022E+04  0.82193849396E+02 0.  0.
        -11    1    3    3    0    0  0.58774204159E+02 -0.21878152960E+02 -0.32341860167E+03  0.32944294280E+03  0.00000000000E+00 0.  1.
         12    1    3    3    0    0 -0.10699109164E+02  0.27486396949E+02 -0.10284098202E+03  0.10698710453E+03  0.00000000000E+00 0. -1.
         11    1    5    5    0    0 -0.11645388415E+02 -0.72770501387E+02  0.96495507606E+03  0.96776518834E+03  0.00000000000E+00 0. -1.
        -12    1    5    5    0    0 -0.41667706979E+01  0.20812160689E+02  0.14379273649E+03  0.14535081382E+03  0.00000000000E+00 0.  1.
          5    1    4    4  501    0  0.25355103166E+02  0.11170116002E+02  0.17423131735E+03  0.17647004588E+03  0.41800000000E+01 0. -1.
         -5    1    4    4    0  501 -0.57618039048E+02  0.35179980706E+02  0.41927684132E+02  0.79579347591E+02  0.41800000000E+01 0. -1.
</event>
<event>
11    1  0.8299058E-009  0.1820491E+03  0.7561462E-02  0.1067997E+00
         22   -1    0    0    0    0  0.00000000000E+00  0.00000000000E+00  0.38386508780E+03  0.38386508780E+03  0.00000000000E+00 0. -1.
         22   -1    0    0    0    0 -0.00000000000E+00 -0.00000000000E+00 -0.21040327786E+04  0.21040327786E+04  0.00000000000E+00 0.  1.
        -24    2    1    2    0    0 -0.24844384174E+02  0.11029478216E+01 -0.18432710915E+04  0.18450702787E+04  0.77572912568E+02 0.  0.
         25    2    1    2    0    0 -0.17112239273E+02 -0.12699722027E+03 -0.20976612179E+03  0.27580998555E+03  0.12509276393E+03 0.  0.
         24    2    1    2    0    0  0.41956623447E+02  0.12589427245E+03  0.33286952252E+03  0.36701760209E+03  0.79309993916E+02 0.  0.
        -11    1    5    5    0    0  0.44198347378E+02  0.20184768427E+02  0.11515302765E+03  0.12498455331E+03  0.00000000000E+00 0.  1.
         12    1    5    5    0    0 -0.22417239315E+01  0.10570950402E+03  0.21771649487E+03  0.24203304878E+03  0.00000000000E+00 0. -1.
         13    1    3    3    0    0  0.24376883999E+02  0.16897107318E+02 -0.71842148015E+03  0.71903349564E+03  0.00000000000E+00 0. -1.
        -14    1    3    3    0    0 -0.49221268173E+02 -0.15794159497E+02 -0.11248496114E+04  0.11260367831E+04  0.00000000000E+00 0.  1.
          5    1    4    4  501    0 -0.50532514635E+02 -0.13519795862E+03 -0.17080586922E+03  0.22366077084E+03  0.41800000000E+01 0.  1.
         -5    1    4    4    0  501  0.33420275362E+02  0.82007383519E+01 -0.38960252575E+02  0.52149214716E+02  0.41800000000E+01 0.  1.
</event>
<event>
11    1  0.8299058E-009  0.1576040E+03  0.7561462E-02  0.1089353E+00
         22   -1    0    0    0    0  0.00000000000E+00  0.00000000000E+00  0.80819765354E+03  0.80819765354E+03  0.00000000000E+00 0. -1.
         22   -1    0    0    0    0 -0.00000000000E+00 -0.00000000000E+00 -0.19994961484E+03  0.19994961484E+03  0.00000000000E+00 0. -1.
         24    2    1    2    0    0 -0.54151351888E+02 -0.17283534136E+02 -0.13462121696E+03  0.16407090914E+03  0.74600949783E+02 0.  0.
         25    2    1    2    0    0  0.10918223318E+03  0.88688341075E+02  0.15464194358E+03  0.24361040458E+03  0.12508203957E+03 0.  0.
        -24    2    1    2    0    0 -0.55030881297E+02 -0.71404806939E+02  0.58822731207E+03  0.60046595466E+03  0.80130816086E+02 0.  0.
        -11    1    3    3    0    0 -0.48109782161E+02 -0.16561968214E+01 -0.27080105852E+02  0.55232474691E+02  0.00000000000E+00 0.  1.
         12    1    3    3    0    0 -0.60415697265E+01 -0.15627337315E+02 -0.10754111110E+03  0.10883843445E+03  0.00000000000E+00 0. -1.
         11    1    5    5    0    0 -0.38256593616E+02 -0.99644805717E+01  0.39587183421E+03  0.39784088145E+03  0.00000000000E+00 0. -1.
        -12    1    5    5    0    0 -0.16774287680E+02 -0.61440326367E+02  0.19235547786E+03  0.20262507321E+03  0.00000000000E+00 0.  1.
          5    1    4    4  501    0  0.89053716511E+02 -0.33729362655E+00  0.41940551760E+02  0.98524923107E+02  0.41800000000E+01 0. -1.
         -5    1    4    4    0  501  0.20128516674E+02  0.89025634702E+02  0.11270139182E+03  0.14508548148E+03  0.41800000000E+01 0. -1.
</event>
<event>
11    1  0.8299058E-009  0.1637474E+03  0.7561462E-02  0.1083605E+00
         22   -1    0    0    0    0  0.00000000000E+00  0.00000000000E+00  0.16866884926E+04  0.16866884926E+04  0.00000000000E+00 0. -1.
         22   -1    0    0    0    0 -0.00000000000E+00 -0.00000000000E+00 -0.17369775373E+04  0.17369775373E+04  0.00000000000E+00 0.  1.
         24    2    1    2    0    0 -0.10272502747E+03  0.24532379402E+02 -0.16763588998E+04  0.16816620680E+04  0.81571324313E+02 0.  0.
         25    2    1    2    0    0  0.95933202458E+02 -0.64182466915E+02  0.72253924477E+02  0.18490633841E+03  0.12508859256E+03 0.  0.
        -24    2    1    2    0    0  0.67918250148E+01  0.39650087513E+02  0.15538159307E+04  0.15570976235E+04  0.92686592051E+02 0.  0.
        -13    1    3    3    0    0 -0.40440141005E+02 -0.22214076095E+02 -0.95451875962E+03  0.95563326263E+03  0.00000000000E+00 0.  1.
         14    1    3    3    0    0 -0.62284886468E+02  0.46746455497E+02 -0.72184014021E+03  0.72602880535E+03  0.00000000000E+00 0. -1.
         13    1    5    5    0    0  0.18436772747E+02  0.66089446104E+02  0.12593935590E+04  0.12612612203E+04  0.00000000000E+00 0. -1.
        -14    1    5    5    0    0 -0.11644947732E+02 -0.26439358591E+02  0.29442237171E+03  0.29583640319E+03  0.00000000000E+00 0.  1.
          5    1    4    4  501    0  0.10819423748E+03 -0.90089931432E+02  0.64511842330E+02  0.15492397804E+03  0.41800000000E+01 0. -1.
         -5    1    4    4    0  501 -0.12261035026E+02  0.25907464517E+02  0.77420821462E+01  0.29982360373E+02  0.41800000000E+01 0. -1.
</event>
<event>
11    1  0.8299058E-009  0.1609867E+03  0.7561462E-02  0.1086153E+00
         22   -1    0    0    0    0  0.00000000000E+00  0.00000000000E+00  0.79381091260E+02  0.79381091260E+02  0.00000000000E+00 0.  1.
         22   -1    0    0    0    0 -0.00000000000E+00 -0.00000000000E+00 -0.23161315374E+04  0.23161315374E+04  0.00000000000E+00 0.  1.
         24    2    1    2    0    0 -0.62370798718E+02  0.91387117771E+02 -0.12493080138E+04  0.12566721501E+04  0.78820413957E+02 0.  0.
         25    2    1    2    0    0  0.34219917740E+02 -0.81300746692E+02 -0.10307534969E+04  0.10420566059E+04  0.12509350317E+03 0.  0.
        -24    2    1    2    0    0  0.28150880978E+02 -0.10086371079E+02  0.43311064532E+02  0.96783872600E+02  0.81222304223E+02 0.  0.
        -13    1    3    3    0    0 -0.61913297556E+02  0.97293800549E+02 -0.12416305413E+04  0.12469746353E+04  0.00000000000E+00 0.  1.
         14    1    3    3    0    0 -0.45750116205E+00 -0.59066827773E+01 -0.76774724659E+01  0.96975147440E+01  0.00000000000E+00 0. -1.
         11    1    5    5    0    0  0.18982490209E+02  0.49239479706E+01 -0.21809504688E+02  0.29329757805E+02  0.00000000000E+00 0. -1.
        -12    1    5    5    0    0  0.91683907686E+01 -0.15010319050E+02  0.65120569220E+02  0.67454114795E+02  0.00000000000E+00 0.  1.
          5    1    4    4  501    0  0.55559673102E+02 -0.90098414850E+02 -0.98461563628E+03  0.99029794771E+03  0.41800000000E+01 0. -1.
         -5    1    4    4    0  501 -0.21339755362E+02  0.87976681573E+01 -0.46137860577E+02  0.51758658237E+02  0.41800000000E+01 0. -1.
</event>
<event>
11    1  0.8299058E-009  0.1651820E+03  0.7561462E-02  0.1082302E+00
         22   -1    0    0    0    0  0.00000000000E+00  0.00000000000E+00  0.63643859195E+03  0.63643859195E+03  0.00000000000E+00 0.  1.
         22   -1    0    0    0    0 -0.00000000000E+00 -0.00000000000E+00 -0.17184792168E+03  0.17184792168E+03  0.00000000000E+00 0. -1.
         24    2    1    2    0    0 -0.48824362572E+02  0.87234881902E+02 -0.40937117268E+02  0.13653719202E+03  0.83503378582E+02 0.  0.
         25    2    1    2    0    0  0.74047709948E+02 -0.10024494765E+03  0.17578953422E+02  0.17744996192E+03  0.12508939405E+03 0.  0.
        -24    2    1    2    0    0 -0.25223347376E+02  0.13010065743E+02  0.48794883411E+03  0.49429935968E+03  0.73704227910E+02 0.  0.
        -11    1    3    3    0    0 -0.15259822279E+02 -0.13773559894E+02  0.41009050174E+01  0.20961644738E+02  0.00000000000E+00 0.  1.
         12    1    3    3    0    0 -0.33564540293E+02  0.10100844180E+03 -0.45038022285E+02  0.11557554729E+03  0.00000000000E+00 0. -1.
         11    1    5    5    0    0  0.36911420349E+01  0.93306297498E+01  0.64704407646E+01  0.11939505213E+02  0.00000000000E+00 0. -1.
        -12    1    5    5    0    0 -0.28914489411E+02  0.36794359936E+01  0.48147839335E+03  0.48235985447E+03  0.00000000000E+00 0.  1.
          5    1    4    4  501    0  0.90556451067E+02 -0.68670172157E+02  0.54378289307E+02  0.12605766189E+03  0.41800000000E+01 0.  1.
         -5    1    4    4    0  501 -0.16508741118E+02 -0.31574775488E+02 -0.36799335884E+02  0.51392300026E+02  0.41800000000E+01 0.  1.
</event>
<event>
11    1  0.8299058E-009  0.3215770E+03  0.7561462E-02  0.9914514E-01
         22   -1    0    0    0    0  0.00000000000E+00  0.00000000000E+00  0.67296806119E+03  0.67296806119E+03  0.00000000000E+00 0. -1.
         22   -1    0    0    0    0 -0.00000000000E+00 -0.00000000000E+00 -0.43280761991E+03  0.43280761991E+03  0.00000000000E+00 0. -1.
        -24    2    1    2    0    0  0.12570642381E+02 -0.29686135076E+02 -0.15356141999E+03  0.16729397214E+03  0.58024785543E+02 0.  0.
         25    2    1    2    0    0 -0.26264530025E+03  0.18081156356E+03 -0.10281283647E+03  0.35762329058E+03  0.12509421795E+03 0.  0.
         24    2    1    2    0    0  0.25007465787E+03 -0.15112542849E+03  0.49653469775E+03  0.58085841838E+03  0.73983555544E+02 0.  0.
        -11    1    5    5    0    0  0.13018897082E+03 -0.42193540057E+02  0.19000646286E+03  0.23416216363E+03  0.00000000000E+00 0.  1.
         12    1    5    5    0    0  0.11988568705E+03 -0.10893188843E+03  0.30652823489E+03  0.34669625475E+03  0.00000000000E+00 0. -1.
         13    1    3    3    0    0  0.28441067939E+02 -0.38443222816E+02 -0.11943072323E+03  0.12864864312E+03  0.00000000000E+00 0. -1.
        -14    1    3    3    0    0 -0.15870425558E+02  0.87570877403E+01 -0.34130696767E+02  0.38645329018E+02  0.00000000000E+00 0.  1.
          5    1    4    4  501    0 -0.70666575384E+02  0.82668673888E+01  0.16611581369E+02  0.73181438962E+02  0.41800000000E+01 0.  1.
         -5    1    4    4    0  501 -0.19197872486E+03  0.17254469617E+03 -0.11942441784E+03  0.28444185162E+03  0.41800000000E+01 0.  1.
</event>
<event>
11    1  0.8299058E-009  0.1754539E+03  0.7561462E-02  0.1073381E+00
         22   -1    0    0    0    0  0.00000000000E+00  0.00000000000E+00  0.17910126583E+03  0.17910126583E+03  0.00000000000E+00 0. -1.
         22   -1    0    0    0    0 -0.00000000000E+00 -0.00000000000E+00 -0.96394432847E+03  0.96394432847E+03  0.00000000000E+00 0. -1.
         24    2    1    2    0    0  0.11499545178E+02  0.85283918526E+01 -0.71241094266E+03  0.71712212314E+03  0.80807272337E+02 0.  0.
         25    2    1    2    0    0  0.57103468172E+02  0.96052110442E+02 -0.17795295454E+03  0.24454369503E+03  0.12509017048E+03 0.  0.
        -24    2    1    2    0    0 -0.68603013350E+02 -0.10458050229E+03  0.10552083455E+03  0.18137977614E+03  0.78233763603E+02 0.  0.
        -11    1    3    3    0    0  0.25616227116E+02  0.28680312329E+02 -0.17622004663E+03  0.18036700430E+03  0.00000000000E+00 0.  1.
         12    1    3    3    0    0 -0.14116681937E+02 -0.20151920477E+02 -0.53619089603E+03  0.53675511884E+03  0.00000000000E+00 0. -1.
         11    1    5    5    0    0 -0.14201771411E+02 -0.47642499679E+02  0.87435405347E+02  0.10058055575E+03  0.00000000000E+00 0. -1.
        -12    1    5    5    0    0 -0.54401241939E+02 -0.56938002616E+02  0.18085429208E+02  0.80799220393E+02  0.00000000000E+00 0.  1.
          5    1    4    4  501    0  0.18284798296E+01  0.10614422869E+03 -0.14332951940E+03  0.17841178255E+03  0.41800000000E+01 0.  1.
         -5    1    4    4    0  501  0.55274988342E+02 -0.10092118246E+02 -0.34623435143E+02  0.66131912478E+02  0.41800000000E+01 0.  1.
</event>
<event>
11    1  0.8299058E-009  0.1314542E+03  0.7561462E-02  0.1117495E+00
         22   -1    0    0    0    0  0.00000000000E+00  0.00000000000E+00  0.56769355763E+03  0.56769355763E+03  0.00000000000E+00 0. -1.
         22   -1    0    0    0    0 -0.00000000000E+00 -0.00000000000E+00 -0.32790869918E+04  0.32790869918E+04  0.00000000000E+00 0. -1.
         24    2    1    2    0    0 -0.60982300058E+01 -0.36519242842E+02 -0.30145210777E+04  0.30157788302E+04  0.78827540116E+02 0.  0.
         25    2    1    2    0    0  0.16624179735E+02  0.74988816148E+02 -0.23958161971E+03  0.28097605362E+03  0.12509398189E+03 0.  0.
        -24    2    1    2    0    0 -0.10525949729E+02 -0.38469573306E+02  0.54270926325E+03  0.55002566562E+03  0.80026150330E+02 0.  0.
        -11    1    3    3    0    0  0.27352240534E+02  0.47428832589E+01 -0.56466962847E+03  0.56535159796E+03  0.00000000000E+00 0.  1.
         12    1    3    3    0    0 -0.33450470540E+02 -0.41262126101E+02 -0.24498514493E+04  0.24504272322E+04  0.00000000000E+00 0. -1.
         13    1    5    5    0    0 -0.24959920540E+02 -0.66182444425E+01  0.45309491905E+03  0.45383014935E+03  0.00000000000E+00 0. -1.
        -14    1    5    5    0    0  0.14433970810E+02 -0.31851328864E+02  0.89614344203E+02  0.96195516271E+02  0.00000000000E+00 0.  1.
          5    1    4    4  501    0  0.13918403278E+02  0.10667082886E+03 -0.21541803387E+03  0.24082107340E+03  0.41800000000E+01 0. -1.
         -5    1    4    4    0  501  0.27057764575E+01 -0.31682012707E+02 -0.24163585837E+02  0.40154980213E+02  0.41800000000E+01 0. -1.
</event>
<event>
11    1  0.8299058E-009  0.1561938E+03  0.7561462E-02  0.1090713E+00
         22   -1    0    0    0    0  0.00000000000E+00  0.00000000000E+00  0.69353220828E+02  0.69353220828E+02  0.00000000000E+00 0. -1.
         22   -1    0    0    0    0 -0.00000000000E+00 -0.00000000000E+00 -0.17303137711E+04  0.17303137711E+04  0.00000000000E+00 0.  1.
         24    2    1    2    0    0  0.22984213974E+02  0.57493671670E+02 -0.14133270176E+04  0.14170571464E+04  0.81999396245E+02 0.  0.
         25    2    1    2    0    0 -0.66610556041E+02 -0.11378619905E+03 -0.15641813909E+03  0.23978790196E+03  0.12508932178E+03 0.  0.
        -24    2    1    2    0    0  0.43626342067E+02  0.56292527379E+02 -0.91215393579E+02  0.14282194360E+03  0.83700377467E+02 0.  0.
        -13    1    3    3    0    0  0.54739451957E+00  0.72329159142E+02 -0.11733673226E+04  0.11755946073E+04  0.00000000000E+00 0.  1.
         14    1    3    3    0    0  0.22436819454E+02 -0.14835487473E+02 -0.23995969502E+03  0.24146253910E+03  0.00000000000E+00 0. -1.
         13    1    5    5    0    0  0.16032065401E+02  0.19472627476E+02  0.13380639697E+02  0.28552615651E+02  0.00000000000E+00 0. -1.
        -14    1    5    5    0    0  0.27594276666E+02  0.36819899903E+02 -0.10459603328E+03  0.11426932795E+03  0.00000000000E+00 0.  1.
          5    1    4    4  501    0  0.56498795151E+01 -0.78755008246E+02 -0.13519953736E+03  0.15662266683E+03  0.41800000000E+01 0.  1.
         -5    1    4    4    0  501 -0.72260435556E+02 -0.35031190802E+02 -0.21218601729E+02  0.83165235136E+02  0.41800000000E+01 0.  1.
</event>
<event>
11    1  0.8299058E-009  0.1377238E+03  0.7561462E-02  0.1110127E+00
         22   -1    0    0    0    0  0.00000000000E+00  0.00000000000E+00  0.32166120611E+03  0.32166120611E+03  0.00000000000E+00 0.  1.
         22   -1    0    0    0    0 -0.00000000000E+00 -0.00000000000E+00 -0.31982898145E+03  0.31982898145E+03  0.00000000000E+00 0. -1.
         24    2    1    2    0    0  0.33951356041E+02  0.25654554542E+02 -0.22072403126E+03  0.23906251712E+03  0.81369148759E+02 0.  0.
         25    2    1    2    0    0 -0.42959445537E+02  0.33336122810E+02 -0.22044198402E+02  0.13817320692E+03  0.12509627246E+03 0.  0.
        -24    2    1    2    0    0  0.90080894968E+01 -0.58990677353E+02  0.24460045432E+03  0.26425446352E+03  0.80249570374E+02 0.  0.
        -11    1    3    3    0    0 -0.11208102245E+02  0.11927757965E+01  0.11424485144E+01  0.11329142008E+02  0.00000000000E+00 0.  1.
         12    1    3    3    0    0  0.45159458285E+02  0.24461778746E+02 -0.22186647977E+03  0.22773337511E+03  0.00000000000E+00 0. -1.
         11    1    5    5    0    0  0.31669451870E+02  0.33146755008E+01  0.10478614697E+03  0.10951747738E+03  0.00000000000E+00 0. -1.
        -12    1    5    5    0    0 -0.22661362373E+02 -0.62305352854E+02  0.13981430735E+03  0.15473698614E+03  0.00000000000E+00 0.  1.
          5    1    4    4  501    0  0.28877571380E+02 -0.18311927131E+02  0.20312661714E+02  0.39991466964E+02  0.41800000000E+01 0.  1.
         -5    1    4    4    0  501 -0.71837016917E+02  0.51648049942E+02 -0.42356860116E+02  0.98181739958E+02  0.41800000000E+01 0.  1.
</event>
<event>
11    1  0.8299058E-009  0.1889402E+03  0.7561462E-02  0.1062632E+00
         22   -1    0    0    0    0  0.00000000000E+00  0.00000000000E+00  0.93032821619E+03  0.93032821619E+03  0.00000000000E+00 0. -1.
         22   -1    0    0    0    0 -0.00000000000E+00 -0.00000000000E+00 -0.93963604951E+03  0.93963604951E+03  0.00000000000E+00 0.  1.
         24    2    1    2    0    0  0.65505495352E+02 -0.89705663954E+02 -0.88481503687E+03  0.89534934799E+03  0.80092005877E+02 0.  0.
         25    2    1    2    0    0 -0.32802465167E+01 -0.62330136797E+02  0.85929146037E+02  0.16409408986E+03  0.12508895322E+03 0.  0.
        -24    2    1    2    0    0 -0.62225248835E+02  0.15203580075E+03  0.78957805752E+03  0.81052082784E+03  0.80769035850E+02 0.  0.
        -11    1    3    3    0    0  0.75343858728E+02 -0.62337999229E+02 -0.79380318521E+03  0.79980386349E+03  0.00000000000E+00 0.  1.
         12    1    3    3    0    0 -0.98383633764E+01 -0.27367664725E+02 -0.91011851662E+02  0.95545484505E+02  0.00000000000E+00 0. -1.
         13    1    5    5    0    0  0.16523908369E+02  0.26620996816E+02  0.20990685029E+03  0.21223242641E+03  0.00000000000E+00 0. -1.
        -14    1    5    5    0    0 -0.78749157204E+02  0.12541480393E+03  0.57967120722E+03  0.59828840143E+03  0.00000000000E+00 0.  1.
          5    1    4    4  501    0  0.36950974723E+02 -0.51790653187E+02  0.10118609348E+03  0.11959826171E+03  0.41800000000E+01 0.  1.
         -5    1    4    4    0  501 -0.40231221240E+02 -0.10539483610E+02 -0.15256947443E+02  0.44495828147E+02  0.41800000000E+01 0.  1.
</event>
<event>
11    1  0.8299058E-009  0.1463053E+03  0.7561462E-02  0.1100715E+00
         22   -1    0    0    0    0  0.00000000000E+00  0.00000000000E+00  0.28355933460E+03  0.28355933460E+03  0.00000000000E+00 0. -1.
         22   -1    0    0    0    0 -0.00000000000E+00 -0.00000000000E+00 -0.88019242849E+03  0.88019242849E+03  0.00000000000E+00 0. -1.
        -24    2    1    2    0    0  0.46882488481E+02  0.25705318625E+01 -0.41609664993E+03  0.42633993214E+03  0.80154477674E+02 0.  0.
         25    2    1    2    0    0 -0.11984529400E+03 -0.18593597467E+02 -0.43031451370E+03  0.46424809749E+03  0.12508836460E+03 0.  0.
         24    2    1    2    0    0  0.72962805515E+02  0.16023065604E+02  0.24977806975E+03  0.27316373346E+03  0.81541593890E+02 0.  0.
        -13    1    5    5    0    0 -0.74173510918E+01 -0.11853142185E+01 -0.24324393005E+01  0.78954941559E+01  0.00000000000E+00 0.  1.
         14    1    5    5    0    0  0.80380156607E+02  0.17208379823E+02  0.25221050905E+03  0.26526823931E+03  0.00000000000E+00 0. -1.
         11    1    3    3    0    0  0.17356470275E+02 -0.87050933587E+01 -0.36965052349E+03  0.37016014808E+03  0.00000000000E+00 0. -1.
        -12    1    3    3    0    0  0.29526018207E+02  0.11275625221E+02 -0.46446126439E+02  0.56179784055E+02  0.00000000000E+00 0.  1.
          5    1    4    4  501    0 -0.11871839696E+03  0.71113738699E+01 -0.41945442100E+03  0.43600930393E+03  0.41800000000E+01 0. -1.
         -5    1    4    4    0  501 -0.11268970404E+01 -0.25704971337E+02 -0.10860092705E+02  0.28238793563E+02  0.41800000000E+01 0. -1.
</event>
<event>
11    1  0.8299058E-009  0.1329194E+03  0.7561462E-02  0.1115733E+00
         22   -1    0    0    0    0  0.00000000000E+00  0.00000000000E+00  0.98501383265E+02  0.98501383265E+02  0.00000000000E+00 0.  1.
         22   -1    0    0    0    0 -0.00000000000E+00 -0.00000000000E+00 -0.10236395919E+04  0.10236395919E+04  0.00000000000E+00 0.  1.
         24    2    1    2    0    0 -0.34214432018E+01 -0.42616644401E+02 -0.82336163638E+03  0.82840898908E+03  0.80679515812E+02 0.  0.
         25    2    1    2    0    0  0.46999240996E+01  0.71382670216E+02 -0.13907333281E+03  0.20026567598E+03  0.12508946472E+03 0.  0.
        -24    2    1    2    0    0 -0.12784808978E+01 -0.28766025815E+02  0.37296760598E+02  0.93466310059E+02  0.80720406406E+02 0.  0.
        -11    1    3    3    0    0 -0.28636299731E+02  0.10942612389E+02 -0.35497482923E+03  0.35629609571E+03  0.00000000000E+00 0.  1.
         12    1    3    3    0    0  0.25214856529E+02 -0.53559256789E+02 -0.46838680715E+03  0.47211289337E+03  0.00000000000E+00 0. -1.
         11    1    5    5    0    0 -0.14286736904E+02  0.15586983723E+01 -0.21606976559E+02  0.25949987052E+02  0.00000000000E+00 0. -1.
        -12    1    5    5    0    0  0.13008256006E+02 -0.30324724187E+02  0.58903737157E+02  0.67516323007E+02  0.00000000000E+00 0.  1.
          5    1    4    4  501    0 -0.60065991362E+02  0.32511721742E+02 -0.64322744696E+02  0.93913914061E+02  0.41800000000E+01 0.  1.
         -5    1    4    4    0  501  0.64765915462E+02  0.38870948473E+02 -0.74750588114E+02  0.10635176192E+03  0.41800000000E+01 0.  1.
</event>
<event>
11    1  0.8299058E-009  0.1407279E+03  0.7561462E-02  0.1106748E+00
         22   -1    0    0    0    0  0.00000000000E+00  0.00000000000E+00  0.15702344987E+03  0.15702344987E+03  0.00000000000E+00 0.  1.
         22   -1    0    0    0    0 -0.00000000000E+00 -0.00000000000E+00 -0.10814699379E+04  0.10814699379E+04  0.00000000000E+00 0. -1.
        -24    2    1    2    0    0 -0.63891449786E+02 -0.11029818542E+02 -0.93153226351E+03  0.93726555263E+03  0.80688189554E+02 0.  0.
         25    2    1    2    0    0  0.57571186498E+02  0.19119035519E+02 -0.10135252954E+03  0.17204498707E+03  0.12508862178E+03 0.  0.
         24    2    1    2    0    0  0.63202632880E+01 -0.80892169770E+01  0.10843830500E+03  0.12918284808E+03  0.69454741294E+02 0.  0.
        -13    1    5    5    0    0 -0.11133255992E+02 -0.14226337857E+02  0.10918244701E+03  0.11066681894E+03  0.00000000000E+00 0.  1.
         14    1    5    5    0    0  0.17453519280E+02  0.61371208801E+01 -0.74414201461E+00  0.18516029145E+02  0.00000000000E+00 0. -1.
         13    1    3    3    0    0  0.51014675866E+01 -0.19070978297E+02 -0.48149380833E+03  0.48189834472E+03  0.00000000000E+00 0. -1.
        -14    1    3    3    0    0 -0.68992917372E+02  0.80411597550E+01 -0.45003845518E+03  0.45536720791E+03  0.00000000000E+00 0.  1.
          5    1    4    4  501    0  0.88480150900E+02 -0.13052447535E+02 -0.45480714260E+02  0.10042445549E+03  0.41800000000E+01 0. -1.
         -5    1    4    4    0  501 -0.30908964402E+02  0.32171483054E+02 -0.55871815278E+02  0.71620531587E+02  0.41800000000E+01 0. -1.
</event>
<event>
11    1  0.8299058E-009  0.1357895E+03  0.7561462E-02  0.1112353E+00
         22   -1    0    0    0    0  0.00000000000E+00  0.00000000000E+00  0.13437080309E+03  0.13437080309E+03  0.00000000000E+00 0.  1.
         22   -1    0    0    0    0 -0.00000000000E+00 -0.00000000000E+00 -0.42983787371E+03  0.42983787371E+03  0.00000000000E+00 0.  1.
        -24    2    1    2    0    0 -0.48843239238E+02 -0.24692006431E+02 -0.28064394121E+03  0.29901373110E+03  0.87480468960E+02 0.  0.
         25    2    1    2    0    0 -0.13797777502E+02  0.29958926554E+02 -0.70217414186E+02  0.14719306574E+03  0.12508955753E+03 0.  0.
         24    2    1    2    0    0  0.62641016740E+02 -0.52669201226E+01  0.55394284772E+02  0.11800187996E+03  0.83091993973E+02 0.  0.
        -11    1    5    5    0    0  0.43935622677E+02  0.27600862253E+02  0.60655366670E+02  0.79819922595E+02  0.00000000000E+00 0.  1.
         12    1    5    5    0    0  0.18705394063E+02 -0.32867782375E+02 -0.52610818986E+01  0.38181957363E+02  0.00000000000E+00 0. -1.
         11    1    3    3    0    0 -0.39956697755E+02 -0.29324293487E+02 -0.58622344837E+02  0.76766081039E+02  0.00000000000E+00 0. -1.
        -12    1    3    3    0    0 -0.88865414836E+01  0.46322870557E+01 -0.22202159637E+03  0.22224765006E+03  0.00000000000E+00 0.  1.
          5    1    4    4  501    0  0.11338268184E+02 -0.22268174048E+02  0.25032062223E+02  0.35616069968E+02  0.41800000000E+01 0.  1.
         -5    1    4    4    0  501 -0.25136045686E+02  0.52227100601E+02 -0.95249476409E+02  0.11157699578E+03  0.41800000000E+01 0.  1.
</event>
<event>
11    1  0.8299058E-009  0.2360946E+03  0.7561462E-02  0.1031579E+00
         22   -1    0    0    0    0  0.00000000000E+00  0.00000000000E+00  0.66777462931E+03  0.66777462931E+03  0.00000000000E+00 0. -1.
         22   -1    0    0    0    0 -0.00000000000E+00 -0.00000000000E+00 -0.50100112114E+03  0.50100112114E+03  0.00000000000E+00 0. -1.
         24    2    1    2    0    0 -0.78881036057E+02  0.17823195701E+03 -0.37269694220E+03  0.42817214067E+03  0.80246638374E+02 0.  0.
         25    2    1    2    0    0  0.11119423529E+03 -0.20881036502E+03  0.90597273465E+02  0.28252749298E+03  0.12509193351E+03 0.  0.
        -24    2    1    2    0    0 -0.32313199231E+02  0.30578408012E+02  0.44887317690E+03  0.45807611680E+03  0.79796102435E+02 0.  0.
        -11    1    3    3    0    0 -0.12140134268E+02  0.67020370817E+02 -0.20595497098E+03  0.21692524757E+03  0.00000000000E+00 0.  1.
         12    1    3    3    0    0 -0.66740901789E+02  0.11121158619E+03 -0.16674197122E+03  0.21124689309E+03  0.00000000000E+00 0. -1.
         13    1    5    5    0    0 -0.11916831784E+02  0.25013084156E+02  0.42610800555E+03  0.42700784261E+03  0.00000000000E+00 0. -1.
        -14    1    5    5    0    0 -0.20396367447E+02  0.55653238557E+01  0.22765171355E+02  0.31068274195E+02  0.00000000000E+00 0.  1.
          5    1    4    4  501    0 -0.41374184397E+01  0.13861749910E+02 -0.19737373864E+01  0.15186651414E+02  0.41800000000E+01 0. -1.
         -5    1    4    4    0  501  0.11533165373E+03 -0.22267211493E+03  0.92571010851E+02  0.26734084157E+03  0.41800000000E+01 0. -1.
</event>
<event>
11    1  0.8299058E-009  0.2319609E+03  0.7561462E-02  0.1033973E+00
         22   -1    0    0    0    0  0.00000000000E+00  0.00000000000E+00  0.76375743143E+03  0.76375743143E+03  0.00000000000E+00 0. -1.
         22   -1    0    0    0    0 -0.00000000000E+00 -0.00000000000E+00 -0.14730821645E+03  0.14730821645E+03  0.00000000000E+00 0. -1.
         24    2    1    2    0    0  0.47415312938E+02  0.42605226674E+02  0.54539162190E+02  0.11686685971E+03  0.81362924268E+02 0.  0.
         25    2    1    2    0    0 -0.21758299171E+03 -0.11364921576E+03  0.10443930603E+03  0.29464161351E+03  0.12509040428E+03 0.  0.
        -24    2    1    2    0    0  0.17016767878E+03  0.71043989085E+02  0.45747074675E+03  0.49955717465E+03  0.79206056143E+02 0.  0.
        -11    1    3    3    0    0 -0.20519905399E+02  0.20452807897E+02  0.28977745350E+02  0.40976744551E+02  0.00000000000E+00 0.  1.
         12    1    3    3    0    0  0.67935218337E+02  0.22152418777E+02  0.25561416840E+02  0.75890115160E+02  0.00000000000E+00 0. -1.
         13    1    5    5    0    0  0.10745162370E+03  0.51981251595E+02  0.19171961029E+03  0.22584134015E+03  0.00000000000E+00 0. -1.
        -14    1    5    5    0    0  0.62716055076E+02  0.19062737490E+02  0.26575113646E+03  0.27371583450E+03  0.00000000000E+00 0.  1.
          5    1    4    4  501    0 -0.64175293054E+02  0.24685767420E+02  0.24847105865E+02  0.73230501988E+02  0.41800000000E+01 0. -1.
         -5    1    4    4    0  501 -0.15340769866E+03 -0.13833498318E+03  0.79592200170E+02  0.22141111153E+03  0.41800000000E+01 0. -1.
</event>
<event>
11    1  0.8299058E-009  0.3049759E+03  0.7561462E-02  0.9981070E-01
         22   -1    0    0    0    0  0.00000000000E+00  0.00000000000E+00  0.13330952816E+03  0.13330952816E+03  0.00000000000E+00 0.  1.
         22   -1    0    0    0    0 -0.00000000000E+00 -0.00000000000E+00 -0.33264380491E+04  0.33264380491E+04  0.00000000000E+00 0. -1.
         24    2    1    2    0    0 -0.27195395524E+03 -0.54841610874E+02 -0.26993985791E+04  0.27148320853E+04  0.81203488533E+02 0.  0.
         25    2    1    2    0    0  0.28133858133E+03  0.29711109980E+02 -0.55533614635E+03  0.63567212593E+03  0.12508664531E+03 0.  0.
        -24    2    1    2    0    0 -0.93846260907E+01  0.25130500895E+02  0.61606204539E+02  0.10924336599E+03  0.86134634689E+02 0.  0.
        -13    1    3    3    0    0  0.44030967817E+01 -0.16747559984E+01 -0.15010369369E+02  0.15732236253E+02  0.00000000000E+00 0.  1.
         14    1    3    3    0    0 -0.27635705202E+03 -0.53166854876E+02 -0.26843882097E+04  0.26990998490E+04  0.00000000000E+00 0. -1.
         11    1    5    5    0    0  0.35650187435E+02  0.11186564021E+01  0.10890059639E+02  0.37293171697E+02  0.00000000000E+00 0. -1.
        -12    1    5    5    0    0 -0.45034813526E+02  0.24011844492E+02  0.50716144900E+02  0.71950194293E+02  0.00000000000E+00 0.  1.
          5    1    4    4  501    0  0.62143638510E+02  0.54940138237E+02 -0.21022015635E+03  0.22603149588E+03  0.41800000000E+01 0. -1.
         -5    1    4    4    0  501  0.21919494282E+03 -0.25229028257E+02 -0.34511599000E+03  0.40964063004E+03  0.41800000000E+01 0. -1.
</event>
<event>
11    1  0.8299058E-009  0.1374617E+03  0.7561462E-02  0.1110426E+00
         22   -1    0    0    0    0  0.00000000000E+00  0.00000000000E+00  0.25763140384E+04  0.25763140384E+04  0.00000000000E+00 0.  1.
         22   -1    0    0    0    0 -0.00000000000E+00 -0.00000000000E+00 -0.85283469126E+02  0.85283469126E+02  0.00000000000E+00 0.  1.
        -24    2    1    2    0    0 -0.21001731657E+02 -0.51365937633E+02 -0.32812783036E+02  0.10325517792E+03  0.80656188570E+02 0.  0.
         25    2    1    2    0    0  0.62560089568E+01  0.73204271077E+02  0.30418725597E+03  0.33701112536E+03  0.12509440021E+03 0.  0.
         24    2    1    2    0    0  0.14745722700E+02 -0.21838333444E+02  0.22196560964E+04  0.22213312043E+04  0.82126632910E+02 0.  0.
        -11    1    5    5    0    0  0.17123880086E+02  0.27663654630E+02  0.12352599499E+04  0.12356883300E+04  0.00000000000E+00 0.  1.
         12    1    5    5    0    0 -0.23781573860E+01 -0.49501988074E+02  0.98439614648E+03  0.98564287430E+03  0.00000000000E+00 0. -1.
         11    1    3    3    0    0 -0.46216482534E+02 -0.25728568810E+02  0.23683879008E+01  0.52948387814E+02  0.00000000000E+00 0. -1.
        -12    1    3    3    0    0  0.25214750878E+02 -0.25637368823E+02 -0.35181170937E+02  0.50306790103E+02  0.00000000000E+00 0.  1.
          5    1    4    4  501    0 -0.54854280862E+00 -0.12307270830E+02  0.20661918871E+03  0.20702833467E+03  0.41800000000E+01 0. -1.
         -5    1    4    4    0  501  0.68045517654E+01  0.85511541907E+02  0.97568067263E+02  0.12998279068E+03  0.41800000000E+01 0. -1.
</event>
<event>
11    1  0.8299058E-009  0.1474780E+03  0.7561462E-02  0.1099484E+00
         22   -1    0    0    0    0  0.00000000000E+00  0.00000000000E+00  0.37568624087E+04  0.37568624087E+04  0.00000000000E+00 0.  1.
         22   -1    0    0    0    0 -0.00000000000E+00 -0.00000000000E+00 -0.35738205989E+03  0.35738205989E+03  0.00000000000E+00 0. -1.
        -24    2    1    2    0    0  0.43095619238E+02  0.26014444530E+02 -0.31557987028E+03  0.32900916233E+03  0.78245706921E+02 0.  0.
         25    2    1    2    0    0 -0.82171341844E+02 -0.92440243053E+02  0.19157638849E+03  0.26008883076E+03  0.12508940524E+03 0.  0.
         24    2    1    2    0    0  0.39075722605E+02  0.66425798523E+02  0.35234838306E+04  0.35251464755E+04  0.76026774939E+02 0.  0.
        -11    1    5    5    0    0  0.23947197275E+02  0.66859179390E+02  0.33995802441E+04  0.34003219633E+04  0.00000000000E+00 0.  1.
         12    1    5    5    0    0  0.15128525331E+02 -0.43338086677E+00  0.12390358649E+03  0.12482451218E+03  0.00000000000E+00 0. -1.
         11    1    3    3    0    0  0.58190284530E+01 -0.85517837655E+01 -0.22421442122E+03  0.22445289212E+03  0.00000000000E+00 0. -1.
        -12    1    3    3    0    0  0.37276590785E+02  0.34566228295E+02 -0.91365449060E+02  0.10455627021E+03  0.00000000000E+00 0.  1.
          5    1    4    4  501    0 -0.88344270454E+01 -0.37003028889E+02  0.15729415001E+03  0.16188327052E+03  0.41800000000E+01 0. -1.
         -5    1    4    4    0  501 -0.73336914798E+02 -0.55437214163E+02  0.34282238486E+02  0.98205560240E+02  0.41800000000E+01 0. -1.
</event>
<event>
11    1  0.8299058E-009  0.1665461E+03  0.7561462E-02  0.1081077E+00
         22   -1    0    0    0    0  0.00000000000E+00  0.00000000000E+00  0.10320116897E+04  0.10320116897E+04  0.00000000000E+00 0.  1.
         22   -1    0    0    0    0 -0.00000000000E+00 -0.00000000000E+00 -0.24786196198E+03  0.24786196198E+03  0.00000000000E+00 0. -1.
         24    2    1    2    0    0  0.96183225328E+02 -0.66475440088E+02 -0.19654829129E+03  0.24203847546E+03  0.79253995633E+02 0.  0.
         25    2    1    2    0    0 -0.67186577653E+02 -0.25092150626E+02  0.19658326326E+03  0.24379746877E+03  0.12509426103E+03 0.  0.
        -24    2    1    2    0    0 -0.28996647675E+02  0.91567590714E+02  0.78411475579E+03  0.79403770748E+03  0.80215344034E+02 0.  0.
        -13    1    3    3    0    0  0.22760475138E+02  0.18118294592E+02 -0.36208928018E+02  0.46447801839E+02  0.00000000000E+00 0.  1.
         14    1    3    3    0    0  0.73422750190E+02 -0.84593734680E+02 -0.16033936327E+03  0.19559067362E+03  0.00000000000E+00 0. -1.
         13    1    5    5    0    0 -0.69532166203E+01  0.46078451536E+02  0.13232346596E+03  0.14028923893E+03  0.00000000000E+00 0. -1.
        -14    1    5    5    0    0 -0.22043431055E+02  0.45489139178E+02  0.65179128983E+03  0.65374846855E+03  0.00000000000E+00 0.  1.
          5    1    4    4  501    0 -0.54677520693E+02 -0.66590647406E+02  0.73810634898E+02  0.11353161593E+03  0.41800000000E+01 0. -1.
         -5    1    4    4    0  501 -0.12509056960E+02  0.41498496780E+02  0.12277262836E+03  0.13026585284E+03  0.41800000000E+01 0. -1.
</event>
<event>
11    1  0.8299058E-009  0.1576771E+03  0.7561462E-02  0.1089283E+00
         22   -1    0    0    0    0  0.00000000000E+00  0.00000000000E+00  0.50699439468E+03  0.50699439468E+03  0.00000000000E+00 0.  1.
         22   -1    0    0    0    0 -0.00000000000E+00 -0.00000000000E+00 -0.15234708239E+04  0.15234708239E+04  0.00000000000E+00 0. -1.
         24    2    1    2    0    0  0.34511674248E+01 -0.32185668451E+02 -0.14048811834E+04  0.14073916261E+04  0.77538518127E+02 0.  0.
         25    2    1    2    0    0 -0.97668364489E+02  0.12786601404E+02 -0.50092747199E+02  0.16691277651E+03  0.12509190639E+03 0.  0.
        -24    2    1    2    0    0  0.94217197064E+02  0.19399067047E+02  0.43849750144E+03  0.45616081595E+03  0.80928531496E+02 0.  0.
        -11    1    3    3    0    0 -0.32558776263E+02 -0.10567299501E+02 -0.34881859786E+03  0.35049415964E+03  0.00000000000E+00 0.  1.
         12    1    3    3    0    0  0.36009943688E+02 -0.21618368950E+02 -0.10560625856E+04  0.10568974664E+04  0.00000000000E+00 0. -1.
         11    1    5    5    0    0  0.60708102017E+02  0.50176557415E+02  0.24328188327E+03  0.25571318952E+03  0.00000000000E+00 0. -1.
        -12    1    5    5    0    0  0.33509095047E+02 -0.30777490368E+02  0.19521561817E+03  0.20044762643E+03  0.00000000000E+00 0.  1.
          5    1    4    4  501    0 -0.72655903722E+02  0.36876293946E+02  0.23946528813E+02  0.85027348794E+02  0.41800000000E+01 0.  1.
         -5    1    4    4    0  501 -0.25012460767E+02 -0.24089692542E+02 -0.74039276011E+02  0.81885427719E+02  0.41800000000E+01 0.  1.
</event>
<event>
11    1  0.8299058E-009  0.2073221E+03  0.7561462E-02  0.1049463E+00
         22   -1    0    0    0    0  0.00000000000E+00  0.00000000000E+00  0.14343868337E+04  0.14343868337E+04  0.00000000000E+00 0. -1.
         22   -1    0    0    0    0 -0.00000000000E+00 -0.00000000000E+00 -0.15669307891E+03  0.15669307891E+03  0.00000000000E+00 0. -1.
         24    2    1    2    0    0 -0.78262759443E+02  0.13475071619E+03 -0.16577740408E+01  0.17469042401E+03  0.78937829944E+02 0.  0.
         25    2    1    2    0    0  0.56257094254E+02 -0.18123071115E+03  0.12743418242E+03  0.26056847372E+03  0.12508807828E+03 0.  0.
        -24    2    1    2    0    0  0.22005665189E+02  0.46479994967E+02  0.11519173464E+04  0.11558210149E+04  0.79774722014E+02 0.  0.
        -13    1    3    3    0    0  0.91183800035E+01 -0.40211034886E+01 -0.38531978191E+01  0.10684627302E+02  0.00000000000E+00 0.  1.
         14    1    3    3    0    0 -0.87381139447E+02  0.13877181968E+03  0.21954237783E+01  0.16400579670E+03  0.00000000000E+00 0. -1.
         11    1    5    5    0    0  0.86152921094E+00  0.41756558674E+02  0.10776257865E+04  0.10784348326E+04  0.00000000000E+00 0. -1.
        -12    1    5    5    0    0  0.21144135978E+02  0.47234362928E+01  0.74291559927E+02  0.77386182314E+02  0.00000000000E+00 0.  1.
          5    1    4    4  501    0  0.62515542167E+02 -0.45779730969E+02  0.92003378912E+02  0.12035809450E+03  0.41800000000E+01 0. -1.
         -5    1    4    4    0  501 -0.62584479130E+01 -0.13545098019E+03  0.35430803503E+02  0.14021037922E+03  0.41800000000E+01 0. -1.
</event>
<event>
11    1  0.8299058E-009  0.3380240E+03  0.7561462E-02  0.9852702E-01
         22   -1    0    0    0    0  0.00000000000E+00  0.00000000000E+00  0.33108080156E+03  0.33108080156E+03  0.00000000000E+00 0.  1.
         22   -1    0    0    0    0 -0.00000000000E+00 -0.00000000000E+00 -0.97260629937E+03  0.97260629937E+03  0.00000000000E+00 0. -1.
        -24    2    1    2    0    0  0.73215351721E+02 -0.72450332007E+02 -0.48920944359E+03  0.50506150800E+03  0.71775405446E+02 0.  0.
         25    2    1    2    0    0  0.21500713419E+03 -0.10211363716E+03 -0.31706621696E+03  0.41572573095E+03  0.12506652147E+03 0.  0.
         24    2    1    2    0    0 -0.28822248591E+03  0.17456396917E+03  0.16475016274E+03  0.38289986198E+03  0.76973420496E+02 0.  0.
        -13    1    5    5    0    0 -0.26533690127E+03  0.13544938664E+03  0.12672706907E+03  0.32374366025E+03  0.00000000000E+00 0.  1.
         14    1    5    5    0    0 -0.22885584641E+02  0.39114582522E+02  0.38023093674E+02  0.59156201727E+02  0.00000000000E+00 0. -1.
         11    1    3    3    0    0  0.51954244139E+02 -0.46019478220E+02 -0.43909512901E+03  0.44454647471E+03  0.00000000000E+00 0. -1.
        -12    1    3    3    0    0  0.21261107582E+02 -0.26430853787E+02 -0.50114314582E+02  0.60515033286E+02  0.00000000000E+00 0.  1.
          5    1    4    4  501    0  0.11830201900E+03 -0.12167347315E+03 -0.18979165840E+03  0.25463335949E+03  0.41800000000E+01 0. -1.
         -5    1    4    4    0  501  0.96705115183E+02  0.19559835986E+02 -0.12727455856E+03  0.16109237146E+03  0.41800000000E+01 0. -1.
</event>
<event>
11    1  0.8299058E-009  0.1323623E+03  0.7561462E-02  0.1116400E+00
         22   -1    0    0    0    0  0.00000000000E+00  0.00000000000E+00  0.90900577438E+03  0.90900577438E+03  0.00000000000E+00 0.  1.
         22   -1    0    0    0    0 -0.00000000000E+00 -0.00000000000E+00 -0.58841499231E+02  0.58841499231E+02  0.00000000000E+00 0.  1.
         24    2    1    2    0    0  0.30266568657E+02 -0.24569275225E+02  0.24751424658E+02  0.92832101114E+02  0.80532301043E+02 0.  0.
         25    2    1    2    0    0 -0.32858036913E+02  0.52872515811E+02  0.20222421992E+03  0.24579096902E+03  0.12507362556E+03 0.  0.
        -24    2    1    2    0    0  0.25914682559E+01 -0.28303240586E+02  0.62318863057E+03  0.62922420348E+03  0.82165928667E+02 0.  0.
        -11    1    3    3    0    0 -0.34409386382E+01 -0.69980442418E+01 -0.27292274449E+02  0.28384519135E+02  0.00000000000E+00 0.  1.
         12    1    3    3    0    0  0.33707507296E+02 -0.17571230983E+02  0.52043699107E+02  0.64447581980E+02  0.00000000000E+00 0. -1.
         13    1    5    5    0    0  0.20877331287E+02 -0.23956886976E+02  0.85614778035E+02  0.91321879160E+02  0.00000000000E+00 0. -1.
        -14    1    5    5    0    0 -0.18285863031E+02 -0.43463536099E+01  0.53757385254E+03  0.53790232432E+03  0.00000000000E+00 0.  1.
          5    1    4    4  501    0 -0.59709200660E+01 -0.39555332296E+02  0.85119878837E+02  0.94144263621E+02  0.41800000000E+01 0.  1.
         -5    1    4    4    0  501 -0.26887116847E+02  0.92427848107E+02  0.11710434109E+03  0.15164670540E+03  0.41800000000E+01 0.  1.
</event>
<event>
11    1  0.8299058E-009  0.1470552E+03  0.7561462E-02  0.1099926E+00
         22   -1    0    0    0    0  0.00000000000E+00  0.00000000000E+00  0.20621771849E+03  0.20621771849E+03  0.00000000000E+00 0. -1.
         22   -1    0    0    0    0 -0.00000000000E+00 -0.00000000000E+00 -0.50849870848E+03  0.50849870848E+03  0.00000000000E+00 0. -1.
        -24    2    1    2    0    0  0.89303215334E+01  0.83763911670E+02 -0.33558953336E+03  0.35562990770E+03  0.82195819888E+02 0.  0.
         25    2    1    2    0    0 -0.68708977170E+02 -0.38386355198E+02 -0.10587953140E+03  0.18180462125E+03  0.12509200345E+03 0.  0.
         24    2    1    2    0    0  0.59778655637E+02 -0.45377556471E+02  0.13918807477E+03  0.17728189802E+03  0.80143252407E+02 0.  0.
        -11    1    5    5    0    0  0.30584407106E+02 -0.12141596602E+02  0.18088979480E+01  0.32955977270E+02  0.00000000000E+00 0.  1.
         12    1    5    5    0    0  0.29194248531E+02 -0.33235959870E+02  0.13737917683E+03  0.14432592075E+03  0.00000000000E+00 0. -1.
         13    1    3    3    0    0 -0.31315985264E+02  0.87839548489E+01 -0.87298747994E+02  0.93160722395E+02  0.00000000000E+00 0. -1.
        -14    1    3    3    0    0  0.40246306797E+02  0.74979956821E+02 -0.24829078536E+03  0.26246918530E+03  0.00000000000E+00 0.  1.
          5    1    4    4  501    0 -0.59777854066E+02  0.36581825633E+02 -0.65813455508E+02  0.96231518378E+02  0.41800000000E+01 0.  1.
         -5    1    4    4    0  501 -0.89311231044E+01 -0.74968180832E+02 -0.40066075897E+02  0.85573102870E+02  0.41800000000E+01 0.  1.
</event>
<event>
11    1  0.8299058E-009  0.1325566E+03  0.7561462E-02  0.1116167E+00
         22   -1    0    0    0    0  0.00000000000E+00  0.00000000000E+00  0.10887500732E+03  0.10887500732E+03  0.00000000000E+00 0. -1.
         22   -1    0    0    0    0 -0.00000000000E+00 -0.00000000000E+00 -0.57254767025E+03  0.57254767025E+03  0.00000000000E+00 0.  1.
         24    2    1    2    0    0 -0.15563240136E+02 -0.21618459321E+02 -0.43270858249E+03  0.44075634498E+03  0.79497585218E+02 0.  0.
         25    2    1    2    0    0  0.45345047553E+02  0.43794867133E+02 -0.51103314733E+02  0.14910842012E+03  0.12509040111E+03 0.  0.
        -24    2    1    2    0    0 -0.29781807417E+02 -0.22176407812E+02  0.20139234288E+02  0.91557912463E+02  0.81231234513E+02 0.  0.
        -13    1    3    3    0    0  0.10086340020E+01 -0.50274777682E+02 -0.23804005961E+03  0.24329332213E+03  0.00000000000E+00 0.  1.
         14    1    3    3    0    0 -0.16571874138E+02  0.28656318360E+02 -0.19466852287E+03  0.19746302285E+03  0.00000000000E+00 0. -1.
         13    1    5    5    0    0 -0.23464060476E+02 -0.29302300328E+02  0.48678420404E+02  0.61471745962E+02  0.00000000000E+00 0. -1.
        -14    1    5    5    0    0 -0.63177469409E+01  0.71258925160E+01 -0.28539186116E+02  0.30086166501E+02  0.00000000000E+00 0.  1.
          5    1    4    4  501    0  0.39679491478E+02  0.86918851339E+02 -0.42102088715E+02  0.10449596660E+03  0.41800000000E+01 0. -1.
         -5    1    4    4    0  501  0.56655560751E+01 -0.43123984205E+02 -0.90012260181E+01  0.44612453521E+02  0.41800000000E+01 0. -1.
</event>
<event>
11    1  0.8299058E-009  0.1393460E+03  0.7561462E-02  0.1108291E+00
         22   -1    0    0    0    0  0.00000000000E+00  0.00000000000E+00  0.10192124199E+03  0.10192124199E+03  0.00000000000E+00 0. -1.
         22   -1    0    0    0    0 -0.00000000000E+00 -0.00000000000E+00 -0.26017334363E+04  0.26017334363E+04  0.00000000000E+00 0. -1.
        -24    2    1    2    0    0  0.25801743206E+02 -0.24591856369E+02 -0.22799799418E+04  0.22818304520E+04  0.84682863731E+02 0.  0.
         25    2    1    2    0    0  0.57626883845E+01  0.76038970451E+02 -0.26348155373E+03  0.30147293639E+03  0.12509303982E+03 0.  0.
         24    2    1    2    0    0 -0.31564431591E+02 -0.51447114082E+02  0.43649301216E+02  0.12035128989E+03  0.94530696563E+02 0.  0.
        -13    1    5    5    0    0  0.19180648487E+02  0.61608439724E+01 -0.13839468486E+02  0.24441443550E+02  0.00000000000E+00 0.  1.
         14    1    5    5    0    0 -0.50745080078E+02 -0.57607958055E+02  0.57488769702E+02  0.95909846341E+02  0.00000000000E+00 0. -1.
         13    1    3    3    0    0 -0.20924232400E+02  0.10249674231E+02 -0.12396998683E+04  0.12399188049E+04  0.00000000000E+00 0. -1.
        -14    1    3    3    0    0  0.46725975607E+02 -0.34841530599E+02 -0.10402800735E+04  0.10419116471E+04  0.00000000000E+00 0.  1.
          5    1    4    4  501    0  0.33346583668E+02  0.24045162461E+02 -0.11811842434E+02  0.42978558628E+02  0.41800000000E+01 0. -1.
         -5    1    4    4    0  501 -0.27583895283E+02  0.51993807990E+02 -0.25166971130E+03  0.25849437776E+03  0.41800000000E+01 0. -1.
</event>
<event>
11    1  0.8299058E-009  0.1399816E+03  0.7561462E-02  0.1107579E+00
         22   -1    0    0    0    0  0.00000000000E+00  0.00000000000E+00  0.19913453614E+03  0.19913453614E+03  0.00000000000E+00 0.  1.
         22   -1    0    0    0    0 -0.00000000000E+00 -0.00000000000E+00 -0.98127686929E+03  0.98127686929E+03  0.00000000000E+00 0.  1.
         24    2    1    2    0    0  0.17002271820E+02 -0.43913292142E+02 -0.81054281956E+03  0.81587049374E+03  0.80296610950E+02 0.  0.
         25    2    1    2    0    0 -0.78130730170E+02  0.37346351601E+02 -0.11351408977E+03  0.18982081705E+03  0.12508930024E+03 0.  0.
        -24    2    1    2    0    0  0.61128458351E+02  0.65669405414E+01  0.14191457618E+03  0.17472009465E+03  0.81286846495E+02 0.  0.
        -11    1    3    3    0    0  0.22102145587E+02 -0.65197132477E+02 -0.68330262098E+03  0.68676170741E+03  0.00000000000E+00 0.  1.
         12    1    3    3    0    0 -0.50998737669E+01  0.21283840335E+02 -0.12724019858E+03  0.12910878633E+03  0.00000000000E+00 0. -1.
         13    1    5    5    0    0  0.35325308314E+02  0.20704843439E+02  0.13706295754E+02  0.43179051548E+02  0.00000000000E+00 0. -1.
        -14    1    5    5    0    0  0.25803150036E+02 -0.14137902897E+02  0.12820828042E+03  0.13154104310E+03  0.00000000000E+00 0.  1.
          5    1    4    4  501    0 -0.93837977193E+02  0.57839710231E+02 -0.11987038331E+03  0.16290297492E+03  0.41800000000E+01 0.  1.
         -5    1    4    4    0  501  0.15707247023E+02 -0.20493358630E+02  0.63562935452E+01  0.26917842124E+02  0.41800000000E+01 0.  1.
</event>
<event>
11    1  0.8299058E-009  0.1992891E+03  0.7561462E-02  0.1055028E+00
         22   -1    0    0    0    0  0.00000000000E+00  0.00000000000E+00  0.21715334198E+03  0.21715334198E+03  0.00000000000E+00 0.  1.
         22   -1    0    0    0    0 -0.00000000000E+00 -0.00000000000E+00 -0.21882693089E+04  0.21882693089E+04  0.00000000000E+00 0. -1.
         24    2    1    2    0    0 -0.19993946328E+02  0.10794611127E+02 -0.18498150109E+04  0.18517368941E+04  0.81226034847E+02 0.  0.
         25    2    1    2    0    0  0.17134423982E+03  0.10806002146E+02 -0.25783949874E+03  0.33407209300E+03  0.12508932012E+03 0.  0.
        -24    2    1    2    0    0 -0.15135029350E+03 -0.21600613273E+02  0.13653854274E+03  0.21961366380E+03  0.78828229961E+02 0.  0.
        -11    1    3    3    0    0  0.57620034307E+01  0.29097494083E+02 -0.27324927461E+03  0.27485456321E+03  0.00000000000E+00 0.  1.
         12    1    3    3    0    0 -0.25755949759E+02 -0.18302882956E+02 -0.15765657363E+04  0.15768823309E+04  0.00000000000E+00 0. -1.
         13    1    5    5    0    0 -0.13816337106E+03 -0.34832588408E+02  0.87673125642E+02  0.16729914309E+03  0.00000000000E+00 0. -1.
        -14    1    5    5    0    0 -0.13186922437E+02  0.13231975134E+02  0.48865417097E+02  0.52314520713E+02  0.00000000000E+00 0.  1.
          5    1    4    4  501    0  0.86375191080E+01  0.41357233438E+02 -0.83158887758E+02  0.93369698014E+02  0.41800000000E+01 0.  1.
         -5    1    4    4    0  501  0.16270672072E+03 -0.30551231292E+02 -0.17468061098E+03  0.24070239499E+03  0.41800000000E+01 0.  1.
</event>
<event>
11    1  0.8299058E-009  0.1634684E+03  0.7561462E-02  0.1083860E+00
         22   -1    0    0    0    0  0.00000000000E+00  0.00000000000E+00  0.10108190838E+04  0.10108190838E+04  0.00000000000E+00 0.  1.
         22   -1    0    0    0    0 -0.00000000000E+00 -0.00000000000E+00 -0.30708069769E+03  0.30708069769E+03  0.00000000000E+00 0. -1.
         24    2    1    2    0    0  0.50654831013E+01 -0.26557832184E+02 -0.26511782777E+03  0.27847382559E+03  0.80803659371E+02 0.  0.
         25    2    1    2    0    0  0.40808063419E+02 -0.73655804339E+02  0.17032222472E+03  0.22748245369E+03  0.12509248958E+03 0.  0.
        -24    2    1    2    0    0 -0.45873546520E+02  0.10021363652E+03  0.79853398917E+03  0.81194350223E+03  0.97203722871E+02 0.  0.
        -13    1    3    3    0    0 -0.26267447489E+01  0.36416232664E+01  0.49100787423E+01  0.66535765755E+01  0.00000000000E+00 0.  1.
         14    1    3    3    0    0  0.76922278502E+01 -0.30199455450E+02 -0.27002790651E+03  0.27182024901E+03  0.00000000000E+00 0. -1.
         11    1    5    5    0    0 -0.45238948728E+02  0.84143669984E+02  0.34107068064E+03  0.35419758451E+03  0.00000000000E+00 0. -1.
        -12    1    5    5    0    0 -0.63459779148E+00  0.16069966538E+02  0.45746330853E+03  0.45774591772E+03  0.00000000000E+00 0.  1.
          5    1    4    4  501    0 -0.38502444730E+02 -0.30085501472E+02  0.10472452847E+03  0.11563855288E+03  0.41800000000E+01 0. -1.
         -5    1    4    4    0  501  0.79310508148E+02 -0.43570302866E+02  0.65597696242E+02  0.11184390080E+03  0.41800000000E+01 0. -1.
</event>
<event>
11    1  0.8299058E-009  0.1793739E+03  0.7561462E-02  0.1070150E+00
         22   -1    0    0    0    0  0.00000000000E+00  0.00000000000E+00  0.31249390178E+04  0.31249390178E+04  0.00000000000E+00 0.  1.
         22   -1    0    0    0    0 -0.00000000000E+00 -0.00000000000E+00 -0.74992648278E+03  0.74992648278E+03  0.00000000000E+00 0.  1.
        -24    2    1    2    0    0  0.13013523422E+03 -0.12223195573E+02 -0.71766405777E+03  0.73385911000E+03  0.80143046055E+02 0.  0.
         25    2    1    2    0    0 -0.65967476246E+02  0.31226808755E+02  0.20246012855E+03  0.24892637680E+03  0.12508963149E+03 0.  0.
         24    2    1    2    0    0 -0.64167757975E+02 -0.19003613182E+02  0.28902164643E+04  0.28920800138E+04  0.79353370777E+02 0.  0.
        -11    1    5    5    0    0 -0.57257950706E+02 -0.27682765415E+02  0.28373214824E+04  0.28380341793E+04  0.00000000000E+00 0.  1.
         12    1    5    5    0    0 -0.69098072690E+01  0.86791522332E+01  0.52894981856E+02  0.54045834488E+02  0.00000000000E+00 0. -1.
         13    1    3    3    0    0  0.14781593988E+02 -0.18958945056E+02 -0.42066583907E+02  0.48451363242E+02  0.00000000000E+00 0. -1.
        -14    1    3    3    0    0  0.11535364023E+03  0.67357494828E+01 -0.67559747386E+03  0.68540774676E+03  0.00000000000E+00 0.  1.
          5    1    4    4  501    0 -0.15591444991E+02  0.75537567000E+02  0.99458684298E+02  0.12593061370E+03  0.41800000000E+01 0.  1.
         -5    1    4    4    0  501 -0.50376031255E+02 -0.44310758245E+02  0.10300144425E+03  0.12299576309E+03  0.41800000000E+01 0.  1.
</event>
<event>
11    1  0.8299058E-009  0.1548100E+03  0.7561462E-02  0.1092063E+00
         22   -1    0    0    0    0  0.00000000000E+00  0.00000000000E+00  0.83670072874E+03  0.83670072874E+03  0.00000000000E+00 0. -1.
         22   -1    0    0    0    0 -0.00000000000E+00 -0.00000000000E+00 -0.33598624316E+03  0.33598624316E+03  0.00000000000E+00 0.  1.
        -24    2    1    2    0    0 -0.50471274557E+02 -0.73798016885E+02 -0.28407221039E+03  0.30882054496E+03  0.81728889774E+02 0.  0.
         25    2    1    2    0    0  0.41756932051E+02  0.12107982173E+03  0.18832580536E+03  0.25984168750E+03  0.12508848464E+03 0.  0.
         24    2    1    2    0    0  0.87143425057E+01 -0.47281804848E+02  0.59646089061E+03  0.60402473944E+03  0.82272613861E+02 0.  0.
        -13    1    5    5    0    0  0.94955941708E+01 -0.40972091251E+02  0.11381975607E+03  0.12134173001E+03  0.00000000000E+00 0.  1.
         14    1    5    5    0    0 -0.78125166518E+00 -0.63097135964E+01  0.48264113455E+03  0.48268300944E+03  0.00000000000E+00 0. -1.
         13    1    3    3    0    0  0.10342221937E+02  0.89802862350E+01 -0.12775685593E+02  0.18730329357E+02  0.00000000000E+00 0. -1.
        -14    1    3    3    0    0 -0.60813496494E+02 -0.82778303120E+02 -0.27129652480E+03  0.29009021560E+03  0.00000000000E+00 0.  1.
          5    1    4    4  501    0  0.51740751088E+02  0.13761990358E+03  0.12346250074E+03  0.19203334261E+03  0.41800000000E+01 0.  1.
         -5    1    4    4    0  501 -0.99838190366E+01 -0.16540081844E+02  0.64863304625E+02  0.67808344891E+02  0.41800000000E+01 0.  1.
</event>
<event>
11    1  0.8299058E-009  0.1383074E+03  0.7561462E-02  0.1109463E+00
         22   -1    0    0    0    0  0.00000000000E+00  0.00000000000E+00  0.37861340684E+02  0.37861340684E+02  0.00000000000E+00 0.  1.
         22   -1    0    0    0    0 -0.00000000000E+00 -0.00000000000E+00 -0.28293871870E+04  0.28293871870E+04  0.00000000000E+00 0.  1.
         24    2    1    2    0    0 -0.30320961106E+01 -0.14807581277E+02 -0.12469104340E+04  0.12496133845E+04  0.80743558415E+02 0.  0.
         25    2    1    2    0    0  0.65121066716E+01  0.73003133142E+02 -0.15028486618E+04  0.15098254997E+04  0.12508826661E+03 0.  0.
        -24    2    1    2    0    0 -0.34800105610E+01 -0.58195551866E+02 -0.41766750519E+02  0.10780964344E+03  0.80496118162E+02 0.  0.
        -13    1    3    3    0    0  0.30789599718E+02 -0.35987950267E+01 -0.95980432794E+03  0.96030479469E+03  0.00000000000E+00 0.  1.
         14    1    3    3    0    0 -0.33821695829E+02 -0.11208786250E+02 -0.28710610610E+03  0.28930858984E+03  0.00000000000E+00 0. -1.
         13    1    5    5    0    0  0.15197173367E+02  0.86360043096E+01 -0.33682589760E+02  0.37948010511E+02  0.00000000000E+00 0. -1.
        -14    1    5    5    0    0 -0.18677183929E+02 -0.66831556175E+02 -0.80841607591E+01  0.69861632929E+02  0.00000000000E+00 0.  1.
          5    1    4    4  501    0 -0.16303353179E+02 -0.16533163618E+02 -0.86340103362E+03  0.86372331338E+03  0.41800000000E+01 0. -1.
         -5    1    4    4    0  501  0.22815459850E+02  0.89536296760E+02 -0.63944762816E+03  0.64610218635E+03  0.41800000000E+01 0. -1.
</event>
<event>
11    1  0.8299058E-009  0.1447283E+03  0.7561462E-02  0.1102390E+00
         22   -1    0    0    0    0  0.00000000000E+00  0.00000000000E+00  0.29863882149E+03  0.29863882149E+03  0.00000000000E+00 0. -1.
         22   -1    0    0    0    0 -0.00000000000E+00 -0.00000000000E+00 -0.60018064168E+03  0.60018064168E+03  0.00000000000E+00 0. -1.
        -24    2    1    2    0    0 -0.71243437015E+02 -0.25207470207E+01 -0.52127672366E+03  0.53224105946E+03  0.80430972042E+02 0.  0.
         25    2    1    2    0    0  0.10107939645E+03  0.98888338155E+01  0.41422140406E+02  0.16636586783E+03  0.12508786848E+03 0.  0.
         24    2    1    2    0    0 -0.29835959438E+02 -0.73680867948E+01  0.17831276307E+03  0.20021253587E+03  0.85703820628E+02 0.  0.
        -11    1    5    5    0    0  0.26506451626E+02 -0.18514257192E+02  0.48837655892E+02  0.58570353680E+02  0.00000000000E+00 0.  1.
         12    1    5    5    0    0 -0.56342411063E+02  0.11146170397E+02  0.12947510717E+03  0.14164218219E+03  0.00000000000E+00 0. -1.
         11    1    3    3    0    0 -0.13595295276E+02  0.15286147983E+02 -0.35091100474E+03  0.35150680167E+03  0.00000000000E+00 0. -1.
        -12    1    3    3    0    0 -0.57648141740E+02 -0.17806895003E+02 -0.17036571892E+03  0.18073425779E+03  0.00000000000E+00 0.  1.
          5    1    4    4  501    0 -0.21979624155E+02  0.11045839647E+02  0.35104212372E+02  0.43068463842E+02  0.41800000000E+01 0.  1.
         -5    1    4    4    0  501  0.12305902061E+03 -0.11570058318E+01  0.63179280339E+01  0.12329740399E+03  0.41800000000E+01 0.  1.
</event>
<event>
11    1  0.8299058E-009  0.2920108E+03  0.7561462E-02  0.1003630E+00
         22   -1    0    0    0    0  0.00000000000E+00  0.00000000000E+00  0.61684091519E+03  0.61684091519E+03  0.00000000000E+00 0.  1.
         22   -1    0    0    0    0 -0.00000000000E+00 -0.00000000000E+00 -0.36758051490E+03  0.36758051490E+03  0.00000000000E+00 0. -1.
         24    2    1    2    0    0  0.86419222193E+01 -0.77147506818E+02 -0.18469504575E+03  0.21623056090E+03  0.81344790339E+02 0.  0.
         25    2    1    2    0    0 -0.29271753761E+02  0.31878329210E+03  0.12261632765E+03  0.36491316582E+03  0.12508889595E+03 0.  0.
        -24    2    1    2    0    0  0.20629831542E+02 -0.24163578528E+03  0.31133911838E+03  0.40327770338E+03  0.82990461687E+02 0.  0.
        -13    1    3    3    0    0 -0.26980658557E+02 -0.12831033780E+02 -0.98535356213E+02  0.10296508043E+03  0.00000000000E+00 0.  1.
         14    1    3    3    0    0  0.35622580776E+02 -0.64316473038E+02 -0.86159689535E+02  0.11326548047E+03  0.00000000000E+00 0. -1.
         13    1    5    5    0    0  0.22622407935E+02 -0.16787549047E+02  0.58414928980E+02  0.64852903339E+02  0.00000000000E+00 0. -1.
        -14    1    5    5    0    0 -0.19925763933E+01 -0.22484823623E+03  0.25292418940E+03  0.33842480004E+03  0.00000000000E+00 0.  1.
          5    1    4    4  501    0  0.39746684306E+02  0.40302752680E+02  0.19995266444E+02  0.60178018138E+02  0.41800000000E+01 0. -1.
         -5    1    4    4    0  501 -0.69018438067E+02  0.27848053942E+03  0.10262106121E+03  0.30473514768E+03  0.41800000000E+01 0. -1.
</event>
<event>
11    1  0.8299058E-009  0.1759870E+03  0.7561462E-02  0.1072936E+00
         22   -1    0    0    0    0  0.00000000000E+00  0.00000000000E+00  0.14915886025E+04  0.14915886025E+04  0.00000000000E+00 0. -1.
         22   -1    0    0    0    0 -0.00000000000E+00 -0.00000000000E+00 -0.22873264458E+03  0.22873264458E+03  0.00000000000E+00 0.  1.
        -24    2    1    2    0    0  0.38380723462E+02 -0.47240552864E+02 -0.18489200759E+03  0.21079286021E+03  0.80893916183E+02 0.  0.
         25    2    1    2    0    0 -0.14242512110E+03 -0.16897873035E+02  0.32026691594E+03  0.37254503567E+03  0.12509377652E+03 0.  0.
         24    2    1    2    0    0  0.10404439764E+03  0.64138425900E+02  0.11274810495E+04  0.11369833512E+04  0.81108873702E+02 0.  0.
        -13    1    5    5    0    0  0.38776139913E+02  0.71156343103E+02  0.62897886484E+03  0.63417759863E+03  0.00000000000E+00 0.  1.
         14    1    5    5    0    0  0.65268257725E+02 -0.70179172028E+01  0.49850218469E+03  0.50280575253E+03  0.00000000000E+00 0. -1.
         11    1    3    3    0    0 -0.37051001447E+01  0.19633187763E+02 -0.57644907814E+02  0.61009222464E+02  0.00000000000E+00 0. -1.
        -12    1    3    3    0    0  0.42085823606E+02 -0.66873740628E+02 -0.12724709978E+03  0.14978363775E+03  0.00000000000E+00 0.  1.
          5    1    4    4  501    0  0.20411213125E+02  0.54248002821E+01  0.16451100555E+02  0.27095335185E+02  0.41800000000E+01 0.  1.
         -5    1    4    4    0  501 -0.16283633422E+03 -0.22322673317E+02  0.30381581538E+03  0.34544970048E+03  0.41800000000E+01 0.  1.
</event>
<event>
11    1  0.8299058E-009  0.1491097E+03  0.7561462E-02  0.1097792E+00
         22   -1    0    0    0    0  0.00000000000E+00  0.00000000000E+00  0.15721069239E+04  0.15721069239E+04  0.00000000000E+00 0.  1.
         22   -1    0    0    0    0 -0.00000000000E+00 -0.00000000000E+00 -0.99533718975E+02  0.99533718975E+02  0.00000000000E+00 0.  1.
        -24    2    1    2    0    0  0.82292101589E+02 -0.28702576597E+02 -0.19040586859E+02  0.11971448506E+03  0.79832237213E+02 0.  0.
         25    2    1    2    0    0 -0.69877503363E+02 -0.38987351464E+02  0.16869850577E+03  0.22474724618E+03  0.12509700144E+03 0.  0.
         24    2    1    2    0    0 -0.12414598227E+02  0.67689928061E+02  0.13229152860E+04  0.13271789116E+04  0.81012103347E+02 0.  0.
        -13    1    5    5    0    0 -0.28339640568E+01  0.57087954694E+02  0.12903633849E+04  0.12916287125E+04  0.00000000000E+00 0.  1.
         14    1    5    5    0    0 -0.95806341699E+01  0.10601973368E+02  0.32551901143E+02  0.35550199133E+02  0.00000000000E+00 0. -1.
         13    1    3    3    0    0  0.74769030293E+01 -0.37380824482E+02  0.93047009974E+01  0.39240381988E+02  0.00000000000E+00 0. -1.
        -14    1    3    3    0    0  0.74815198560E+02  0.86782478855E+01 -0.28345287856E+02  0.80474103074E+02  0.00000000000E+00 0.  1.
          5    1    4    4  501    0 -0.78742019092E+02  0.22738239991E+02  0.12064245295E+03  0.14590889960E+03  0.41800000000E+01 0.  1.
         -5    1    4    4    0  501  0.88645157297E+01 -0.61725591456E+02  0.48056052820E+02  0.78838346586E+02  0.41800000000E+01 0.  1.
</event>
<event>
11    1  0.8299058E-009  0.1480719E+03  0.7561462E-02  0.1098865E+00
         22   -1    0    0    0    0  0.00000000000E+00  0.00000000000E+00  0.13910273551E+04  0.13910273551E+04  0.00000000000E+00 0.  1.
         22   -1    0    0    0    0 -0.00000000000E+00 -0.00000000000E+00 -0.70080610092E+03  0.70080610092E+03  0.00000000000E+00 0.  1.
         24    2    1    2    0    0 -0.85114859983E+00 -0.65376138036E+02 -0.62927522698E+03  0.63781943571E+03  0.80941691366E+02 0.  0.
         25    2    1    2    0    0 -0.22684974112E+02  0.13858210843E+03  0.71879648973E+02  0.20132887969E+03  0.12508806911E+03 0.  0.
        -24    2    1    2    0    0  0.23536122712E+02 -0.73205970391E+02  0.12476168322E+04  0.12526851406E+04  0.82214587336E+02 0.  0.
        -13    1    3    3    0    0 -0.40233899674E+02 -0.29189448404E+02 -0.34418266159E+03  0.34775349764E+03  0.00000000000E+00 0.  1.
         14    1    3    3    0    0  0.39382751074E+02 -0.36186689632E+02 -0.28509256539E+03  0.29006593807E+03  0.00000000000E+00 0. -1.
         13    1    5    5    0    0  0.31804540846E+02 -0.55309302178E+02  0.41863311379E+03  0.42346703731E+03  0.00000000000E+00 0. -1.
        -14    1    5    5    0    0 -0.82684181343E+01 -0.17896668213E+02  0.82898371837E+03  0.82921810328E+03  0.00000000000E+00 0.  1.
          5    1    4    4  501    0 -0.39145759545E+02  0.11515730947E+03 -0.22828838971E+01  0.12172214414E+03  0.41800000000E+01 0.  1.
         -5    1    4    4    0  501  0.16460785433E+02  0.23424798953E+02  0.74162532870E+02  0.79606735549E+02  0.41800000000E+01 0.  1.
</event>
<event>
11    1  0.8299058E-009  0.1528706E+03  0.7561462E-02  0.1093981E+00
         22   -1    0    0    0    0  0.00000000000E+00  0.00000000000E+00  0.45573992026E+03  0.45573992026E+03  0.00000000000E+00 0.  1.
         22   -1    0    0    0    0 -0.00000000000E+00 -0.00000000000E+00 -0.75512844050E+03  0.75512844050E+03  0.00000000000E+00 0. -1.
        -24    2    1    2    0    0 -0.59077354205E+02 -0.62847819051E+02 -0.65664749741E+03  0.66713924853E+03  0.80304787794E+02 0.  0.
         25    2    1    2    0    0  0.51904375176E+02  0.10734859621E+03 -0.21024327650E+01  0.17282954500E+03  0.12509135115E+03 0.  0.
         24    2    1    2    0    0  0.71729790298E+01 -0.44500777159E+02  0.35936140994E+03  0.37089956722E+03  0.79963086567E+02 0.  0.
        -13    1    5    5    0    0 -0.26620439203E+02 -0.41537740744E+02  0.28402221893E+03  0.28827530684E+03  0.00000000000E+00 0.  1.
         14    1    5    5    0    0  0.33793418233E+02 -0.29630364146E+01  0.75339191010E+02  0.82624260376E+02  0.00000000000E+00 0. -1.
         13    1    3    3    0    0 -0.35915172046E+02 -0.77221678594E+02 -0.56935709467E+03  0.57569140039E+03  0.00000000000E+00 0. -1.
        -14    1    3    3    0    0 -0.23162182160E+02  0.14373859544E+02 -0.87290402738E+02  0.91447848147E+02  0.00000000000E+00 0.  1.
          5    1    4    4  501    0  0.62481488386E+01  0.11720577857E+03 -0.25860243877E+02  0.12025996220E+03  0.41800000000E+01 0.  1.
         -5    1    4    4    0  501  0.45656226337E+02 -0.98571823633E+01  0.23757811112E+02  0.52569582805E+02  0.41800000000E+01 0.  1.
</event>
<event>
11    1  0.8299058E-009  0.1429101E+03  0.7561462E-02  0.1104352E+00
         22   -1    0    0    0    0  0.00000000000E+00  0.00000000000E+00  0.55310435053E+02  0.55310435053E+02  0.00000000000E+00 0. -1.
         22   -1    0    0    0    0 -0.00000000000E+00 -0.00000000000E+00 -0.13464470719E+04  0.13464470719E+04  0.00000000000E+00 0.  1.
         24    2    1    2    0    0 -0.23970023295E+01  0.13569173761E+02 -0.10536731804E+04  0.10568385546E+04  0.80564825603E+02 0.  0.
         25    2    1    2    0    0 -0.20008923126E+02  0.57440085972E+02 -0.14934575917E+03  0.20409137495E+03  0.12509761416E+03 0.  0.
        -24    2    1    2    0    0  0.22405925455E+02 -0.71009259733E+02 -0.88117697194E+02  0.14082757740E+03  0.80767181043E+02 0.  0.
        -11    1    3    3    0    0 -0.33263930890E+02  0.27126255398E+02 -0.76504993175E+03  0.76625303974E+03  0.00000000000E+00 0.  1.
         12    1    3    3    0    0  0.30866928560E+02 -0.13557081638E+02 -0.28862324868E+03  0.29058551482E+03  0.00000000000E+00 0. -1.
         11    1    5    5    0    0 -0.26929497783E+02 -0.12461061666E+02 -0.96657845925E+01  0.31207423804E+02  0.00000000000E+00 0. -1.
        -12    1    5    5    0    0  0.49335423239E+02 -0.58548198067E+02 -0.78451912602E+02  0.10962015359E+03  0.00000000000E+00 0.  1.
          5    1    4    4  501    0 -0.53359692483E+02  0.77037015900E+01 -0.13036209382E+03  0.14113239070E+03  0.41800000000E+01 0.  1.
         -5    1    4    4    0  501  0.33350769357E+02  0.49736384382E+02 -0.18983665351E+02  0.62958984254E+02  0.41800000000E+01 0.  1.
</event>
<event>
11    1  0.8299058E-009  0.1432331E+03  0.7561462E-02  0.1104001E+00
         22   -1    0    0    0    0  0.00000000000E+00  0.00000000000E+00  0.26790399822E+03  0.26790399822E+03  0.00000000000E+00 0.  1.
         22   -1    0    0    0    0 -0.00000000000E+00 -0.00000000000E+00 -0.89538926781E+03  0.89538926781E+03  0.00000000000E+00 0. -1.
        -24    2    1    2    0    0 -0.41520816435E+01  0.15129238940E+02 -0.80409818929E+03  0.80841172507E+03  0.81911449544E+02 0.  0.
         25    2    1    2    0    0  0.63955036321E+02 -0.47531650724E+02 -0.14830835967E+01  0.14832056301E+03  0.12508910977E+03 0.  0.
         24    2    1    2    0    0 -0.59802954678E+02  0.32402411784E+02  0.17809600329E+03  0.20656097795E+03  0.79516926166E+02 0.  0.
        -11    1    5    5    0    0 -0.30119106782E+02  0.30401349806E+02  0.17059214788E+03  0.17587803610E+03  0.00000000000E+00 0.  1.
         12    1    5    5    0    0 -0.29683847896E+02  0.20010619780E+01  0.75038554138E+01  0.30682941857E+02  0.00000000000E+00 0. -1.
         13    1    3    3    0    0  0.32628129486E+02 -0.95765700177E+00 -0.56701526327E+03  0.56795406568E+03  0.00000000000E+00 0. -1.
        -14    1    3    3    0    0 -0.36780211129E+02  0.16086895942E+02 -0.23708292602E+03  0.24045765939E+03  0.00000000000E+00 0.  1.
          5    1    4    4  501    0  0.81782614748E+02  0.10513366554E+02  0.17830608261E+02  0.84464962808E+02  0.41800000000E+01 0.  1.
         -5    1    4    4    0  501 -0.17827578427E+02 -0.58045017278E+02 -0.19313691858E+02  0.63855600198E+02  0.41800000000E+01 0.  1.
</event>
<event>
11    1  0.8299058E-009  0.2421370E+03  0.7561462E-02  0.1028173E+00
         22   -1    0    0    0    0  0.00000000000E+00  0.00000000000E+00  0.39715986752E+03  0.39715986752E+03  0.00000000000E+00 0. -1.
         22   -1    0    0    0    0 -0.00000000000E+00 -0.00000000000E+00 -0.43478407374E+03  0.43478407374E+03  0.00000000000E+00 0. -1.
         24    2    1    2    0    0  0.26891689178E+03  0.66111118876E+02 -0.22286943586E+03  0.36476244140E+03  0.81816126119E+02 0.  0.
         25    2    1    2    0    0 -0.13509520929E+03 -0.86019850388E+01 -0.38664455020E+02  0.18832602182E+03  0.12508813170E+03 0.  0.
        -24    2    1    2    0    0 -0.13382168248E+03 -0.57509133837E+02  0.22390968466E+03  0.27885547804E+03  0.80058026280E+02 0.  0.
        -11    1    3    3    0    0  0.49013637710E+02 -0.50728914438E+01 -0.77090171246E+02  0.91492980124E+02  0.00000000000E+00 0.  1.
         12    1    3    3    0    0  0.21990325407E+03  0.71184010319E+02 -0.14577926461E+03  0.27326946127E+03  0.00000000000E+00 0. -1.
         11    1    5    5    0    0 -0.38383322765E+02 -0.50888957622E+02  0.13006245566E+03  0.14484200995E+03  0.00000000000E+00 0. -1.
        -12    1    5    5    0    0 -0.95438359719E+02 -0.66201762152E+01  0.93847229005E+02  0.13401346809E+03  0.00000000000E+00 0.  1.
          5    1    4    4  501    0  0.20211048466E+02 -0.19390647439E+02 -0.23821862362E+01  0.28418847609E+02  0.41800000000E+01 0. -1.
         -5    1    4    4    0  501 -0.15530625776E+03  0.10788662400E+02 -0.36282268784E+02  0.15990717421E+03  0.41800000000E+01 0. -1.
</event>
<event>
11    1  0.8299058E-009  0.1337110E+03  0.7561462E-02  0.1114792E+00
         22   -1    0    0    0    0  0.00000000000E+00  0.00000000000E+00  0.24141816275E+04  0.24141816275E+04  0.00000000000E+00 0.  1.
         22   -1    0    0    0    0 -0.00000000000E+00 -0.00000000000E+00 -0.12064128244E+03  0.12064128244E+03  0.00000000000E+00 0. -1.
         24    2    1    2    0    0 -0.22956964718E+02 -0.22722542931E+02 -0.46512604367E+02  0.96428813214E+02  0.78049711508E+02 0.  0.
         25    2    1    2    0    0  0.65146996754E+02  0.19834992745E+01  0.55117129188E+02  0.15143847842E+03  0.12509056463E+03 0.  0.
        -24    2    1    2    0    0 -0.42190032036E+02  0.20739043657E+02  0.22849358202E+04  0.22869556183E+04  0.83810445590E+02 0.  0.
        -13    1    3    3    0    0 -0.17240054806E+02 -0.17537462599E+02  0.18616458211E+02  0.30844036708E+02  0.00000000000E+00 0.  1.
         14    1    3    3    0    0 -0.57169099120E+01 -0.51850803321E+01 -0.65129062578E+02  0.65584776506E+02  0.00000000000E+00 0. -1.
         13    1    5    5    0    0  0.17668741070E+02 -0.13778063631E+02  0.91912000102E+03  0.91939305834E+03  0.00000000000E+00 0. -1.
        -14    1    5    5    0    0 -0.59858773106E+02  0.34517107288E+02  0.13658158192E+04  0.13675625600E+04  0.00000000000E+00 0.  1.
          5    1    4    4  501    0  0.78505136893E+02  0.29632578336E+02  0.76629801686E+02  0.11371343423E+03  0.41800000000E+01 0. -1.
         -5    1    4    4    0  501 -0.13358140139E+02 -0.27649079061E+02 -0.21512672499E+02  0.37725044187E+02  0.41800000000E+01 0. -1.
</event>
<event>
11    1  0.8299058E-009  0.1389143E+03  0.7561462E-02  0.1108777E+00
         22   -1    0    0    0    0  0.00000000000E+00  0.00000000000E+00  0.15728176415E+04  0.15728176415E+04  0.00000000000E+00 0. -1.
         22   -1    0    0    0    0 -0.00000000000E+00 -0.00000000000E+00 -0.24312454248E+03  0.24312454248E+03  0.00000000000E+00 0.  1.
         24    2    1    2    0    0  0.57752367469E+02  0.32218221084E+02 -0.12867613839E+03  0.16463725144E+03  0.78578153777E+02 0.  0.
         25    2    1    2    0    0 -0.31978470700E+02 -0.34833812488E+02 -0.48309872286E+02  0.14219710796E+03  0.12510058621E+03 0.  0.
        -24    2    1    2    0    0 -0.25773896769E+02  0.26155914038E+01  0.15066791097E+04  0.15091078246E+04  0.81568079228E+02 0.  0.
        -13    1    3    3    0    0  0.13020616057E+02  0.38333840631E+02 -0.10730208181E+03  0.11468546787E+03  0.00000000000E+00 0.  1.
         14    1    3    3    0    0  0.44731751412E+02 -0.61156195464E+01 -0.21374056586E+02  0.49951783569E+02  0.00000000000E+00 0. -1.
         11    1    5    5    0    0 -0.26855089125E+02 -0.12274726929E+02  0.14554027942E+04  0.14557022903E+04  0.00000000000E+00 0. -1.
        -12    1    5    5    0    0  0.10811923554E+01  0.14890318333E+02  0.51276315490E+02  0.53405534238E+02  0.00000000000E+00 0.  1.
          5    1    4    4  501    0 -0.28404739977E-01 -0.72674519562E+01 -0.85429954426E+02  0.85840352853E+02  0.41800000000E+01 0. -1.
         -5    1    4    4    0  501 -0.31950065960E+02 -0.27566360532E+02  0.37120082140E+02  0.56356755105E+02  0.41800000000E+01 0. -1.
</event>
<event>
11    1  0.8299058E-009  0.4316859E+03  0.7561462E-02  0.9560632E-01
         22   -1    0    0    0    0  0.00000000000E+00  0.00000000000E+00  0.32365283641E+03  0.32365283641E+03  0.00000000000E+00 0. -1.
         22   -1    0    0    0    0 -0.00000000000E+00 -0.00000000000E+00 -0.22618425338E+04  0.22618425338E+04  0.00000000000E+00 0. -1.
         24    2    1    2    0    0  0.41128750469E+03  0.10108084579E+03 -0.17379105203E+04  0.17907403869E+04  0.83925012338E+02 0.  0.
         25    2    1    2    0    0 -0.35203257461E+03 -0.15432033457E+03 -0.39746926685E+03  0.56689542406E+03  0.12508758725E+03 0.  0.
        -24    2    1    2    0    0 -0.59254930089E+02  0.53239488778E+02  0.19719008975E+03  0.22785955929E+03  0.81795215998E+02 0.  0.
        -11    1    3    3    0    0  0.55599784195E+00  0.78187834068E+00 -0.72269884074E+02  0.72276252057E+02  0.00000000000E+00 0.  1.
         12    1    3    3    0    0  0.41073150685E+03  0.10029896745E+03 -0.16656406363E+04  0.17184641348E+04  0.00000000000E+00 0. -1.
         13    1    5    5    0    0 -0.56970892528E+02  0.73412637493E+02  0.14948053267E+03  0.17601002127E+03  0.00000000000E+00 0. -1.
        -14    1    5    5    0    0 -0.22840375603E+01 -0.20173148715E+02  0.47709557081E+02  0.51849538026E+02  0.00000000000E+00 0.  1.
          5    1    4    4  501    0 -0.10542449079E+03 -0.68681536618E+02 -0.57933505360E+02  0.13858297216E+03  0.41800000000E+01 0. -1.
         -5    1    4    4    0  501 -0.24660808382E+03 -0.85638797948E+02 -0.33953576149E+03  0.42831245189E+03  0.41800000000E+01 0. -1.
</event>
<event>
11    1  0.9406707E-009  0.1600414E+03  0.7561462E-02  0.1087038E+00
         22   -1    0    0    0    0  0.00000000000E+00  0.00000000000E+00  0.16097709146E+03  0.16097709146E+03  0.00000000000E+00 0.  1.
         22   -1    0    0    0    0 -0.00000000000E+00 -0.00000000000E+00 -0.14154137367E+04  0.14154137367E+04  0.00000000000E+00 0.  1.
        -24    2    1    2    0    0  0.72793477844E+02  0.64933002221E+02 -0.99328567453E+03  0.10012990884E+04  0.80425419245E+02 0.  0.
         25    2    1    2    0    0 -0.14493474550E+03  0.27402387411E+01 -0.36295969512E+03  0.41036531516E+03  0.12508541979E+03 0.  0.
         24    2    1    2    0    0  0.72141267660E+02 -0.67673240962E+02  0.10180872440E+03  0.16472642458E+03  0.83580790547E+02 0.  0.
        -13    1    5    5    0    0  0.14158388295E+02 -0.67643281504E+02  0.70941692735E+02  0.99039372271E+02  0.00000000000E+00 0.  1.
         14    1    5    5    0    0  0.57982879365E+02 -0.29959457745E-01  0.30867031669E+02  0.65687052309E+02  0.00000000000E+00 0. -1.
         13    1    3    3    0    0  0.42331308579E+02  0.33006361751E+02 -0.20934069944E+03  0.21611313713E+03  0.00000000000E+00 0. -1.
        -14    1    3    3    0    0  0.30462169265E+02  0.31926640469E+02 -0.78394497510E+03  0.78518595129E+03  0.00000000000E+00 0.  1.
          5    1    4    4  501    0 -0.14160601011E+03  0.45016104912E+02 -0.27391737531E+03  0.31165190950E+03  0.41800000000E+01 0. -1.
         -5    1    4    4    0  501 -0.33287353957E+01 -0.42275866171E+02 -0.89042319810E+02  0.98713405660E+02  0.41800000000E+01 0. -1.
</event>
<event>
11    1  0.1404297E-008  0.1734711E+03  0.7561462E-02  0.1075050E+00
         22   -1    0    0    0    0  0.00000000000E+00  0.00000000000E+00  0.28894966881E+03  0.28894966881E+03  0.00000000000E+00 0. -1.
         22   -1    0    0    0    0 -0.00000000000E+00 -0.00000000000E+00 -0.16944170485E+04  0.16944170485E+04  0.00000000000E+00 0. -1.
        -24    2    1    2    0    0 -0.72949127400E+02 -0.96543677126E+02 -0.14179189046E+04  0.14256474725E+04  0.85641340339E+02 0.  0.
         25    2    1    2    0    0  0.30462800160E+00  0.13777556540E+03 -0.22164643574E+03  0.28940662571E+03  0.12508738270E+03 0.  0.
         24    2    1    2    0    0  0.72644499398E+02 -0.41231888276E+02  0.23409796063E+03  0.26831261908E+03  0.10105698631E+03 0.  0.
        -13    1    5    5    0    0 -0.21500819591E+01 -0.46920566307E+02  0.14180596321E+03  0.14938237378E+03  0.00000000000E+00 0.  1.
         14    1    5    5    0    0  0.74794581357E+02  0.56886780308E+01  0.92291997424E+02  0.11893024530E+03  0.00000000000E+00 0. -1.
         11    1    3    3    0    0 -0.35763987830E+02 -0.71041131646E+02 -0.12229048280E+04  0.12254885245E+04  0.00000000000E+00 0. -1.
        -12    1    3    3    0    0 -0.37185139570E+02 -0.25502545481E+02 -0.19501407655E+03  0.20015894804E+03  0.00000000000E+00 0.  1.
          5    1    4    4  501    0  0.12797079002E+02 -0.14454090936E+01 -0.10899813511E+03  0.10983587891E+03  0.41800000000E+01 0.  1.
         -5    1    4    4    0  501 -0.12492451000E+02  0.13922097450E+03 -0.11264830062E+03  0.17957074679E+03  0.41800000000E+01 0.  1.
</event>
<event>
11    1  0.8299058E-009  0.1455179E+03  0.7561462E-02  0.1101549E+00
         22   -1    0    0    0    0  0.00000000000E+00  0.00000000000E+00  0.52122730750E+03  0.52122730750E+03  0.00000000000E+00 0. -1.
         22   -1    0    0    0    0 -0.00000000000E+00 -0.00000000000E+00 -0.46315795237E+03  0.46315795237E+03  0.00000000000E+00 0. -1.
         24    2    1    2    0    0  0.42418319176E+01  0.71742787390E+02 -0.39946183112E+03  0.41405273113E+03  0.81883386315E+02 0.  0.
         25    2    1    2    0    0 -0.22069381244E+02 -0.12924018020E+03  0.11504599544E+03  0.21464750691E+03  0.12509152406E+03 0.  0.
        -24    2    1    2    0    0  0.17827549327E+02  0.57497392809E+02  0.34248519081E+03  0.35568502183E+03  0.74779389763E+02 0.  0.
        -11    1    3    3    0    0 -0.29711297312E+02  0.39807703540E+02 -0.10785301042E+03  0.11874209997E+03  0.00000000000E+00 0.  1.
         12    1    3    3    0    0  0.33953129230E+02  0.31935083850E+02 -0.29160882070E+03  0.29531063116E+03  0.00000000000E+00 0. -1.
         13    1    5    5    0    0 -0.20951740670E+02  0.14056036088E+02  0.20257589170E+03  0.20414097944E+03  0.00000000000E+00 0. -1.
        -14    1    5    5    0    0  0.38779289997E+02  0.43441356721E+02  0.13990929911E+03  0.15154404239E+03  0.00000000000E+00 0.  1.
          5    1    4    4  501    0 -0.25702925981E+02 -0.79962584549E+02 -0.55253283956E+01  0.84277262566E+02  0.41800000000E+01 0.  1.
         -5    1    4    4    0  501  0.36335447369E+01 -0.49277595650E+02  0.12057132383E+03  0.13037024435E+03  0.41800000000E+01 0.  1.
</event>
<event>
11    1  0.8299058E-009  0.1774006E+03  0.7561462E-02  0.1071765E+00
         22   -1    0    0    0    0  0.00000000000E+00  0.00000000000E+00  0.11826973098E+04  0.11826973098E+04  0.00000000000E+00 0. -1.
         22   -1    0    0    0    0 -0.00000000000E+00 -0.00000000000E+00 -0.10427554362E+04  0.10427554362E+04  0.00000000000E+00 0. -1.
        -24    2    1    2    0    0 -0.47284058532E+02 -0.66818187310E+01 -0.10001188037E+04  0.10045817400E+04  0.81648159292E+02 0.  0.
         25    2    1    2    0    0  0.51465204265E+01  0.12646877138E+03  0.19525232928E+03  0.26418178575E+03  0.12509079512E+03 0.  0.
         24    2    1    2    0    0  0.42137538105E+02 -0.11978695265E+03  0.94480834802E+03  0.95668922033E+03  0.80417433749E+02 0.  0.
        -13    1    5    5    0    0  0.19702499475E+02 -0.15173557013E+02  0.53675226295E+02  0.59156193554E+02  0.00000000000E+00 0.  1.
         14    1    5    5    0    0  0.22435038630E+02 -0.10461339564E+03  0.89113312173E+03  0.89753302677E+03  0.00000000000E+00 0. -1.
         11    1    3    3    0    0  0.59857573792E+01  0.17088175350E+02 -0.59596603600E+03  0.59624101762E+03  0.00000000000E+00 0. -1.
        -12    1    3    3    0    0 -0.53269815911E+02 -0.23769994081E+02 -0.40415276768E+03  0.40834072235E+03  0.00000000000E+00 0.  1.
          5    1    4    4  501    0  0.20140230620E+02  0.14029385910E+03  0.11891770634E+03  0.18505915020E+03  0.41800000000E+01 0. -1.
         -5    1    4    4    0  501 -0.14993710194E+02 -0.13825087722E+02  0.76334622947E+02  0.79122635550E+02  0.41800000000E+01 0. -1.
</event>
<event>
11    1  0.8299058E-009  0.1978456E+03  0.7561462E-02  0.1056058E+00
         22   -1    0    0    0    0  0.00000000000E+00  0.00000000000E+00  0.16667054804E+04  0.16667054804E+04  0.00000000000E+00 0.  1.
         22   -1    0    0    0    0 -0.00000000000E+00 -0.00000000000E+00 -0.90696696224E+03  0.90696696224E+03  0.00000000000E+00 0.  1.
        -24    2    1    2    0    0 -0.14687261578E+03 -0.43549956492E+02 -0.83806350814E+03  0.85593314758E+03  0.82479970083E+02 0.  0.
         25    2    1    2    0    0  0.13467359550E+03  0.90029574085E+02  0.12055704988E+03  0.23753677065E+03  0.12508962226E+03 0.  0.
         24    2    1    2    0    0  0.12199020279E+02 -0.46479617592E+02  0.14772449764E+04  0.14802025244E+04  0.80234792738E+02 0.  0.
        -11    1    5    5    0    0 -0.77780014629E+01 -0.34428274747E+02  0.13697580061E+04  0.13702126837E+04  0.00000000000E+00 0.  1.
         12    1    5    5    0    0  0.19977021742E+02 -0.12051342846E+02  0.10748697033E+03  0.10998984068E+03  0.00000000000E+00 0. -1.
         11    1    3    3    0    0 -0.21194608876E+02 -0.12992357304E+01 -0.28269396121E+02  0.35356162347E+02  0.00000000000E+00 0. -1.
        -12    1    3    3    0    0 -0.12567800691E+03 -0.42250720762E+02 -0.80979411202E+03  0.82057698523E+03  0.00000000000E+00 0.  1.
          5    1    4    4  501    0  0.12819127847E+03  0.11236068945E+03  0.75128855409E+02  0.18633235287E+03  0.41800000000E+01 0.  1.
         -5    1    4    4    0  501  0.64823170339E+01 -0.22331115365E+02  0.45428194470E+02  0.51204417782E+02  0.41800000000E+01 0.  1.
</event>
<event>
11    1  0.8586350E-009  0.1568507E+03  0.7561462E-02  0.1090077E+00
         22   -1    0    0    0    0  0.00000000000E+00  0.00000000000E+00  0.68264774778E+03  0.68264774778E+03  0.00000000000E+00 0. -1.
         22   -1    0    0    0    0 -0.00000000000E+00 -0.00000000000E+00 -0.83070123081E+03  0.83070123081E+03  0.00000000000E+00 0.  1.
        -24    2    1    2    0    0 -0.84720395522E+02  0.42397084627E+02 -0.67026584516E+03  0.68188144215E+03  0.82042304709E+02 0.  0.
         25    2    1    2    0    0  0.12636970948E+03  0.55676134732E+02 -0.90231366866E+02  0.20702388760E+03  0.12509218608E+03 0.  0.
         24    2    1    2    0    0 -0.41649313953E+02 -0.98073219359E+02  0.61244372899E+03  0.62444364885E+03  0.59072224417E+02 0.  0.
        -11    1    5    5    0    0 -0.33967190717E+02 -0.14267823372E+02  0.15455686777E+03  0.15888727515E+03  0.00000000000E+00 0.  1.
         12    1    5    5    0    0 -0.76821232364E+01 -0.83805395986E+02  0.45788686121E+03  0.46555637369E+03  0.00000000000E+00 0. -1.
         13    1    3    3    0    0 -0.32062729271E+02  0.28733248292E+02 -0.98058200761E+02  0.10709355210E+03  0.00000000000E+00 0. -1.
        -14    1    3    3    0    0 -0.52657666251E+02  0.13663836335E+02 -0.57220764440E+03  0.57478789005E+03  0.00000000000E+00 0.  1.
          5    1    4    4  501    0  0.12929523762E+03  0.68658411215E+02 -0.10976434743E+03  0.18302163880E+03  0.41800000000E+01 0. -1.
         -5    1    4    4    0  501 -0.29255281447E+01 -0.12982276483E+02  0.19532980565E+02  0.24002248798E+02  0.41800000000E+01 0. -1.
</event>
<event>
11    1  0.8299058E-009  0.1989706E+03  0.7561462E-02  0.1055254E+00
         22   -1    0    0    0    0  0.00000000000E+00  0.00000000000E+00  0.28500825271E+03  0.28500825271E+03  0.00000000000E+00 0. -1.
         22   -1    0    0    0    0 -0.00000000000E+00 -0.00000000000E+00 -0.17837911915E+04  0.17837911915E+04  0.00000000000E+00 0. -1.
         24    2    1    2    0    0  0.15160604279E+03  0.14533438429E+02 -0.10018116675E+04  0.10163989893E+04  0.79023256885E+02 0.  0.
         25    2    1    2    0    0 -0.15976907658E+03  0.65188258486E+02 -0.74784017445E+03  0.77761690086E+03  0.12508977220E+03 0.  0.
        -24    2    1    2    0    0  0.81630337913E+01 -0.79721696916E+02  0.25086890320E+03  0.27478355407E+03  0.78413078705E+02 0.  0.
        -11    1    3    3    0    0  0.16841362899E+02  0.13117092670E+02 -0.41421600544E+02  0.46598697579E+02  0.00000000000E+00 0.  1.
         12    1    3    3    0    0  0.13476467989E+03  0.14163457593E+01 -0.96039006699E+03  0.96980029168E+03  0.00000000000E+00 0. -1.
         13    1    5    5    0    0  0.31200344215E+02 -0.60371382371E+02  0.22521762027E+03  0.23524698036E+03  0.00000000000E+00 0. -1.
        -14    1    5    5    0    0 -0.23037310424E+02 -0.19350314544E+02  0.25651282939E+02  0.39536573712E+02  0.00000000000E+00 0.  1.
          5    1    4    4  501    0 -0.85713474463E+02  0.88067620853E+02 -0.57718616889E+03  0.59013901032E+03  0.41800000000E+01 0.  1.
         -5    1    4    4    0  501 -0.74055602115E+02 -0.22879362367E+02 -0.17065400557E+03  0.18747789054E+03  0.41800000000E+01 0.  1.
</event>
<event>
11    1  0.8299058E-009  0.1335343E+03  0.7561462E-02  0.1115001E+00
         22   -1    0    0    0    0  0.00000000000E+00  0.00000000000E+00  0.57764350515E+03  0.57764350515E+03  0.00000000000E+00 0.  1.
         22   -1    0    0    0    0 -0.00000000000E+00 -0.00000000000E+00 -0.51599507196E+03  0.51599507196E+03  0.00000000000E+00 0.  1.
         24    2    1    2    0    0  0.45502256663E+02 -0.17575508214E+02 -0.47077742595E+03  0.48034524460E+03  0.81980579246E+02 0.  0.
         25    2    1    2    0    0 -0.98494532668E+00 -0.33545228606E+01  0.74278469082E+02  0.14552331757E+03  0.12509005575E+03 0.  0.
        -24    2    1    2    0    0 -0.44517311336E+02  0.20930031074E+02  0.45814739007E+03  0.46777001493E+03  0.80559907129E+02 0.  0.
        -13    1    3    3    0    0  0.53775463963E+02  0.98288886689E+01 -0.40412542175E+03  0.40780603732E+03  0.00000000000E+00 0.  1.
         14    1    3    3    0    0 -0.82732073001E+01 -0.27404396882E+02 -0.66652004209E+02  0.72539207278E+02  0.00000000000E+00 0. -1.
         13    1    5    5    0    0 -0.63465373370E+02 -0.33965479977E+01  0.30875834142E+03  0.31523182510E+03  0.00000000000E+00 0. -1.
        -14    1    5    5    0    0  0.18948062033E+02  0.24326579072E+02  0.14938904864E+03  0.15253818984E+03  0.00000000000E+00 0.  1.
          5    1    4    4  501    0  0.19913939086E+02  0.54341917833E+02  0.57677134385E+02  0.81815238400E+02  0.41800000000E+01 0. -1.
         -5    1    4    4    0  501 -0.20898884412E+02 -0.57696440693E+02  0.16601334696E+02  0.63708079174E+02  0.41800000000E+01 0. -1.
</event>
<event>
11    1  0.8299058E-009  0.1709127E+03  0.7561462E-02  0.1077240E+00
         22   -1    0    0    0    0  0.00000000000E+00  0.00000000000E+00  0.17673476677E+04  0.17673476677E+04  0.00000000000E+00 0. -1.
         22   -1    0    0    0    0 -0.00000000000E+00 -0.00000000000E+00 -0.26320966426E+03  0.26320966426E+03  0.00000000000E+00 0. -1.
        -24    2    1    2    0    0 -0.33814643006E+02  0.25342366667E+02 -0.23526273129E+03  0.25269992553E+03  0.81994109527E+02 0.  0.
         25    2    1    2    0    0  0.95842693970E+02 -0.11385295418E+03  0.60513789602E+03  0.63560052061E+03  0.12509129238E+03 0.  0.
         24    2    1    2    0    0 -0.62028050964E+02  0.88510587508E+02  0.11342628387E+04  0.11422568858E+04  0.80727955119E+02 0.  0.
        -13    1    5    5    0    0 -0.25515845573E+02 -0.11314628729E+02  0.28651507040E+03  0.28787143791E+03  0.00000000000E+00 0.  1.
         14    1    5    5    0    0 -0.36512205391E+02  0.99825216238E+02  0.84774776828E+03  0.85438544789E+03  0.00000000000E+00 0. -1.
         11    1    3    3    0    0  0.55442604626E+01 -0.26177939562E+02 -0.83054713566E+02  0.87258860807E+02  0.00000000000E+00 0. -1.
        -12    1    3    3    0    0 -0.39358903469E+02  0.51520306229E+02 -0.15220801773E+03  0.16544106472E+03  0.00000000000E+00 0.  1.
          5    1    4    4  501    0  0.68916515498E+02 -0.13616587441E+03  0.41417358369E+03  0.44141574654E+03  0.41800000000E+01 0. -1.
         -5    1    4    4    0  501  0.26926178472E+02  0.22312920233E+02  0.19096431233E+03  0.19418477407E+03  0.41800000000E+01 0. -1.
</event>
<event>
11    1  0.8299058E-009  0.1474959E+03  0.7561462E-02  0.1099465E+00
         22   -1    0    0    0    0  0.00000000000E+00  0.00000000000E+00  0.21798149002E+03  0.21798149002E+03  0.00000000000E+00 0.  1.
         22   -1    0    0    0    0 -0.00000000000E+00 -0.00000000000E+00 -0.86883687636E+03  0.86883687636E+03  0.00000000000E+00 0. -1.
         24    2    1    2    0    0 -0.78539125929E+02 -0.13797306513E+02 -0.74120134752E+03  0.74999775270E+03  0.82209680274E+02 0.  0.
         25    2    1    2    0    0  0.70416553538E+02 -0.66708339842E+02 -0.36088529270E+02  0.16235411456E+03  0.12509189803E+03 0.  0.
        -24    2    1    2    0    0  0.81225723902E+01  0.80505646356E+02  0.12643449045E+03  0.17446649912E+03  0.88914248924E+02 0.  0.
        -13    1    3    3    0    0 -0.11231742714E+02  0.21306914009E+02 -0.61149194962E+02  0.65721843199E+02  0.00000000000E+00 0.  1.
         14    1    3    3    0    0 -0.67307383214E+02 -0.35104220522E+02 -0.68005215255E+03  0.68427590950E+03  0.00000000000E+00 0. -1.
         13    1    5    5    0    0 -0.35301517283E+02  0.63877331215E+02  0.86473516822E+02  0.11315555522E+03  0.00000000000E+00 0. -1.
        -14    1    5    5    0    0  0.43424089673E+02  0.16628315141E+02  0.39960973626E+02  0.61310943897E+02  0.00000000000E+00 0.  1.
          5    1    4    4  501    0  0.49631996363E+01  0.34997642040E+02  0.15171324049E+01  0.35626428248E+02  0.41800000000E+01 0. -1.
         -5    1    4    4    0  501  0.65453353902E+02 -0.10170598188E+03 -0.37605661675E+02  0.12672768631E+03  0.41800000000E+01 0. -1.
</event>
<event>
11    1  0.8299058E-009  0.1590860E+03  0.7561462E-02  0.1087940E+00
         22   -1    0    0    0    0  0.00000000000E+00  0.00000000000E+00  0.10478803369E+04  0.10478803369E+04  0.00000000000E+00 0. -1.
         22   -1    0    0    0    0 -0.00000000000E+00 -0.00000000000E+00 -0.35641429075E+03  0.35641429075E+03  0.00000000000E+00 0.  1.
        -24    2    1    2    0    0 -0.40362340070E+01 -0.37321997973E+01 -0.29053363344E+03  0.30642677997E+03  0.97248952829E+02 0.  0.
         25    2    1    2    0    0  0.79082599927E+02  0.66562209633E+02  0.69293559480E+02  0.17644819711E+03  0.12509110086E+03 0.  0.
         24    2    1    2    0    0 -0.75046365920E+02 -0.62830009836E+02  0.91270612008E+03  0.92141965054E+03  0.80013396326E+02 0.  0.
        -11    1    5    5    0    0 -0.60685169381E+01 -0.32167208981E+02  0.10013404473E+03  0.10534886399E+03  0.00000000000E+00 0.  1.
         12    1    5    5    0    0 -0.68977848982E+02 -0.30662800855E+02  0.81257207535E+03  0.81607078654E+03  0.00000000000E+00 0. -1.
         13    1    3    3    0    0 -0.27034447885E+02  0.38253766494E+02 -0.10801914522E+03  0.11773847186E+03  0.00000000000E+00 0. -1.
        -14    1    3    3    0    0  0.22998213878E+02 -0.41985966291E+02 -0.18251448822E+03  0.18868830811E+03  0.00000000000E+00 0.  1.
          5    1    4    4  501    0 -0.23435696744E+02 -0.14403095358E+02  0.27766835510E+02  0.39308403580E+02  0.41800000000E+01 0.  1.
         -5    1    4    4    0  501  0.10251829667E+03  0.80965304991E+02  0.41526723970E+02  0.13713979353E+03  0.41800000000E+01 0.  1.
</event>
<event>
11    1  0.8299058E-009  0.1456243E+03  0.7561462E-02  0.1101436E+00
         22   -1    0    0    0    0  0.00000000000E+00  0.00000000000E+00  0.10044741922E+04  0.10044741922E+04  0.00000000000E+00 0. -1.
         22   -1    0    0    0    0 -0.00000000000E+00 -0.00000000000E+00 -0.46301195020E+03  0.46301195020E+03  0.00000000000E+00 0.  1.
         24    2    1    2    0    0  0.13097019053E+02  0.73364835810E+02 -0.43039452221E+03  0.44424917424E+03  0.81018226505E+02 0.  0.
         25    2    1    2    0    0 -0.31482780055E+02 -0.70694885029E+02  0.21450156807E+03  0.26009524888E+03  0.12509869534E+03 0.  0.
        -24    2    1    2    0    0  0.18385761002E+02 -0.26699507814E+01  0.75735519613E+03  0.76314171928E+03  0.91941425640E+02 0.  0.
        -13    1    3    3    0    0 -0.30215702910E+02  0.45980458863E+02 -0.28028125687E+03  0.28563048551E+03  0.00000000000E+00 0.  1.
         14    1    3    3    0    0  0.43312721963E+02  0.27384376947E+02 -0.15011326534E+03  0.15861868873E+03  0.00000000000E+00 0. -1.
         13    1    5    5    0    0  0.52431060827E+02  0.12943882641E+02  0.52718739127E+03  0.52994632347E+03  0.00000000000E+00 0. -1.
        -14    1    5    5    0    0 -0.34045299825E+02 -0.15613833422E+02  0.23016780486E+03  0.23319539581E+03  0.00000000000E+00 0.  1.
          5    1    4    4  501    0 -0.33388969851E+02 -0.14318762717E+02  0.19775129056E+03  0.20110419089E+03  0.41800000000E+01 0. -1.
         -5    1    4    4    0  501  0.19061897958E+01 -0.56376122312E+02  0.16750277506E+02  0.58991057992E+02  0.41800000000E+01 0. -1.
</event>
<event>
11    1  0.8299058E-009  0.1444822E+03  0.7561462E-02  0.1102654E+00
         22   -1    0    0    0    0  0.00000000000E+00  0.00000000000E+00  0.19744129161E+04  0.19744129161E+04  0.00000000000E+00 0. -1.
         22   -1    0    0    0    0 -0.00000000000E+00 -0.00000000000E+00 -0.37186890398E+03  0.37186890398E+03  0.00000000000E+00 0.  1.
         24    2    1    2    0    0 -0.60435823653E+02  0.43068220791E+02 -0.30073291556E+03  0.31990089627E+03  0.79930823273E+02 0.  0.
         25    2    1    2    0    0  0.54949158825E+02 -0.18818676632E+02  0.17860691152E+02  0.13911313709E+03  0.12513955400E+03 0.  0.
        -24    2    1    2    0    0  0.54866648278E+01 -0.24249544159E+02  0.18854162365E+04  0.18872677867E+04  0.79794548657E+02 0.  0.
        -11    1    3    3    0    0 -0.61956975229E+02  0.61966894363E+02 -0.26924340487E+03  0.28314408672E+03  0.00000000000E+00 0.  1.
         12    1    3    3    0    0  0.15211515763E+01 -0.18898673572E+02 -0.31489510689E+02  0.36756809550E+02  0.00000000000E+00 0. -1.
         11    1    5    5    0    0  0.18209194392E+02 -0.19423896228E+02  0.18304074486E+04  0.18306010735E+04  0.00000000000E+00 0. -1.
        -12    1    5    5    0    0 -0.12722529564E+02 -0.48256479308E+01  0.55008787946E+02  0.56666713226E+02  0.00000000000E+00 0.  1.
          5    1    4    4  501    0  0.80147214068E+02 -0.21745486704E+02 -0.26986262114E+02  0.87419522177E+02  0.41800000000E+01 0.  1.
         -5    1    4    4    0  501 -0.25198055243E+02  0.29268100717E+01  0.44846953265E+02  0.51693614909E+02  0.41800000000E+01 0.  1.
</event>
<event>
11    1  0.8299058E-009  0.1741225E+03  0.7561462E-02  0.1074499E+00
         22   -1    0    0    0    0  0.00000000000E+00  0.00000000000E+00  0.11730297808E+04  0.11730297808E+04  0.00000000000E+00 0. -1.
         22   -1    0    0    0    0 -0.00000000000E+00 -0.00000000000E+00 -0.15952523278E+03  0.15952523278E+03  0.00000000000E+00 0.  1.
         24    2    1    2    0    0  0.91047131166E+01  0.11874808470E+03 -0.94717172876E+02  0.17138630823E+03  0.78853791230E+02 0.  0.
         25    2    1    2    0    0 -0.15871845893E+02 -0.13954238233E+03  0.34136022550E+03  0.38974437754E+03  0.12509949765E+03 0.  0.
        -24    2    1    2    0    0  0.67671327765E+01  0.20794297630E+02  0.76686149542E+03  0.77142432782E+03  0.80874863220E+02 0.  0.
        -11    1    3    3    0    0 -0.11041394788E+02  0.12100267631E+03 -0.88019567896E+02  0.15003667687E+03  0.00000000000E+00 0.  1.
         12    1    3    3    0    0  0.20146107904E+02 -0.22545916084E+01 -0.66976049798E+01  0.21349631366E+02  0.00000000000E+00 0. -1.
         13    1    5    5    0    0  0.42760711783E+02  0.12247371166E+01  0.40224579378E+03  0.40451409996E+03  0.00000000000E+00 0. -1.
        -14    1    5    5    0    0 -0.35993579006E+02  0.19569560513E+02  0.36461570164E+03  0.36691022786E+03  0.00000000000E+00 0.  1.
          5    1    4    4  501    0 -0.46376156022E+02 -0.11857748839E+03  0.32497145835E+03  0.34904912225E+03  0.41800000000E+01 0.  1.
         -5    1    4    4    0  501  0.30504310129E+02 -0.20964893938E+02  0.16388767145E+02  0.40695255286E+02  0.41800000000E+01 0.  1.
</event>
<event>
11    1  0.8299058E-009  0.1779487E+03  0.7561462E-02  0.1071314E+00
         22   -1    0    0    0    0  0.00000000000E+00  0.00000000000E+00  0.15203276236E+04  0.15203276236E+04  0.00000000000E+00 0. -1.
         22   -1    0    0    0    0 -0.00000000000E+00 -0.00000000000E+00 -0.54392901597E+03  0.54392901597E+03  0.00000000000E+00 0.  1.
        -24    2    1    2    0    0 -0.51053907121E+02  0.33829559838E+02 -0.48578687201E+03  0.49616581376E+03  0.80253904481E+02 0.  0.
         25    2    1    2    0    0  0.15415110762E+02 -0.15373671290E+03  0.15351582456E+03  0.25116976277E+03  0.12508612556E+03 0.  0.
         24    2    1    2    0    0  0.35638796359E+02  0.11990715306E+03  0.13086696551E+04  0.13169210630E+04  0.77569136789E+02 0.  0.
        -13    1    5    5    0    0  0.51527461358E+02  0.39762746213E+02  0.53246947918E+03  0.53643256940E+03  0.00000000000E+00 0.  1.
         14    1    5    5    0    0 -0.15888664999E+02  0.80144406848E+02  0.77620017591E+03  0.78048849365E+03  0.00000000000E+00 0. -1.
         13    1    3    3    0    0 -0.81522892718E+01 -0.84729384594E+01 -0.71701502165E+01  0.13771766794E+02  0.00000000000E+00 0. -1.
        -14    1    3    3    0    0 -0.42901617850E+02  0.42302498298E+02 -0.47861672179E+03  0.48239404697E+03  0.00000000000E+00 0.  1.
          5    1    4    4  501    0  0.66012294437E+02 -0.78693937289E+02  0.11033288885E+03  0.15080178230E+03  0.41800000000E+01 0.  1.
         -5    1    4    4    0  501 -0.50597183675E+02 -0.75042775610E+02  0.43182935704E+02  0.10036798047E+03  0.41800000000E+01 0.  1.
</event>
<event>
11    1  0.8299058E-009  0.1387612E+03  0.7561462E-02  0.1108950E+00
         22   -1    0    0    0    0  0.00000000000E+00  0.00000000000E+00  0.41673604085E+03  0.41673604085E+03  0.00000000000E+00 0. -1.
         22   -1    0    0    0    0 -0.00000000000E+00 -0.00000000000E+00 -0.83382887252E+03  0.83382887252E+03  0.00000000000E+00 0. -1.
        -24    2    1    2    0    0 -0.14097831218E+02  0.33898866658E+02 -0.77718795170E+03  0.78218033723E+03  0.80231450715E+02 0.  0.
         25    2    1    2    0    0  0.43035197595E+02  0.22570443982E+02  0.51618280326E+02  0.14378158364E+03  0.12508894338E+03 0.  0.
         24    2    1    2    0    0 -0.28937366378E+02 -0.56469310640E+02  0.30847683970E+03  0.32460299250E+03  0.78631977518E+02 0.  0.
        -11    1    5    5    0    0 -0.25893150332E+02  0.13450834423E+02  0.64626707101E+02  0.70908331327E+02  0.00000000000E+00 0.  1.
         12    1    5    5    0    0 -0.30442160456E+01 -0.69920145063E+02  0.24385013260E+03  0.25369466117E+03  0.00000000000E+00 0. -1.
         13    1    3    3    0    0  0.18460819864E+02  0.32380753925E+02 -0.64341863676E+03  0.64449736790E+03  0.00000000000E+00 0. -1.
        -14    1    3    3    0    0 -0.32558651081E+02  0.15181127336E+01 -0.13376931494E+03  0.13768296934E+03  0.00000000000E+00 0.  1.
          5    1    4    4  501    0  0.46970589602E+02  0.38026367803E+02 -0.24908200780E+02  0.65499097718E+02  0.41800000000E+01 0.  1.
         -5    1    4    4    0  501 -0.39353920064E+01 -0.15455923821E+02  0.76526481106E+02  0.78282485921E+02  0.41800000000E+01 0.  1.
</event>
<event>
11    1  0.8299058E-009  0.1959518E+03  0.7561462E-02  0.1057424E+00
         22   -1    0    0    0    0  0.00000000000E+00  0.00000000000E+00  0.56472810918E+03  0.56472810918E+03  0.00000000000E+00 0. -1.
         22   -1    0    0    0    0 -0.00000000000E+00 -0.00000000000E+00 -0.38185826508E+03  0.38185826508E+03  0.00000000000E+00 0. -1.
        -24    2    1    2    0    0  0.46312871626E+02 -0.53456253850E+01 -0.18470220857E+03  0.20918555695E+03  0.86430513116E+02 0.  0.
         25    2    1    2    0    0 -0.19278864886E+03  0.18663058889E+02 -0.91886910182E+02  0.24820816200E+03  0.12509322333E+03 0.  0.
         24    2    1    2    0    0  0.14647577723E+03 -0.13317433504E+02  0.45945896285E+03  0.48919265532E+03  0.81082723986E+02 0.  0.
        -11    1    5    5    0    0  0.25861685633E+02  0.22203040484E+02  0.47440152033E+02  0.58415492940E+02  0.00000000000E+00 0.  1.
         12    1    5    5    0    0  0.12061409160E+03 -0.35520473988E+02  0.41201881081E+03  0.43077716238E+03  0.00000000000E+00 0. -1.
         11    1    3    3    0    0  0.51288593216E+02  0.50907026993E+01 -0.18970939436E+03  0.19658608637E+03  0.00000000000E+00 0. -1.
        -12    1    3    3    0    0 -0.49757215898E+01 -0.10436328084E+02  0.50071857911E+01  0.12599470575E+02  0.00000000000E+00 0.  1.
          5    1    4    4  501    0 -0.19822142930E+03  0.27615525324E+02 -0.52091442955E+02  0.20684618223E+03  0.41800000000E+01 0. -1.
         -5    1    4    4    0  501  0.54327804435E+01 -0.89524664355E+01 -0.39795467226E+02  0.41361979769E+02  0.41800000000E+01 0. -1.
</event>
<event>
11    1  0.8299058E-009  0.1278831E+03  0.7561462E-02  0.1121898E+00
         22   -1    0    0    0    0  0.00000000000E+00  0.00000000000E+00  0.78236423232E+03  0.78236423232E+03  0.00000000000E+00 0.  1.
         22   -1    0    0    0    0 -0.00000000000E+00 -0.00000000000E+00 -0.32282315056E+03  0.32282315056E+03  0.00000000000E+00 0. -1.
        -24    2    1    2    0    0  0.23278767460E+02  0.13416362522E+02 -0.30071700930E+03  0.31235935876E+03  0.80098374066E+02 0.  0.
         25    2    1    2    0    0 -0.10989346393E+02  0.15356160364E+01  0.29490305647E+03  0.32053249061E+03  0.12510052345E+03 0.  0.
         24    2    1    2    0    0 -0.12289421067E+02 -0.14951978558E+02  0.46535503459E+03  0.47229553351E+03  0.78314565832E+02 0.  0.
        -13    1    5    5    0    0  0.11294964283E+02  0.82559689667E+01  0.38684331157E+03  0.38709622182E+03  0.00000000000E+00 0.  1.
         14    1    5    5    0    0 -0.23584385349E+02 -0.23207947525E+02  0.78511723026E+02  0.85199311694E+02  0.00000000000E+00 0. -1.
         11    1    3    3    0    0  0.57572260815E+01  0.29606749905E+01 -0.28850983513E+03  0.28858245999E+03  0.00000000000E+00 0. -1.
        -12    1    3    3    0    0  0.17521541378E+02  0.10455687531E+02 -0.12207174169E+02  0.23776898772E+02  0.00000000000E+00 0.  1.
          5    1    4    4  501    0 -0.67684369268E+02 -0.59188915873E+01  0.15137439513E+03  0.16597556152E+03  0.41800000000E+01 0. -1.
         -5    1    4    4    0  501  0.56695022875E+02  0.74545076237E+01  0.14352866134E+03  0.15455692909E+03  0.41800000000E+01 0. -1.
</event>
<event>
11    1  0.8299058E-009  0.4924832E+03  0.7561462E-02  0.9410476E-01
         22   -1    0    0    0    0  0.00000000000E+00  0.00000000000E+00  0.13676782428E+04  0.13676782428E+04  0.00000000000E+00 0.  1.
         22   -1    0    0    0    0 -0.00000000000E+00 -0.00000000000E+00 -0.59055557130E+03  0.59055557130E+03  0.00000000000E+00 0.  1.
        -24    2    1    2    0    0 -0.21809694809E+03  0.19513271936E+02 -0.33006426019E+03  0.40325379966E+03  0.75658208679E+02 0.  0.
         25    2    1    2    0    0 -0.32109194736E+03 -0.38529352883E+02  0.30681202165E+02  0.34810064026E+03  0.12509264523E+03 0.  0.
         24    2    1    2    0    0  0.53918889545E+03  0.19016080947E+02  0.10765057295E+04  0.12068793742E+04  0.81283219667E+02 0.  0.
        -11    1    5    5    0    0  0.24361889200E+03  0.46460289167E+02  0.45839792582E+03  0.52118843177E+03  0.00000000000E+00 0.  1.
         12    1    5    5    0    0  0.29557000345E+03 -0.27444208220E+02  0.61810780370E+03  0.68569094240E+03  0.00000000000E+00 0. -1.
         13    1    3    3    0    0 -0.19253664769E+03 -0.92842532754E+01 -0.26583124748E+03  0.32836383814E+03  0.00000000000E+00 0. -1.
        -14    1    3    3    0    0 -0.25560300398E+02  0.28797525211E+02 -0.64233012712E+02  0.74889961522E+02  0.00000000000E+00 0.  1.
          5    1    4    4  501    0 -0.16075147160E+03 -0.39117031624E+02  0.74996755634E+02  0.18169524909E+03  0.41800000000E+01 0.  1.
         -5    1    4    4    0  501 -0.16034047576E+03  0.58767874095E+00 -0.44315553469E+02  0.16640539118E+03  0.41800000000E+01 0.  1.
</event>
<event>
11    1  0.8299058E-009  0.1913091E+03  0.7561462E-02  0.1060845E+00
         22   -1    0    0    0    0  0.00000000000E+00  0.00000000000E+00  0.91781254995E+03  0.91781254995E+03  0.00000000000E+00 0. -1.
         22   -1    0    0    0    0 -0.00000000000E+00 -0.00000000000E+00 -0.30425578722E+03  0.30425578722E+03  0.00000000000E+00 0.  1.
         24    2    1    2    0    0 -0.11518514509E+02 -0.73797862019E+02 -0.17470195803E+03  0.20610295114E+03  0.79867713836E+02 0.  0.
         25    2    1    2    0    0  0.64629135450E+02 -0.65532704026E+02 -0.49364784748E+02  0.16295722727E+03  0.12508683184E+03 0.  0.
        -24    2    1    2    0    0 -0.53110620941E+02  0.13933056605E+03  0.83762350551E+03  0.85300815876E+03  0.61449468981E+02 0.  0.
        -13    1    3    3    0    0  0.15029120535E+00 -0.41516042865E+02 -0.16541135733E+03  0.17054184688E+03  0.00000000000E+00 0.  1.
         14    1    3    3    0    0 -0.11668805714E+02 -0.32281819154E+02 -0.92906006955E+01  0.35561104257E+02  0.00000000000E+00 0. -1.
         13    1    5    5    0    0 -0.56643587413E+02  0.14102444833E+03  0.83378850713E+03  0.84752561356E+03  0.00000000000E+00 0. -1.
        -14    1    5    5    0    0  0.35329664712E+01 -0.16938822822E+01  0.38349983765E+01  0.54825451955E+01  0.00000000000E+00 0.  1.
          5    1    4    4  501    0  0.13929144057E+02 -0.29125617931E+01  0.39940215483E+02  0.42605132123E+02  0.41800000000E+01 0. -1.
         -5    1    4    4    0  501  0.50699991393E+02 -0.62620142233E+02 -0.89305000231E+02  0.12035209515E+03  0.41800000000E+01 0. -1.
</event>
<event>
11    1  0.8299058E-009  0.1604913E+03  0.7561462E-02  0.1086616E+00
         22   -1    0    0    0    0  0.00000000000E+00  0.00000000000E+00  0.11618255097E+04  0.11618255097E+04  0.00000000000E+00 0. -1.
         22   -1    0    0    0    0 -0.00000000000E+00 -0.00000000000E+00 -0.99527998062E+02  0.99527998062E+02  0.00000000000E+00 0.  1.
        -24    2    1    2    0    0 -0.61442401231E+02 -0.61842997869E+02  0.11102028774E+02  0.11924683455E+03  0.80602899781E+02 0.  0.
         25    2    1    2    0    0  0.95316678925E+02  0.10864771241E+03  0.17071018971E+03  0.25627960872E+03  0.12509066425E+03 0.  0.
         24    2    1    2    0    0 -0.33874277694E+02 -0.46804714545E+02  0.88048529313E+03  0.88582706447E+03  0.78083857017E+02 0.  0.
        -13    1    5    5    0    0  0.18220892432E+02 -0.22002531703E+02  0.51720567173E+03  0.51799403394E+03  0.00000000000E+00 0.  1.
         14    1    5    5    0    0 -0.52095170126E+02 -0.24802182841E+02  0.36327962140E+03  0.36783303053E+03  0.00000000000E+00 0. -1.
         11    1    3    3    0    0 -0.64471016164E+02 -0.41515571975E+02  0.37850724756E+02  0.85514513424E+02  0.00000000000E+00 0. -1.
        -12    1    3    3    0    0  0.30286149331E+01 -0.20327425894E+02 -0.26748695982E+02  0.33732321127E+02  0.00000000000E+00 0.  1.
          5    1    4    4  501    0  0.74047540726E+02  0.83421517399E+02  0.18811633119E+03  0.21874051822E+03  0.41800000000E+01 0. -1.
         -5    1    4    4    0  501  0.21269138200E+02  0.25226195015E+02 -0.17406141476E+02  0.37539090502E+02  0.41800000000E+01 0. -1.
</event>
<event>
11    1  0.8299058E-009  0.1636185E+03  0.7561462E-02  0.1083722E+00
         22   -1    0    0    0    0  0.00000000000E+00  0.00000000000E+00  0.99285089367E+02  0.99285089367E+02  0.00000000000E+00 0. -1.
         22   -1    0    0    0    0 -0.00000000000E+00 -0.00000000000E+00 -0.17239255448E+04  0.17239255448E+04  0.00000000000E+00 0. -1.
         24    2    1    2    0    0  0.55562505329E+02  0.22651807396E+02 -0.11868841504E+04  0.11910852612E+04  0.79936328972E+02 0.  0.
         25    2    1    2    0    0 -0.12219958414E+03 -0.97503210387E+02 -0.46233148327E+03  0.50382263768E+03  0.12508891006E+03 0.  0.
        -24    2    1    2    0    0  0.66637078814E+02  0.74851402991E+02  0.24575178266E+02  0.12830273522E+03  0.76252342093E+02 0.  0.
        -11    1    3    3    0    0 -0.42872458281E+00 -0.25665735563E+02 -0.34965445307E+03  0.35059542258E+03  0.00000000000E+00 0.  1.
         12    1    3    3    0    0  0.55991229911E+02  0.48317542959E+02 -0.83722969734E+03  0.84048983866E+03  0.00000000000E+00 0. -1.
         11    1    5    5    0    0  0.36103893163E+02  0.33624930295E+02  0.50690223859E+02  0.70736311988E+02  0.00000000000E+00 0. -1.
        -12    1    5    5    0    0  0.30533185651E+02  0.41226472696E+02 -0.26115045593E+02  0.57566423228E+02  0.00000000000E+00 0.  1.
          5    1    4    4  501    0 -0.83110926493E+02 -0.11292345545E+03 -0.42468033427E+03  0.44724712588E+03  0.41800000000E+01 0. -1.
         -5    1    4    4    0  501 -0.39088657649E+02  0.15420245067E+02 -0.37651149000E+02  0.56575511802E+02  0.41800000000E+01 0. -1.
</event>
<event>
11    1  0.8299058E-009  0.1439139E+03  0.7561462E-02  0.1103265E+00
         22   -1    0    0    0    0  0.00000000000E+00  0.00000000000E+00  0.99278838092E+03  0.99278838092E+03  0.00000000000E+00 0. -1.
         22   -1    0    0    0    0 -0.00000000000E+00 -0.00000000000E+00 -0.50329786981E+03  0.50329786981E+03  0.00000000000E+00 0. -1.
         24    2    1    2    0    0 -0.57431952173E+02  0.18181634120E+02 -0.38506308876E+03  0.39844981124E+03  0.82823117556E+02 0.  0.
         25    2    1    2    0    0  0.10564047679E+03  0.33070244358E+02 -0.43603683751E+02  0.17262353941E+03  0.12507619167E+03 0.  0.
        -24    2    1    2    0    0 -0.48208524619E+02 -0.51251878479E+02  0.91815728362E+03  0.92501290008E+03  0.87665563088E+02 0.  0.
        -13    1    3    3    0    0 -0.96760370725E+01 -0.20040450019E+02 -0.26042693560E+02  0.34255907786E+02  0.00000000000E+00 0.  1.
         14    1    3    3    0    0 -0.47755915101E+02  0.38222084139E+02 -0.35902039520E+03  0.36419390345E+03  0.00000000000E+00 0. -1.
         13    1    5    5    0    0 -0.24506570630E+02 -0.27548649598E+02  0.82808478265E+03  0.82890524631E+03  0.00000000000E+00 0. -1.
        -14    1    5    5    0    0 -0.23701953989E+02 -0.23703228881E+02  0.90072500971E+02  0.96107653772E+02  0.00000000000E+00 0.  1.
          5    1    4    4  501    0  0.87312098382E+02  0.66617800861E+02 -0.65924450474E+02  0.12815942995E+03  0.41800000000E+01 0.  1.
         -5    1    4    4    0  501  0.18328378410E+02 -0.33547556503E+02  0.22320766724E+02  0.44464109454E+02  0.41800000000E+01 0.  1.
</event>
<event>
11    1  0.8299058E-009  0.2244412E+03  0.7561462E-02  0.1038471E+00
         22   -1    0    0    0    0  0.00000000000E+00  0.00000000000E+00  0.77599639255E+03  0.77599639255E+03  0.00000000000E+00 0. -1.
         22   -1    0    0    0    0 -0.00000000000E+00 -0.00000000000E+00 -0.10956235697E+03  0.10956235697E+03  0.00000000000E+00 0. -1.
        -24    2    1    2    0    0  0.60021944547E+02  0.84900708172E+01  0.28018063837E+02  0.10426926812E+03  0.80077170551E+02 0.  0.
         25    2    1    2    0    0  0.82889360305E+02  0.13468628396E+03  0.16759000318E+03  0.26219462742E+03  0.12509425384E+03 0.  0.
         24    2    1    2    0    0 -0.14291130485E+03 -0.14317635478E+03  0.47082596856E+03  0.51909485398E+03  0.82820680582E+02 0.  0.
        -11    1    5    5    0    0 -0.55344820285E+02 -0.94169019404E+01  0.90029700313E+02  0.10609935963E+03  0.00000000000E+00 0.  1.
         12    1    5    5    0    0 -0.87566484567E+02 -0.13375945284E+03  0.38079626825E+03  0.41299549435E+03  0.00000000000E+00 0. -1.
         11    1    3    3    0    0  0.67191389748E+02  0.21660007903E+02  0.43333852130E+02  0.82835146762E+02  0.00000000000E+00 0. -1.
        -12    1    3    3    0    0 -0.71694452012E+01 -0.13169937085E+02 -0.15315788294E+02  0.21434121358E+02  0.00000000000E+00 0.  1.
          5    1    4    4  501    0  0.19959888126E+02 -0.96227188477E+01  0.77597447602E+02  0.80807364307E+02  0.41800000000E+01 0.  1.
         -5    1    4    4    0  501  0.62929472179E+02  0.14430900281E+03  0.89992555574E+02  0.18138726311E+03  0.41800000000E+01 0.  1.
</event>
<event>
11    1  0.8299058E-009  0.1349668E+03  0.7561462E-02  0.1113313E+00
         22   -1    0    0    0    0  0.00000000000E+00  0.00000000000E+00  0.86776204556E+03  0.86776204556E+03  0.00000000000E+00 0. -1.
         22   -1    0    0    0    0 -0.00000000000E+00 -0.00000000000E+00 -0.54106284619E+03  0.54106284619E+03  0.00000000000E+00 0.  1.
        -24    2    1    2    0    0  0.12631230027E+02 -0.48051535065E+02 -0.47719559981E+03  0.48657759233E+03  0.81077832246E+02 0.  0.
         25    2    1    2    0    0 -0.38278123066E+02  0.62469646821E+02  0.35380902945E+02  0.14922012398E+03  0.12508863109E+03 0.  0.
         24    2    1    2    0    0  0.25646893039E+02 -0.14418111756E+02  0.76851389624E+03  0.77302717544E+03  0.78049729004E+02 0.  0.
        -13    1    5    5    0    0  0.37746670136E+02  0.10269314574E+02  0.19666791615E+03  0.20052067018E+03  0.00000000000E+00 0.  1.
         14    1    5    5    0    0 -0.12099777097E+02 -0.24687426330E+02  0.57184598009E+03  0.57250650526E+03  0.00000000000E+00 0. -1.
         13    1    3    3    0    0 -0.20388081584E+01 -0.33036051230E+02 -0.57414101776E+02  0.66271536140E+02  0.00000000000E+00 0. -1.
        -14    1    3    3    0    0  0.14670038186E+02 -0.15015483835E+02 -0.41978149804E+03  0.42030605619E+03  0.00000000000E+00 0.  1.
          5    1    4    4  501    0 -0.84305946597E+02  0.36659994871E+02  0.22897449067E+02  0.94832554692E+02  0.41800000000E+01 0.  1.
         -5    1    4    4    0  501  0.46027823531E+02  0.25809651950E+02  0.12483453878E+02  0.54387569291E+02  0.41800000000E+01 0.  1.
</event>
<event>
11    1  0.2318918E-008  0.1907003E+03  0.7561462E-02  0.1061302E+00
         22   -1    0    0    0    0  0.00000000000E+00  0.00000000000E+00  0.11423133190E+04  0.11423133190E+04  0.00000000000E+00 0.  1.
         22   -1    0    0    0    0 -0.00000000000E+00 -0.00000000000E+00 -0.70672292552E+03  0.70672292552E+03  0.00000000000E+00 0. -1.
        -24    2    1    2    0    0 -0.23912235126E+02 -0.21256821322E+02 -0.47516659777E+03  0.48279228947E+03  0.79255609827E+02 0.  0.
         25    2    1    2    0    0 -0.78910388766E+01 -0.11984822914E+03 -0.18748489703E+03  0.25539827415E+03  0.12510725520E+03 0.  0.
         24    2    1    2    0    0  0.31803274002E+02  0.14110505046E+03  0.10982418883E+04  0.11108456809E+04  0.83191334161E+02 0.  0.
        -11    1    5    5    0    0  0.32431382517E+02  0.93666649630E+02  0.95094193166E+03  0.95609402948E+03  0.00000000000E+00 0.  1.
         12    1    5    5    0    0 -0.62810851450E+00  0.47438400832E+02  0.14729995667E+03  0.15475165145E+03  0.00000000000E+00 0. -1.
         13    1    3    3    0    0 -0.11457272184E+02 -0.27914205052E+02 -0.46348048138E+03  0.46446165456E+03  0.00000000000E+00 0. -1.
        -14    1    3    3    0    0 -0.12454962942E+02  0.66573837300E+01 -0.11686116390E+02  0.18330634912E+02  0.00000000000E+00 0.  1.
          5    1    4    4  501    0  0.59896750441E+01 -0.14446683014E+03 -0.16106009654E+03  0.21648179673E+03  0.41800000000E+01 0.  1.
         -5    1    4    4    0  501 -0.13880713921E+02  0.24618601002E+02 -0.26424800490E+02  0.38916477425E+02  0.41800000000E+01 0.  1.
</event>
<event>
11    1  0.8299058E-009  0.1768449E+03  0.7561462E-02  0.1072224E+00
         22   -1    0    0    0    0  0.00000000000E+00  0.00000000000E+00  0.19145226780E+04  0.19145226780E+04  0.00000000000E+00 0. -1.
         22   -1    0    0    0    0 -0.00000000000E+00 -0.00000000000E+00 -0.15741055724E+03  0.15741055724E+03  0.00000000000E+00 0. -1.
        -24    2    1    2    0    0  0.12335957696E+03  0.29245046261E+02 -0.10091098787E+03  0.18105941640E+03  0.80787541328E+02 0.  0.
         25    2    1    2    0    0 -0.74903368305E+02 -0.10495495096E+03  0.57692465984E+03  0.60424749856E+03  0.12508764956E+03 0.  0.
         24    2    1    2    0    0 -0.48456208659E+02  0.75709904701E+02  0.12810984488E+04  0.12866263203E+04  0.78192446526E+02 0.  0.
        -13    1    5    5    0    0 -0.56765594423E+02  0.68909337147E+02  0.73221776078E+03  0.73764061619E+03  0.00000000000E+00 0.  1.
         14    1    5    5    0    0  0.83093857640E+01  0.68005675542E+01  0.54888068807E+03  0.54898570414E+03  0.00000000000E+00 0. -1.
         11    1    3    3    0    0  0.21120846742E+02 -0.22096437323E+02 -0.34361480299E+01  0.30759548481E+02  0.00000000000E+00 0. -1.
        -12    1    3    3    0    0  0.10223873022E+03  0.51341483583E+02 -0.97474839844E+02  0.15029986792E+03  0.00000000000E+00 0.  1.
          5    1    4    4  501    0 -0.89322716449E+02 -0.18118781060E+02  0.27645206043E+03  0.29111862190E+03  0.41800000000E+01 0.  1.
         -5    1    4    4    0  501  0.14419348144E+02 -0.86836169902E+02  0.30047259941E+03  0.31312887666E+03  0.41800000000E+01 0.  1.
</event>
<event>
11    1  0.8299058E-009  0.1639672E+03  0.7561462E-02  0.1083404E+00
         22   -1    0    0    0    0  0.00000000000E+00  0.00000000000E+00  0.29545426446E+03  0.29545426446E+03  0.00000000000E+00 0. -1.
         22   -1    0    0    0    0 -0.00000000000E+00 -0.00000000000E+00 -0.86023053305E+03  0.86023053305E+03  0.00000000000E+00 0.  1.
        -24    2    1    2    0    0  0.10071460204E+02 -0.14489602050E+00 -0.54882719780E+03  0.55468595099E+03  0.79773152591E+02 0.  0.
         25    2    1    2    0    0 -0.11077855620E+03  0.31553407260E+02 -0.26669997145E+03  0.31629220229E+03  0.12507748171E+03 0.  0.
         24    2    1    2    0    0  0.10070709599E+03 -0.31408511240E+02  0.25075090066E+03  0.28470664424E+03  0.83984792248E+02 0.  0.
        -11    1    5    5    0    0  0.35247481943E+02  0.25347397156E+02  0.51004104712E+02  0.66979804594E+02  0.00000000000E+00 0.  1.
         12    1    5    5    0    0  0.65459614051E+02 -0.56755908396E+02  0.19974679595E+03  0.21772683965E+03  0.00000000000E+00 0. -1.
         13    1    3    3    0    0  0.20817091016E+02 -0.29680849099E+02 -0.13881712261E+03  0.14347298565E+03  0.00000000000E+00 0. -1.
        -14    1    3    3    0    0 -0.10745630812E+02  0.29535953078E+02 -0.41001007519E+03  0.41121296534E+03  0.00000000000E+00 0.  1.
          5    1    4    4  501    0  0.14157830635E+02  0.36571252264E+02 -0.10276536264E+03  0.11007312487E+03  0.41800000000E+01 0. -1.
         -5    1    4    4    0  501 -0.12493638683E+03 -0.50178450037E+01 -0.16393460881E+03  0.20621907742E+03  0.41800000000E+01 0. -1.
</event>
<event>
11    1  0.8299058E-009  0.1944349E+03  0.7561462E-02  0.1058530E+00
         22   -1    0    0    0    0  0.00000000000E+00  0.00000000000E+00  0.56710139275E+03  0.56710139275E+03  0.00000000000E+00 0. -1.
         22   -1    0    0    0    0 -0.00000000000E+00 -0.00000000000E+00 -0.80098481806E+03  0.80098481806E+03  0.00000000000E+00 0. -1.
         24    2    1    2    0    0 -0.51663813445E+02 -0.86753267889E+01 -0.68573109211E+03  0.69229676410E+03  0.79393122976E+02 0.  0.
         25    2    1    2    0    0 -0.73055649598E+02  0.98609075709E+02 -0.17429264096E+02  0.17610735766E+03  0.12509654042E+03 0.  0.
        -24    2    1    2    0    0  0.12471946304E+03 -0.89933748920E+02  0.46927693090E+03  0.49968208905E+03  0.76277969201E+02 0.  0.
        -11    1    3    3    0    0  0.12023934633E+02  0.58749622244E+01 -0.35072998203E+03  0.35098519981E+03  0.00000000000E+00 0.  1.
         12    1    3    3    0    0 -0.63687748078E+02 -0.14550289013E+02 -0.33500111008E+03  0.34131156429E+03  0.00000000000E+00 0. -1.
         13    1    5    5    0    0  0.12356499202E+03 -0.91595057618E+02  0.47192028233E+03  0.49635341714E+03  0.00000000000E+00 0. -1.
        -14    1    5    5    0    0  0.11544710210E+01  0.16613086982E+01 -0.26433514266E+01  0.33286719114E+01  0.00000000000E+00 0.  1.
          5    1    4    4  501    0  0.90431243752E+01 -0.16100611273E+02 -0.28865210014E+02  0.34520726107E+02  0.41800000000E+01 0.  1.
         -5    1    4    4    0  501 -0.82098773974E+02  0.11470968698E+03  0.11435945918E+02  0.14158663155E+03  0.41800000000E+01 0.  1.
</event>
<event>
11    1  0.8299058E-009  0.1663364E+03  0.7561462E-02  0.1081265E+00
         22   -1    0    0    0    0  0.00000000000E+00  0.00000000000E+00  0.14986271270E+04  0.14986271270E+04  0.00000000000E+00 0.  1.
         22   -1    0    0    0    0 -0.00000000000E+00 -0.00000000000E+00 -0.44804174651E+03  0.44804174651E+03  0.00000000000E+00 0. -1.
        -24    2    1    2    0    0  0.94096999747E+01 -0.25067724218E+02 -0.41321610826E+03  0.42179468699E+03  0.80288682875E+02 0.  0.
         25    2    1    2    0    0  0.48702741802E+02 -0.72659010254E+02  0.19970220110E+03  0.25135579983E+03  0.12508988829E+03 0.  0.
         24    2    1    2    0    0 -0.58112441777E+02  0.97726734472E+02  0.12640992877E+04  0.12735183867E+04  0.10475925583E+03 0.  0.
        -13    1    5    5    0    0 -0.16237136646E+02  0.42488436573E+02  0.98109406724E+03  0.98214789142E+03  0.00000000000E+00 0.  1.
         14    1    5    5    0    0 -0.41875305131E+02  0.55238297899E+02  0.28300522044E+03  0.29137049530E+03  0.00000000000E+00 0. -1.
         11    1    3    3    0    0  0.36071852687E+01 -0.31963574134E+02 -0.41133165084E+03  0.41258745599E+03  0.00000000000E+00 0. -1.
        -12    1    3    3    0    0  0.58025147060E+01  0.68958499160E+01 -0.18844574210E+01  0.92072310034E+01  0.00000000000E+00 0.  1.
          5    1    4    4  501    0 -0.84663574266E+01  0.17505068140E+02 -0.49469950485E+01  0.20495164763E+02  0.41800000000E+01 0. -1.
         -5    1    4    4    0  501  0.57169099229E+02 -0.90164078394E+02  0.20464919614E+03  0.23086063506E+03  0.41800000000E+01 0. -1.
</event>
<event>
11    1  0.8299058E-009  0.2019615E+03  0.7561462E-02  0.1053145E+00
         22   -1    0    0    0    0  0.00000000000E+00  0.00000000000E+00  0.71555884257E+03  0.71555884257E+03  0.00000000000E+00 0. -1.
         22   -1    0    0    0    0 -0.00000000000E+00 -0.00000000000E+00 -0.76952468047E+03  0.76952468047E+03  0.00000000000E+00 0. -1.
         24    2    1    2    0    0 -0.69151217131E+02 -0.35987209628E+02 -0.36561639426E+03  0.38248528697E+03  0.80886815390E+02 0.  0.
         25    2    1    2    0    0 -0.78611985846E+02  0.97423361315E+02 -0.36338482361E+03  0.40418773405E+03  0.12509212078E+03 0.  0.
        -24    2    1    2    0    0  0.14776320298E+03 -0.61436151687E+02  0.67503537997E+03  0.69841050202E+03  0.80598388495E+02 0.  0.
        -11    1    3    3    0    0 -0.62772454971E+02  0.10931041142E+02 -0.23751356112E+03  0.24591169244E+03  0.00000000000E+00 0.  1.
         12    1    3    3    0    0 -0.63787621603E+01 -0.46918250770E+02 -0.12810283314E+03  0.13657359452E+03  0.00000000000E+00 0. -1.
         11    1    5    5    0    0  0.13963063081E+03 -0.48245908235E+02  0.46724511908E+03  0.49004324505E+03  0.00000000000E+00 0. -1.
        -12    1    5    5    0    0  0.81325721689E+01 -0.13190243452E+02  0.20779026089E+03  0.20836725696E+03  0.00000000000E+00 0.  1.
          5    1    4    4  501    0 -0.99750711726E+02  0.95749836076E+02 -0.35501000998E+03  0.38100894371E+03  0.41800000000E+01 0. -1.
         -5    1    4    4    0  501  0.21138725880E+02  0.16735252388E+01 -0.83748136276E+01  0.23178790345E+02  0.41800000000E+01 0. -1.
</event>
<event>
11    1  0.8299058E-009  0.1299609E+03  0.7561462E-02  0.1119317E+00
         22   -1    0    0    0    0  0.00000000000E+00  0.00000000000E+00  0.12635782475E+04  0.12635782475E+04  0.00000000000E+00 0.  1.
         22   -1    0    0    0    0 -0.00000000000E+00 -0.00000000000E+00 -0.18293089404E+03  0.18293089404E+03  0.00000000000E+00 0.  1.
         24    2    1    2    0    0  0.72556816668E+01 -0.47273659486E+02 -0.85719032142E+02  0.12755729636E+03  0.81459607076E+02 0.  0.
         25    2    1    2    0    0 -0.13019526730E+02  0.66805719350E+00 -0.21284516219E+02  0.12755595640E+03  0.12509011554E+03 0.  0.
        -24    2    1    2    0    0  0.57638450633E+01  0.46605602293E+02  0.11876509018E+04  0.11913958888E+04  0.81879149702E+02 0.  0.
        -11    1    3    3    0    0  0.46038442315E+01 -0.62463096835E+02 -0.29444321475E+02  0.69208394831E+02  0.00000000000E+00 0.  1.
         12    1    3    3    0    0  0.26518374353E+01  0.15189437349E+02 -0.56274710667E+02  0.58348901527E+02  0.00000000000E+00 0. -1.
         13    1    5    5    0    0  0.27289582260E+02 -0.21721941262E+01  0.15714927764E+03  0.15951594024E+03  0.00000000000E+00 0. -1.
        -14    1    5    5    0    0 -0.21525737197E+02  0.48777796419E+02  0.10305016242E+04  0.10318799485E+04  0.00000000000E+00 0.  1.
          5    1    4    4  501    0 -0.49183153285E+01  0.10568994182E+02 -0.73038356577E+02  0.74080816647E+02  0.41800000000E+01 0.  1.
         -5    1    4    4    0  501 -0.81012114016E+01 -0.99009369889E+01  0.51753840358E+02  0.53475139750E+02  0.41800000000E+01 0.  1.
</event>
<event>
11    1  0.8299058E-009  0.1705635E+03  0.7561462E-02  0.1077542E+00
         22   -1    0    0    0    0  0.00000000000E+00  0.00000000000E+00  0.27574453539E+04  0.27574453539E+04  0.00000000000E+00 0. -1.
         22   -1    0    0    0    0 -0.00000000000E+00 -0.00000000000E+00 -0.42909986444E+03  0.42909986444E+03  0.00000000000E+00 0. -1.
         24    2    1    2    0    0  0.32250622173E+02 -0.26292229037E+02 -0.25734562804E+03  0.27293245776E+03  0.80832977744E+02 0.  0.
         25    2    1    2    0    0 -0.42119349775E+02  0.14149220434E+03 -0.10437903345E+03  0.21985700119E+03  0.12509210540E+03 0.  0.
        -24    2    1    2    0    0  0.98687276022E+01 -0.11519997530E+03  0.26900701510E+04  0.26937557594E+04  0.80462712228E+02 0.  0.
        -11    1    3    3    0    0  0.39259967755E+02 -0.38919528589E+02 -0.94759465849E+02  0.10970611260E+03  0.00000000000E+00 0.  1.
         12    1    3    3    0    0 -0.70093455821E+01  0.12627299552E+02 -0.16258616219E+03  0.16322634516E+03  0.00000000000E+00 0. -1.
         11    1    5    5    0    0 -0.28137851525E+02 -0.89017773396E+02  0.16159985463E+04  0.16186930543E+04  0.00000000000E+00 0. -1.
        -12    1    5    5    0    0  0.38006579128E+02 -0.26182201904E+02  0.10740716047E+04  0.10750627051E+04  0.00000000000E+00 0.  1.
          5    1    4    4  501    0 -0.16254694874E+02  0.16026987320E+03 -0.89812584318E+02  0.18448420004E+03  0.41800000000E+01 0.  1.
         -5    1    4    4    0  501 -0.25864654901E+02 -0.18777668862E+02 -0.14566449134E+02  0.35372801153E+02  0.41800000000E+01 0.  1.
</event>
<event>
11    1  0.8299058E-009  0.1443042E+03  0.7561462E-02  0.1102845E+00
         22   -1    0    0    0    0  0.00000000000E+00  0.00000000000E+00  0.28441722649E+04  0.28441722649E+04  0.00000000000E+00 0. -1.
         22   -1    0    0    0    0 -0.00000000000E+00 -0.00000000000E+00 -0.74003253683E+03  0.74003253683E+03  0.00000000000E+00 0. -1.
        -24    2    1    2    0    0  0.14368070593E+02 -0.71284254561E+02 -0.71619529689E+03  0.72417763822E+03  0.78801408691E+02 0.  0.
         25    2    1    2    0    0 -0.11260348791E+02  0.33299815200E+02  0.20160649746E+03  0.23982071594E+03  0.12503248708E+03 0.  0.
         24    2    1    2    0    0 -0.31077218019E+01  0.37984439362E+02  0.26187285275E+04  0.26202064476E+04  0.79311106205E+02 0.  0.
        -11    1    5    5    0    0  0.19083157417E+02  0.51970838573E+02  0.12485676045E+04  0.12497944623E+04  0.00000000000E+00 0.  1.
         12    1    5    5    0    0 -0.22190879219E+02 -0.13986399211E+02  0.13701609230E+04  0.13704119853E+04  0.00000000000E+00 0. -1.
         11    1    3    3    0    0  0.22667217515E+02 -0.22799607462E+02 -0.54786174739E+03  0.54880426302E+03  0.00000000000E+00 0. -1.
        -12    1    3    3    0    0 -0.82991469216E+01 -0.48484647099E+02 -0.16833354950E+03  0.17537337520E+03  0.00000000000E+00 0.  1.
          5    1    4    4  501    0 -0.34650496575E+02  0.66646373189E+02  0.17631214956E+03  0.19169205110E+03  0.41800000000E+01 0.  1.
         -5    1    4    4    0  501  0.23390147784E+02 -0.33346557989E+02  0.25294347898E+02  0.48128664834E+02  0.41800000000E+01 0.  1.
</event>
<event>
11    1  0.8299058E-009  0.1479629E+03  0.7561462E-02  0.1098979E+00
         22   -1    0    0    0    0  0.00000000000E+00  0.00000000000E+00  0.38016756253E+03  0.38016756253E+03  0.00000000000E+00 0.  1.
         22   -1    0    0    0    0 -0.00000000000E+00 -0.00000000000E+00 -0.37030254337E+03  0.37030254337E+03  0.00000000000E+00 0.  1.
         24    2    1    2    0    0 -0.98994059559E+01 -0.79381141048E+02 -0.31171067058E+03  0.33383497186E+03  0.88785598431E+02 0.  0.
         25    2    1    2    0    0  0.37318099615E+02  0.62722461178E+02  0.94084555508E+02  0.17270559523E+03  0.12509424985E+03 0.  0.
        -24    2    1    2    0    0 -0.27418693659E+02  0.16658679870E+02  0.22749113424E+03  0.24392953881E+03  0.81976261022E+02 0.  0.
        -11    1    3    3    0    0  0.26943170498E+02 -0.57800066117E+02 -0.25496706230E+03  0.26282120337E+03  0.00000000000E+00 0.  1.
         12    1    3    3    0    0 -0.36842576454E+02 -0.21581074931E+02 -0.56743608281E+02  0.71013768493E+02  0.00000000000E+00 0. -1.
         11    1    5    5    0    0 -0.12504695169E+02  0.14101405325E+02  0.31859999039E+01  0.19114592039E+02  0.00000000000E+00 0. -1.
        -12    1    5    5    0    0 -0.14913998490E+02  0.25572745447E+01  0.22430513433E+03  0.22481494677E+03  0.00000000000E+00 0.  1.
          5    1    4    4  501    0 -0.17726180268E+02  0.52742042290E+02 -0.78568126035E+01  0.56348401894E+02  0.41800000000E+01 0.  1.
         -5    1    4    4    0  501  0.55044279883E+02  0.99804188880E+01  0.10194136811E+03  0.11635719334E+03  0.41800000000E+01 0.  1.
</event>
<event>
11    1  0.8299058E-009  0.3479660E+03  0.7561462E-02  0.9817139E-01
         22   -1    0    0    0    0  0.00000000000E+00  0.00000000000E+00  0.27104152943E+03  0.27104152943E+03  0.00000000000E+00 0. -1.
         22   -1    0    0    0    0 -0.00000000000E+00 -0.00000000000E+00 -0.10308557242E+04  0.10308557242E+04  0.00000000000E+00 0.  1.
        -24    2    1    2    0    0 -0.14941269866E+03  0.19744121330E+03 -0.62483580934E+03  0.67692627124E+03  0.80636225273E+02 0.  0.
         25    2    1    2    0    0 -0.14889790372E+03  0.14305037429E+02 -0.15641242370E+03  0.24997689092E+03  0.12509348455E+03 0.  0.
         24    2    1    2    0    0  0.29831060238E+03 -0.21174625073E+03  0.21434038280E+02  0.37499409146E+03  0.79595605676E+02 0.  0.
        -13    1    5    5    0    0  0.23250988389E+03 -0.13136912458E+03  0.38199742061E+02  0.26977381877E+03  0.00000000000E+00 0.  1.
         14    1    5    5    0    0  0.65800718489E+02 -0.80377126152E+02 -0.16765703781E+02  0.10522027269E+03  0.00000000000E+00 0. -1.
         11    1    3    3    0    0 -0.13879948922E+02  0.55726804056E+02 -0.85029824023E+02  0.10260702045E+03  0.00000000000E+00 0. -1.
        -12    1    3    3    0    0 -0.13553274974E+03  0.14171440924E+03 -0.53980598532E+03  0.57431925079E+03  0.00000000000E+00 0.  1.
          5    1    4    4  501    0 -0.41022229596E+02  0.58624977477E+02 -0.29337463626E+02  0.77445919693E+02  0.41800000000E+01 0. -1.
         -5    1    4    4    0  501 -0.10787567412E+03 -0.44319940048E+02 -0.12707496008E+03  0.17253097123E+03  0.41800000000E+01 0. -1.
</event>
<event>
11    1  0.8299058E-009  0.1898241E+03  0.7561462E-02  0.1061962E+00
         22   -1    0    0    0    0  0.00000000000E+00  0.00000000000E+00  0.17667683133E+03  0.17667683133E+03  0.00000000000E+00 0.  1.
         22   -1    0    0    0    0 -0.00000000000E+00 -0.00000000000E+00 -0.76060297922E+03  0.76060297922E+03  0.00000000000E+00 0. -1.
        -24    2    1    2    0    0  0.57307939341E+02 -0.70627375452E+02 -0.39101282845E+03  0.40796278086E+03  0.72595953623E+02 0.  0.
         25    2    1    2    0    0  0.84503206393E+02  0.11061147250E+03 -0.28240244958E+03  0.33878136214E+03  0.12508388412E+03 0.  0.
         24    2    1    2    0    0 -0.14181114573E+03 -0.39984097049E+02  0.89489130148E+02  0.19053566755E+03  0.81156682542E+02 0.  0.
        -13    1    5    5    0    0 -0.15173994730E+03 -0.43183164372E+02  0.83291222629E+02  0.17840186394E+03  0.00000000000E+00 0.  1.
         14    1    5    5    0    0  0.99288015647E+01  0.31990673230E+01  0.61979075188E+01  0.12133803602E+02  0.00000000000E+00 0. -1.
         13    1    3    3    0    0  0.44437079478E+02 -0.66481943377E+02 -0.38490765080E+03  0.39312644591E+03  0.00000000000E+00 0. -1.
        -14    1    3    3    0    0  0.12870859862E+02 -0.41454320748E+01 -0.61051776449E+01  0.14836334950E+02  0.00000000000E+00 0.  1.
          5    1    4    4  501    0  0.96232213423E+02  0.95125530554E+02 -0.28791995731E+03  0.31815857631E+03  0.41800000000E+01 0. -1.
         -5    1    4    4    0  501 -0.11729007030E+02  0.15485941947E+02  0.55175077277E+01  0.20622785831E+02  0.41800000000E+01 0. -1.
</event>
<event>
11    1  0.8299058E-009  0.1792338E+03  0.7561462E-02  0.1070264E+00
         22   -1    0    0    0    0  0.00000000000E+00  0.00000000000E+00  0.11542312198E+04  0.11542312198E+04  0.00000000000E+00 0. -1.
         22   -1    0    0    0    0 -0.00000000000E+00 -0.00000000000E+00 -0.30017106872E+03  0.30017106872E+03  0.00000000000E+00 0. -1.
        -24    2    1    2    0    0 -0.27930526333E+02  0.63080363925E+02 -0.25457052318E+03  0.27551307634E+03  0.79637035027E+02 0.  0.
         25    2    1    2    0    0 -0.91601765906E+02  0.82528231378E+01  0.18533872541E+03  0.24177878435E+03  0.12509014676E+03 0.  0.
         24    2    1    2    0    0  0.11953229224E+03 -0.71333187063E+02  0.92329194882E+03  0.93711042780E+03  0.79570966263E+02 0.  0.
        -13    1    5    5    0    0  0.48514634587E+02 -0.53430122490E+01  0.14941115535E+03  0.15718114039E+03  0.00000000000E+00 0.  1.
         14    1    5    5    0    0  0.71017657652E+02 -0.65990174814E+02  0.77388079346E+03  0.77992928741E+03  0.00000000000E+00 0. -1.
         13    1    3    3    0    0  0.22592923735E+02  0.99342785712E+01 -0.11746483049E+03  0.12002964840E+03  0.00000000000E+00 0. -1.
        -14    1    3    3    0    0 -0.50523450068E+02  0.53146085354E+02 -0.13710569270E+03  0.15548342794E+03  0.00000000000E+00 0.  1.
          5    1    4    4  501    0 -0.48367894779E+02 -0.58047106647E+01  0.18971651207E+03  0.19591573511E+03  0.41800000000E+01 0. -1.
         -5    1    4    4    0  501 -0.43233871127E+02  0.14057533802E+02 -0.43777866578E+01  0.45863049236E+02  0.41800000000E+01 0. -1.
</event>
<event>
11    1  0.8299058E-009  0.3575098E+03  0.7561462E-02  0.9784179E-01
         22   -1    0    0    0    0  0.00000000000E+00  0.00000000000E+00  0.33733478873E+04  0.33733478873E+04  0.00000000000E+00 0.  1.
         22   -1    0    0    0    0 -0.00000000000E+00 -0.00000000000E+00 -0.48847986749E+03  0.48847986749E+03  0.00000000000E+00 0. -1.
        -24    2    1    2    0    0  0.50091629222E+01  0.21301730470E+02 -0.35416501129E+03  0.36398329448E+03  0.81068662317E+02 0.  0.
         25    2    1    2    0    0 -0.27565908229E+03 -0.21649317513E+03  0.16900767904E+03  0.40873887442E+03  0.12508655945E+03 0.  0.
         24    2    1    2    0    0  0.27064991937E+03  0.19519144466E+03  0.30700253521E+04  0.30891055859E+04  0.78527572004E+02 0.  0.
        -11    1    5    5    0    0  0.23447988480E+03  0.18319781167E+03  0.28775627151E+04  0.28929067447E+04  0.00000000000E+00 0.  1.
         12    1    5    5    0    0  0.36170034575E+02  0.11993632997E+02  0.19246263699E+03  0.19619884116E+03  0.00000000000E+00 0. -1.
         13    1    3    3    0    0 -0.21299144129E+02  0.38702082584E+02 -0.27888895415E+03  0.28236599208E+03  0.00000000000E+00 0. -1.
        -14    1    3    3    0    0  0.26308307051E+02 -0.17400352114E+02 -0.75276057136E+02  0.81617302403E+02  0.00000000000E+00 0.  1.
          5    1    4    4  501    0 -0.27068573210E+03 -0.15892089313E+03  0.14859476074E+03  0.34731036719E+03  0.41800000000E+01 0. -1.
         -5    1    4    4    0  501 -0.49733501941E+01 -0.57572282000E+02  0.20412918298E+02  0.61428507228E+02  0.41800000000E+01 0. -1.
</event>
<event>
11    1  0.8299058E-009  0.1328230E+03  0.7561462E-02  0.1115848E+00
         22   -1    0    0    0    0  0.00000000000E+00  0.00000000000E+00  0.31597511986E+03  0.31597511986E+03  0.00000000000E+00 0.  1.
         22   -1    0    0    0    0 -0.00000000000E+00 -0.00000000000E+00 -0.72066549983E+03  0.72066549983E+03  0.00000000000E+00 0. -1.
        -24    2    1    2    0    0  0.14335855534E+02 -0.91109005046E+01 -0.49103379927E+03  0.49755291219E+03  0.78461348103E+02 0.  0.
         25    2    1    2    0    0  0.14142347951E+02  0.43604381534E+02 -0.19884074277E+03  0.23934465552E+03  0.12508746957E+03 0.  0.
         24    2    1    2    0    0 -0.28478203485E+02 -0.34493481030E+02  0.28518416207E+03  0.29974305198E+03  0.80716061635E+02 0.  0.
        -11    1    5    5    0    0 -0.25089094768E+02 -0.16869060844E+02  0.27918859693E+03  0.28082076232E+03  0.00000000000E+00 0.  1.
         12    1    5    5    0    0 -0.33891087172E+01 -0.17624420186E+02  0.59955651391E+01  0.18922289664E+02  0.00000000000E+00 0. -1.
         11    1    3    3    0    0  0.41243626664E+02 -0.20928696406E+02 -0.21260579502E+03  0.21757819548E+03  0.00000000000E+00 0. -1.
        -12    1    3    3    0    0 -0.26907771130E+02  0.11817795901E+02 -0.27842800425E+03  0.27997471671E+03  0.00000000000E+00 0.  1.
          5    1    4    4  501    0 -0.32697281137E+02  0.50794602162E+02 -0.17686167152E+03  0.18694043719E+03  0.41800000000E+01 0. -1.
         -5    1    4    4    0  501  0.46839629088E+02 -0.71902206279E+01 -0.21979071252E+02  0.52404218331E+02  0.41800000000E+01 0. -1.
</event>
<event>
11    1  0.8299058E-009  0.1823711E+03  0.7561462E-02  0.1067741E+00
         22   -1    0    0    0    0  0.00000000000E+00  0.00000000000E+00  0.68943539126E+02  0.68943539126E+02  0.00000000000E+00 0.  1.
         22   -1    0    0    0    0 -0.00000000000E+00 -0.00000000000E+00 -0.20446401344E+04  0.20446401344E+04  0.00000000000E+00 0. -1.
         24    2    1    2    0    0  0.48322463760E+02 -0.12170809800E+03 -0.14928464967E+04  0.15006528692E+04  0.78869826241E+02 0.  0.
         25    2    1    2    0    0 -0.17837656223E+02  0.14351309102E+03 -0.48815805671E+03  0.52427057415E+03  0.12508859788E+03 0.  0.
        -24    2    1    2    0    0 -0.30484807537E+02 -0.21804993015E+02  0.53079581412E+01  0.88660230171E+02  0.80172818233E+02 0.  0.
        -11    1    3    3    0    0  0.27973387969E+01  0.94206628388E+01 -0.22820368367E+03  0.22841518171E+03  0.00000000000E+00 0.  1.
         12    1    3    3    0    0  0.45525124963E+02 -0.13112876084E+03 -0.12646428130E+04  0.12722376875E+04  0.00000000000E+00 0. -1.
         11    1    5    5    0    0  0.25312649012E+02 -0.16438007447E+02 -0.76305779334E+01  0.31131399076E+02  0.00000000000E+00 0. -1.
        -12    1    5    5    0    0 -0.55797456549E+02 -0.53669855689E+01  0.12938536075E+02  0.57528831095E+02  0.00000000000E+00 0.  1.
          5    1    4    4  501    0 -0.41151816441E+02  0.12773452902E+03 -0.24435951076E+03  0.27881647154E+03  0.41800000000E+01 0.  1.
         -5    1    4    4    0  501  0.23314160218E+02  0.15778561998E+02 -0.24379854595E+03  0.24545410262E+03  0.41800000000E+01 0.  1.
</event>
<event>
11    1  0.8299058E-009  0.2417257E+03  0.7561462E-02  0.1028402E+00
         22   -1    0    0    0    0  0.00000000000E+00  0.00000000000E+00  0.20511895141E+04  0.20511895141E+04  0.00000000000E+00 0.  1.
         22   -1    0    0    0    0 -0.00000000000E+00 -0.00000000000E+00 -0.28583598384E+03  0.28583598384E+03  0.00000000000E+00 0. -1.
        -24    2    1    2    0    0  0.64261609622E+02 -0.19877234569E+03 -0.22024168799E+03  0.31376325845E+03  0.79378720953E+02 0.  0.
         25    2    1    2    0    0 -0.58342981311E+02  0.16696085595E+03  0.66146348752E+03  0.69603511255E+03  0.12510436319E+03 0.  0.
         24    2    1    2    0    0 -0.59186283115E+01  0.31811489742E+02  0.13241317307E+04  0.13272271269E+04  0.84616813329E+02 0.  0.
        -11    1    5    5    0    0 -0.39681620127E+02  0.40793193260E+01  0.89216133210E+03  0.89305269403E+03  0.00000000000E+00 0.  1.
         12    1    5    5    0    0  0.33762991815E+02  0.27732170416E+02  0.43197039861E+03  0.43417443288E+03  0.00000000000E+00 0. -1.
         11    1    3    3    0    0  0.23525757341E+02 -0.12929736933E+03 -0.18231131753E+03  0.22474137909E+03  0.00000000000E+00 0. -1.
        -12    1    3    3    0    0  0.40735852282E+02 -0.69474976367E+02 -0.37930370460E+02  0.89021879364E+02  0.00000000000E+00 0.  1.
          5    1    4    4  501    0 -0.23614683500E+02  0.15974425346E+02  0.31704806896E+03  0.31835481145E+03  0.41800000000E+01 0.  1.
         -5    1    4    4    0  501 -0.34728297810E+02  0.15098643061E+03  0.34441541856E+03  0.37768030110E+03  0.41800000000E+01 0.  1.
</event>
<event>
11    1  0.8299058E-009  0.1520763E+03  0.7561462E-02  0.1094776E+00
         22   -1    0    0    0    0  0.00000000000E+00  0.00000000000E+00  0.17696487890E+03  0.17696487890E+03  0.00000000000E+00 0. -1.
         22   -1    0    0    0    0 -0.00000000000E+00 -0.00000000000E+00 -0.14917246762E+04  0.14917246762E+04  0.00000000000E+00 0. -1.
         24    2    1    2    0    0 -0.42879339122E+01 -0.11678892648E+02 -0.10542919080E+04  0.10573697639E+04  0.79653044415E+02 0.  0.
         25    2    1    2    0    0  0.88967296210E+02  0.27694030493E+02 -0.40008582584E+03  0.42941496248E+03  0.12508558208E+03 0.  0.
        -24    2    1    2    0    0 -0.84679362298E+02 -0.16015137845E+02  0.13961793657E+03  0.18190482866E+03  0.78543742207E+02 0.  0.
        -13    1    3    3    0    0  0.20770977318E+02  0.73097878394E+01 -0.93282692315E+02  0.95846372819E+02  0.00000000000E+00 0.  1.
         14    1    3    3    0    0 -0.25058911231E+02 -0.18988680487E+02 -0.96100921567E+03  0.96152339109E+03  0.00000000000E+00 0. -1.
         13    1    5    5    0    0 -0.43500198315E+02  0.13728100496E+02  0.11834721792E+03  0.12683371786E+03  0.00000000000E+00 0. -1.
        -14    1    5    5    0    0 -0.41179163983E+02 -0.29743238341E+02  0.21270718650E+02  0.55071110805E+02  0.00000000000E+00 0.  1.
          5    1    4    4  501    0  0.54169313868E+02  0.23685901920E+02 -0.49960063021E+02  0.77516558307E+02  0.41800000000E+01 0.  1.
         -5    1    4    4    0  501  0.34797982343E+02  0.40081285729E+01 -0.35012576282E+03  0.35189840418E+03  0.41800000000E+01 0.  1.
</event>
<event>
11    1  0.8299058E-009  0.3474749E+03  0.7561462E-02  0.9818866E-01
         22   -1    0    0    0    0  0.00000000000E+00  0.00000000000E+00  0.49988960409E+03  0.49988960409E+03  0.00000000000E+00 0.  1.
         22   -1    0    0    0    0 -0.00000000000E+00 -0.00000000000E+00 -0.69824735549E+03  0.69824735549E+03  0.00000000000E+00 0.  1.
        -24    2    1    2    0    0  0.51795855103E+02 -0.34779806894E+02 -0.22869983970E+03  0.25054162685E+03  0.81086648282E+02 0.  0.
         25    2    1    2    0    0 -0.20279341079E+03 -0.25306342587E+03 -0.31328789444E+03  0.46793625460E+03  0.12509503827E+03 0.  0.
         24    2    1    2    0    0  0.15099755568E+03  0.28784323276E+03  0.34362998273E+03  0.47965907814E+03  0.79607020633E+02 0.  0.
        -11    1    5    5    0    0  0.61451250401E+02  0.50138180132E+02  0.10068556163E+03  0.12817049428E+03  0.00000000000E+00 0.  1.
         12    1    5    5    0    0  0.89546305281E+02  0.23770505263E+03  0.24294442110E+03  0.35148858385E+03  0.00000000000E+00 0. -1.
         11    1    3    3    0    0 -0.18701505992E+02  0.25304928690E+01 -0.21994425662E+02  0.28981105581E+02  0.00000000000E+00 0. -1.
        -12    1    3    3    0    0  0.70497361095E+02 -0.37310299763E+02 -0.20670541404E+03  0.22156052127E+03  0.00000000000E+00 0.  1.
          5    1    4    4  501    0 -0.18412462006E+03 -0.15236541169E+03 -0.25709329701E+03  0.35104348757E+03  0.41800000000E+01 0.  1.
         -5    1    4    4    0  501 -0.18668790725E+02 -0.10069801417E+03 -0.56194597423E+02  0.11689276704E+03  0.41800000000E+01 0.  1.
</event>
<event>
11    1  0.8299058E-009  0.1351624E+03  0.7561462E-02  0.1113084E+00
         22   -1    0    0    0    0  0.00000000000E+00  0.00000000000E+00  0.39935563756E+03  0.39935563756E+03  0.00000000000E+00 0.  1.
         22   -1    0    0    0    0 -0.00000000000E+00 -0.00000000000E+00 -0.41176309234E+03  0.41176309234E+03  0.00000000000E+00 0.  1.
        -24    2    1    2    0    0  0.47999181555E+02 -0.35174806505E+01 -0.32430493799E+03  0.33730349002E+03  0.79269524248E+02 0.  0.
         25    2    1    2    0    0 -0.87699188539E+02  0.55701509550E+01  0.23054026066E+01  0.15288881064E+03  0.12508996477E+03 0.  0.
         24    2    1    2    0    0  0.39700006984E+02 -0.20526703045E+01  0.30959208060E+03  0.32092642925E+03  0.74607054674E+02 0.  0.
        -13    1    5    5    0    0  0.56803052318E+02 -0.11564135340E+01  0.28703777026E+03  0.29260657135E+03  0.00000000000E+00 0.  1.
         14    1    5    5    0    0 -0.17103045334E+02 -0.89625677047E+00  0.22554310343E+02  0.28319857891E+02  0.00000000000E+00 0. -1.
         11    1    3    3    0    0 -0.87148288875E+01 -0.38595023652E+01 -0.16145666590E+01  0.96669967695E+01  0.00000000000E+00 0. -1.
        -12    1    3    3    0    0  0.56714010442E+02  0.34202171474E+00 -0.32269037133E+03  0.32763649325E+03  0.00000000000E+00 0.  1.
          5    1    4    4  501    0 -0.76198704543E+02  0.56290468679E+02 -0.18681607734E+02  0.96650578403E+02  0.41800000000E+01 0. -1.
         -5    1    4    4    0  501 -0.11500483997E+02 -0.50720317724E+02  0.20987010341E+02  0.56238232238E+02  0.41800000000E+01 0. -1.
</event>
<event>
11    1  0.8299058E-009  0.1326658E+03  0.7561462E-02  0.1116036E+00
         22   -1    0    0    0    0  0.00000000000E+00  0.00000000000E+00  0.16863056642E+04  0.16863056642E+04  0.00000000000E+00 0. -1.
         22   -1    0    0    0    0 -0.00000000000E+00 -0.00000000000E+00 -0.12731169081E+04  0.12731169081E+04  0.00000000000E+00 0.  1.
         24    2    1    2    0    0 -0.28800627652E+02 -0.33820319239E+02 -0.12310283400E+04  0.12345294410E+04  0.81601940147E+02 0.  0.
         25    2    1    2    0    0  0.22368525581E+01  0.36764362414E+02  0.69170420557E+02  0.14761119880E+03  0.12509155479E+03 0.  0.
        -24    2    1    2    0    0  0.26563775093E+02 -0.29440431760E+01  0.15750466755E+04  0.15772819325E+04  0.79573632596E+02 0.  0.
        -13    1    3    3    0    0 -0.69074430785E+01 -0.47048903898E+02 -0.11000138182E+04  0.11010411947E+04  0.00000000000E+00 0.  1.
         14    1    3    3    0    0 -0.21893184573E+02  0.13228584660E+02 -0.13101452184E+03  0.13348824636E+03  0.00000000000E+00 0. -1.
         13    1    5    5    0    0 -0.13297806308E+02  0.10325270660E+02  0.11584307280E+04  0.11585530607E+04  0.00000000000E+00 0. -1.
        -14    1    5    5    0    0  0.39861581402E+02 -0.13269313836E+02  0.41661594756E+03  0.41872887185E+03  0.00000000000E+00 0.  1.
          5    1    4    4  501    0 -0.16825366668E+02  0.79498903199E+02  0.56149510677E+02  0.98860550892E+02  0.41800000000E+01 0.  1.
         -5    1    4    4    0  501  0.19062219226E+02 -0.42734540785E+02  0.13020909880E+02  0.48750647913E+02  0.41800000000E+01 0.  1.
</event>
<event>
11    1  0.8299058E-009  0.1346636E+03  0.7561462E-02  0.1113668E+00
         22   -1    0    0    0    0  0.00000000000E+00  0.00000000000E+00  0.36441607045E+03  0.36441607045E+03  0.00000000000E+00 0.  1.
         22   -1    0    0    0    0 -0.00000000000E+00 -0.00000000000E+00 -0.64110496367E+03  0.64110496367E+03  0.00000000000E+00 0. -1.
         24    2    1    2    0    0 -0.38554930564E+02 -0.52373769583E+01 -0.56273195953E+03  0.56944048799E+03  0.77982679456E+02 0.  0.
         25    2    1    2    0    0 -0.15294311279E+02  0.51385338360E+01 -0.81576143515E+01  0.12638867747E+03  0.12508889092E+03 0.  0.
        -24    2    1    2    0    0  0.53849241843E+02  0.98843122338E-01  0.29420068067E+03  0.30969186865E+03  0.80344647544E+02 0.  0.
        -11    1    3    3    0    0 -0.17808367701E+02  0.32110292699E+02 -0.14689091869E+03  0.15141053745E+03  0.00000000000E+00 0.  1.
         12    1    3    3    0    0 -0.20746562862E+02 -0.37347669658E+02 -0.41584104084E+03  0.41802995054E+03  0.00000000000E+00 0. -1.
         13    1    5    5    0    0 -0.30192124575E+01 -0.28294951402E+02  0.51858720826E+02  0.59152741648E+02  0.00000000000E+00 0. -1.
        -14    1    5    5    0    0  0.56868454300E+02  0.28393794524E+02  0.24234195984E+03  0.25053912701E+03  0.00000000000E+00 0.  1.
          5    1    4    4  501    0 -0.38530889853E+02  0.12752178908E+02  0.49187947784E+02  0.63907543741E+02  0.41800000000E+01 0. -1.
         -5    1    4    4    0  501  0.23236578574E+02 -0.76136450721E+01 -0.57345562136E+02  0.62481133727E+02  0.41800000000E+01 0. -1.
</event>
<event>
11    1  0.8299058E-009  0.1781804E+03  0.7561462E-02  0.1071124E+00
         22   -1    0    0    0    0  0.00000000000E+00  0.00000000000E+00  0.97786504237E+03  0.97786504237E+03  0.00000000000E+00 0.  1.
         22   -1    0    0    0    0 -0.00000000000E+00 -0.00000000000E+00 -0.23010479094E+03  0.23010479094E+03  0.00000000000E+00 0.  1.
         24    2    1    2    0    0 -0.21803807809E+02  0.28012611771E+02 -0.18791844850E+03  0.20489320248E+03  0.73537532486E+02 0.  0.
         25    2    1    2    0    0 -0.51748356386E+02 -0.12791415859E+03  0.32315384589E+03  0.37298515353E+03  0.12509833046E+03 0.  0.
        -24    2    1    2    0    0  0.73552164195E+02  0.99901546820E+02  0.61252485404E+03  0.63009147730E+03  0.80239223788E+02 0.  0.
        -13    1    3    3    0    0  0.10127198447E+02  0.40502116084E+02 -0.13915186870E+03  0.14527981319E+03  0.00000000000E+00 0.  1.
         14    1    3    3    0    0 -0.31931006256E+02 -0.12489504313E+02 -0.48766579794E+02  0.59613389296E+02  0.00000000000E+00 0. -1.
         13    1    5    5    0    0  0.82192810424E+01  0.72974843750E+02  0.38139782807E+03  0.38840338266E+03  0.00000000000E+00 0. -1.
        -14    1    5    5    0    0  0.65332883152E+02  0.26926703070E+02  0.23112702596E+03  0.24168809464E+03  0.00000000000E+00 0.  1.
          5    1    4    4  501    0 -0.25065747536E+02 -0.42476268094E+02  0.25669645715E+03  0.26142507256E+03  0.41800000000E+01 0.  1.
         -5    1    4    4    0  501 -0.26682608850E+02 -0.85437890496E+02  0.66457388736E+02  0.11156008097E+03  0.41800000000E+01 0.  1.
</event>
<event>
11    1  0.8299058E-009  0.1518874E+03  0.7561462E-02  0.1094966E+00
         22   -1    0    0    0    0  0.00000000000E+00  0.00000000000E+00  0.74974002646E+02  0.74974002646E+02  0.00000000000E+00 0.  1.
         22   -1    0    0    0    0 -0.00000000000E+00 -0.00000000000E+00 -0.21392465834E+04  0.21392465834E+04  0.00000000000E+00 0. -1.
        -24    2    1    2    0    0  0.59165706396E+02 -0.35606018144E+02 -0.18671897135E+04  0.18702626451E+04  0.81954659957E+02 0.  0.
         25    2    1    2    0    0 -0.96409861519E+02 -0.40472406157E+02 -0.13571453600E+03  0.21212943113E+03  0.12509030022E+03 0.  0.
         24    2    1    2    0    0  0.37244155124E+02  0.76078424301E+02 -0.61368331220E+02  0.13182850974E+03  0.80234843861E+02 0.  0.
        -11    1    5    5    0    0  0.21442977886E+02  0.20559396019E+02  0.17206115289E+02  0.34329877201E+02  0.00000000000E+00 0.  1.
         12    1    5    5    0    0  0.15801177238E+02  0.55519028282E+02 -0.78574446509E+02  0.97498632542E+02  0.00000000000E+00 0. -1.
         13    1    3    3    0    0  0.53753141094E+02 -0.14403881625E+02 -0.17591103116E+04  0.17599903296E+04  0.00000000000E+00 0. -1.
        -14    1    3    3    0    0  0.54125653017E+01 -0.21202136519E+02 -0.10807940188E+03  0.11027231550E+03  0.00000000000E+00 0.  1.
          5    1    4    4  501    0 -0.88208181469E+02  0.21676140049E+02 -0.11363345273E+03  0.14553546751E+03  0.41800000000E+01 0. -1.
         -5    1    4    4    0  501 -0.82016800500E+01 -0.62148546207E+02 -0.22081083278E+02  0.66593963615E+02  0.41800000000E+01 0. -1.
</event>
<event>
11    1  0.8299058E-009  0.1327727E+03  0.7561462E-02  0.1115908E+00
         22   -1    0    0    0    0  0.00000000000E+00  0.00000000000E+00  0.10620098310E+03  0.10620098310E+03  0.00000000000E+00 0.  1.
         22   -1    0    0    0    0 -0.00000000000E+00 -0.00000000000E+00 -0.17749673741E+04  0.17749673741E+04  0.00000000000E+00 0.  1.
        -24    2    1    2    0    0  0.41003894585E+02  0.83421371269E+01 -0.14695976122E+04  0.14723051238E+04  0.78830992524E+02 0.  0.
         25    2    1    2    0    0 -0.19927571753E+02 -0.48501032072E+02 -0.26254301005E+03  0.29550821963E+03  0.12508723963E+03 0.  0.
         24    2    1    2    0    0 -0.21076322832E+02  0.40158894945E+02  0.63374231177E+02  0.11335501377E+03  0.82317177687E+02 0.  0.
        -11    1    5    5    0    0 -0.89619756556E+01  0.63036223531E+02  0.59566260815E+02  0.87189574561E+02  0.00000000000E+00 0.  1.
         12    1    5    5    0    0 -0.12114347176E+02 -0.22877328586E+02  0.38079703621E+01  0.26165439209E+02  0.00000000000E+00 0. -1.
         11    1    3    3    0    0 -0.79570940299E+01 -0.22442125774E+02 -0.20367909765E+03  0.20506618242E+03  0.00000000000E+00 0. -1.
        -12    1    3    3    0    0  0.48960988615E+02  0.30784262901E+02 -0.12659185145E+04  0.12672389414E+04  0.00000000000E+00 0.  1.
          5    1    4    4  501    0  0.11865845094E+02  0.32430067375E+02 -0.14573991417E+03  0.14983358279E+03  0.41800000000E+01 0. -1.
         -5    1    4    4    0  501 -0.31793416848E+02 -0.80931099447E+02 -0.11680309588E+03  0.14567463685E+03  0.41800000000E+01 0. -1.
</event>
<event>
11    1  0.8299058E-009  0.2152412E+03  0.7561462E-02  0.1044240E+00
         22   -1    0    0    0    0  0.00000000000E+00  0.00000000000E+00  0.97560583077E+03  0.97560583077E+03  0.00000000000E+00 0. -1.
         22   -1    0    0    0    0 -0.00000000000E+00 -0.00000000000E+00 -0.27104675365E+03  0.27104675365E+03  0.00000000000E+00 0. -1.
        -24    2    1    2    0    0  0.33471649398E+02 -0.19762325376E+02 -0.20964060516E+03  0.22834847545E+03  0.81749263544E+02 0.  0.
         25    2    1    2    0    0 -0.80146589626E+02  0.18056047704E+03  0.32049355493E+03  0.39672304160E+03  0.12508993279E+03 0.  0.
         24    2    1    2    0    0  0.46674940228E+02 -0.16079815167E+03  0.59370612736E+03  0.62158106738E+03  0.76429457875E+02 0.  0.
        -11    1    5    5    0    0 -0.63464525879E+01 -0.11689564626E+02  0.14831118512E+03  0.14890645055E+03  0.00000000000E+00 0.  1.
         12    1    5    5    0    0  0.53021392816E+02 -0.14910858704E+03  0.44539494224E+03  0.47267461683E+03  0.00000000000E+00 0. -1.
         13    1    3    3    0    0  0.49190249614E+02 -0.40382993891E+02 -0.16301864796E+03  0.17500156124E+03  0.00000000000E+00 0. -1.
        -14    1    3    3    0    0 -0.15718600216E+02  0.20620668514E+02 -0.46621957204E+02  0.53346914215E+02  0.00000000000E+00 0.  1.
          5    1    4    4  501    0  0.30240575622E+02  0.15938303327E+02  0.34602041759E+02  0.48819008806E+02  0.41800000000E+01 0.  1.
         -5    1    4    4    0  501 -0.11038716525E+03  0.16462217371E+03  0.28589151317E+03  0.34790403279E+03  0.41800000000E+01 0.  1.
</event>
<event>
11    1  0.8299058E-009  0.1267305E+03  0.7561462E-02  0.1123353E+00
         22   -1    0    0    0    0  0.00000000000E+00  0.00000000000E+00  0.45302899973E+03  0.45302899973E+03  0.00000000000E+00 0. -1.
         22   -1    0    0    0    0 -0.00000000000E+00 -0.00000000000E+00 -0.13165508908E+04  0.13165508908E+04  0.00000000000E+00 0.  1.
         24    2    1    2    0    0 -0.37940118159E+00 -0.15900989977E+02 -0.12869144537E+04  0.12895425533E+04  0.80735371583E+02 0.  0.
         25    2    1    2    0    0 -0.18323059165E+02  0.20474248597E+02  0.16554800659E+03  0.20930367695E+03  0.12508779855E+03 0.  0.
        -24    2    1    2    0    0  0.18702460347E+02 -0.45732586205E+01  0.25784455599E+03  0.27073366033E+03  0.80263335735E+02 0.  0.
        -13    1    3    3    0    0 -0.32558792622E+02 -0.25355467749E+02 -0.96581258414E+03  0.96669381006E+03  0.00000000000E+00 0.  1.
         14    1    3    3    0    0  0.32179391441E+02  0.94544777719E+01 -0.32110186953E+03  0.32284874322E+03  0.00000000000E+00 0. -1.
         13    1    5    5    0    0 -0.16224047079E+02 -0.22070835711E+00  0.21351453360E+03  0.21413015778E+03  0.00000000000E+00 0. -1.
        -14    1    5    5    0    0  0.34926507426E+02 -0.43525502634E+01  0.44330022393E+02  0.56603502543E+02  0.00000000000E+00 0.  1.
          5    1    4    4  501    0  0.11037038048E+02  0.41836952247E+02  0.39781330607E+01  0.43651400033E+02  0.41800000000E+01 0. -1.
         -5    1    4    4    0  501 -0.29360097214E+02 -0.21362703649E+02  0.16156987353E+03  0.16565227692E+03  0.41800000000E+01 0. -1.
</event>
<event>
11    1  0.8299058E-009  0.1581729E+03  0.7561462E-02  0.1088808E+00
         22   -1    0    0    0    0  0.00000000000E+00  0.00000000000E+00  0.73621738674E+03  0.73621738674E+03  0.00000000000E+00 0.  1.
         22   -1    0    0    0    0 -0.00000000000E+00 -0.00000000000E+00 -0.42471350735E+03  0.42471350735E+03  0.00000000000E+00 0. -1.
         24    2    1    2    0    0  0.12236611692E+01 -0.50798213102E+02 -0.37887500547E+03  0.39055170305E+03  0.80015043452E+02 0.  0.
         25    2    1    2    0    0 -0.95079965758E+02  0.18358103375E+02  0.16101131573E+03  0.22572291924E+03  0.12509585377E+03 0.  0.
        -24    2    1    2    0    0  0.93856304589E+02  0.32440109727E+02  0.52936756914E+03  0.54465627180E+03  0.80988051710E+02 0.  0.
        -11    1    3    3    0    0 -0.19780413405E+02  0.15148401098E+02 -0.12187028908E+03  0.12439094088E+03  0.00000000000E+00 0.  1.
         12    1    3    3    0    0  0.21004074574E+02 -0.65946614200E+02 -0.25700471639E+03  0.26616076217E+03  0.00000000000E+00 0. -1.
         13    1    5    5    0    0  0.88920428855E+01  0.39586374449E+02  0.22222576843E+03  0.22589918464E+03  0.00000000000E+00 0. -1.
        -14    1    5    5    0    0  0.84964261703E+02 -0.71462647216E+01  0.30714180071E+03  0.31875708715E+03  0.00000000000E+00 0.  1.
          5    1    4    4  501    0  0.17263596687E+02 -0.83028083156E-01 -0.98904129977E+01  0.20330551726E+02  0.41800000000E+01 0. -1.
         -5    1    4    4    0  501 -0.11234356244E+03  0.18441131458E+02  0.17090172872E+03  0.20539236751E+03  0.41800000000E+01 0. -1.
</event>
<event>
11    1  0.8299058E-009  0.1608083E+03  0.7561462E-02  0.1086319E+00
         22   -1    0    0    0    0  0.00000000000E+00  0.00000000000E+00  0.29230624389E+03  0.29230624389E+03  0.00000000000E+00 0. -1.
         22   -1    0    0    0    0 -0.00000000000E+00 -0.00000000000E+00 -0.10110911075E+04  0.10110911075E+04  0.00000000000E+00 0. -1.
        -24    2    1    2    0    0 -0.87293523432E+02 -0.55666041166E+02 -0.86693783145E+03  0.87674981726E+03  0.79938545706E+02 0.  0.
         25    2    1    2    0    0  0.43459923420E+02  0.76519465347E+02 -0.84813736873E+02  0.17486811432E+03  0.12506595829E+03 0.  0.
         24    2    1    2    0    0  0.43833600012E+02 -0.20853424181E+02  0.23296670469E+03  0.25177941985E+03  0.82238318163E+02 0.  0.
        -11    1    5    5    0    0 -0.24226007980E+02 -0.11402986021E+02  0.66741447330E+02  0.71912087611E+02  0.00000000000E+00 0.  1.
         12    1    5    5    0    0  0.68059607992E+02 -0.94504381601E+01  0.16622525736E+03  0.17986733223E+03  0.00000000000E+00 0. -1.
         11    1    3    3    0    0 -0.60957735749E+02  0.79583083677E+01 -0.37213391168E+03  0.37717744954E+03  0.00000000000E+00 0. -1.
        -12    1    3    3    0    0 -0.26335787683E+02 -0.63624349534E+02 -0.49480391977E+03  0.49957236772E+03  0.00000000000E+00 0.  1.
          5    1    4    4  501    0 -0.13760962272E+02  0.82870017092E+02 -0.81392925606E+02  0.11704308845E+03  0.41800000000E+01 0.  1.
         -5    1    4    4    0  501  0.57220885691E+02 -0.63505517444E+01 -0.34208112662E+01  0.57825025867E+02  0.41800000000E+01 0.  1.
</event>
<event>
11    1  0.8299058E-009  0.1286935E+03  0.7561462E-02  0.1120885E+00
         22   -1    0    0    0    0  0.00000000000E+00  0.00000000000E+00  0.37244826268E+03  0.37244826268E+03  0.00000000000E+00 0. -1.
         22   -1    0    0    0    0 -0.00000000000E+00 -0.00000000000E+00 -0.23762109423E+03  0.23762109423E+03  0.00000000000E+00 0. -1.
        -24    2    1    2    0    0  0.22184465715E+02  0.22542084139E+02 -0.13864860347E+03  0.16313540671E+03  0.79933907697E+02 0.  0.
         25    2    1    2    0    0 -0.45048955748E+01 -0.28613115007E+02 -0.30535974611E+02  0.13198203412E+03  0.12509119534E+03 0.  0.
         24    2    1    2    0    0 -0.17679570141E+02  0.60710308682E+01  0.30401174653E+03  0.31495191608E+03  0.80138272987E+02 0.  0.
        -11    1    5    5    0    0  0.22963597295E+02 -0.10834909527E+02  0.40590476517E+02  0.47878062294E+02  0.00000000000E+00 0.  1.
         12    1    5    5    0    0 -0.40643167436E+02  0.16905940395E+02  0.26342127002E+03  0.26707385379E+03  0.00000000000E+00 0. -1.
         13    1    3    3    0    0  0.13120783975E+02  0.47591868211E+02 -0.12227959743E+03  0.13186902912E+03  0.00000000000E+00 0. -1.
        -14    1    3    3    0    0  0.90636817408E+01 -0.25049784072E+02 -0.16369006039E+02  0.31266377588E+02  0.00000000000E+00 0.  1.
          5    1    4    4  501    0  0.12809019209E+02 -0.69600845721E+02  0.10063330183E+02  0.71603712980E+02  0.41800000000E+01 0. -1.
         -5    1    4    4    0  501 -0.17313914784E+02  0.40987730714E+02 -0.40599304794E+02  0.60378321142E+02  0.41800000000E+01 0. -1.
</event>
<event>
11    1  0.8299058E-009  0.1327104E+03  0.7561462E-02  0.1115983E+00
         22   -1    0    0    0    0  0.00000000000E+00  0.00000000000E+00  0.70713607286E+03  0.70713607286E+03  0.00000000000E+00 0.  1.
         22   -1    0    0    0    0 -0.00000000000E+00 -0.00000000000E+00 -0.99879634237E+02  0.99879634237E+02  0.00000000000E+00 0.  1.
         24    2    1    2    0    0 -0.23714737627E+02 -0.26831365944E+00 -0.38668477992E+02  0.94667514357E+02  0.83091674140E+02 0.  0.
         25    2    1    2    0    0 -0.10445904932E+02  0.31295815656E+02  0.11141363828E+03  0.17073094072E+03  0.12509000887E+03 0.  0.
        -24    2    1    2    0    0  0.34160642558E+02 -0.31027501997E+02  0.53451127833E+03  0.54161725202E+03  0.74278433171E+02 0.  0.
        -11    1    3    3    0    0  0.23555119445E+02  0.23666083619E+02 -0.13629600823E+02  0.36065124213E+02  0.00000000000E+00 0.  1.
         12    1    3    3    0    0 -0.47269857072E+02 -0.23934397278E+02 -0.25038877169E+02  0.58602390144E+02  0.00000000000E+00 0. -1.
         13    1    5    5    0    0  0.27162215162E+02 -0.12438093988E+02  0.63385313716E+02  0.70072748693E+02  0.00000000000E+00 0. -1.
        -14    1    5    5    0    0  0.69984273964E+01 -0.18589408009E+02  0.47112596462E+03  0.47154450332E+03  0.00000000000E+00 0.  1.
          5    1    4    4  501    0 -0.17820443595E+02 -0.34996457141E+02  0.93561527168E+02  0.10155565956E+03  0.41800000000E+01 0. -1.
         -5    1    4    4    0  501  0.73745386629E+01  0.66292272797E+02  0.17852111111E+02  0.69175281164E+02  0.41800000000E+01 0. -1.
</event>
<event>
11    1  0.8299058E-009  0.2472693E+03  0.7561462E-02  0.1025364E+00
         22   -1    0    0    0    0  0.00000000000E+00  0.00000000000E+00  0.17810942479E+03  0.17810942479E+03  0.00000000000E+00 0. -1.
         22   -1    0    0    0    0 -0.00000000000E+00 -0.00000000000E+00 -0.13047977703E+04  0.13047977703E+04  0.00000000000E+00 0. -1.
        -24    2    1    2    0    0 -0.43991127202E+02 -0.19418118156E+03 -0.80391531360E+03  0.83188795147E+03  0.78206021599E+02 0.  0.
         25    2    1    2    0    0 -0.39959558230E+01  0.26807011925E+03 -0.40152890806E+03  0.49874601745E+03  0.12507825318E+03 0.  0.
         24    2    1    2    0    0  0.47987083025E+02 -0.73888937693E+02  0.78755876172E+02  0.15227322614E+03  0.96032869981E+02 0.  0.
        -11    1    5    5    0    0  0.16192050941E+02 -0.33194337383E+02 -0.19134786676E+02  0.41595511886E+02  0.00000000000E+00 0.  1.
         12    1    5    5    0    0  0.31795032084E+02 -0.40694600310E+02  0.97890662848E+02  0.11067771425E+03  0.00000000000E+00 0. -1.
         11    1    3    3    0    0  0.17483557021E+01 -0.97655239343E+02 -0.50752780920E+03  0.51684047793E+03  0.00000000000E+00 0. -1.
        -12    1    3    3    0    0 -0.45739482904E+02 -0.96525942215E+02 -0.29638750441E+03  0.31504747354E+03  0.00000000000E+00 0.  1.
          5    1    4    4  501    0  0.56315359819E+02  0.17935584816E+03 -0.24219767666E+03  0.30662212413E+03  0.41800000000E+01 0. -1.
         -5    1    4    4    0  501 -0.60311315642E+02  0.88714271088E+02 -0.15933123139E+03  0.19212389332E+03  0.41800000000E+01 0. -1.
</event>
<event>
11    1  0.8299058E-009  0.1634795E+03  0.7561462E-02  0.1083850E+00
         22   -1    0    0    0    0  0.00000000000E+00  0.00000000000E+00  0.41062506158E+03  0.41062506158E+03  0.00000000000E+00 0.  1.
         22   -1    0    0    0    0 -0.00000000000E+00 -0.00000000000E+00 -0.11374585738E+04  0.11374585738E+04  0.00000000000E+00 0.  1.
        -24    2    1    2    0    0 -0.10202300128E+03 -0.20857259767E+02 -0.41289594388E+03  0.43324562205E+03  0.79843537478E+02 0.  0.
         25    2    1    2    0    0  0.18652069348E+03 -0.39867296585E+02 -0.68383394366E+03  0.72087139558E+03  0.12508931218E+03 0.  0.
         24    2    1    2    0    0 -0.84497692200E+02  0.60724556352E+02  0.36989637529E+03  0.39396661778E+03  0.86942715308E+02 0.  0.
        -11    1    5    5    0    0 -0.88181072124E+02  0.58934811502E+02  0.37364992035E+03  0.38841147829E+03  0.00000000000E+00 0.  1.
         12    1    5    5    0    0  0.36833799238E+01  0.17897448505E+01 -0.37535450617E+01  0.55551394963E+01  0.00000000000E+00 0. -1.
         11    1    3    3    0    0 -0.61905460307E+02 -0.35836946079E+02 -0.14213540060E+03  0.15911959283E+03  0.00000000000E+00 0. -1.
        -12    1    3    3    0    0 -0.40117540976E+02  0.14979686312E+02 -0.27076054328E+03  0.27412602921E+03  0.00000000000E+00 0.  1.
          5    1    4    4  501    0  0.71633227615E+01  0.31165963881E+02 -0.63501424873E+02  0.71221723220E+02  0.41800000000E+01 0.  1.
         -5    1    4    4    0  501  0.17935737072E+03 -0.71033260466E+02 -0.62033251879E+03  0.64964967236E+03  0.41800000000E+01 0.  1.
</event>
<event>
11    1  0.8299058E-009  0.1300985E+03  0.7561462E-02  0.1119148E+00
         22   -1    0    0    0    0  0.00000000000E+00  0.00000000000E+00  0.26894806367E+04  0.26894806367E+04  0.00000000000E+00 0. -1.
         22   -1    0    0    0    0 -0.00000000000E+00 -0.00000000000E+00 -0.15417670588E+03  0.15417670588E+03  0.00000000000E+00 0.  1.
        -24    2    1    2    0    0  0.34523630400E+02 -0.99218916672E+01 -0.13734068470E+03  0.16265677802E+03  0.79400496042E+02 0.  0.
         25    2    1    2    0    0 -0.12040254904E+02  0.20683500318E+02  0.14419433896E+04  0.14475567004E+04  0.12508751885E+03 0.  0.
         24    2    1    2    0    0 -0.22483375497E+02 -0.10761608651E+02  0.12307012259E+04  0.12334438641E+04  0.78338649070E+02 0.  0.
        -11    1    5    5    0    0  0.15555845669E+02 -0.28482427800E+02  0.29061091438E+03  0.29241740130E+03  0.00000000000E+00 0.  1.
         12    1    5    5    0    0 -0.38039221165E+02  0.17720819150E+02  0.94009031154E+03  0.94102646277E+03  0.00000000000E+00 0. -1.
         13    1    3    3    0    0  0.26876282337E+01 -0.52481923096E+00  0.10646244207E+02  0.10992783836E+02  0.00000000000E+00 0. -1.
        -14    1    3    3    0    0  0.31836002167E+02 -0.93970724363E+01 -0.14798692891E+03  0.15166399419E+03  0.00000000000E+00 0.  1.
          5    1    4    4  501    0  0.45122318912E+01 -0.12142874993E+02  0.15479521506E+02  0.20613045282E+02  0.41800000000E+01 0.  1.
         -5    1    4    4    0  501 -0.16552486795E+02  0.32826375311E+02  0.14264638681E+04  0.14269436552E+04  0.41800000000E+01 0.  1.
</event>
<event>
11    1  0.8299058E-009  0.1457742E+03  0.7561462E-02  0.1101277E+00
         22   -1    0    0    0    0  0.00000000000E+00  0.00000000000E+00  0.32896421058E+04  0.32896421058E+04  0.00000000000E+00 0.  1.
         22   -1    0    0    0    0 -0.00000000000E+00 -0.00000000000E+00 -0.19602281991E+03  0.19602281991E+03  0.00000000000E+00 0. -1.
        -24    2    1    2    0    0  0.72585915557E+02 -0.14067326789E+02 -0.17070068758E+03  0.20271355974E+03  0.80544756123E+02 0.  0.
         25    2    1    2    0    0 -0.14106315680E+03 -0.44875689001E+01  0.10958923048E+04  0.11120012441E+04  0.12509144902E+03 0.  0.
         24    2    1    2    0    0  0.68477241242E+02  0.18554895689E+02  0.21684276687E+04  0.21709501219E+04  0.76892527440E+02 0.  0.
        -11    1    5    5    0    0  0.20895267474E+02 -0.17069452089E+02  0.13879703509E+04  0.13882325718E+04  0.00000000000E+00 0.  1.
         12    1    5    5    0    0  0.47581973768E+02  0.35624347777E+02  0.78045731775E+03  0.78271755009E+03  0.00000000000E+00 0. -1.
         11    1    3    3    0    0  0.63938435930E+02  0.23177527313E+02 -0.13095612550E+03  0.14756296340E+03  0.00000000000E+00 0. -1.
        -12    1    3    3    0    0  0.86474796274E+01 -0.37244854102E+02 -0.39744562086E+02  0.55150596337E+02  0.00000000000E+00 0.  1.
          5    1    4    4  501    0  0.20910861907E+01  0.38029461735E+02  0.27015433019E+03  0.27285792479E+03  0.41800000000E+01 0. -1.
         -5    1    4    4    0  501 -0.14315424299E+03 -0.42517030635E+02  0.82573797462E+03  0.83914331930E+03  0.41800000000E+01 0. -1.
</event>
<event>
11    1  0.8299058E-009  0.1378197E+03  0.7561462E-02  0.1110018E+00
         22   -1    0    0    0    0  0.00000000000E+00  0.00000000000E+00  0.49150193371E+03  0.49150193371E+03  0.00000000000E+00 0. -1.
         22   -1    0    0    0    0 -0.00000000000E+00 -0.00000000000E+00 -0.36175818297E+03  0.36175818297E+03  0.00000000000E+00 0. -1.
        -24    2    1    2    0    0 -0.22237007011E+02  0.24177018615E+02 -0.24611929011E+03  0.26049197040E+03  0.78754993301E+02 0.  0.
         25    2    1    2    0    0  0.23432164749E+01  0.31889160720E+02 -0.61991018457E+02  0.14321719187E+03  0.12508344592E+03 0.  0.
         24    2    1    2    0    0  0.19893790537E+02 -0.56066179335E+02  0.43785405930E+03  0.44955095441E+03  0.82708548526E+02 0.  0.
        -13    1    5    5    0    0 -0.19577922042E+02 -0.35106812438E+02  0.86707394970E+02  0.95571730410E+02  0.00000000000E+00 0.  1.
         14    1    5    5    0    0  0.39471712578E+02 -0.20959366897E+02  0.35114666433E+03  0.35397922400E+03  0.00000000000E+00 0. -1.
         11    1    3    3    0    0 -0.49058988037E+01  0.34881700539E+02 -0.23431601013E+03  0.23694892588E+03  0.00000000000E+00 0. -1.
        -12    1    3    3    0    0 -0.17331108208E+02 -0.10704681923E+02 -0.11803279980E+02  0.23543044516E+02  0.00000000000E+00 0.  1.
          5    1    4    4  501    0 -0.36699413079E+02 -0.34566843544E+02 -0.14650610475E+02  0.52667128081E+02  0.41800000000E+01 0. -1.
         -5    1    4    4    0  501  0.39042629554E+02  0.66456004264E+02 -0.47340407981E+02  0.90550063794E+02  0.41800000000E+01 0. -1.
</event>
<event>
11    1  0.8299058E-009  0.1461631E+03  0.7561462E-02  0.1100865E+00
         22   -1    0    0    0    0  0.00000000000E+00  0.00000000000E+00  0.10734981665E+04  0.10734981665E+04  0.00000000000E+00 0. -1.
         22   -1    0    0    0    0 -0.00000000000E+00 -0.00000000000E+00 -0.62248398666E+03  0.62248398666E+03  0.00000000000E+00 0.  1.
        -24    2    1    2    0    0  0.69161427036E+02  0.15613426809E+02 -0.46854614822E+03  0.48079482444E+03  0.81247080581E+02 0.  0.
         25    2    1    2    0    0 -0.10606355776E+03 -0.45352024398E+02 -0.96001034472E+02  0.19537133300E+03  0.12508986665E+03 0.  0.
         24    2    1    2    0    0  0.36902130723E+02  0.29738597588E+02  0.10155613626E+04  0.10198159957E+04  0.80085158569E+02 0.  0.
        -11    1    5    5    0    0 -0.29473906421E+01 -0.23219407214E+02  0.16154251383E+03  0.16322932260E+03  0.00000000000E+00 0.  1.
         12    1    5    5    0    0  0.39849521365E+02  0.52958004802E+02  0.85401884873E+03  0.85658667314E+03  0.00000000000E+00 0. -1.
         13    1    3    3    0    0  0.95519331129E+00  0.21752116359E+02 -0.26791051449E+03  0.26879380710E+03  0.00000000000E+00 0. -1.
        -14    1    3    3    0    0  0.68206233725E+02 -0.61386895494E+01 -0.20063563373E+03  0.21200101734E+03  0.00000000000E+00 0.  1.
          5    1    4    4  501    0 -0.11681634639E+03 -0.33761892660E+02 -0.11697230971E+03  0.16877771719E+03  0.41800000000E+01 0. -1.
         -5    1    4    4    0  501  0.10752788630E+02 -0.11590131738E+02  0.20971275238E+02  0.26593615815E+02  0.41800000000E+01 0. -1.
</event>
<event>
11    1  0.8299058E-009  0.1426256E+03  0.7561462E-02  0.1104661E+00
         22   -1    0    0    0    0  0.00000000000E+00  0.00000000000E+00  0.21427666051E+03  0.21427666051E+03  0.00000000000E+00 0.  1.
         22   -1    0    0    0    0 -0.00000000000E+00 -0.00000000000E+00 -0.68290224460E+03  0.68290224460E+03  0.00000000000E+00 0. -1.
        -24    2    1    2    0    0  0.40235093500E+02  0.56502911375E+02 -0.55664256604E+03  0.56536230108E+03  0.70513427177E+02 0.  0.
         25    2    1    2    0    0 -0.57405140757E+02 -0.31887932755E+02 -0.64686065313E+02  0.15538003856E+03  0.12508588607E+03 0.  0.
         24    2    1    2    0    0  0.17170047258E+02 -0.24614978620E+02  0.15270304726E+03  0.17643656547E+03  0.83132023301E+02 0.  0.
        -11    1    5    5    0    0 -0.22002824322E+02  0.18553580033E+02  0.36973768701E+02  0.46855300470E+02  0.00000000000E+00 0.  1.
         12    1    5    5    0    0  0.39172871580E+02 -0.43168558652E+02  0.11572927856E+03  0.12958126500E+03  0.00000000000E+00 0. -1.
         11    1    3    3    0    0  0.36541146726E+02  0.66544296343E+02 -0.54164526569E+03  0.54693966086E+03  0.00000000000E+00 0. -1.
        -12    1    3    3    0    0  0.36939467743E+01 -0.10041384968E+02 -0.14997300355E+02  0.18422640223E+02  0.00000000000E+00 0.  1.
          5    1    4    4  501    0  0.16618759267E+02  0.32331073136E+02  0.22009104025E+01  0.36657848495E+02  0.41800000000E+01 0.  1.
         -5    1    4    4    0  501 -0.74023900024E+02 -0.64219005891E+02 -0.66886975716E+02  0.11872219006E+03  0.41800000000E+01 0.  1.
</event>
<event>
11    1  0.8299058E-009  0.2022235E+03  0.7561462E-02  0.1052962E+00
         22   -1    0    0    0    0  0.00000000000E+00  0.00000000000E+00  0.20716740260E+04  0.20716740260E+04  0.00000000000E+00 0.  1.
         22   -1    0    0    0    0 -0.00000000000E+00 -0.00000000000E+00 -0.24256075242E+04  0.24256075242E+04  0.00000000000E+00 0.  1.
         24    2    1    2    0    0  0.28407422142E+02  0.70112666234E+02 -0.23121168988E+04  0.23147559414E+04  0.80546550151E+02 0.  0.
         25    2    1    2    0    0 -0.55400863962E+02  0.88857320096E+02 -0.46486273094E+02  0.16962817146E+03  0.12509142219E+03 0.  0.
        -24    2    1    2    0    0  0.26993441820E+02 -0.15896998633E+03  0.20046696737E+04  0.20128974374E+04  0.83996966940E+02 0.  0.
        -13    1    3    3    0    0  0.22601400096E+02 -0.12788734810E+02 -0.72478072967E+03  0.72524580738E+03  0.00000000000E+00 0.  1.
         14    1    3    3    0    0  0.58060220457E+01  0.82901401044E+02 -0.15873361692E+04  0.15895101340E+04  0.00000000000E+00 0. -1.
         13    1    5    5    0    0  0.23872498824E+02 -0.90795915600E+01  0.14827228003E+03  0.15045598761E+03  0.00000000000E+00 0. -1.
        -14    1    5    5    0    0  0.31209429962E+01 -0.14989039477E+03  0.18563973936E+04  0.18624414498E+04  0.00000000000E+00 0.  1.
          5    1    4    4  501    0 -0.90946921801E+02  0.88944157501E+02 -0.34301749734E+02  0.13181990811E+03  0.41800000000E+01 0.  1.
         -5    1    4    4    0  501  0.35546057838E+02 -0.86837405795E-01 -0.12184523360E+02  0.37808263357E+02  0.41800000000E+01 0.  1.
</event>
<event>
11    1  0.8299058E-009  0.2385432E+03  0.7561462E-02  0.1030186E+00
         22   -1    0    0    0    0  0.00000000000E+00  0.00000000000E+00  0.14264610554E+03  0.14264610554E+03  0.00000000000E+00 0.  1.
         22   -1    0    0    0    0 -0.00000000000E+00 -0.00000000000E+00 -0.13440050400E+04  0.13440050400E+04  0.00000000000E+00 0.  1.
         24    2    1    2    0    0 -0.55110124343E+02 -0.13199370667E+02 -0.64618636588E+03  0.65357463521E+03  0.79947702558E+02 0.  0.
         25    2    1    2    0    0 -0.98112329180E+02 -0.13117508299E+03 -0.57081071980E+03  0.60688154912E+03  0.12508958905E+03 0.  0.
        -24    2    1    2    0    0  0.15322245352E+03  0.14437445366E+03  0.15638151194E+02  0.22619496125E+03  0.81231186055E+02 0.  0.
        -13    1    3    3    0    0 -0.55381430489E+02  0.18380578735E+02 -0.27923444850E+03  0.28526623661E+03  0.00000000000E+00 0.  1.
         14    1    3    3    0    0  0.27130614586E+00 -0.31579949402E+02 -0.36695191738E+03  0.36830839860E+03  0.00000000000E+00 0. -1.
         13    1    5    5    0    0 -0.45593852278E+01  0.30625165691E+02 -0.96702945853E+00  0.30977797101E+02  0.00000000000E+00 0. -1.
        -14    1    5    5    0    0  0.15778183875E+03  0.11374928797E+03  0.16605180653E+02  0.19521716414E+03  0.00000000000E+00 0.  1.
          5    1    4    4  501    0 -0.11742628274E+03 -0.60301323369E+02 -0.34679769385E+03  0.37109472421E+03  0.41800000000E+01 0. -1.
         -5    1    4    4    0  501  0.19313953558E+02 -0.70873759620E+02 -0.22401302595E+03  0.23578682491E+03  0.41800000000E+01 0. -1.
</event>
<event>
11    1  0.8299058E-009  0.1378760E+03  0.7561462E-02  0.1109954E+00
         22   -1    0    0    0    0  0.00000000000E+00  0.00000000000E+00  0.17332175512E+04  0.17332175512E+04  0.00000000000E+00 0. -1.
         22   -1    0    0    0    0 -0.00000000000E+00 -0.00000000000E+00 -0.59452803706E+03  0.59452803706E+03  0.00000000000E+00 0. -1.
         24    2    1    2    0    0 -0.36282109106E+02 -0.54710270279E+02 -0.33376751966E+03  0.34978815311E+03  0.81494722279E+02 0.  0.
         25    2    1    2    0    0 -0.17272529058E+02  0.53510829023E+02 -0.23270530550E+03  0.27011170942E+03  0.12508727865E+03 0.  0.
        -24    2    1    2    0    0  0.53554638164E+02  0.11994412562E+01  0.17051623392E+04  0.17078457257E+04  0.79302469098E+02 0.  0.
        -11    1    3    3    0    0 -0.36892950699E+02  0.99744501201E+01 -0.94629664112E+02  0.10205563579E+03  0.00000000000E+00 0.  1.
         12    1    3    3    0    0  0.61084159331E+00 -0.64684720399E+02 -0.23913785555E+03  0.24773251732E+03  0.00000000000E+00 0. -1.
         11    1    5    5    0    0  0.52320140352E+02 -0.32658169767E+02  0.11445471030E+04  0.11462076706E+04  0.00000000000E+00 0. -1.
        -12    1    5    5    0    0  0.12344978115E+01  0.33857611023E+02  0.56061523622E+03  0.56163805506E+03  0.00000000000E+00 0.  1.
          5    1    4    4  501    0 -0.53507649775E+02  0.74338725404E+02 -0.18551282570E+03  0.20693427840E+03  0.41800000000E+01 0.  1.
         -5    1    4    4    0  501  0.36235120718E+02 -0.20827896381E+02 -0.47192479797E+02  0.63177431021E+02  0.41800000000E+01 0.  1.
</event>
<event>
11    1  0.8299058E-009  0.1306087E+03  0.7561462E-02  0.1118523E+00
         22   -1    0    0    0    0  0.00000000000E+00  0.00000000000E+00  0.69535622964E+03  0.69535622964E+03  0.00000000000E+00 0.  1.
         22   -1    0    0    0    0 -0.00000000000E+00 -0.00000000000E+00 -0.43436265532E+03  0.43436265532E+03  0.00000000000E+00 0.  1.
        -24    2    1    2    0    0  0.28067484071E+02  0.58144452089E+01 -0.37631327216E+03  0.38573826194E+03  0.79754225468E+02 0.  0.
         25    2    1    2    0    0 -0.33144334123E+02 -0.42442721326E+02  0.42455423437E+02  0.14264420086E+03  0.12507986881E+03 0.  0.
         24    2    1    2    0    0  0.50768500522E+01  0.36628276117E+02  0.59485142305E+03  0.60133642217E+03  0.79936675603E+02 0.  0.
        -11    1    5    5    0    0 -0.13714283504E+02 -0.17191164039E+02  0.31336569467E+03  0.31413639759E+03  0.00000000000E+00 0.  1.
         12    1    5    5    0    0  0.18791133556E+02  0.53819440156E+02  0.28148572838E+03  0.28720002458E+03  0.00000000000E+00 0. -1.
         13    1    3    3    0    0 -0.23122897532E+02  0.20283863261E+02 -0.11341289414E+03  0.11750994875E+03  0.00000000000E+00 0. -1.
        -14    1    3    3    0    0  0.51190381603E+02 -0.14469418052E+02 -0.26290037802E+03  0.26822831318E+03  0.00000000000E+00 0.  1.
          5    1    4    4  501    0  0.35388427049E+02  0.10625346864E+02 -0.13307302361E+02  0.39494245924E+02  0.41800000000E+01 0. -1.
         -5    1    4    4    0  501 -0.68532761172E+02 -0.53068068190E+02  0.55762725798E+02  0.10314995494E+03  0.41800000000E+01 0. -1.
</event>
<event>
11    1  0.8299058E-009  0.1366829E+03  0.7561462E-02  0.1111320E+00
         22   -1    0    0    0    0  0.00000000000E+00  0.00000000000E+00  0.88068651339E+03  0.88068651339E+03  0.00000000000E+00 0. -1.
         22   -1    0    0    0    0 -0.00000000000E+00 -0.00000000000E+00 -0.12576730878E+03  0.12576730878E+03  0.00000000000E+00 0.  1.
         24    2    1    2    0    0  0.48503784220E+02  0.28139622384E+02 -0.77210144639E+02  0.12682527413E+03  0.83539142270E+02 0.  0.
         25    2    1    2    0    0 -0.63701923176E+02  0.25533427565E+02  0.23917449418E+03  0.27850231501E+03  0.12509680195E+03 0.  0.
        -24    2    1    2    0    0  0.15198138956E+02 -0.53673049949E+02  0.59295485507E+03  0.60112623303E+03  0.81519986336E+02 0.  0.
        -13    1    3    3    0    0  0.69683183354E+02  0.32116673079E+02 -0.47924038167E+02  0.90465132323E+02  0.00000000000E+00 0.  1.
         14    1    3    3    0    0 -0.21179399134E+02 -0.39770506950E+01 -0.29286106472E+02  0.36360141806E+02  0.00000000000E+00 0. -1.
         13    1    5    5    0    0  0.28485573203E+02 -0.33766505148E+02  0.55143758603E+03  0.55320431672E+03  0.00000000000E+00 0. -1.
        -14    1    5    5    0    0 -0.13287434246E+02 -0.19906544801E+02  0.41517269043E+02  0.47921916317E+02  0.00000000000E+00 0.  1.
          5    1    4    4  501    0 -0.31003994872E+02 -0.34722711960E+02  0.23814169780E+02  0.52454756755E+02  0.41800000000E+01 0.  1.
         -5    1    4    4    0  501 -0.32697928305E+02  0.60256139525E+02  0.21536032440E+03  0.22604755825E+03  0.41800000000E+01 0.  1.
</event>
<event>
11    1  0.8299058E-009  0.1304695E+03  0.7561462E-02  0.1118693E+00
         22   -1    0    0    0    0  0.00000000000E+00  0.00000000000E+00  0.72564795614E+03  0.72564795614E+03  0.00000000000E+00 0. -1.
         22   -1    0    0    0    0 -0.00000000000E+00 -0.00000000000E+00 -0.64914030779E+03  0.64914030779E+03  0.00000000000E+00 0. -1.
        -24    2    1    2    0    0  0.28775151946E+02 -0.19159270389E+01 -0.50471995049E+03  0.51184818722E+03  0.80091561335E+02 0.  0.
         25    2    1    2    0    0 -0.18582754511E+01  0.27958947023E+02 -0.10815345198E+03  0.16772455954E+03  0.12509677370E+03 0.  0.
         24    2    1    2    0    0 -0.26916876495E+02 -0.26043019985E+02  0.68938105082E+03  0.69521551717E+03  0.81704497735E+02 0.  0.
        -13    1    5    5    0    0  0.39005470395E+01 -0.43965073863E+02  0.21426537248E+03  0.21876423801E+03  0.00000000000E+00 0.  1.
         14    1    5    5    0    0 -0.30817423535E+02  0.17922053878E+02  0.47511567834E+03  0.47645127916E+03  0.00000000000E+00 0. -1.
         11    1    3    3    0    0 -0.67154072990E+01 -0.13297125354E+02 -0.40683559121E+03  0.40710822703E+03  0.00000000000E+00 0. -1.
        -12    1    3    3    0    0  0.35490559245E+02  0.11381198315E+02 -0.97884359277E+02  0.10473996020E+03  0.00000000000E+00 0.  1.
          5    1    4    4  501    0  0.30383599115E+02  0.39747377269E+02  0.39968155945E+01  0.50363320282E+02  0.41800000000E+01 0. -1.
         -5    1    4    4    0  501 -0.32241874566E+02 -0.11788430246E+02 -0.11215026757E+03  0.11736123926E+03  0.41800000000E+01 0. -1.
</event>
<event>
11    1  0.8299058E-009  0.1349563E+03  0.7561462E-02  0.1113325E+00
         22   -1    0    0    0    0  0.00000000000E+00  0.00000000000E+00  0.13836590232E+04  0.13836590232E+04  0.00000000000E+00 0.  1.
         22   -1    0    0    0    0 -0.00000000000E+00 -0.00000000000E+00 -0.26230411142E+04  0.26230411142E+04  0.00000000000E+00 0. -1.
         24    2    1    2    0    0 -0.32211040380E+02 -0.29370524434E+02 -0.24813052201E+04  0.24830965914E+04  0.83623610258E+02 0.  0.
         25    2    1    2    0    0 -0.25483833536E+01 -0.81960104029E+01 -0.11090504319E+03  0.16739311447E+03  0.12508739874E+03 0.  0.
        -24    2    1    2    0    0  0.34759423733E+02  0.37566534836E+02  0.13528281723E+04  0.13562104315E+04  0.80890102820E+02 0.  0.
        -13    1    3    3    0    0 -0.23712255412E+02  0.13141665148E+02 -0.18937738695E+04  0.18939679098E+04  0.00000000000E+00 0.  1.
         14    1    3    3    0    0 -0.84987849679E+01 -0.42512189582E+02 -0.58753135058E+03  0.58912868163E+03  0.00000000000E+00 0. -1.
         13    1    5    5    0    0 -0.20922048212E+02  0.31776274891E+02  0.42713289047E+03  0.42882393808E+03  0.00000000000E+00 0. -1.
        -14    1    5    5    0    0  0.55681471946E+02  0.57902599458E+01  0.92569528183E+03  0.92738649345E+03  0.00000000000E+00 0.  1.
          5    1    4    4  501    0  0.33836662359E+02  0.39460360923E+02 -0.89513065102E+02  0.10359585430E+03  0.41800000000E+01 0. -1.
         -5    1    4    4    0  501 -0.36385045712E+02 -0.47656371326E+02 -0.21391978086E+02  0.63797260175E+02  0.41800000000E+01 0. -1.
</event>
<event>
11    1  0.8299058E-009  0.3410750E+03  0.7561462E-02  0.9841651E-01
         22   -1    0    0    0    0  0.00000000000E+00  0.00000000000E+00  0.90894168660E+03  0.90894168660E+03  0.00000000000E+00 0.  1.
         22   -1    0    0    0    0 -0.00000000000E+00 -0.00000000000E+00 -0.80638391588E+03  0.80638391588E+03  0.00000000000E+00 0.  1.
        -24    2    1    2    0    0 -0.26276895030E+03  0.11150393803E+03 -0.55713065118E+03  0.63071606989E+03  0.76990576600E+02 0.  0.
         25    2    1    2    0    0  0.28770232998E+03 -0.39537810286E+03  0.21058503355E+03  0.54689121925E+03  0.12508986546E+03 0.  0.
         24    2    1    2    0    0 -0.24933379683E+02  0.28387416483E+03  0.44910338836E+03  0.53771831335E+03  0.78999469549E+02 0.  0.
        -13    1    5    5    0    0 -0.27047125665E+02  0.19509195265E+03  0.23954996687E+03  0.31012352962E+03  0.00000000000E+00 0.  1.
         14    1    5    5    0    0  0.21137459814E+01  0.88782212185E+02  0.20955342149E+03  0.22759478373E+03  0.00000000000E+00 0. -1.
         13    1    3    3    0    0 -0.85732577992E+02 -0.44196857287E+00 -0.14629315028E+03  0.16956401766E+03  0.00000000000E+00 0. -1.
        -14    1    3    3    0    0 -0.17703637231E+03  0.11194590660E+03 -0.41083750091E+03  0.46115205223E+03  0.00000000000E+00 0.  1.
          5    1    4    4  501    0  0.17462886846E+03 -0.13575016273E+03  0.83287004704E+02  0.23638431829E+03  0.41800000000E+01 0.  1.
         -5    1    4    4    0  501  0.11307346152E+03 -0.25962794012E+03  0.12729802884E+03  0.31050690096E+03  0.41800000000E+01 0.  1.
</event>
<event>
11    1  0.8299058E-009  0.1826652E+03  0.7561462E-02  0.1067507E+00
         22   -1    0    0    0    0  0.00000000000E+00  0.00000000000E+00  0.20072119906E+03  0.20072119906E+03  0.00000000000E+00 0.  1.
         22   -1    0    0    0    0 -0.00000000000E+00 -0.00000000000E+00 -0.16784436257E+04  0.16784436257E+04  0.00000000000E+00 0.  1.
         24    2    1    2    0    0  0.28331402198E+02 -0.76840316858E+01 -0.94140790540E+03  0.94518952452E+03  0.79200253849E+02 0.  0.
         25    2    1    2    0    0  0.43632162031E+02 -0.10542851788E+03 -0.69255222051E+03  0.71294844968E+03  0.12509186955E+03 0.  0.
        -24    2    1    2    0    0 -0.71963564229E+02  0.11311254956E+03  0.15623769927E+03  0.22102685057E+03  0.80432869849E+02 0.  0.
        -13    1    3    3    0    0  0.34179608177E+02  0.28043478803E+02 -0.65713774666E+03  0.65862333727E+03  0.00000000000E+00 0.  1.
         14    1    3    3    0    0 -0.58482059792E+01 -0.35727510489E+02 -0.28427015875E+03  0.28656618724E+03  0.00000000000E+00 0. -1.
         11    1    5    5    0    0 -0.21925757749E+02 -0.75598167216E+01  0.39634196615E+02  0.45921228458E+02  0.00000000000E+00 0. -1.
        -12    1    5    5    0    0 -0.50037806480E+02  0.12067236628E+03  0.11660350266E+03  0.17510562211E+03  0.00000000000E+00 0.  1.
          5    1    4    4  501    0 -0.46106086099E+00 -0.81841250020E+02 -0.61592469446E+03  0.62135248002E+03  0.41800000000E+01 0. -1.
         -5    1    4    4    0  501  0.44093222892E+02 -0.23587267857E+02 -0.76627526054E+02  0.91595969666E+02  0.41800000000E+01 0. -1.
</event>
<event>
11    1  0.8299058E-009  0.1317148E+03  0.7561462E-02  0.1117180E+00
         22   -1    0    0    0    0  0.00000000000E+00  0.00000000000E+00  0.10588559875E+03  0.10588559875E+03  0.00000000000E+00 0. -1.
         22   -1    0    0    0    0 -0.00000000000E+00 -0.00000000000E+00 -0.47934666607E+03  0.47934666607E+03  0.00000000000E+00 0. -1.
         24    2    1    2    0    0  0.73997494952E+01  0.16539081048E+02 -0.32451514452E+03  0.33615106990E+03  0.85785577319E+02 0.  0.
         25    2    1    2    0    0 -0.46657283276E+02 -0.77449625762E+01 -0.76396089329E+02  0.15401571345E+03  0.12509033135E+03 0.  0.
        -24    2    1    2    0    0  0.39257533781E+02 -0.87941184717E+01  0.27450166522E+02  0.95065481471E+02  0.81642168313E+02 0.  0.
        -13    1    3    3    0    0  0.26587435751E+02  0.34305466567E+02 -0.87248109850E+02  0.97447367582E+02  0.00000000000E+00 0.  1.
         14    1    3    3    0    0 -0.19187686255E+02 -0.17766385519E+02 -0.23726703467E+03  0.23870370232E+03  0.00000000000E+00 0. -1.
         13    1    5    5    0    0  0.53412489266E+02  0.13588024668E+02  0.37585428057E+02  0.66709765598E+02  0.00000000000E+00 0. -1.
        -14    1    5    5    0    0 -0.14154955484E+02 -0.22382143140E+02 -0.10135261534E+02  0.28355715873E+02  0.00000000000E+00 0.  1.
          5    1    4    4  501    0 -0.50505727369E+02 -0.27383101825E+02 -0.10446320804E+03  0.11929248508E+03  0.41800000000E+01 0. -1.
         -5    1    4    4    0  501  0.38484440930E+01  0.19638139249E+02  0.28067118715E+02  0.34723228365E+02  0.41800000000E+01 0. -1.
</event>
<event>
11    1  0.8299058E-009  0.1324388E+03  0.7561462E-02  0.1116308E+00
         22   -1    0    0    0    0  0.00000000000E+00  0.00000000000E+00  0.10513110062E+03  0.10513110062E+03  0.00000000000E+00 0.  1.
         22   -1    0    0    0    0 -0.00000000000E+00 -0.00000000000E+00 -0.71432521803E+03  0.71432521803E+03  0.00000000000E+00 0. -1.
        -24    2    1    2    0    0  0.42832795632E+02  0.18646059591E+02 -0.56496349239E+03  0.57263643509E+03  0.80909919932E+02 0.  0.
         25    2    1    2    0    0 -0.12616578824E+02 -0.14271667110E+02 -0.87888915524E+02  0.15401637798E+03  0.12503489381E+03 0.  0.
         24    2    1    2    0    0 -0.30216216808E+02 -0.43743924811E+01  0.43658290501E+02  0.92803505577E+02  0.75988744233E+02 0.  0.
        -11    1    5    5    0    0 -0.40719304082E+02  0.11711530149E+02  0.55810337126E+02  0.70071502007E+02  0.00000000000E+00 0.  1.
         12    1    5    5    0    0  0.10503087274E+02 -0.16085922630E+02 -0.12152046625E+02  0.22732003570E+02  0.00000000000E+00 0. -1.
         11    1    3    3    0    0 -0.79255016160E+01  0.10889113649E+02 -0.39152766862E+03  0.39175923942E+03  0.00000000000E+00 0. -1.
        -12    1    3    3    0    0  0.50758297248E+02  0.77569459424E+01 -0.17343582377E+03  0.18087719568E+03  0.00000000000E+00 0.  1.
          5    1    4    4  501    0 -0.65250963675E+02 -0.26224006331E+02 -0.62693260187E+02  0.94304316134E+02  0.41800000000E+01 0. -1.
         -5    1    4    4    0  501  0.52634384851E+02  0.11952339221E+02 -0.25195655337E+02  0.59712061841E+02  0.41800000000E+01 0. -1.
</event>
<event>
11    1  0.8299058E-009  0.1306200E+03  0.7561462E-02  0.1118510E+00
         22   -1    0    0    0    0  0.00000000000E+00  0.00000000000E+00  0.19369961584E+03  0.19369961584E+03  0.00000000000E+00 0. -1.
         22   -1    0    0    0    0 -0.00000000000E+00 -0.00000000000E+00 -0.74994585413E+03  0.74994585413E+03  0.00000000000E+00 0. -1.
        -24    2    1    2    0    0 -0.19323961837E+02  0.43224573198E+01 -0.48180918316E+03  0.48923772252E+03  0.82591531137E+02 0.  0.
         25    2    1    2    0    0  0.21375229004E+02  0.33362333594E+02 -0.23530015477E+03  0.26941375376E+03  0.12509061581E+03 0.  0.
         24    2    1    2    0    0 -0.20512671678E+01 -0.37684790914E+02  0.16086309964E+03  0.18499399370E+03  0.83195490946E+02 0.  0.
        -13    1    5    5    0    0  0.29372171940E+02  0.12679678536E+02  0.56282477341E+02  0.64739601388E+02  0.00000000000E+00 0.  1.
         14    1    5    5    0    0 -0.31423439108E+02 -0.50364469450E+02  0.10458062230E+03  0.12025439231E+03  0.00000000000E+00 0. -1.
         11    1    3    3    0    0  0.17207632635E+02 -0.29971947124E+02 -0.21593567200E+03  0.21868386927E+03  0.00000000000E+00 0. -1.
        -12    1    3    3    0    0 -0.36531594471E+02  0.34294404444E+02 -0.26587351116E+03  0.27055385325E+03  0.00000000000E+00 0.  1.
          5    1    4    4  501    0  0.28624978561E+02 -0.31980274116E+02 -0.17456378304E+03  0.17981132912E+03  0.41800000000E+01 0.  1.
         -5    1    4    4    0  501 -0.72497495570E+01  0.65342607710E+02 -0.60736371728E+02  0.89602424642E+02  0.41800000000E+01 0.  1.
</event>
<event>
11    1  0.8299058E-009  0.1539659E+03  0.7561462E-02  0.1092894E+00
         22   -1    0    0    0    0  0.00000000000E+00  0.00000000000E+00  0.95118158336E+03  0.95118158336E+03  0.00000000000E+00 0. -1.
         22   -1    0    0    0    0 -0.00000000000E+00 -0.00000000000E+00 -0.14997788612E+03  0.14997788612E+03  0.00000000000E+00 0. -1.
         24    2    1    2    0    0  0.12624753580E+02 -0.85684406054E+02 -0.92567330640E+02  0.14998474592E+03  0.80159288069E+02 0.  0.
         25    2    1    2    0    0 -0.22205845111E+02  0.12090774522E+03  0.27588559933E+03  0.32691417082E+03  0.12509288052E+03 0.  0.
        -24    2    1    2    0    0  0.95810915305E+01 -0.35223339165E+02  0.61788542855E+03  0.62426055273E+03  0.81156354886E+02 0.  0.
        -11    1    3    3    0    0  0.21359509260E+02 -0.57455742951E+02 -0.97683616734E+01  0.62071023220E+02  0.00000000000E+00 0.  1.
         12    1    3    3    0    0 -0.87347556797E+01 -0.28228663103E+02 -0.82798968967E+02  0.87913722702E+02  0.00000000000E+00 0. -1.
         11    1    5    5    0    0 -0.26542249768E+01 -0.57579530467E+02  0.51710764921E+03  0.52031026139E+03  0.00000000000E+00 0. -1.
        -12    1    5    5    0    0  0.12235316507E+02  0.22356191302E+02  0.10077777935E+03  0.10395029134E+03  0.00000000000E+00 0.  1.
          5    1    4    4  501    0 -0.95388618231E+01  0.20924197328E+02 -0.87322423065E+01  0.24950678836E+02  0.41800000000E+01 0. -1.
         -5    1    4    4    0  501 -0.12666983288E+02  0.99983547890E+02  0.28461784164E+03  0.30196349199E+03  0.41800000000E+01 0. -1.
</event>
<event>
11    1  0.8299058E-009  0.1890800E+03  0.7561462E-02  0.1062526E+00
         22   -1    0    0    0    0  0.00000000000E+00  0.00000000000E+00  0.67613229662E+03  0.67613229662E+03  0.00000000000E+00 0. -1.
         22   -1    0    0    0    0 -0.00000000000E+00 -0.00000000000E+00 -0.14083891263E+03  0.14083891263E+03  0.00000000000E+00 0. -1.
        -24    2    1    2    0    0  0.14713675220E+03 -0.32291036162E+02  0.25901671169E+02  0.17166952733E+03  0.78151104790E+02 0.  0.
         25    2    1    2    0    0 -0.92258665855E+02  0.11684185670E+03  0.10460488208E+03  0.22080096128E+03  0.12508877745E+03 0.  0.
         24    2    1    2    0    0 -0.54878086346E+02 -0.84550820539E+02  0.40478683074E+03  0.42450072064E+03  0.78664082465E+02 0.  0.
        -11    1    5    5    0    0 -0.16568271170E+02  0.80627273305E+01  0.14303698324E+03  0.14421890914E+03  0.00000000000E+00 0.  1.
         12    1    5    5    0    0 -0.38309815176E+02 -0.92613547870E+02  0.26174984750E+03  0.28028181150E+03  0.00000000000E+00 0. -1.
         13    1    3    3    0    0  0.75236032964E+02 -0.25433251452E+02 -0.25054409159E+02  0.83276853650E+02  0.00000000000E+00 0. -1.
        -14    1    3    3    0    0  0.71900719237E+02 -0.68577847103E+01  0.50956080328E+02  0.88392673680E+02  0.00000000000E+00 0.  1.
          5    1    4    4  501    0  0.26172050524E+02  0.50781993356E+02  0.18876210393E+02  0.60312277329E+02  0.41800000000E+01 0. -1.
         -5    1    4    4    0  501 -0.11843071638E+03  0.66059863345E+02  0.85728671686E+02  0.16048868395E+03  0.41800000000E+01 0. -1.
</event>
<event>
11    1  0.8299058E-009  0.1481370E+03  0.7561462E-02  0.1098798E+00
         22   -1    0    0    0    0  0.00000000000E+00  0.00000000000E+00  0.23986639378E+04  0.23986639378E+04  0.00000000000E+00 0.  1.
         22   -1    0    0    0    0 -0.00000000000E+00 -0.00000000000E+00 -0.75680429514E+03  0.75680429514E+03  0.00000000000E+00 0.  1.
         24    2    1    2    0    0  0.62421628404E+02 -0.53284631595E+02 -0.64722934674E+03  0.65773435715E+03  0.83504165388E+02 0.  0.
         25    2    1    2    0    0 -0.54664965516E+02  0.21064837794E+02 -0.57399284958E+02  0.14958066407E+03  0.12509081222E+03 0.  0.
        -24    2    1    2    0    0 -0.77566628876E+01  0.32219793801E+02  0.23464882743E+04  0.23481532117E+04  0.81963425138E+02 0.  0.
        -13    1    3    3    0    0 -0.20632871859E+02 -0.76763716799E+01 -0.10418438441E+03  0.10648487234E+03  0.00000000000E+00 0.  1.
         14    1    3    3    0    0  0.83054500263E+02 -0.45608259915E+02 -0.54304496233E+03  0.55124948481E+03  0.00000000000E+00 0. -1.
         13    1    5    5    0    0 -0.33427484928E+02  0.35013598252E+02  0.80833105164E+03  0.80977925254E+03  0.00000000000E+00 0. -1.
        -14    1    5    5    0    0  0.25670822040E+02 -0.27938044510E+01  0.15381572227E+04  0.15383739591E+04  0.00000000000E+00 0.  1.
          5    1    4    4  501    0  0.33738796591E+02 -0.62595287997E+00  0.10896412288E+02  0.35705775628E+02  0.41800000000E+01 0. -1.
         -5    1    4    4    0  501 -0.88403762107E+02  0.21690790674E+02 -0.68295697246E+02  0.11387488844E+03  0.41800000000E+01 0. -1.
</event>
<event>
11    1  0.8299058E-009  0.1403707E+03  0.7561462E-02  0.1107145E+00
         22   -1    0    0    0    0  0.00000000000E+00  0.00000000000E+00  0.48037144880E+03  0.48037144880E+03  0.00000000000E+00 0.  1.
         22   -1    0    0    0    0 -0.00000000000E+00 -0.00000000000E+00 -0.52823680828E+03  0.52823680828E+03  0.00000000000E+00 0.  1.
        -24    2    1    2    0    0 -0.57932847399E+02 -0.25236738658E+02 -0.39940483678E+03  0.41228118489E+03  0.80364444817E+02 0.  0.
         25    2    1    2    0    0  0.37011665678E+02  0.77340930416E+02 -0.67495369661E+02  0.16598791315E+03  0.12507949261E+03 0.  0.
         24    2    1    2    0    0  0.20921181722E+02 -0.52104191758E+02  0.41903484696E+03  0.43033915904E+03  0.80305953679E+02 0.  0.
        -13    1    5    5    0    0 -0.84397313643E+01  0.60338310201E+01  0.23302861462E+03  0.23325945085E+03  0.00000000000E+00 0.  1.
         14    1    5    5    0    0  0.29360913086E+02 -0.58138022778E+02  0.18600623234E+03  0.19707970819E+03  0.00000000000E+00 0. -1.
         13    1    3    3    0    0  0.50453690329E+01 -0.29752868942E+02 -0.61233073300E+02  0.68265498055E+02  0.00000000000E+00 0. -1.
        -14    1    3    3    0    0 -0.62978216432E+02  0.45161302845E+01 -0.33817176348E+03  0.34401568684E+03  0.00000000000E+00 0.  1.
          5    1    4    4  501    0  0.54066253464E+02  0.26644793063E+01 -0.70779348709E+02  0.89204528008E+02  0.41800000000E+01 0.  1.
         -5    1    4    4    0  501 -0.17054587786E+02  0.74676451109E+02  0.32839790475E+01  0.76783385138E+02  0.41800000000E+01 0.  1.
</event>
<event>
11    1  0.8299058E-009  0.1566522E+03  0.7561462E-02  0.1090269E+00
         22   -1    0    0    0    0  0.00000000000E+00  0.00000000000E+00  0.18417408377E+04  0.18417408377E+04  0.00000000000E+00 0.  1.
         22   -1    0    0    0    0 -0.00000000000E+00 -0.00000000000E+00 -0.21582716080E+03  0.21582716080E+03  0.00000000000E+00 0.  1.
        -24    2    1    2    0    0 -0.34560624986E+02  0.50760922734E+02 -0.14081850251E+03  0.17371456703E+03  0.81091257690E+02 0.  0.
         25    2    1    2    0    0 -0.19389534701E+02  0.29466443763E+02  0.18754583658E+02  0.13132016838E+03  0.12509607048E+03 0.  0.
         24    2    1    2    0    0  0.53950159687E+02 -0.80227366497E+02  0.17479775958E+04  0.17525332631E+04  0.81241079208E+02 0.  0.
        -13    1    5    5    0    0  0.11615932481E+02 -0.12838866278E+02  0.10321868644E+04  0.10323320636E+04  0.00000000000E+00 0.  1.
         14    1    5    5    0    0  0.42334227206E+02 -0.67388500219E+02  0.71579073135E+03  0.72020119956E+03  0.00000000000E+00 0. -1.
         11    1    3    3    0    0 -0.55841710467E+02  0.31372441911E+02 -0.12597777152E+03  0.14132560156E+03  0.00000000000E+00 0. -1.
        -12    1    3    3    0    0  0.21281085480E+02  0.19388480822E+02 -0.14840730984E+02  0.32388965466E+02  0.00000000000E+00 0.  1.
          5    1    4    4  501    0 -0.65576585925E+02 -0.13124707980E+02  0.95061461167E+01  0.67678547525E+02  0.41800000000E+01 0.  1.
         -5    1    4    4    0  501  0.46187051224E+02  0.42591151743E+02  0.92484375409E+01  0.63641620851E+02  0.41800000000E+01 0.  1.
</event>
<event>
11    1  0.8299058E-009  0.1944469E+03  0.7561462E-02  0.1058521E+00
         22   -1    0    0    0    0  0.00000000000E+00  0.00000000000E+00  0.25488592256E+04  0.25488592256E+04  0.00000000000E+00 0. -1.
         22   -1    0    0    0    0 -0.00000000000E+00 -0.00000000000E+00 -0.10829941116E+03  0.10829941116E+03  0.00000000000E+00 0.  1.
         24    2    1    2    0    0 -0.43315464783E+02  0.23549407794E+02 -0.61150649562E+02  0.11337300568E+03  0.81751039009E+02 0.  0.
         25    2    1    2    0    0  0.12302197132E+03  0.10117294590E+03  0.57322044022E+03  0.60794623938E+03  0.12508631613E+03 0.  0.
        -24    2    1    2    0    0 -0.79706506533E+02 -0.12472235369E+03  0.19284900238E+04  0.19358393917E+04  0.80570378540E+02 0.  0.
        -13    1    3    3    0    0 -0.27695570495E+01 -0.13134783821E+02 -0.56975738936E+02  0.58535696969E+02  0.00000000000E+00 0.  1.
         14    1    3    3    0    0 -0.40545907733E+02  0.36684191615E+02 -0.41749106259E+01  0.54837308715E+02  0.00000000000E+00 0. -1.
         13    1    5    5    0    0 -0.45196343121E+02 -0.12470680868E+03  0.16212959649E+04  0.16267129751E+04  0.00000000000E+00 0. -1.
        -14    1    5    5    0    0 -0.34510163413E+02 -0.15545011551E-01  0.30719405887E+03  0.30912641657E+03  0.00000000000E+00 0.  1.
          5    1    4    4  501    0  0.68864200621E+02  0.12473541802E+02  0.92304570137E+02  0.11591148968E+03  0.41800000000E+01 0.  1.
         -5    1    4    4    0  501  0.54157770696E+02  0.88699404097E+02  0.48091587008E+03  0.49203474970E+03  0.41800000000E+01 0.  1.
</event>
<event>
11    1  0.8299058E-009  0.1318099E+03  0.7561462E-02  0.1117065E+00
         22   -1    0    0    0    0  0.00000000000E+00  0.00000000000E+00  0.64333424316E+03  0.64333424316E+03  0.00000000000E+00 0. -1.
         22   -1    0    0    0    0 -0.00000000000E+00 -0.00000000000E+00 -0.85971277248E+03  0.85971277248E+03  0.00000000000E+00 0. -1.
         24    2    1    2    0    0  0.41725514135E+02  0.87553488643E+01 -0.81141568358E+03  0.81639803285E+03  0.79326299686E+02 0.  0.
         25    2    1    2    0    0 -0.57705589481E+01  0.17803504452E+02  0.53083078801E+02  0.13717191464E+03  0.12509219316E+03 0.  0.
        -24    2    1    2    0    0 -0.35954955187E+02 -0.26558853316E+02  0.54195407546E+03  0.54947706815E+03  0.78820663729E+02 0.  0.
        -11    1    3    3    0    0  0.16353094154E+02 -0.37474331589E+01 -0.29240920643E+02  0.33711991690E+02  0.00000000000E+00 0.  1.
         12    1    3    3    0    0  0.25372419981E+02  0.12502782023E+02 -0.78217476294E+03  0.78268604116E+03  0.00000000000E+00 0. -1.
         11    1    5    5    0    0 -0.11873872854E+02 -0.12379582400E+02  0.49151167305E+03  0.49181090640E+03  0.00000000000E+00 0. -1.
        -12    1    5    5    0    0 -0.24081082333E+02 -0.14179270916E+02  0.50442402410E+02  0.57666161749E+02  0.00000000000E+00 0.  1.
          5    1    4    4  501    0 -0.11600720169E+02 -0.27787265490E+02 -0.29631841775E+02  0.42452647489E+02  0.41800000000E+01 0. -1.
         -5    1    4    4    0  501  0.58301612212E+01  0.45590769942E+02  0.82714920576E+02  0.94719267151E+02  0.41800000000E+01 0. -1.
</event>
<event>
11    1  0.8299058E-009  0.1426694E+03  0.7561462E-02  0.1104614E+00
         22   -1    0    0    0    0  0.00000000000E+00  0.00000000000E+00  0.11290076746E+04  0.11290076746E+04  0.00000000000E+00 0. -1.
         22   -1    0    0    0    0 -0.00000000000E+00 -0.00000000000E+00 -0.18599717212E+03  0.18599717212E+03  0.00000000000E+00 0. -1.
         24    2    1    2    0    0 -0.41426933324E+02  0.52303356724E+02 -0.13207748944E+03  0.16852489209E+03  0.80649513995E+02 0.  0.
         25    2    1    2    0    0  0.77007725048E+02 -0.49366753142E+02  0.14477849703E+03  0.21207342497E+03  0.12508820225E+03 0.  0.
        -24    2    1    2    0    0 -0.35580791724E+02 -0.29366035821E+01  0.93030949484E+03  0.93440652963E+03  0.79782141139E+02 0.  0.
        -11    1    3    3    0    0 -0.23294757764E+02  0.43831978098E+02 -0.18148273757E+02  0.52851186208E+02  0.00000000000E+00 0.  1.
         12    1    3    3    0    0 -0.18132175560E+02  0.84713786263E+01 -0.11392921568E+03  0.11567370588E+03  0.00000000000E+00 0. -1.
         13    1    5    5    0    0 -0.23059400916E+02 -0.22718794593E+02  0.85337264687E+03  0.85398638983E+03  0.00000000000E+00 0. -1.
        -14    1    5    5    0    0 -0.12521390808E+02  0.19782191011E+02  0.76936847970E+02  0.80420139794E+02  0.00000000000E+00 0.  1.
          5    1    4    4  501    0  0.10314357635E+03 -0.63718590372E+02  0.95780540036E+02  0.15456403317E+03  0.41800000000E+01 0.  1.
         -5    1    4    4    0  501 -0.26135851299E+02  0.14351837230E+02  0.48997956994E+02  0.57509391795E+02  0.41800000000E+01 0.  1.
</event>
<event>
11    1  0.8299058E-009  0.1934680E+03  0.7561462E-02  0.1059241E+00
         22   -1    0    0    0    0  0.00000000000E+00  0.00000000000E+00  0.12392606380E+04  0.12392606380E+04  0.00000000000E+00 0. -1.
         22   -1    0    0    0    0 -0.00000000000E+00 -0.00000000000E+00 -0.57078656202E+03  0.57078656202E+03  0.00000000000E+00 0. -1.
         24    2    1    2    0    0 -0.15012260151E+03  0.25067259799E+02 -0.44217741171E+03  0.47482368472E+03  0.82289155710E+02 0.  0.
         25    2    1    2    0    0  0.11579908532E+03 -0.65193320972E+02 -0.34416006316E+02  0.18572246196E+03  0.12509506036E+03 0.  0.
        -24    2    1    2    0    0  0.34323516192E+02  0.40126061173E+02  0.11450674940E+04  0.11495010534E+04  0.85935448196E+02 0.  0.
        -11    1    3    3    0    0 -0.61707691929E+02 -0.30227124126E+02 -0.17976552704E+03  0.19245041696E+03  0.00000000000E+00 0.  1.
         12    1    3    3    0    0 -0.88414909580E+02  0.55294383925E+02 -0.26241188467E+03  0.28237326776E+03  0.00000000000E+00 0. -1.
         13    1    5    5    0    0  0.80738941231E+01  0.63512461486E+02  0.83381510367E+03  0.83626948267E+03  0.00000000000E+00 0. -1.
        -14    1    5    5    0    0  0.26249622069E+02 -0.23386400313E+02  0.31125239035E+03  0.31323157069E+03  0.00000000000E+00 0.  1.
          5    1    4    4  501    0  0.13870782219E+03 -0.61309421489E+02 -0.10433142522E+02  0.15206915520E+03  0.41800000000E+01 0.  1.
         -5    1    4    4    0  501 -0.22908736871E+02 -0.38838994827E+01 -0.23982863795E+02  0.33653306762E+02  0.41800000000E+01 0.  1.
</event>
<event>
11    1  0.8299058E-009  0.2021519E+03  0.7561462E-02  0.1053012E+00
         22   -1    0    0    0    0  0.00000000000E+00  0.00000000000E+00  0.86257298482E+03  0.86257298482E+03  0.00000000000E+00 0. -1.
         22   -1    0    0    0    0 -0.00000000000E+00 -0.00000000000E+00 -0.23051796548E+04  0.23051796548E+04  0.00000000000E+00 0.  1.
         24    2    1    2    0    0  0.15943532453E+03  0.82775833890E+01 -0.22259985776E+04  0.22333184786E+04  0.84579064906E+02 0.  0.
         25    2    1    2    0    0 -0.12871341966E+03 -0.46189097992E+02  0.47892450805E+02  0.19141982898E+03  0.12508911586E+03 0.  0.
        -24    2    1    2    0    0 -0.30721904870E+02  0.37911514603E+02  0.73549945681E+03  0.74301433206E+03  0.93433015055E+02 0.  0.
        -11    1    3    3    0    0  0.10936243702E+03  0.30657696285E+02 -0.18324397349E+04  0.18359562683E+04  0.00000000000E+00 0.  1.
         12    1    3    3    0    0  0.50072887507E+02 -0.22380112896E+02 -0.39355884267E+03  0.39736221029E+03  0.00000000000E+00 0. -1.
         13    1    5    5    0    0 -0.40800926276E+02  0.15000827125E+02  0.68757053712E+03  0.68894338223E+03  0.00000000000E+00 0. -1.
        -14    1    5    5    0    0  0.10079021406E+02  0.22910687478E+02  0.47928919685E+02  0.54070949829E+02  0.00000000000E+00 0.  1.
          5    1    4    4  501    0  0.17604001186E+02 -0.33915820577E+02  0.97171712361E+01  0.39649458508E+02  0.41800000000E+01 0.  1.
         -5    1    4    4    0  501 -0.14631742085E+03 -0.12273277415E+02  0.38175279569E+02  0.15177037047E+03  0.41800000000E+01 0.  1.
</event>
<event>
11    1  0.8299058E-009  0.1950527E+03  0.7561462E-02  0.1058078E+00
         22   -1    0    0    0    0  0.00000000000E+00  0.00000000000E+00  0.49161977938E+03  0.49161977938E+03  0.00000000000E+00 0.  1.
         22   -1    0    0    0    0 -0.00000000000E+00 -0.00000000000E+00 -0.18276969377E+03  0.18276969377E+03  0.00000000000E+00 0. -1.
        -24    2    1    2    0    0 -0.23495299219E+02  0.31316512697E+02 -0.23856639171E+02  0.93268279430E+02  0.81222408623E+02 0.  0.
         25    2    1    2    0    0 -0.59008442112E+02  0.10103133474E+03 -0.33723750026E+02  0.17456908383E+03  0.12509095441E+03 0.  0.
         24    2    1    2    0    0  0.82503741331E+02 -0.13234784743E+03  0.36643047481E+03  0.40655210989E+03  0.81795508015E+02 0.  0.
        -13    1    5    5    0    0  0.86413291988E+02 -0.13881255436E+03  0.36324992677E+03  0.39835498187E+03  0.00000000000E+00 0.  1.
         14    1    5    5    0    0 -0.39095506572E+01  0.64647069259E+01  0.31805480419E+01  0.81971280230E+01  0.00000000000E+00 0. -1.
         13    1    3    3    0    0 -0.11015471882E+02 -0.27634045422E+02 -0.10511605553E+02  0.31551147974E+02  0.00000000000E+00 0. -1.
        -14    1    3    3    0    0 -0.12479827337E+02  0.58950558119E+02 -0.13345033618E+02  0.61717131456E+02  0.00000000000E+00 0.  1.
          5    1    4    4  501    0  0.33536461783E+02  0.62048764624E+02 -0.17114913348E+02  0.72698941665E+02  0.41800000000E+01 0.  1.
         -5    1    4    4    0  501 -0.92544903895E+02  0.38982570113E+02 -0.16608836677E+02  0.10187014217E+03  0.41800000000E+01 0.  1.
</event>
<event>
11    1  0.8299058E-009  0.1253597E+03  0.7561462E-02  0.1125106E+00
         22   -1    0    0    0    0  0.00000000000E+00  0.00000000000E+00  0.95625711688E+03  0.95625711688E+03  0.00000000000E+00 0.  1.
         22   -1    0    0    0    0 -0.00000000000E+00 -0.00000000000E+00 -0.32650467897E+03  0.32650467897E+03  0.00000000000E+00 0.  1.
        -24    2    1    2    0    0 -0.32815951350E+01  0.20017761801E+02 -0.28821554205E+03  0.30006668646E+03  0.80995913412E+02 0.  0.
         25    2    1    2    0    0  0.65737948940E+01 -0.26117804667E+02  0.10522257822E+03  0.16566458536E+03  0.12509040482E+03 0.  0.
         24    2    1    2    0    0 -0.32921997590E+01  0.61000428658E+01  0.81274540176E+03  0.81703052402E+03  0.83281090333E+02 0.  0.
        -11    1    5    5    0    0 -0.35719504785E+02  0.25276027775E+02  0.52677950759E+03  0.52859380456E+03  0.00000000000E+00 0.  1.
         12    1    5    5    0    0  0.32427305026E+02 -0.19175984909E+02  0.28596589417E+03  0.28843671947E+03  0.00000000000E+00 0. -1.
         13    1    3    3    0    0  0.27650811093E+02  0.23710614337E+02 -0.63525440429E+02  0.73227332111E+02  0.00000000000E+00 0. -1.
        -14    1    3    3    0    0 -0.30932406228E+02 -0.36928525362E+01 -0.22469010162E+03  0.22683935435E+03  0.00000000000E+00 0.  1.
          5    1    4    4  501    0  0.21511557581E+02 -0.33829892536E+02 -0.15884878605E+02  0.43324479303E+02  0.41800000000E+01 0. -1.
         -5    1    4    4    0  501 -0.14937762687E+02  0.77120878696E+01  0.12110745682E+03  0.12234010606E+03  0.41800000000E+01 0. -1.
</event>
<event>
11    1  0.8299058E-009  0.1290440E+03  0.7561462E-02  0.1120449E+00
         22   -1    0    0    0    0  0.00000000000E+00  0.00000000000E+00  0.14155412090E+03  0.14155412090E+03  0.00000000000E+00 0.  1.
         22   -1    0    0    0    0 -0.00000000000E+00 -0.00000000000E+00 -0.58896121881E+03  0.58896121881E+03  0.00000000000E+00 0.  1.
         24    2    1    2    0    0  0.30223564212E+02  0.12992193369E+02 -0.49763849402E+03  0.50496226064E+03  0.79123656527E+02 0.  0.
         25    2    1    2    0    0 -0.65752641085E+01 -0.13274368749E+02 -0.36745388450E+01  0.12602215626E+03  0.12509451894E+03 0.  0.
        -24    2    1    2    0    0 -0.23648300103E+02  0.28217538028E+00  0.53905934944E+02  0.99530922810E+02  0.80257292830E+02 0.  0.
        -13    1    3    3    0    0 -0.80477595322E+01  0.37785893873E+02 -0.27512616577E+03  0.27782538995E+03  0.00000000000E+00 0.  1.
         14    1    3    3    0    0  0.38271323744E+02 -0.24793700504E+02 -0.22251232825E+03  0.22713687070E+03  0.00000000000E+00 0. -1.
         11    1    5    5    0    0 -0.20766462281E+02 -0.72640180680E+01 -0.17225970198E+02  0.27941831783E+02  0.00000000000E+00 0. -1.
        -12    1    5    5    0    0 -0.28818378229E+01  0.75461934483E+01  0.71131905142E+02  0.71589091026E+02  0.00000000000E+00 0.  1.
          5    1    4    4  501    0 -0.17904364880E+02 -0.38425303105E+02  0.49905611771E+02  0.65613357533E+02  0.41800000000E+01 0.  1.
         -5    1    4    4    0  501  0.11329100772E+02  0.25150934356E+02 -0.53580150616E+02  0.60408798724E+02  0.41800000000E+01 0.  1.
</event>
<event>
11    1  0.8299058E-009  0.3016521E+03  0.7561462E-02  0.9994944E-01
         22   -1    0    0    0    0  0.00000000000E+00  0.00000000000E+00  0.30872064796E+04  0.30872064796E+04  0.00000000000E+00 0. -1.
         22   -1    0    0    0    0 -0.00000000000E+00 -0.00000000000E+00 -0.21817021719E+04  0.21817021719E+04  0.00000000000E+00 0. -1.
         24    2    1    2    0    0  0.71560041379E+02 -0.13133507491E+02 -0.21519119113E+04  0.21545979103E+04  0.79208284580E+02 0.  0.
         25    2    1    2    0    0 -0.18107770558E+03  0.24110197948E+03  0.17560398896E+04  0.17861250957E+04  0.12508982231E+03 0.  0.
        -24    2    1    2    0    0  0.10951766420E+03 -0.22796847199E+03  0.13013763295E+04  0.13281856456E+04  0.80827069064E+02 0.  0.
        -11    1    3    3    0    0  0.18254237701E+02  0.23996311310E+02 -0.29212868522E+03  0.29368045369E+03  0.00000000000E+00 0.  1.
         12    1    3    3    0    0  0.53305803678E+02 -0.37129818801E+02 -0.18597832261E+04  0.18609174566E+04  0.00000000000E+00 0. -1.
         11    1    5    5    0    0  0.88651419080E+02 -0.20585608986E+03  0.12350532532E+04  0.12552260123E+04  0.00000000000E+00 0. -1.
        -12    1    5    5    0    0  0.20866245118E+02 -0.22112382131E+02  0.66323076349E+02  0.72959633258E+02  0.00000000000E+00 0.  1.
          5    1    4    4  501    0 -0.81154651320E+02  0.13187594371E+03  0.12272888623E+04  0.12370257741E+04  0.41800000000E+01 0.  1.
         -5    1    4    4    0  501 -0.99923054257E+02  0.10922603577E+03  0.52875102726E+03  0.54909932152E+03  0.41800000000E+01 0.  1.
</event>
<event>
11    1  0.8299058E-009  0.1560918E+03  0.7561462E-02  0.1090812E+00
         22   -1    0    0    0    0  0.00000000000E+00  0.00000000000E+00  0.41790532779E+03  0.41790532779E+03  0.00000000000E+00 0.  1.
         22   -1    0    0    0    0 -0.00000000000E+00 -0.00000000000E+00 -0.37098133114E+03  0.37098133114E+03  0.00000000000E+00 0. -1.
        -24    2    1    2    0    0  0.41295084244E+02  0.16356741511E+02 -0.30858816835E+03  0.32214120522E+03  0.81089280920E+02 0.  0.
         25    2    1    2    0    0 -0.76128292414E+02  0.69332236202E+02  0.12058234998E+03  0.20196390700E+03  0.12508733238E+03 0.  0.
         24    2    1    2    0    0  0.34833208170E+02 -0.85688977713E+02  0.23492981502E+03  0.26478154672E+03  0.79757734450E+02 0.  0.
        -13    1    5    5    0    0  0.52600675277E+02 -0.33238049023E+02  0.88115428360E+02  0.10786995716E+03  0.00000000000E+00 0.  1.
         14    1    5    5    0    0 -0.17767467107E+02 -0.52450928689E+02  0.14681438666E+03  0.15691158956E+03  0.00000000000E+00 0. -1.
         13    1    3    3    0    0  0.33748309842E+02  0.41463631311E+02 -0.27155497551E+03  0.27676756650E+03  0.00000000000E+00 0. -1.
        -14    1    3    3    0    0  0.75467744025E+01 -0.25106889800E+02 -0.37033192832E+02  0.45373638719E+02  0.00000000000E+00 0.  1.
          5    1    4    4  501    0 -0.48601115554E+02  0.78708480918E+02  0.16809305839E+02  0.94112265749E+02  0.41800000000E+01 0. -1.
         -5    1    4    4    0  501 -0.27527176860E+02 -0.93762447166E+01  0.10377304414E+03  0.10785164125E+03  0.41800000000E+01 0. -1.
</event>
<event>
11    1  0.9969430E-009  0.2187766E+03  0.7561462E-02  0.1041987E+00
         22   -1    0    0    0    0  0.00000000000E+00  0.00000000000E+00  0.26789653836E+03  0.26789653836E+03  0.00000000000E+00 0.  1.
         22   -1    0    0    0    0 -0.00000000000E+00 -0.00000000000E+00 -0.33771754291E+04  0.33771754291E+04  0.00000000000E+00 0.  1.
         24    2    1    2    0    0  0.63006874669E+01  0.60077250275E+02 -0.23056391347E+04  0.23077633116E+04  0.78426452358E+02 0.  0.
         25    2    1    2    0    0 -0.19782898575E+02 -0.23691582537E+03 -0.10151349939E+04  0.10500794702E+04  0.12508943417E+03 0.  0.
        -24    2    1    2    0    0  0.13482211108E+02  0.17683857509E+03  0.21149523779E+03  0.28722918567E+03  0.79477782008E+02 0.  0.
        -11    1    3    3    0    0 -0.12651972582E+02  0.43530604695E+02 -0.21132381189E+04  0.21137242803E+04  0.00000000000E+00 0.  1.
         12    1    3    3    0    0  0.18952660049E+02  0.16546645580E+02 -0.19240101582E+03  0.19403903136E+03  0.00000000000E+00 0. -1.
         13    1    5    5    0    0 -0.28436915754E+02  0.29100694801E+02  0.40831958898E+02  0.57643364605E+02  0.00000000000E+00 0. -1.
        -14    1    5    5    0    0  0.41919126862E+02  0.14773788029E+03  0.17066327890E+03  0.22958582106E+03  0.00000000000E+00 0.  1.
          5    1    4    4  501    0 -0.23409470962E+02 -0.23979096079E+03 -0.10156291981E+04  0.10438236674E+04  0.41800000000E+01 0. -1.
         -5    1    4    4    0  501  0.36265723865E+01  0.28751354236E+01  0.49420420002E+00  0.62558028078E+01  0.41800000000E+01 0. -1.
</event>
<event>
11    1  0.8299058E-009  0.1822321E+03  0.7561462E-02  0.1067851E+00
         22   -1    0    0    0    0  0.00000000000E+00  0.00000000000E+00  0.20495544662E+04  0.20495544662E+04  0.00000000000E+00 0. -1.
         22   -1    0    0    0    0 -0.00000000000E+00 -0.00000000000E+00 -0.22296903579E+03  0.22296903579E+03  0.00000000000E+00 0.  1.
        -24    2    1    2    0    0 -0.12267718627E+03  0.19896981834E+02 -0.75983759255E+02  0.16574915680E+03  0.79080145368E+02 0.  0.
         25    2    1    2    0    0  0.14107311520E+03 -0.59161505139E+02 -0.42979379585E+01  0.19765557675E+03  0.12509015640E+03 0.  0.
         24    2    1    2    0    0 -0.18395928925E+02  0.39264523305E+02  0.19068671277E+04  0.19091187685E+04  0.81927508347E+02 0.  0.
        -13    1    5    5    0    0  0.10222360185E+02  0.27578730643E+02  0.21873146969E+03  0.22070011070E+03  0.00000000000E+00 0.  1.
         14    1    5    5    0    0 -0.28618289110E+02  0.11685792662E+02  0.16881356580E+04  0.16884186578E+04  0.00000000000E+00 0. -1.
         11    1    3    3    0    0 -0.35566519099E+02 -0.22674880149E+02  0.61691246899E+00  0.42184215669E+02  0.00000000000E+00 0. -1.
        -12    1    3    3    0    0 -0.87110667175E+02  0.42571861983E+02 -0.76600671724E+02  0.12356494113E+03  0.00000000000E+00 0.  1.
          5    1    4    4  501    0  0.15506553983E+03 -0.22287527735E+02 -0.12297007858E+02  0.15719651503E+03  0.41800000000E+01 0. -1.
         -5    1    4    4    0  501 -0.13992424628E+02 -0.36873977404E+02  0.79990698995E+01  0.40459061727E+02  0.41800000000E+01 0. -1.
</event>
<event>
11    1  0.8299058E-009  0.2556006E+03  0.7561462E-02  0.1020957E+00
         22   -1    0    0    0    0  0.00000000000E+00  0.00000000000E+00  0.94642910086E+03  0.94642910086E+03  0.00000000000E+00 0. -1.
         22   -1    0    0    0    0 -0.00000000000E+00 -0.00000000000E+00 -0.42857483826E+03  0.42857483826E+03  0.00000000000E+00 0.  1.
         24    2    1    2    0    0 -0.26225051299E+02  0.21861117917E+03 -0.31542849499E+03  0.39301771854E+03  0.80555512908E+02 0.  0.
         25    2    1    2    0    0  0.52015734454E+02 -0.23648449524E+03  0.18904510387E+03  0.33168708319E+03  0.12509083395E+03 0.  0.
        -24    2    1    2    0    0 -0.25790683155E+02  0.17873316076E+02  0.64423765373E+03  0.65029913739E+03  0.82838389932E+02 0.  0.
        -13    1    3    3    0    0 -0.31618675177E+02  0.19854312533E+03 -0.31312431473E+03  0.37211013116E+03  0.00000000000E+00 0.  1.
         14    1    3    3    0    0  0.53936238778E+01  0.20068053839E+02 -0.23041802624E+01  0.20907587381E+02  0.00000000000E+00 0. -1.
         13    1    5    5    0    0 -0.20538613120E+02  0.35996158521E+02  0.14772988558E+03  0.15343297283E+03  0.00000000000E+00 0. -1.
        -14    1    5    5    0    0 -0.52520700352E+01 -0.18122842445E+02  0.49650776815E+03  0.49686616456E+03  0.00000000000E+00 0.  1.
          5    1    4    4  501    0  0.32257855585E+02  0.15058897977E+01  0.13406894319E+02  0.35214402825E+02  0.41800000000E+01 0.  1.
         -5    1    4    4    0  501  0.19757878869E+02 -0.23799038504E+03  0.17563820955E+03  0.29647268037E+03  0.41800000000E+01 0.  1.
</event>
<event>
11    1  0.8299058E-009  0.1362450E+03  0.7561462E-02  0.1111825E+00
         22   -1    0    0    0    0  0.00000000000E+00  0.00000000000E+00  0.14506017218E+04  0.14506017218E+04  0.00000000000E+00 0.  1.
         22   -1    0    0    0    0 -0.00000000000E+00 -0.00000000000E+00 -0.16128649246E+03  0.16128649246E+03  0.00000000000E+00 0. -1.
         24    2    1    2    0    0 -0.40496386557E+02 -0.37824170101E+02 -0.13383461273E+03  0.17003480794E+03  0.89047780321E+02 0.  0.
         25    2    1    2    0    0 -0.84940877634E+00  0.92771125048E+00  0.68132608917E+03  0.69271528858E+03  0.12509056360E+03 0.  0.
        -24    2    1    2    0    0  0.41345795333E+02  0.36896458851E+02  0.74182375286E+03  0.74913811770E+03  0.88513364025E+02 0.  0.
        -13    1    3    3    0    0  0.20918602432E+02 -0.10550569805E+02 -0.38986610202E+01  0.23750831747E+02  0.00000000000E+00 0.  1.
         14    1    3    3    0    0 -0.61414988989E+02 -0.27273600296E+02 -0.12993595171E+03  0.14628397619E+03  0.00000000000E+00 0. -1.
         13    1    5    5    0    0 -0.51241464547E+01  0.47297803760E+02  0.21676253561E+03  0.22192191411E+03  0.00000000000E+00 0. -1.
        -14    1    5    5    0    0  0.46469941788E+02 -0.10401344910E+02  0.52506121726E+03  0.52721620360E+03  0.00000000000E+00 0.  1.
          5    1    4    4  501    0  0.24487558853E+02  0.25782310113E+02  0.56634562991E+02  0.67002344574E+02  0.41800000000E+01 0.  1.
         -5    1    4    4    0  501 -0.25336967629E+02 -0.24854598862E+02  0.62469152618E+03  0.62571294400E+03  0.41800000000E+01 0.  1.
</event>
<event>
11    1  0.8299058E-009  0.1644155E+03  0.7561462E-02  0.1082996E+00
         22   -1    0    0    0    0  0.00000000000E+00  0.00000000000E+00  0.32270031518E+03  0.32270031518E+03  0.00000000000E+00 0.  1.
         22   -1    0    0    0    0 -0.00000000000E+00 -0.00000000000E+00 -0.12287212948E+04  0.12287212948E+04  0.00000000000E+00 0.  1.
        -24    2    1    2    0    0  0.28767182326E+02  0.10630923319E+03 -0.10846106496E+04  0.10931679432E+04  0.80664036762E+02 0.  0.
         25    2    1    2    0    0 -0.49447720966E+02 -0.62148339292E+02 -0.90299065425E+02  0.17351813959E+03  0.12508849013E+03 0.  0.
         24    2    1    2    0    0  0.20680538640E+02 -0.44160893900E+02  0.26888873540E+03  0.28473552726E+03  0.79970614786E+02 0.  0.
        -11    1    5    5    0    0  0.39119300414E+02 -0.34563659227E+02  0.25363823332E+03  0.25895428092E+03  0.00000000000E+00 0.  1.
         12    1    5    5    0    0 -0.18438761774E+02 -0.95972346729E+01  0.15250502080E+02  0.25781246340E+02  0.00000000000E+00 0. -1.
         13    1    3    3    0    0 -0.20634716200E+02  0.46119907250E+01 -0.25733024402E+03  0.25819743697E+03  0.00000000000E+00 0. -1.
        -14    1    3    3    0    0  0.49401898526E+02  0.10169724247E+03 -0.82728040563E+03  0.83497050621E+03  0.00000000000E+00 0.  1.
          5    1    4    4  501    0 -0.77388837552E+02 -0.26280365085E+02 -0.97502990589E+02  0.12729491483E+03  0.41800000000E+01 0.  1.
         -5    1    4    4    0  501  0.27941116586E+02 -0.35867974207E+02  0.72039251640E+01  0.46223224763E+02  0.41800000000E+01 0.  1.
</event>
<event>
11    1  0.8299058E-009  0.3489297E+03  0.7561462E-02  0.9813760E-01
         22   -1    0    0    0    0  0.00000000000E+00  0.00000000000E+00  0.70704040190E+03  0.70704040190E+03  0.00000000000E+00 0.  1.
         22   -1    0    0    0    0 -0.00000000000E+00 -0.00000000000E+00 -0.67500924223E+03  0.67500924223E+03  0.00000000000E+00 0.  1.
        -24    2    1    2    0    0  0.29954159892E+03 -0.85379762385E+02 -0.39732384393E+03  0.51152657512E+03  0.82330594547E+02 0.  0.
         25    2    1    2    0    0 -0.34884324430E+03  0.12580215717E+03 -0.37109371568E+02  0.39311857660E+03  0.12508924002E+03 0.  0.
         24    2    1    2    0    0  0.49301645384E+02 -0.40422394780E+02  0.46646437517E+03  0.47740449241E+03  0.79129095994E+02 0.  0.
        -13    1    5    5    0    0  0.22280852207E+02 -0.31310775971E+02  0.42694647012E+03  0.42867247336E+03  0.00000000000E+00 0.  1.
         14    1    5    5    0    0  0.27020793177E+02 -0.91116188084E+01  0.39517905044E+02  0.48732019046E+02  0.00000000000E+00 0. -1.
         13    1    3    3    0    0  0.65762730930E+02 -0.10908706699E+02 -0.38936921318E+02  0.77199873724E+02  0.00000000000E+00 0. -1.
        -14    1    3    3    0    0  0.23377886799E+03 -0.74471055687E+02 -0.35838692261E+03  0.43432670140E+03  0.00000000000E+00 0.  1.
          5    1    4    4  501    0 -0.35806835141E+03  0.12842370855E+03 -0.32910675879E+02  0.38184575183E+03  0.41800000000E+01 0. -1.
         -5    1    4    4    0  501  0.92251071123E+01 -0.26215513847E+01 -0.41986956891E+01  0.11272824774E+02  0.41800000000E+01 0. -1.
</event>
<event>
11    1  0.8299058E-009  0.1316018E+03  0.7561462E-02  0.1117316E+00
         22   -1    0    0    0    0  0.00000000000E+00  0.00000000000E+00  0.15830890787E+03  0.15830890787E+03  0.00000000000E+00 0. -1.
         22   -1    0    0    0    0 -0.00000000000E+00 -0.00000000000E+00 -0.12467433992E+04  0.12467433992E+04  0.00000000000E+00 0.  1.
        -24    2    1    2    0    0 -0.27996663234E+02  0.26734184692E+02 -0.10519314250E+04  0.10584230013E+04  0.11045812345E+03 0.  0.
         25    2    1    2    0    0  0.51071755115E+02 -0.31268013828E+02 -0.15139593572E+03  0.20531920625E+03  0.12509689942E+03 0.  0.
         24    2    1    2    0    0 -0.23075091881E+02  0.45338291358E+01  0.11489286938E+03  0.14131009951E+03  0.78836269034E+02 0.  0.
        -11    1    5    5    0    0 -0.27730079842E+02  0.37997586299E+02  0.53536877897E+02  0.71266901066E+02  0.00000000000E+00 0.  1.
         12    1    5    5    0    0  0.46549879603E+01 -0.33463757163E+02  0.61355991487E+02  0.70043198440E+02  0.00000000000E+00 0. -1.
         11    1    3    3    0    0  0.24612589576E+02  0.20302181854E+01 -0.61295714627E+02  0.66083780031E+02  0.00000000000E+00 0. -1.
        -12    1    3    3    0    0 -0.52609252810E+02  0.24703966507E+02 -0.99063571038E+03  0.99233922129E+03  0.00000000000E+00 0.  1.
          5    1    4    4  501    0  0.30972047586E+02 -0.25044553528E+02 -0.17138211350E+03  0.17599942790E+03  0.41800000000E+01 0.  1.
         -5    1    4    4    0  501  0.20099707529E+02 -0.62234603001E+01  0.19986177774E+02  0.29319778357E+02  0.41800000000E+01 0.  1.
</event>
<event>
11    1  0.8299058E-009  0.2950706E+03  0.7561462E-02  0.1002299E+00
         22   -1    0    0    0    0  0.00000000000E+00  0.00000000000E+00  0.14716969159E+04  0.14716969159E+04  0.00000000000E+00 0. -1.
         22   -1    0    0    0    0 -0.00000000000E+00 -0.00000000000E+00 -0.25572139921E+04  0.25572139921E+04  0.00000000000E+00 0. -1.
         24    2    1    2    0    0  0.24361046707E+03  0.15938023099E+02 -0.16423502617E+04  0.16626380410E+04  0.86317977517E+02 0.  0.
         25    2    1    2    0    0 -0.35627419146E+03 -0.11909282331E+03 -0.85588614334E+03  0.94302852742E+03  0.12508922058E+03 0.  0.
        -24    2    1    2    0    0  0.11266372440E+03  0.10315480021E+03  0.14127193288E+04  0.14232443395E+04  0.80712578697E+02 0.  0.
        -13    1    3    3    0    0  0.13984113087E+03 -0.32424659282E+02 -0.84402710154E+03  0.85614756237E+03  0.00000000000E+00 0.  1.
         14    1    3    3    0    0  0.10376933620E+03  0.48362682381E+02 -0.79832316014E+03  0.80649047868E+03  0.00000000000E+00 0. -1.
         13    1    5    5    0    0  0.13232790908E+02  0.64664792519E+02  0.51243177325E+03  0.51666523435E+03  0.00000000000E+00 0. -1.
        -14    1    5    5    0    0  0.99430933488E+02  0.38490007688E+02  0.90028755558E+03  0.90657910518E+03  0.00000000000E+00 0.  1.
          5    1    4    4  501    0 -0.12520741359E+02 -0.23759424004E+02 -0.14636136777E+03  0.14886370131E+03  0.41800000000E+01 0. -1.
         -5    1    4    4    0  501 -0.34375345010E+03 -0.95333399302E+02 -0.70952477557E+03  0.79416482611E+03  0.41800000000E+01 0. -1.
</event>
<event>
11    1  0.1001964E-008  0.1782113E+03  0.7561462E-02  0.1071099E+00
         22   -1    0    0    0    0  0.00000000000E+00  0.00000000000E+00  0.12424491165E+04  0.12424491165E+04  0.00000000000E+00 0. -1.
         22   -1    0    0    0    0 -0.00000000000E+00 -0.00000000000E+00 -0.12766570621E+04  0.12766570621E+04  0.00000000000E+00 0.  1.
        -24    2    1    2    0    0  0.14341598286E+02  0.58843610324E+01 -0.49819882159E+03  0.50248806066E+03  0.63654364592E+02 0.  0.
         25    2    1    2    0    0 -0.63359576696E+02 -0.12290463220E+03 -0.76070072285E+03  0.78321945966E+03  0.12508855934E+03 0.  0.
         24    2    1    2    0    0  0.49017978410E+02  0.11702027117E+03  0.12246915989E+04  0.12333986583E+04  0.72843886658E+02 0.  0.
        -13    1    5    5    0    0 -0.46851234456E+01  0.78247823172E+02  0.75527086809E+03  0.75932783197E+03  0.00000000000E+00 0.  1.
         14    1    5    5    0    0  0.53703101856E+02  0.38772448000E+02  0.46942073078E+03  0.47407082631E+03  0.00000000000E+00 0. -1.
         13    1    3    3    0    0  0.12510441074E+02 -0.28448424434E+02 -0.22622380774E+03  0.22834849502E+03  0.00000000000E+00 0. -1.
        -14    1    3    3    0    0  0.18311572117E+01  0.34332785467E+02 -0.27197501385E+03  0.27413956565E+03  0.00000000000E+00 0.  1.
          5    1    4    4  501    0 -0.50125136925E+02 -0.57832701450E+02 -0.64667326629E+03  0.65119961337E+03  0.41800000000E+01 0.  1.
         -5    1    4    4    0  501 -0.13234439771E+02 -0.65071930755E+02 -0.11402745655E+03  0.13201984630E+03  0.41800000000E+01 0.  1.
</event>
<event>
11    1  0.8299058E-009  0.1478147E+03  0.7561462E-02  0.1099133E+00
         22   -1    0    0    0    0  0.00000000000E+00  0.00000000000E+00  0.19890950186E+03  0.19890950186E+03  0.00000000000E+00 0. -1.
         22   -1    0    0    0    0 -0.00000000000E+00 -0.00000000000E+00 -0.11128372651E+04  0.11128372651E+04  0.00000000000E+00 0. -1.
        -24    2    1    2    0    0  0.39540617684E+01 -0.17293184092E+02 -0.78015255947E+03  0.78448875682E+03  0.80435717873E+02 0.  0.
         25    2    1    2    0    0  0.66093252318E+02  0.52742839122E+02 -0.29292178368E+03  0.32954343633E+03  0.12508229289E+03 0.  0.
         24    2    1    2    0    0 -0.70047314086E+02 -0.35449655030E+02  0.15914657990E+03  0.19771457383E+03  0.87178635915E+02 0.  0.
        -11    1    5    5    0    0 -0.33559712925E+02 -0.62140639066E+02  0.81281964295E+02  0.10767762569E+03  0.00000000000E+00 0.  1.
         12    1    5    5    0    0 -0.36487601161E+02  0.26690984036E+02  0.77864615601E+02  0.90036948138E+02  0.00000000000E+00 0. -1.
         11    1    3    3    0    0  0.30979092058E+02  0.61695084299E+01 -0.59914063461E+03  0.59997272190E+03  0.00000000000E+00 0. -1.
        -12    1    3    3    0    0 -0.27025030290E+02 -0.23462692522E+02 -0.18101192485E+03  0.18451603492E+03  0.00000000000E+00 0.  1.
          5    1    4    4  501    0  0.62394922568E+02  0.83584761333E+02 -0.27331907394E+03  0.29257533606E+03  0.41800000000E+01 0.  1.
         -5    1    4    4    0  501  0.36983297495E+01 -0.30841922211E+02 -0.19602709737E+02  0.36968100271E+02  0.41800000000E+01 0.  1.
</event>
<event>
11    1  0.8299058E-009  0.1560385E+03  0.7561462E-02  0.1090863E+00
         22   -1    0    0    0    0  0.00000000000E+00  0.00000000000E+00  0.18299947572E+04  0.18299947572E+04  0.00000000000E+00 0.  1.
         22   -1    0    0    0    0 -0.00000000000E+00 -0.00000000000E+00 -0.91795718766E+02  0.91795718766E+02  0.00000000000E+00 0.  1.
        -24    2    1    2    0    0 -0.94677708406E+02 -0.89935845877E+01 -0.34475624950E+02  0.12822732918E+03  0.78796739780E+02 0.  0.
         25    2    1    2    0    0  0.65737670261E+02  0.37600169590E+02  0.60167677579E+03  0.61919230791E+03  0.12509579373E+03 0.  0.
         24    2    1    2    0    0  0.28940038144E+02 -0.28606585002E+02  0.11709978876E+04  0.11743708389E+04  0.79088254084E+02 0.  0.
        -13    1    5    5    0    0  0.46757327091E+02 -0.32695974494E+02  0.10826068493E+04  0.10841092494E+04  0.00000000000E+00 0.  1.
         14    1    5    5    0    0 -0.17817288947E+02  0.40893894922E+01  0.88391038296E+02  0.90261589521E+02  0.00000000000E+00 0. -1.
         13    1    3    3    0    0 -0.11675075995E+02  0.44134186169E+01  0.23147328215E+02  0.26297993590E+02  0.00000000000E+00 0. -1.
        -14    1    3    3    0    0 -0.83002632411E+02 -0.13407003205E+02 -0.57622953165E+02  0.10192933559E+03  0.00000000000E+00 0.  1.
          5    1    4    4  501    0  0.21270816061E+02  0.23095017791E+02  0.24334212630E+02  0.39943131663E+02  0.41800000000E+01 0. -1.
         -5    1    4    4    0  501  0.44466854201E+02  0.14505151798E+02  0.57734256316E+03  0.57924917625E+03  0.41800000000E+01 0. -1.
</event>
<event>
11    1  0.8299058E-009  0.1428363E+03  0.7561462E-02  0.1104432E+00
         22   -1    0    0    0    0  0.00000000000E+00  0.00000000000E+00  0.81934733278E+03  0.81934733278E+03  0.00000000000E+00 0.  1.
         22   -1    0    0    0    0 -0.00000000000E+00 -0.00000000000E+00 -0.10480849763E+03  0.10480849763E+03  0.00000000000E+00 0. -1.
        -24    2    1    2    0    0 -0.75477651742E+02 -0.23195984455E+01 -0.45744397841E+02  0.11876250638E+03  0.79433787136E+02 0.  0.
         25    2    1    2    0    0  0.29101763445E+02 -0.15337155440E+02  0.20337023565E+03  0.24102283474E+03  0.12510161127E+03 0.  0.
         24    2    1    2    0    0  0.46375888297E+02  0.17656753886E+02  0.55691299734E+03  0.56437048929E+03  0.76808063389E+02 0.  0.
        -13    1    5    5    0    0  0.72188277550E+01  0.42631027614E+02  0.21378212200E+03  0.21811077845E+03  0.00000000000E+00 0.  1.
         14    1    5    5    0    0  0.39157060542E+02 -0.24974273728E+02  0.34313087534E+03  0.34625971084E+03  0.00000000000E+00 0. -1.
         13    1    3    3    0    0 -0.90275758534E+02  0.93418823755E+01 -0.37731183483E+02  0.98288481279E+02  0.00000000000E+00 0. -1.
        -14    1    3    3    0    0  0.14798106792E+02 -0.11661480821E+02 -0.80132143577E+01  0.20474025103E+02  0.00000000000E+00 0.  1.
          5    1    4    4  501    0 -0.24958638904E+02  0.35489271220E+02  0.12781177779E+03  0.13503979032E+03  0.41800000000E+01 0.  1.
         -5    1    4    4    0  501  0.54060402349E+02 -0.50826426660E+02  0.75558457857E+02  0.10598304441E+03  0.41800000000E+01 0.  1.
</event>
<event>
11    1  0.8299058E-009  0.1291137E+03  0.7561462E-02  0.1120363E+00
         22   -1    0    0    0    0  0.00000000000E+00  0.00000000000E+00  0.42382141973E+03  0.42382141973E+03  0.00000000000E+00 0.  1.
         22   -1    0    0    0    0 -0.00000000000E+00 -0.00000000000E+00 -0.71565654138E+03  0.71565654138E+03  0.00000000000E+00 0.  1.
         24    2    1    2    0    0  0.28077735735E+02  0.14874641737E+02 -0.68416447516E+03  0.68983920496E+03  0.82386196806E+02 0.  0.
         25    2    1    2    0    0 -0.42319580443E+02 -0.25707105659E+02  0.20550592436E+03  0.24562415054E+03  0.12508691462E+03 0.  0.
        -24    2    1    2    0    0  0.14241844708E+02  0.10832463922E+02  0.18682342915E+03  0.20401460561E+03  0.79992457194E+02 0.  0.
        -11    1    3    3    0    0  0.23775251770E+02  0.47518760357E+02 -0.34323422854E+03  0.34732266097E+03  0.00000000000E+00 0.  1.
         12    1    3    3    0    0  0.43024839656E+01 -0.32644118620E+02 -0.34093024662E+03  0.34251654399E+03  0.00000000000E+00 0. -1.
         11    1    5    5    0    0  0.13181647831E+02  0.13919799097E+02  0.21259053921E+01  0.19288237872E+02  0.00000000000E+00 0. -1.
        -12    1    5    5    0    0  0.10601968762E+01 -0.30873351751E+01  0.18469752376E+03  0.18472636774E+03  0.00000000000E+00 0.  1.
          5    1    4    4  501    0 -0.54193139628E+02  0.28555924744E+02  0.16693938799E+03  0.17787233872E+03  0.41800000000E+01 0.  1.
         -5    1    4    4    0  501  0.11873559185E+02 -0.54263030403E+02  0.38566536373E+02  0.67751811814E+02  0.41800000000E+01 0.  1.
</event>
<event>
11    1  0.8299058E-009  0.3661648E+03  0.7561462E-02  0.9755228E-01
         22   -1    0    0    0    0  0.00000000000E+00  0.00000000000E+00  0.57522969058E+03  0.57522969058E+03  0.00000000000E+00 0. -1.
         22   -1    0    0    0    0 -0.00000000000E+00 -0.00000000000E+00 -0.66084283585E+03  0.66084283585E+03  0.00000000000E+00 0. -1.
         24    2    1    2    0    0 -0.37671103573E+02 -0.26240364352E+03 -0.32939983092E+03  0.43018587741E+03  0.79251853875E+02 0.  0.
         25    2    1    2    0    0  0.36393647537E+03  0.12418879137E+03  0.12063719032E+03  0.42198725296E+03  0.12508915207E+03 0.  0.
        -24    2    1    2    0    0 -0.32626537179E+03  0.13821485214E+03  0.12314949532E+03  0.38389939605E+03  0.81611947068E+02 0.  0.
        -13    1    3    3    0    0 -0.50941038206E+02 -0.21934101162E+03 -0.23437629883E+03  0.32501956588E+03  0.00000000000E+00 0.  1.
         14    1    3    3    0    0  0.13269934633E+02 -0.43062631897E+02 -0.95023532091E+02  0.10516631154E+03  0.00000000000E+00 0. -1.
         11    1    5    5    0    0 -0.20235455173E+03  0.96708118945E+02  0.11728010416E+03  0.25308980166E+03  0.00000000000E+00 0. -1.
        -12    1    5    5    0    0 -0.12391082007E+03  0.41506733198E+02  0.58693911607E+01  0.13080959439E+03  0.00000000000E+00 0.  1.
          5    1    4    4  501    0 -0.98584232671E+01  0.29324385278E+01  0.80736491880E+00  0.11131574154E+02  0.41800000000E+01 0. -1.
         -5    1    4    4    0  501  0.37379489863E+03  0.12125635285E+03  0.11982982541E+03  0.41085567881E+03  0.41800000000E+01 0. -1.
</event>
<event>
11    1  0.1638060E-008  0.1807713E+03  0.7561462E-02  0.1069021E+00
         22   -1    0    0    0    0  0.00000000000E+00  0.00000000000E+00  0.42023729586E+03  0.42023729586E+03  0.00000000000E+00 0. -1.
         22   -1    0    0    0    0 -0.00000000000E+00 -0.00000000000E+00 -0.10561610110E+04  0.10561610110E+04  0.00000000000E+00 0. -1.
        -24    2    1    2    0    0 -0.43709025022E+02  0.24084777110E+02 -0.74040958258E+03  0.74667093388E+03  0.82586791745E+02 0.  0.
         25    2    1    2    0    0  0.17074427734E+03 -0.41531128581E+02 -0.25825720666E+03  0.33648555835E+03  0.12508918139E+03 0.  0.
         24    2    1    2    0    0 -0.12703525231E+03  0.17446351470E+02  0.36274307405E+03  0.39324181467E+03  0.81328079515E+02 0.  0.
        -11    1    5    5    0    0 -0.58590079784E+02  0.49335363106E+01  0.65742880256E+02  0.88200133412E+02  0.00000000000E+00 0.  1.
         12    1    5    5    0    0 -0.68445172530E+02  0.12512815160E+02  0.29700019380E+03  0.30504168125E+03  0.00000000000E+00 0. -1.
         11    1    3    3    0    0 -0.11260063841E+02  0.19653044029E+02 -0.65195187696E+03  0.65234521616E+03  0.00000000000E+00 0. -1.
        -12    1    3    3    0    0 -0.32448961181E+02  0.44317330819E+01 -0.88457705619E+02  0.94325717720E+02  0.00000000000E+00 0.  1.
          5    1    4    4  501    0  0.17020565160E+03 -0.53607696409E+02 -0.16733343739E+03  0.24466650899E+03  0.41800000000E+01 0.  1.
         -5    1    4    4    0  501  0.53862573726E+00  0.12076567828E+02 -0.90923769263E+02  0.91819049359E+02  0.41800000000E+01 0.  1.
</event>
<event>
11    1  0.8299058E-009  0.1261052E+03  0.7561462E-02  0.1124149E+00
         22   -1    0    0    0    0  0.00000000000E+00  0.00000000000E+00  0.10172491654E+03  0.10172491654E+03  0.00000000000E+00 0. -1.
         22   -1    0    0    0    0 -0.00000000000E+00 -0.00000000000E+00 -0.15430140702E+04  0.15430140702E+04  0.00000000000E+00 0.  1.
        -24    2    1    2    0    0 -0.12795238823E+02 -0.11240268926E+02 -0.12297882348E+04  0.12324690427E+04  0.79440398696E+02 0.  0.
         25    2    1    2    0    0  0.13829278218E+02 -0.90017151203E+01 -0.28205386891E+03  0.30898958459E+03  0.12509156088E+03 0.  0.
         24    2    1    2    0    0 -0.10340393947E+01  0.20241984047E+02  0.70552950077E+02  0.10328035944E+03  0.72651956101E+02 0.  0.
        -13    1    5    5    0    0 -0.32745798811E+02  0.27634683912E+02  0.39032021786E+02  0.57960864550E+02  0.00000000000E+00 0.  1.
         14    1    5    5    0    0  0.31711759416E+02 -0.73926998654E+01  0.31520928291E+02  0.45319494888E+02  0.00000000000E+00 0. -1.
         13    1    3    3    0    0  0.32916339002E+02 -0.11114639847E+02 -0.61770871575E+03  0.61868495869E+03  0.00000000000E+00 0. -1.
        -14    1    3    3    0    0 -0.45711577825E+02 -0.12562907905E+00 -0.61207951906E+03  0.61378408401E+03  0.00000000000E+00 0.  1.
          5    1    4    4  501    0 -0.49248062974E+02  0.12710265125E+02 -0.69842366776E+02  0.86500584640E+02  0.41800000000E+01 0.  1.
         -5    1    4    4    0  501  0.63077341192E+02 -0.21711980245E+02 -0.21221150214E+03  0.22248899995E+03  0.41800000000E+01 0.  1.
</event>
<event>
11    1  0.8299058E-009  0.1501100E+03  0.7561462E-02  0.1096766E+00
         22   -1    0    0    0    0  0.00000000000E+00  0.00000000000E+00  0.19878501197E+03  0.19878501197E+03  0.00000000000E+00 0.  1.
         22   -1    0    0    0    0 -0.00000000000E+00 -0.00000000000E+00 -0.67272193360E+03  0.67272193360E+03  0.00000000000E+00 0. -1.
        -24    2    1    2    0    0  0.31080257388E+02  0.59580923751E+02 -0.39017598860E+03  0.40466377786E+03  0.83663625036E+02 0.  0.
         25    2    1    2    0    0 -0.10540643319E+03 -0.23340584012E+02 -0.22806042731E+03  0.28162877374E+03  0.12509160112E+03 0.  0.
         24    2    1    2    0    0  0.74326175799E+02 -0.36240339739E+02  0.14429949428E+03  0.18521439398E+03  0.81512484048E+02 0.  0.
        -11    1    5    5    0    0  0.81080105854E+02 -0.53794925639E+02  0.12101358050E+03  0.15528092045E+03  0.00000000000E+00 0.  1.
         12    1    5    5    0    0 -0.67539300541E+01  0.17554585900E+02  0.23285913779E+02  0.29933473534E+02  0.00000000000E+00 0. -1.
         13    1    3    3    0    0  0.37916615964E+02  0.68350899523E+02 -0.38413979990E+03  0.39201135328E+03  0.00000000000E+00 0. -1.
        -14    1    3    3    0    0 -0.68363585761E+01 -0.87699757721E+01 -0.60361886967E+01  0.12652424574E+02  0.00000000000E+00 0.  1.
          5    1    4    4  501    0  0.19669213779E+02 -0.30916396562E+02 -0.31573231447E+02  0.48549386104E+02  0.41800000000E+01 0. -1.
         -5    1    4    4    0  501 -0.12507564697E+03  0.75758125504E+01 -0.19648719587E+03  0.23307938763E+03  0.41800000000E+01 0. -1.
</event>
<event>
11    1  0.8299058E-009  0.2489819E+03  0.7561462E-02  0.1024443E+00
         22   -1    0    0    0    0  0.00000000000E+00  0.00000000000E+00  0.11716683976E+04  0.11716683976E+04  0.00000000000E+00 0. -1.
         22   -1    0    0    0    0 -0.00000000000E+00 -0.00000000000E+00 -0.14763226097E+03  0.14763226097E+03  0.00000000000E+00 0. -1.
        -24    2    1    2    0    0 -0.70595725681E+02 -0.19023182884E+02 -0.58385300714E+02  0.12631137999E+03  0.84853305203E+02 0.  0.
         25    2    1    2    0    0 -0.14896981751E+03 -0.78727143952E+02  0.26912332604E+03  0.34126924505E+03  0.12508942112E+03 0.  0.
         24    2    1    2    0    0  0.21956554319E+03  0.97750326837E+02  0.81329811131E+03  0.85172003354E+03  0.78797484157E+02 0.  0.
        -13    1    5    5    0    0  0.19611548857E+03  0.62322076119E+02  0.60218338171E+03  0.63637265123E+03  0.00000000000E+00 0.  1.
         14    1    5    5    0    0  0.23450054628E+02  0.35428250717E+02  0.21111472960E+03  0.21534738231E+03  0.00000000000E+00 0. -1.
         13    1    3    3    0    0 -0.86584040151E+02 -0.70802025827E+01 -0.61047965930E+02  0.10617805527E+03  0.00000000000E+00 0. -1.
        -14    1    3    3    0    0  0.15988314470E+02 -0.11942980302E+02  0.26626652155E+01  0.20133324716E+02  0.00000000000E+00 0.  1.
          5    1    4    4  501    0 -0.14870326379E+03 -0.19471668559E+02  0.18286758866E+03  0.23653717238E+03  0.41800000000E+01 0. -1.
         -5    1    4    4    0  501 -0.26655372666E+00 -0.59255475394E+02  0.86255737383E+02  0.10473207267E+03  0.41800000000E+01 0. -1.
</event>
<event>
11    1  0.8299058E-009  0.1395159E+03  0.7561462E-02  0.1108100E+00
         22   -1    0    0    0    0  0.00000000000E+00  0.00000000000E+00  0.68138267549E+03  0.68138267549E+03  0.00000000000E+00 0.  1.
         22   -1    0    0    0    0 -0.00000000000E+00 -0.00000000000E+00 -0.77530297797E+03  0.77530297797E+03  0.00000000000E+00 0. -1.
         24    2    1    2    0    0 -0.61281214612E+02  0.10308029388E+02 -0.73137837280E+03  0.73795948568E+03  0.76211781034E+02 0.  0.
         25    2    1    2    0    0  0.40787040816E+02 -0.43336444396E+02  0.92601577926E+02  0.16662573421E+03  0.12508977958E+03 0.  0.
        -24    2    1    2    0    0  0.20494173796E+02  0.33028415009E+02  0.54485649239E+03  0.55210043357E+03  0.80220970452E+02 0.  0.
        -11    1    3    3    0    0 -0.47360744090E+02 -0.55320641456E+01 -0.18094294456E+03  0.18712026347E+03  0.00000000000E+00 0.  1.
         12    1    3    3    0    0 -0.13920470522E+02  0.15840093533E+02 -0.55043542824E+03  0.55083922221E+03  0.00000000000E+00 0. -1.
         13    1    5    5    0    0  0.29975334280E+02  0.13794508298E+01  0.70831202001E+02  0.76925176157E+02  0.00000000000E+00 0. -1.
        -14    1    5    5    0    0 -0.94811604841E+01  0.31648964179E+02  0.47402529038E+03  0.47517525742E+03  0.00000000000E+00 0.  1.
          5    1    4    4  501    0  0.81892802622E+02 -0.14595429527E+02  0.78270283823E+02  0.11429421426E+03  0.41800000000E+01 0.  1.
         -5    1    4    4    0  501 -0.41105761806E+02 -0.28741014869E+02  0.14331294103E+02  0.52331519948E+02  0.41800000000E+01 0.  1.
</event>
<event>
11    1  0.8299058E-009  0.2454981E+04  0.7561462E-02  0.7902433E-01
         22   -1    0    0    0    0  0.00000000000E+00  0.00000000000E+00  0.53756113409E+03  0.53756113409E+03  0.00000000000E+00 0.  1.
         22   -1    0    0    0    0 -0.00000000000E+00 -0.00000000000E+00 -0.28029054445E+04  0.28029054445E+04  0.00000000000E+00 0.  1.
         24    2    1    2    0    0  0.65740709306E+03  0.82883001908E+03 -0.99849119588E+03  0.14577125677E+04  0.93797523215E+02 0.  0.
         25    2    1    2    0    0 -0.66899349523E+03 -0.99331105273E+03 -0.11545399533E+04  0.16681815392E+04  0.12509196569E+03 0.  0.
        -24    2    1    2    0    0  0.11586402174E+02  0.16448103365E+03 -0.11231316121E+03  0.21457247161E+03  0.78986354801E+02 0.  0.
        -11    1    3    3    0    0  0.19150570763E+03  0.20396458668E+03 -0.31192222050E+03  0.41901248229E+03  0.00000000000E+00 0.  1.
         12    1    3    3    0    0  0.46590138543E+03  0.62486543240E+03 -0.68656897538E+03  0.10387000854E+04  0.00000000000E+00 0. -1.
         11    1    5    5    0    0 -0.71871301256E+01  0.32645896852E+01 -0.32987435911E+02  0.33918775232E+02  0.00000000000E+00 0. -1.
        -12    1    5    5    0    0  0.18773532300E+02  0.16121644397E+03 -0.79325725296E+02  0.18065369638E+03  0.00000000000E+00 0.  1.
          5    1    4    4  501    0 -0.36083522666E+03 -0.64023340573E+03 -0.68105264672E+03  0.10019735798E+04  0.41800000000E+01 0. -1.
         -5    1    4    4    0  501 -0.30815826857E+03 -0.35307764700E+03 -0.47348730657E+03  0.66620795941E+03  0.41800000000E+01 0. -1.
</event>
<event>
11    1  0.8299058E-009  0.1423328E+03  0.7561462E-02  0.1104981E+00
         22   -1    0    0    0    0  0.00000000000E+00  0.00000000000E+00  0.10381740543E+04  0.10381740543E+04  0.00000000000E+00 0. -1.
         22   -1    0    0    0    0 -0.00000000000E+00 -0.00000000000E+00 -0.14969432980E+04  0.14969432980E+04  0.00000000000E+00 0.  1.
         24    2    1    2    0    0  0.20238267189E+02  0.12890122005E+02 -0.12716412534E+04  0.12742775655E+04  0.78333222393E+02 0.  0.
         25    2    1    2    0    0 -0.48423238353E+02 -0.74454239132E+02 -0.19538066542E+03  0.24841597755E+03  0.12509456321E+03 0.  0.
        -24    2    1    2    0    0  0.28184971164E+02  0.61564117126E+02  0.10082526751E+04  0.10124238093E+04  0.61999835356E+02 0.  0.
        -11    1    3    3    0    0  0.16443750440E+02 -0.97507203264E+01 -0.11666163390E+04  0.11667729667E+04  0.00000000000E+00 0.  1.
         12    1    3    3    0    0  0.37945167490E+01  0.22640842332E+02 -0.10502491446E+03  0.10750459877E+03  0.00000000000E+00 0. -1.
         13    1    5    5    0    0  0.47133904333E+02  0.49655122403E+02  0.81776960971E+03  0.82063047146E+03  0.00000000000E+00 0. -1.
        -14    1    5    5    0    0 -0.18948933168E+02  0.11908994723E+02  0.19048306539E+03  0.19179333780E+03  0.00000000000E+00 0.  1.
          5    1    4    4  501    0 -0.15921709292E+02 -0.27375063664E+02  0.11330957443E+02  0.33893331703E+02  0.41800000000E+01 0.  1.
         -5    1    4    4    0  501 -0.32501529062E+02 -0.47079175468E+02 -0.20671162286E+03  0.21452264585E+03  0.41800000000E+01 0.  1.
</event>
<event>
11    1  0.8299058E-009  0.1301184E+03  0.7561462E-02  0.1119124E+00
         22   -1    0    0    0    0  0.00000000000E+00  0.00000000000E+00  0.48466012759E+03  0.48466012759E+03  0.00000000000E+00 0. -1.
         22   -1    0    0    0    0 -0.00000000000E+00 -0.00000000000E+00 -0.39228181919E+03  0.39228181919E+03  0.00000000000E+00 0.  1.
        -24    2    1    2    0    0  0.21919355768E+02 -0.26508561419E+02 -0.33198244421E+03  0.34339395031E+03  0.80770662098E+02 0.  0.
         25    2    1    2    0    0 -0.51316716592E+02  0.68677884217E+01  0.43029220162E+02  0.14205503333E+03  0.12509015464E+03 0.  0.
         24    2    1    2    0    0  0.29397360825E+02  0.19640772998E+02  0.38133153246E+03  0.39149296314E+03  0.81259077997E+02 0.  0.
        -11    1    5    5    0    0  0.36002698673E+02 -0.13099345274E+02  0.84394739198E+02  0.92683651000E+02  0.00000000000E+00 0.  1.
         12    1    5    5    0    0 -0.66053378484E+01  0.32740118272E+02  0.29693679326E+03  0.29880931214E+03  0.00000000000E+00 0. -1.
         11    1    3    3    0    0  0.46413888280E+02  0.44064238783E+01 -0.14554747409E+03  0.15283236833E+03  0.00000000000E+00 0. -1.
        -12    1    3    3    0    0 -0.24494532513E+02 -0.30914985298E+02 -0.18643497013E+03  0.19056158198E+03  0.00000000000E+00 0.  1.
          5    1    4    4  501    0 -0.13490122507E+02  0.64531729961E+02  0.25190302104E+02  0.70699019067E+02  0.41800000000E+01 0.  1.
         -5    1    4    4    0  501 -0.37826594085E+02 -0.57663941539E+02  0.17838918057E+02  0.71356014262E+02  0.41800000000E+01 0.  1.
</event>
<event>
11    1  0.8299058E-009  0.2290008E+03  0.7561462E-02  0.1035721E+00
         22   -1    0    0    0    0  0.00000000000E+00  0.00000000000E+00  0.26075368027E+03  0.26075368027E+03  0.00000000000E+00 0. -1.
         22   -1    0    0    0    0 -0.00000000000E+00 -0.00000000000E+00 -0.90456184706E+03  0.90456184706E+03  0.00000000000E+00 0.  1.
        -24    2    1    2    0    0 -0.46778874357E+02  0.21361086551E+03 -0.74340396374E+03  0.77649564625E+03  0.49781225225E+02 0.  0.
         25    2    1    2    0    0  0.48465576078E+02 -0.43584775834E+02 -0.48889261509E+02  0.14928628388E+03  0.12509072673E+03 0.  0.
         24    2    1    2    0    0 -0.16867017214E+01 -0.17002608967E+03  0.14848505846E+03  0.23953359720E+03  0.80105027750E+02 0.  0.
        -13    1    5    5    0    0 -0.79928474796E+01 -0.20395591894E+02  0.63864695787E+02  0.67517147062E+02  0.00000000000E+00 0.  1.
         14    1    5    5    0    0  0.63061457582E+01 -0.14963049778E+03  0.84620362673E+02  0.17201645014E+03  0.00000000000E+00 0. -1.
         13    1    3    3    0    0 -0.14628588984E+02  0.12546588421E+02 -0.43575729126E+02  0.47647210470E+02  0.00000000000E+00 0. -1.
        -14    1    3    3    0    0 -0.32150285373E+02  0.20106427709E+03 -0.69982823462E+03  0.72884843578E+03  0.00000000000E+00 0.  1.
          5    1    4    4  501    0 -0.24661967693E+02 -0.19383723977E+02  0.26610442789E+02  0.41346456574E+02  0.41800000000E+01 0.  1.
         -5    1    4    4    0  501  0.73127543772E+02 -0.24201051856E+02 -0.75499704299E+02  0.10793982730E+03  0.41800000000E+01 0.  1.
</event>
<event>
11    1  0.8299058E-009  0.1508240E+03  0.7561462E-02  0.1096040E+00
         22   -1    0    0    0    0  0.00000000000E+00  0.00000000000E+00  0.50501191191E+03  0.50501191191E+03  0.00000000000E+00 0. -1.
         22   -1    0    0    0    0 -0.00000000000E+00 -0.00000000000E+00 -0.17470539704E+03  0.17470539704E+03  0.00000000000E+00 0. -1.
        -24    2    1    2    0    0  0.31296843779E+02  0.92828263450E+01 -0.79198979758E+02  0.11615239181E+03  0.78442567736E+02 0.  0.
         25    2    1    2    0    0 -0.85163387885E+02 -0.70108516583E+02  0.32501020356E+02  0.16991810663E+03  0.12509132625E+03 0.  0.
         24    2    1    2    0    0  0.53866544107E+02  0.60825690238E+02  0.37700447427E+03  0.39364681050E+03  0.78892766684E+02 0.  0.
        -13    1    5    5    0    0  0.31781731831E+02  0.46838472758E+02  0.96117070366E+02  0.11154556120E+03  0.00000000000E+00 0.  1.
         14    1    5    5    0    0  0.22084812276E+02  0.13987217480E+02  0.28088740390E+03  0.28210124930E+03  0.00000000000E+00 0. -1.
         13    1    3    3    0    0  0.23948769410E+02  0.39553792698E+02 -0.69594994504E+02  0.83555426712E+02  0.00000000000E+00 0. -1.
        -14    1    3    3    0    0  0.73480743685E+01 -0.30270966353E+02 -0.96039852542E+01  0.32596965098E+02  0.00000000000E+00 0.  1.
          5    1    4    4  501    0 -0.22154380657E+02 -0.48159673564E+02  0.74080252942E+02  0.91189511546E+02  0.41800000000E+01 0.  1.
         -5    1    4    4    0  501 -0.63009007228E+02 -0.21948843019E+02 -0.41579232587E+02  0.78728595086E+02  0.41800000000E+01 0.  1.
</event>
<event>
11    1  0.8299058E-009  0.1561575E+03  0.7561462E-02  0.1090748E+00
         22   -1    0    0    0    0  0.00000000000E+00  0.00000000000E+00  0.48079385859E+03  0.48079385859E+03  0.00000000000E+00 0. -1.
         22   -1    0    0    0    0 -0.00000000000E+00 -0.00000000000E+00 -0.89543036082E+03  0.89543036082E+03  0.00000000000E+00 0. -1.
         24    2    1    2    0    0  0.63568228859E+02  0.33059984144E+02 -0.78264668359E+03  0.79006544762E+03  0.80831292981E+02 0.  0.
         25    2    1    2    0    0 -0.47531207640E+02  0.63646709119E+02 -0.40316056426E+02  0.15357581011E+03  0.12510006300E+03 0.  0.
        -24    2    1    2    0    0 -0.16037021219E+02 -0.96706693263E+02  0.40832623779E+03  0.43258296167E+03  0.10386689412E+03 0.  0.
        -13    1    3    3    0    0 -0.16609552403E+02 -0.74235818653E+01 -0.13465070128E+03  0.13587419974E+03  0.00000000000E+00 0.  1.
         14    1    3    3    0    0  0.80177781261E+02  0.40483566010E+02 -0.64799598231E+03  0.65419124789E+03  0.00000000000E+00 0. -1.
         13    1    5    5    0    0 -0.64269424292E+01 -0.73371744350E+02  0.10526888806E+03  0.12847667980E+03  0.00000000000E+00 0. -1.
        -14    1    5    5    0    0 -0.96100787897E+01 -0.23334948914E+02  0.30305734973E+03  0.30410628188E+03  0.00000000000E+00 0.  1.
          5    1    4    4  501    0 -0.61690553699E+02 -0.11290520311E+02  0.77529324995E+01  0.63330724194E+02  0.41800000000E+01 0.  1.
         -5    1    4    4    0  501  0.14159346059E+02  0.74937229430E+02 -0.48068988926E+02  0.90245085915E+02  0.41800000000E+01 0.  1.
</event>
<event>
11    1  0.8299058E-009  0.1913723E+03  0.7561462E-02  0.1060798E+00
         22   -1    0    0    0    0  0.00000000000E+00  0.00000000000E+00  0.26961946822E+03  0.26961946822E+03  0.00000000000E+00 0.  1.
         22   -1    0    0    0    0 -0.00000000000E+00 -0.00000000000E+00 -0.78852117673E+03  0.78852117673E+03  0.00000000000E+00 0.  1.
         24    2    1    2    0    0  0.11337443356E+03  0.95745385066E+02 -0.69906295243E+03  0.71893424148E+03  0.78463310985E+02 0.  0.
         25    2    1    2    0    0 -0.69610000266E+02 -0.83673664937E+02  0.39199358755E+02  0.17038189266E+03  0.12508623137E+03 0.  0.
        -24    2    1    2    0    0 -0.43764433293E+02 -0.12071720128E+02  0.14096188516E+03  0.16882451081E+03  0.81058067664E+02 0.  0.
        -11    1    3    3    0    0  0.11253842297E+03  0.95737814707E+02 -0.70122194038E+03  0.71661903092E+03  0.00000000000E+00 0.  1.
         12    1    3    3    0    0  0.83601058669E+00  0.75703580256E-02  0.21589879456E+01  0.23152105650E+01  0.00000000000E+00 0. -1.
         13    1    5    5    0    0  0.19548426344E+02  0.11293444383E+02  0.19313157510E+02  0.29709946340E+02  0.00000000000E+00 0. -1.
        -14    1    5    5    0    0 -0.63312859638E+02 -0.23365164511E+02  0.12164872765E+03  0.13911456447E+03  0.00000000000E+00 0.  1.
          5    1    4    4  501    0 -0.95861350354E+02 -0.59236720275E+02  0.60996908122E+02  0.12820484672E+03  0.41800000000E+01 0. -1.
         -5    1    4    4    0  501  0.26251350088E+02 -0.24436944662E+02 -0.21797549368E+02  0.42177045941E+02  0.41800000000E+01 0. -1.
</event>
<event>
11    1  0.8299058E-009  0.1298726E+03  0.7561462E-02  0.1119426E+00
         22   -1    0    0    0    0  0.00000000000E+00  0.00000000000E+00  0.14020519666E+04  0.14020519666E+04  0.00000000000E+00 0.  1.
         22   -1    0    0    0    0 -0.00000000000E+00 -0.00000000000E+00 -0.38962767488E+03  0.38962767488E+03  0.00000000000E+00 0.  1.
        -24    2    1    2    0    0  0.10240721827E+02 -0.22521521954E+02 -0.33743400237E+03  0.34759900719E+03  0.79694871278E+02 0.  0.
         25    2    1    2    0    0 -0.42556583586E+02  0.94381189249E+01  0.50969962059E+02  0.14193747584E+03  0.12509264215E+03 0.  0.
         24    2    1    2    0    0  0.32315861759E+02  0.13083403029E+02  0.12988883321E+04  0.13021431585E+04  0.85149372730E+02 0.  0.
        -13    1    5    5    0    0  0.49875280790E+02  0.10599548306E+02  0.12284129541E+04  0.12294707316E+04  0.00000000000E+00 0.  1.
         14    1    5    5    0    0 -0.17559419030E+02  0.24838547227E+01  0.70475377917E+02  0.72672426845E+02  0.00000000000E+00 0. -1.
         11    1    3    3    0    0 -0.53466250383E+01 -0.45253284198E+02 -0.11888565391E+03  0.12731945977E+03  0.00000000000E+00 0. -1.
        -12    1    3    3    0    0  0.15587346865E+02  0.22731762245E+02 -0.21854834846E+03  0.22027954742E+03  0.00000000000E+00 0.  1.
          5    1    4    4  501    0 -0.70418875819E+02 -0.23431436517E+02  0.62522409815E+02  0.97130707904E+02  0.41800000000E+01 0.  1.
         -5    1    4    4    0  501  0.27862292233E+02  0.32869555442E+02 -0.11552447756E+02  0.44806767932E+02  0.41800000000E+01 0.  1.
</event>
<event>
11    1  0.9760687E-009  0.1439499E+03  0.7561462E-02  0.1103226E+00
         22   -1    0    0    0    0  0.00000000000E+00  0.00000000000E+00  0.16520551041E+04  0.16520551041E+04  0.00000000000E+00 0.  1.
         22   -1    0    0    0    0 -0.00000000000E+00 -0.00000000000E+00 -0.42834165199E+03  0.42834165199E+03  0.00000000000E+00 0. -1.
        -24    2    1    2    0    0 -0.49710682120E+01  0.57429693265E+02 -0.31554900446E+03  0.33120846589E+03  0.82492378293E+02 0.  0.
         25    2    1    2    0    0  0.64770565639E+02 -0.95010256535E+02 -0.33153657359E+02  0.17311270455E+03  0.12508664381E+03 0.  0.
         24    2    1    2    0    0 -0.59799497427E+02  0.37580563269E+02  0.15724161140E+04  0.15760755857E+04  0.80830301849E+02 0.  0.
        -11    1    5    5    0    0 -0.78196716153E+02  0.40221467296E+02  0.13644511008E+04  0.13672817191E+04  0.00000000000E+00 0.  1.
         12    1    5    5    0    0  0.18397218726E+02 -0.26409040263E+01  0.20796501313E+03  0.20879386657E+03  0.00000000000E+00 0. -1.
         13    1    3    3    0    0  0.32196237573E+02  0.81953359263E-02 -0.10542307895E+03  0.11022986599E+03  0.00000000000E+00 0. -1.
        -14    1    3    3    0    0 -0.37167305785E+02  0.57421497930E+02 -0.21012592551E+03  0.22097859990E+03  0.00000000000E+00 0.  1.
          5    1    4    4  501    0  0.31108033272E+02  0.24169571191E+02 -0.29062085792E+02  0.49132017425E+02  0.41800000000E+01 0.  1.
         -5    1    4    4    0  501  0.33662532367E+02 -0.11917982773E+03 -0.40915715674E+01  0.12398068713E+03  0.41800000000E+01 0.  1.
</event>
<event>
11    1  0.8299058E-009  0.1423061E+03  0.7561462E-02  0.1105010E+00
         22   -1    0    0    0    0  0.00000000000E+00  0.00000000000E+00  0.27875477015E+03  0.27875477015E+03  0.00000000000E+00 0.  1.
         22   -1    0    0    0    0 -0.00000000000E+00 -0.00000000000E+00 -0.76464084715E+03  0.76464084715E+03  0.00000000000E+00 0. -1.
        -24    2    1    2    0    0  0.13604928452E+02 -0.73889856663E+02 -0.59715849369E+03  0.60785096483E+03  0.85086566891E+02 0.  0.
         25    2    1    2    0    0 -0.43669924404E+02  0.18085741327E+02 -0.12184525572E+03  0.18091662492E+03  0.12510156871E+03 0.  0.
         24    2    1    2    0    0  0.30064995952E+02  0.55804115336E+02  0.23311767241E+03  0.25462802755E+03  0.80458560495E+02 0.  0.
        -13    1    5    5    0    0  0.50792019340E+02  0.61378864982E+02  0.19856557028E+03  0.21395205069E+03  0.00000000000E+00 0.  1.
         14    1    5    5    0    0 -0.20727023387E+02 -0.55747496458E+01  0.34552102126E+02  0.40675976859E+02  0.00000000000E+00 0. -1.
         11    1    3    3    0    0 -0.10603293443E+02 -0.10767063631E+02 -0.38249345708E+03  0.38279185493E+03  0.00000000000E+00 0. -1.
        -12    1    3    3    0    0  0.24208221895E+02 -0.63122793032E+02 -0.21466503661E+03  0.22505910990E+03  0.00000000000E+00 0.  1.
          5    1    4    4  501    0  0.40244412944E+02 -0.12364909034E+02 -0.25014930881E+02  0.49150004228E+02  0.41800000000E+01 0.  1.
         -5    1    4    4    0  501 -0.83914337348E+02  0.30450650361E+02 -0.96830324836E+02  0.13176662069E+03  0.41800000000E+01 0.  1.
</event>
<event>
11    1  0.8299058E-009  0.1461515E+03  0.7561462E-02  0.1100877E+00
         22   -1    0    0    0    0  0.00000000000E+00  0.00000000000E+00  0.52399075280E+03  0.52399075280E+03  0.00000000000E+00 0. -1.
         22   -1    0    0    0    0 -0.00000000000E+00 -0.00000000000E+00 -0.30000127336E+03  0.30000127336E+03  0.00000000000E+00 0.  1.
        -24    2    1    2    0    0 -0.43507884995E+02 -0.60962668644E+02 -0.23964745372E+03  0.26388335784E+03  0.81204319115E+02 0.  0.
         25    2    1    2    0    0  0.17876525269E+02  0.88648658887E+02  0.93786303436E+02  0.18061721328E+03  0.12509417309E+03 0.  0.
         24    2    1    2    0    0  0.25631359726E+02 -0.27685990242E+02  0.36985062973E+03  0.37949145505E+03  0.76162953491E+02 0.  0.
        -11    1    5    5    0    0  0.37829610897E+02  0.11566973048E+02  0.24153050962E+03  0.24474856772E+03  0.00000000000E+00 0.  1.
         12    1    5    5    0    0 -0.12198251171E+02 -0.39252963290E+02  0.12832012011E+03  0.13474288732E+03  0.00000000000E+00 0. -1.
         13    1    3    3    0    0  0.23934398221E+02 -0.10016537249E+02 -0.55664510054E+02  0.61414364087E+02  0.00000000000E+00 0. -1.
        -14    1    3    3    0    0 -0.67442283216E+02 -0.50946131395E+02 -0.18398294367E+03  0.20246899375E+03  0.00000000000E+00 0.  1.
          5    1    4    4  501    0  0.37406432756E+02 -0.14918588706E+02  0.54871352587E+02  0.68191958729E+02  0.41800000000E+01 0. -1.
         -5    1    4    4    0  501 -0.19529907487E+02  0.10356724759E+03  0.38914950849E+02  0.11242525455E+03  0.41800000000E+01 0. -1.
</event>
<event>
11    1  0.8299058E-009  0.1830235E+03  0.7561462E-02  0.1067223E+00
         22   -1    0    0    0    0  0.00000000000E+00  0.00000000000E+00  0.40359262900E+03  0.40359262900E+03  0.00000000000E+00 0. -1.
         22   -1    0    0    0    0 -0.00000000000E+00 -0.00000000000E+00 -0.90830277033E+03  0.90830277033E+03  0.00000000000E+00 0. -1.
        -24    2    1    2    0    0 -0.88582103014E+02  0.12942132739E+02 -0.70008548746E+03  0.71047569405E+03  0.81496836265E+02 0.  0.
         25    2    1    2    0    0  0.19407343326E+03 -0.82740991549E+02 -0.10417541979E+03  0.26648327267E+03  0.12510094862E+03 0.  0.
         24    2    1    2    0    0 -0.10549133025E+03  0.69798858810E+02  0.29955076592E+03  0.33493643260E+03  0.80320925487E+02 0.  0.
        -11    1    5    5    0    0 -0.40865198919E+02 -0.77822948307E+01  0.46001917191E+02  0.62021810524E+02  0.00000000000E+00 0.  1.
         12    1    5    5    0    0 -0.64626131330E+02  0.77581153641E+02  0.25354884873E+03  0.27291462208E+03  0.00000000000E+00 0. -1.
         13    1    3    3    0    0 -0.12027623224E+01  0.17288106812E+02 -0.31926582542E+03  0.31973581682E+03  0.00000000000E+00 0. -1.
        -14    1    3    3    0    0 -0.87379340691E+02 -0.43459740730E+01 -0.38081966203E+03  0.39073987723E+03  0.00000000000E+00 0.  1.
          5    1    4    4  501    0  0.95445136142E+02  0.18555923187E+02 -0.72968528859E+02  0.12163870643E+03  0.41800000000E+01 0.  1.
         -5    1    4    4    0  501  0.98628297121E+02 -0.10129691474E+03 -0.31206890934E+02  0.14484456624E+03  0.41800000000E+01 0.  1.
</event>
<event>
11    1  0.8299058E-009  0.1554584E+03  0.7561462E-02  0.1091428E+00
         22   -1    0    0    0    0  0.00000000000E+00  0.00000000000E+00  0.14729016002E+04  0.14729016002E+04  0.00000000000E+00 0. -1.
         22   -1    0    0    0    0 -0.00000000000E+00 -0.00000000000E+00 -0.21167306352E+03  0.21167306352E+03  0.00000000000E+00 0.  1.
         24    2    1    2    0    0 -0.13474535500E+02 -0.24921040540E+02 -0.17191377440E+03  0.19136873019E+03  0.79151902667E+02 0.  0.
         25    2    1    2    0    0  0.15623401599E+02  0.11466367062E+03  0.24157557492E+03  0.29563221684E+03  0.12509117154E+03 0.  0.
        -24    2    1    2    0    0 -0.21488660994E+01 -0.89742630084E+02  0.11915667361E+04  0.11975737167E+04  0.79329457947E+02 0.  0.
        -13    1    3    3    0    0  0.23932656591E+01 -0.52195557979E+02 -0.11440017929E+03  0.12576766284E+03  0.00000000000E+00 0.  1.
         14    1    3    3    0    0 -0.15867801159E+02  0.27274517439E+02 -0.57513595108E+02  0.65601067350E+02  0.00000000000E+00 0. -1.
         13    1    5    5    0    0 -0.33772067913E+01 -0.10147074220E+03  0.11466115644E+04  0.11510976486E+04  0.00000000000E+00 0. -1.
        -14    1    5    5    0    0  0.12283406919E+01  0.11728112121E+02  0.44955171758E+02  0.46476068062E+02  0.00000000000E+00 0.  1.
          5    1    4    4  501    0 -0.52665171920E+02  0.34202233209E+02  0.11194063924E+03  0.12841959431E+03  0.41800000000E+01 0.  1.
         -5    1    4    4    0  501  0.68288573519E+02  0.80461437415E+02  0.12963493568E+03  0.16721262253E+03  0.41800000000E+01 0.  1.
</event>
<event>
11    1  0.8299058E-009  0.2172427E+03  0.7561462E-02  0.1042959E+00
         22   -1    0    0    0    0  0.00000000000E+00  0.00000000000E+00  0.16382233768E+04  0.16382233768E+04  0.00000000000E+00 0. -1.
         22   -1    0    0    0    0 -0.00000000000E+00 -0.00000000000E+00 -0.10254937889E+04  0.10254937889E+04  0.00000000000E+00 0.  1.
         24    2    1    2    0    0 -0.17416054979E+03 -0.34796474605E+02 -0.99889307364E+03  0.10176419472E+04  0.79152185413E+02 0.  0.
         25    2    1    2    0    0  0.17394272284E+03  0.40705008509E+02  0.75726888185E+03  0.78804617940E+03  0.12509057879E+03 0.  0.
        -24    2    1    2    0    0  0.21782694968E+00 -0.59085339037E+01  0.85435377962E+03  0.85802903905E+03  0.79110636920E+02 0.  0.
        -13    1    3    3    0    0 -0.11917599207E+03 -0.60433606430E+02 -0.66808589859E+03  0.68131777150E+03  0.00000000000E+00 0.  1.
         14    1    3    3    0    0 -0.54984557716E+02  0.25637131825E+02 -0.33080717505E+03  0.33632417573E+03  0.00000000000E+00 0. -1.
         11    1    5    5    0    0 -0.22044405619E+02 -0.35036998867E+02  0.52871506802E+03  0.53033307483E+03  0.00000000000E+00 0. -1.
        -12    1    5    5    0    0  0.22262232569E+02  0.29128464963E+02  0.32563871160E+03  0.32769596422E+03  0.00000000000E+00 0.  1.
          5    1    4    4  501    0  0.14727243958E+03  0.54992106863E+02  0.40507301427E+03  0.43452839098E+03  0.41800000000E+01 0.  1.
         -5    1    4    4    0  501  0.26670283254E+02 -0.14287098354E+02  0.35219586758E+03  0.35351778842E+03  0.41800000000E+01 0.  1.
</event>
<event>
11    1  0.8299058E-009  0.1455713E+03  0.7561462E-02  0.1101492E+00
         22   -1    0    0    0    0  0.00000000000E+00  0.00000000000E+00  0.14595695401E+04  0.14595695401E+04  0.00000000000E+00 0.  1.
         22   -1    0    0    0    0 -0.00000000000E+00 -0.00000000000E+00 -0.27244045878E+04  0.27244045878E+04  0.00000000000E+00 0. -1.
         24    2    1    2    0    0 -0.21902633323E+01  0.60170629138E+02 -0.26273879356E+04  0.26293170548E+04  0.80718699063E+02 0.  0.
         25    2    1    2    0    0 -0.33453601895E+01 -0.13311582145E+03 -0.51754914276E+01  0.18277336849E+03  0.12509318591E+03 0.  0.
        -24    2    1    2    0    0  0.55356235218E+01  0.72945192312E+02  0.13677283794E+04  0.13718837046E+04  0.77668106921E+02 0.  0.
        -11    1    3    3    0    0 -0.37289725466E+02  0.14236812489E+02 -0.77488877309E+03  0.77591611732E+03  0.00000000000E+00 0.  1.
         12    1    3    3    0    0  0.35099462134E+02  0.45933816649E+02 -0.18524991626E+04  0.18534009375E+04  0.00000000000E+00 0. -1.
         13    1    5    5    0    0 -0.86761961621E+01  0.26606304374E+01  0.74270016517E+03  0.74275560629E+03  0.00000000000E+00 0. -1.
        -14    1    5    5    0    0  0.14211819684E+02  0.70284561875E+02  0.62502821422E+03  0.62912809826E+03  0.00000000000E+00 0.  1.
          5    1    4    4  501    0  0.38133253543E+02 -0.83290341789E+02 -0.49423084527E+02  0.10417072403E+03  0.41800000000E+01 0. -1.
         -5    1    4    4    0  501 -0.41478613732E+02 -0.49825479661E+02  0.44247593099E+02  0.78602644457E+02  0.41800000000E+01 0. -1.
</event>
<event>
11    1  0.8299058E-009  0.1681390E+03  0.7561462E-02  0.1079663E+00
         22   -1    0    0    0    0  0.00000000000E+00  0.00000000000E+00  0.22531952409E+03  0.22531952409E+03  0.00000000000E+00 0. -1.
         22   -1    0    0    0    0 -0.00000000000E+00 -0.00000000000E+00 -0.32107064450E+03  0.32107064450E+03  0.00000000000E+00 0. -1.
         24    2    1    2    0    0  0.29497152438E+02 -0.98042969918E+02 -0.14170701087E+03  0.19175565772E+03  0.78783560380E+02 0.  0.
         25    2    1    2    0    0 -0.61885418194E+02  0.12391858365E+03 -0.77243032564E+02  0.20198895676E+03  0.12508969668E+03 0.  0.
        -24    2    1    2    0    0  0.32388265756E+02 -0.25875613735E+02  0.12319892302E+03  0.15264555410E+03  0.80025892107E+02 0.  0.
        -11    1    3    3    0    0 -0.57734364103E+01  0.11606200113E+02 -0.22674834664E+02  0.26118663367E+02  0.00000000000E+00 0.  1.
         12    1    3    3    0    0  0.35270588848E+02 -0.10964917003E+03 -0.11903217620E+03  0.16563699435E+03  0.00000000000E+00 0. -1.
         11    1    5    5    0    0  0.12999984318E+02 -0.34117526757E+02  0.12619117876E+03  0.13136673407E+03  0.00000000000E+00 0. -1.
        -12    1    5    5    0    0  0.19388281438E+02  0.82419130224E+01 -0.29922557353E+01  0.21278820027E+02  0.00000000000E+00 0.  1.
          5    1    4    4  501    0 -0.57353854379E+02  0.14183449916E+03 -0.91466109498E+02  0.17829753602E+03  0.41800000000E+01 0. -1.
         -5    1    4    4    0  501 -0.45315638146E+01 -0.17915915511E+02  0.14223076934E+02  0.23691420740E+02  0.41800000000E+01 0. -1.
</event>
<event>
11    1  0.8299058E-009  0.1460581E+03  0.7561462E-02  0.1100976E+00
         22   -1    0    0    0    0  0.00000000000E+00  0.00000000000E+00  0.24848743183E+04  0.24848743183E+04  0.00000000000E+00 0.  1.
         22   -1    0    0    0    0 -0.00000000000E+00 -0.00000000000E+00 -0.10807684977E+04  0.10807684977E+04  0.00000000000E+00 0.  1.
        -24    2    1    2    0    0  0.60752636564E+01 -0.30379345464E+02 -0.10349344943E+04  0.10393441698E+04  0.90482497478E+02 0.  0.
         25    2    1    2    0    0 -0.39028468674E+02 -0.38251938257E+02  0.67673590265E+02  0.15235896294E+03  0.12508839523E+03 0.  0.
         24    2    1    2    0    0  0.32953205018E+02  0.68631283721E+02  0.23713667247E+04  0.23739396833E+04  0.80083144470E+02 0.  0.
        -11    1    5    5    0    0  0.40528265604E+02  0.73409256466E+02  0.13871367007E+04  0.13896689123E+04  0.00000000000E+00 0.  1.
         12    1    5    5    0    0 -0.75750605865E+01 -0.47779727450E+01  0.98423002395E+03  0.98427077098E+03  0.00000000000E+00 0. -1.
         11    1    3    3    0    0  0.14798694066E+02  0.99890675586E+01 -0.43121962548E+02  0.46672116630E+02  0.00000000000E+00 0. -1.
        -12    1    3    3    0    0 -0.87234304092E+01 -0.40368413022E+02 -0.99181253177E+03  0.99267205319E+03  0.00000000000E+00 0.  1.
          5    1    4    4  501    0 -0.34769850922E+02  0.10441792541E+02  0.90980942018E+02  0.98045794275E+02  0.41800000000E+01 0.  1.
         -5    1    4    4    0  501 -0.42586177520E+01 -0.48693730798E+02 -0.23307351753E+02  0.54313168660E+02  0.41800000000E+01 0.  1.
</event>
<event>
11    1  0.8299058E-009  0.1324113E+03  0.7561462E-02  0.1116341E+00
         22   -1    0    0    0    0  0.00000000000E+00  0.00000000000E+00  0.13903703432E+03  0.13903703432E+03  0.00000000000E+00 0.  1.
         22   -1    0    0    0    0 -0.00000000000E+00 -0.00000000000E+00 -0.57359658638E+03  0.57359658638E+03  0.00000000000E+00 0. -1.
        -24    2    1    2    0    0  0.37969603994E+02  0.13492886092E+02 -0.39651402896E+03  0.40712032448E+03  0.83065243275E+02 0.  0.
         25    2    1    2    0    0 -0.54743257307E+02 -0.30870506454E+02 -0.12251050714E+03  0.18602779340E+03  0.12509077971E+03 0.  0.
         24    2    1    2    0    0  0.16773653314E+02  0.17377620362E+02  0.84464984029E+02  0.11948550282E+03  0.80988361647E+02 0.  0.
        -13    1    5    5    0    0  0.92493643213E+01  0.27175433143E+02  0.97433767314E+02  0.10157457320E+03  0.00000000000E+00 0.  1.
         14    1    5    5    0    0  0.75242889922E+01 -0.97978127810E+01 -0.12968783285E+02  0.17910929625E+02  0.00000000000E+00 0. -1.
         13    1    3    3    0    0  0.10671168274E+01 -0.32438149029E+02 -0.16989587483E+03  0.17296814890E+03  0.00000000000E+00 0. -1.
        -14    1    3    3    0    0  0.36902487166E+02  0.45931035120E+02 -0.22661815413E+03  0.23415217558E+03  0.00000000000E+00 0.  1.
          5    1    4    4  501    0 -0.19220180118E+02  0.42285075480E+02 -0.10942100303E+02  0.47902451829E+02  0.41800000000E+01 0. -1.
         -5    1    4    4    0  501 -0.35523077189E+02 -0.73155581934E+02 -0.11156840684E+03  0.13812534157E+03  0.41800000000E+01 0. -1.
</event>
<event>
11    1  0.8299058E-009  0.1686729E+03  0.7561462E-02  0.1079192E+00
         22   -1    0    0    0    0  0.00000000000E+00  0.00000000000E+00  0.10597924255E+03  0.10597924255E+03  0.00000000000E+00 0.  1.
         22   -1    0    0    0    0 -0.00000000000E+00 -0.00000000000E+00 -0.50271926183E+03  0.50271926183E+03  0.00000000000E+00 0.  1.
        -24    2    1    2    0    0  0.60937811646E+02 -0.49897012288E+02 -0.19374024866E+03  0.22446661923E+03  0.81528218860E+02 0.  0.
         25    2    1    2    0    0 -0.69395035393E+02  0.14237768750E+03 -0.14189309649E+03  0.24671260907E+03  0.12508550599E+03 0.  0.
         24    2    1    2    0    0  0.84572237470E+01 -0.92480675209E+02 -0.61106674125E+02  0.13751927608E+03  0.80952614232E+02 0.  0.
        -11    1    5    5    0    0  0.71538053132E+01  0.56277966974E+00 -0.41893786026E+02  0.42503916984E+02  0.00000000000E+00 0.  1.
         12    1    5    5    0    0  0.13034184338E+01 -0.93043454879E+02 -0.19212888099E+02  0.95015359098E+02  0.00000000000E+00 0. -1.
         13    1    3    3    0    0  0.56026889458E+02  0.41053085930E+00 -0.63079126586E+02  0.84369171436E+02  0.00000000000E+00 0. -1.
        -14    1    3    3    0    0  0.49109221876E+01 -0.50307543147E+02 -0.13066112208E+03  0.14009744779E+03  0.00000000000E+00 0.  1.
          5    1    4    4  501    0 -0.60335661193E+02  0.57572536964E+02 -0.28588698792E+01  0.83550191867E+02  0.41800000000E+01 0.  1.
         -5    1    4    4    0  501 -0.90593741998E+01  0.84805150533E+02 -0.13903422661E+03  0.16316241720E+03  0.41800000000E+01 0.  1.
</event>
<event>
11    1  0.8299058E-009  0.1496422E+03  0.7561462E-02  0.1097245E+00
         22   -1    0    0    0    0  0.00000000000E+00  0.00000000000E+00  0.86256414395E+02  0.86256414395E+02  0.00000000000E+00 0.  1.
         22   -1    0    0    0    0 -0.00000000000E+00 -0.00000000000E+00 -0.26584993837E+04  0.26584993837E+04  0.00000000000E+00 0.  1.
         24    2    1    2    0    0  0.38727850861E+02  0.81599120487E+02 -0.15322641774E+04  0.15371368081E+04  0.82448739421E+02 0.  0.
         25    2    1    2    0    0 -0.10797518318E+02 -0.67753438836E+02 -0.10972239621E+04  0.11064599812E+04  0.12508457937E+03 0.  0.
        -24    2    1    2    0    0 -0.27930332543E+02 -0.13845681651E+02  0.57245170153E+02  0.10115900887E+03  0.77358446168E+02 0.  0.
        -11    1    3    3    0    0  0.21607817660E+02  0.21874884062E+02 -0.11000872341E+04  0.11005168472E+04  0.00000000000E+00 0.  1.
         12    1    3    3    0    0  0.17120033201E+02  0.59724236425E+02 -0.43217694322E+03  0.43661996084E+03  0.00000000000E+00 0. -1.
         13    1    5    5    0    0  0.74193146379E+01  0.24673473204E+02  0.31970084604E+01  0.25962422320E+02  0.00000000000E+00 0. -1.
        -14    1    5    5    0    0 -0.35349647181E+02 -0.38519154854E+02  0.54048161693E+02  0.75196586551E+02  0.00000000000E+00 0.  1.
          5    1    4    4  501    0  0.12540933880E+02 -0.60189262691E+01 -0.86184864822E+03  0.86197103625E+03  0.41800000000E+01 0.  1.
         -5    1    4    4    0  501 -0.23338452198E+02 -0.61734512567E+02 -0.23537531391E+03  0.24448894492E+03  0.41800000000E+01 0.  1.
</event>
<event>
11    1  0.8299058E-009  0.1284129E+03  0.7561462E-02  0.1121235E+00
         22   -1    0    0    0    0  0.00000000000E+00  0.00000000000E+00  0.16366928649E+04  0.16366928649E+04  0.00000000000E+00 0.  1.
         22   -1    0    0    0    0 -0.00000000000E+00 -0.00000000000E+00 -0.33722035561E+02  0.33722035561E+02  0.00000000000E+00 0. -1.
         24    2    1    2    0    0  0.13343021443E+01  0.25963602386E+02  0.44583187894E+02  0.95731617168E+02  0.80628734777E+02 0.  0.
         25    2    1    2    0    0 -0.17239857598E+02  0.45689681096E+01  0.64644921610E+03  0.65868202879E+03  0.12508931965E+03 0.  0.
        -24    2    1    2    0    0  0.15905555454E+02 -0.30532570496E+02  0.91193842532E+03  0.91600125448E+03  0.79002418206E+02 0.  0.
        -11    1    3    3    0    0  0.35193967226E+02  0.29449433218E+02  0.40941561739E+02  0.61498747334E+02  0.00000000000E+00 0.  1.
         12    1    3    3    0    0 -0.33859665082E+02 -0.34858308319E+01  0.36416261554E+01  0.34232869835E+02  0.00000000000E+00 0. -1.
         11    1    5    5    0    0  0.22585726700E+02 -0.15654328060E+02  0.94865096759E+02  0.98765174129E+02  0.00000000000E+00 0. -1.
        -12    1    5    5    0    0 -0.66801712456E+01 -0.14878242435E+02  0.81707332856E+03  0.81723608035E+03  0.00000000000E+00 0.  1.
          5    1    4    4  501    0 -0.16744645963E+02  0.60874292063E+02  0.23469669874E+03  0.24307627486E+03  0.41800000000E+01 0.  1.
         -5    1    4    4    0  501 -0.49521163581E+00 -0.56305323953E+02  0.41175251737E+03  0.41560575393E+03  0.41800000000E+01 0.  1.
</event>
<event>
11    1  0.8299058E-009  0.1344836E+03  0.7561462E-02  0.1113880E+00
         22   -1    0    0    0    0  0.00000000000E+00  0.00000000000E+00  0.12266774900E+04  0.12266774900E+04  0.00000000000E+00 0.  1.
         22   -1    0    0    0    0 -0.00000000000E+00 -0.00000000000E+00 -0.11254951477E+03  0.11254951477E+03  0.00000000000E+00 0.  1.
        -24    2    1    2    0    0 -0.40911688900E+02 -0.25555097155E+01 -0.68494153346E+02  0.10703975502E+03  0.71314537041E+02 0.  0.
         25    2    1    2    0    0  0.10663631272E+01  0.36104862056E+02  0.16629757453E+03  0.21120514101E+03  0.12509208647E+03 0.  0.
         24    2    1    2    0    0  0.39845325772E+02 -0.33549352340E+02  0.10163245541E+04  0.10209821088E+04  0.82314386347E+02 0.  0.
        -13    1    5    5    0    0  0.34897149075E+02 -0.57658212360E+02  0.86959364720E+03  0.87220146281E+03  0.00000000000E+00 0.  1.
         14    1    5    5    0    0  0.49481766971E+01  0.24108860019E+02  0.14673090687E+03  0.14878064597E+03  0.00000000000E+00 0. -1.
         13    1    3    3    0    0 -0.53687739175E+02 -0.17420393256E+02 -0.30185563932E+02  0.64007903487E+02  0.00000000000E+00 0. -1.
        -14    1    3    3    0    0  0.12776050276E+02  0.14864883540E+02 -0.38308589414E+02  0.43031851531E+02  0.00000000000E+00 0.  1.
          5    1    4    4  501    0  0.36484800157E+02 -0.67968824108E+01  0.16735537510E+01  0.37384641702E+02  0.41800000000E+01 0. -1.
         -5    1    4    4    0  501 -0.35418437030E+02  0.42901744467E+02  0.16462402078E+03  0.17382049930E+03  0.41800000000E+01 0. -1.
</event>
<event>
11    1  0.1052481E-008  0.1605106E+03  0.7561462E-02  0.1086598E+00
         22   -1    0    0    0    0  0.00000000000E+00  0.00000000000E+00  0.44006297516E+03  0.44006297516E+03  0.00000000000E+00 0. -1.
         22   -1    0    0    0    0 -0.00000000000E+00 -0.00000000000E+00 -0.21528425727E+04  0.21528425727E+04  0.00000000000E+00 0. -1.
        -24    2    1    2    0    0 -0.13859883903E+02  0.14855978533E+02 -0.14355528972E+04  0.14381435146E+04  0.83856135357E+02 0.  0.
         25    2    1    2    0    0  0.11414148020E+03 -0.18979029440E+02 -0.69605648955E+03  0.71661296882E+03  0.12510407415E+03 0.  0.
         24    2    1    2    0    0 -0.10028159629E+03  0.41230509070E+01  0.41882978922E+03  0.43814906444E+03  0.80515912899E+02 0.  0.
        -13    1    5    5    0    0  0.96478380928E+01  0.48628755030E+01  0.97408503867E+01  0.14546907035E+02  0.00000000000E+00 0.  1.
         14    1    5    5    0    0 -0.10992943439E+03 -0.73982459596E+00  0.40908893883E+03  0.42360215741E+03  0.00000000000E+00 0. -1.
         11    1    3    3    0    0 -0.30025236178E+02  0.43813161078E+02 -0.87660429572E+03  0.87821193294E+03  0.00000000000E+00 0. -1.
        -12    1    3    3    0    0  0.16165352275E+02 -0.28957182545E+02 -0.55894860145E+03  0.55993158162E+03  0.00000000000E+00 0.  1.
          5    1    4    4  501    0  0.86441397629E+02 -0.31764947747E+02 -0.20714342115E+03  0.22673111047E+03  0.41800000000E+01 0. -1.
         -5    1    4    4    0  501  0.27700082567E+02  0.12785918307E+02 -0.48891306841E+03  0.48988185835E+03  0.41800000000E+01 0. -1.
</event>
<event>
11    1  0.8299058E-009  0.1474730E+03  0.7561462E-02  0.1099489E+00
         22   -1    0    0    0    0  0.00000000000E+00  0.00000000000E+00  0.21805241098E+04  0.21805241098E+04  0.00000000000E+00 0. -1.
         22   -1    0    0    0    0 -0.00000000000E+00 -0.00000000000E+00 -0.52457523726E+03  0.52457523726E+03  0.00000000000E+00 0. -1.
         24    2    1    2    0    0  0.25172148173E+01  0.38655560932E+02 -0.48258042056E+03  0.49090223268E+03  0.81243775024E+02 0.  0.
         25    2    1    2    0    0  0.43205043443E+02 -0.10048388863E+03  0.15390930427E+03  0.22649241271E+03  0.12508817459E+03 0.  0.
        -24    2    1    2    0    0 -0.45722258260E+02  0.61828327700E+02  0.19846199888E+04  0.19877047017E+04  0.79625460392E+02 0.  0.
        -11    1    3    3    0    0  0.19705014718E+02 -0.13671717560E+02 -0.57982015004E+02  0.62746454322E+02  0.00000000000E+00 0.  1.
         12    1    3    3    0    0 -0.17187799901E+02  0.52327278492E+02 -0.42459840556E+03  0.42815577836E+03  0.00000000000E+00 0. -1.
         11    1    5    5    0    0 -0.62643292336E+02  0.62879561451E+02  0.18314111876E+04  0.18335607324E+04  0.00000000000E+00 0. -1.
        -12    1    5    5    0    0  0.16921034076E+02 -0.10512337511E+01  0.15320880123E+03  0.15414396926E+03  0.00000000000E+00 0.  1.
          5    1    4    4  501    0  0.37088775442E+02  0.21693833736E+02  0.48789546934E+02  0.65146695818E+02  0.41800000000E+01 0.  1.
         -5    1    4    4    0  501  0.61162680010E+01 -0.12217772237E+03  0.10511975734E+03  0.16134571689E+03  0.41800000000E+01 0.  1.
</event>
<event>
11    1  0.8299058E-009  0.1634274E+03  0.7561462E-02  0.1083897E+00
         22   -1    0    0    0    0  0.00000000000E+00  0.00000000000E+00  0.11279661926E+03  0.11279661926E+03  0.00000000000E+00 0. -1.
         22   -1    0    0    0    0 -0.00000000000E+00 -0.00000000000E+00 -0.10689496344E+04  0.10689496344E+04  0.00000000000E+00 0.  1.
        -24    2    1    2    0    0  0.67923986024E+02 -0.78901618374E+02 -0.79239521453E+03  0.80316850563E+03  0.79689015368E+02 0.  0.
         25    2    1    2    0    0 -0.23316594533E+02  0.12393630451E+03 -0.20092153763E+03  0.26818206065E+03  0.12509309419E+03 0.  0.
         24    2    1    2    0    0 -0.44607391491E+02 -0.45034686137E+02  0.37163737039E+02  0.11039568737E+03  0.82390060729E+02 0.  0.
        -11    1    5    5    0    0 -0.56903832699E+01 -0.55204645272E+02 -0.19733387556E+00  0.55497497799E+02  0.00000000000E+00 0.  1.
         12    1    5    5    0    0 -0.38917008221E+02  0.10169959135E+02  0.37361070915E+02  0.54898189566E+02  0.00000000000E+00 0. -1.
         11    1    3    3    0    0 -0.85175174523E+01  0.54474501755E+01 -0.19797687198E+02  0.22229962559E+02  0.00000000000E+00 0. -1.
        -12    1    3    3    0    0  0.76441503476E+02 -0.84349068550E+02 -0.77259752733E+03  0.78093854307E+03  0.00000000000E+00 0.  1.
          5    1    4    4  501    0 -0.28666951623E+02 -0.14791369928E+02 -0.14263121205E+02  0.35517429049E+02  0.41800000000E+01 0.  1.
         -5    1    4    4    0  501  0.53503570904E+01  0.13872767444E+03 -0.18665841643E+03  0.23266463160E+03  0.41800000000E+01 0.  1.
</event>
<event>
11    1  0.8299058E-009  0.1401572E+03  0.7561462E-02  0.1107383E+00
         22   -1    0    0    0    0  0.00000000000E+00  0.00000000000E+00  0.14069833219E+03  0.14069833219E+03  0.00000000000E+00 0. -1.
         22   -1    0    0    0    0 -0.00000000000E+00 -0.00000000000E+00 -0.51875945103E+03  0.51875945103E+03  0.00000000000E+00 0.  1.
        -24    2    1    2    0    0 -0.44039597617E+01  0.61057016794E+02 -0.36611123142E+03  0.38013492527E+03  0.81962024589E+02 0.  0.
         25    2    1    2    0    0 -0.48180644623E+02 -0.79168799146E+02 -0.63045507388E+02  0.16796226226E+03  0.12509001666E+03 0.  0.
         24    2    1    2    0    0  0.52584604384E+02  0.18111782352E+02  0.51095619965E+02  0.11136059570E+03  0.81836682585E+02 0.  0.
        -13    1    5    5    0    0  0.33392347560E+02 -0.26963302479E+02  0.35086055556E+01  0.43062499569E+02  0.00000000000E+00 0.  1.
         14    1    5    5    0    0  0.19192256824E+02  0.45075084831E+02  0.47587014410E+02  0.68298096130E+02  0.00000000000E+00 0. -1.
         13    1    3    3    0    0  0.14074906545E+02  0.53971585756E+02 -0.11069674257E+03  0.12395484613E+03  0.00000000000E+00 0. -1.
        -14    1    3    3    0    0 -0.18478866306E+02  0.70854310381E+01 -0.25541448885E+03  0.25618007913E+03  0.00000000000E+00 0.  1.
          5    1    4    4  501    0  0.31116760784E+02 -0.61566585827E+01  0.14483670746E+02  0.35119885604E+02  0.41800000000E+01 0. -1.
         -5    1    4    4    0  501 -0.79297405406E+02 -0.73012140563E+02 -0.77529178134E+02  0.13284237666E+03  0.41800000000E+01 0. -1.
</event>
<event>
11    1  0.8299058E-009  0.1617235E+03  0.7561462E-02  0.1085467E+00
         22   -1    0    0    0    0  0.00000000000E+00  0.00000000000E+00  0.26241629138E+03  0.26241629138E+03  0.00000000000E+00 0.  1.
         22   -1    0    0    0    0 -0.00000000000E+00 -0.00000000000E+00 -0.90572975168E+03  0.90572975168E+03  0.00000000000E+00 0.  1.
        -24    2    1    2    0    0 -0.57501678589E+02  0.21721608428E+02 -0.80596948723E+03  0.81220925522E+03  0.79490808307E+02 0.  0.
         25    2    1    2    0    0  0.28044807390E+02  0.86095042682E+02  0.16861792681E+02  0.15533962335E+03  0.12508881219E+03 0.  0.
         24    2    1    2    0    0  0.29456871199E+02 -0.10781665111E+03  0.14579423424E+03  0.20059716449E+03  0.80567525376E+02 0.  0.
        -11    1    5    5    0    0  0.95624169163E+01 -0.10806655407E+03  0.14445336086E+03  0.18065600845E+03  0.00000000000E+00 0.  1.
         12    1    5    5    0    0  0.19894454283E+02  0.24990295676E+00  0.13408733808E+01  0.19941156038E+02  0.00000000000E+00 0. -1.
         11    1    3    3    0    0 -0.57562132132E+02  0.36113960952E+02 -0.38209287155E+03  0.38808836586E+03  0.00000000000E+00 0. -1.
        -12    1    3    3    0    0  0.60453542134E-01 -0.14392352524E+02 -0.42387661568E+03  0.42412088935E+03  0.00000000000E+00 0.  1.
          5    1    4    4  501    0  0.52338651099E+02  0.49167548865E+02 -0.40696586651E+02  0.82646638318E+02  0.41800000000E+01 0. -1.
         -5    1    4    4    0  501 -0.24293843709E+02  0.36927493818E+02  0.57558379332E+02  0.72692985034E+02  0.41800000000E+01 0. -1.
</event>
<event>
11    1  0.9393778E-009  0.1685324E+03  0.7561462E-02  0.1079316E+00
         22   -1    0    0    0    0  0.00000000000E+00  0.00000000000E+00  0.30938636460E+04  0.30938636460E+04  0.00000000000E+00 0.  1.
         22   -1    0    0    0    0 -0.00000000000E+00 -0.00000000000E+00 -0.61088983018E+03  0.61088983018E+03  0.00000000000E+00 0. -1.
        -24    2    1    2    0    0  0.54460348822E+02  0.59721087578E+02 -0.49975775541E+03  0.51257986598E+03  0.80297988902E+02 0.  0.
         25    2    1    2    0    0  0.46646147655E+02 -0.11076379773E+03 -0.30117776554E+02  0.17607271611E+03  0.12510011557E+03 0.  0.
         24    2    1    2    0    0 -0.10110649648E+03  0.51042710152E+02  0.30128493478E+04  0.30161008941E+04  0.82313601501E+02 0.  0.
        -11    1    5    5    0    0 -0.85548365426E+02  0.27109671157E+02  0.27883853507E+04  0.27898290846E+04  0.00000000000E+00 0.  1.
         12    1    5    5    0    0 -0.15558131050E+02  0.23933038995E+02  0.22446399706E+03  0.22627180950E+03  0.00000000000E+00 0. -1.
         13    1    3    3    0    0  0.45018113213E+02  0.46503887825E+02 -0.48861183962E+03  0.49288007864E+03  0.00000000000E+00 0. -1.
        -14    1    3    3    0    0  0.94422356088E+01  0.13217199753E+02 -0.11145915788E+02  0.19699787343E+02  0.00000000000E+00 0.  1.
          5    1    4    4  501    0  0.73259563623E+02 -0.17693493668E+02 -0.33666792438E+01  0.75556801875E+02  0.41800000000E+01 0.  1.
         -5    1    4    4    0  501 -0.26613415968E+02 -0.93070304062E+02 -0.26751097310E+02  0.10051591424E+03  0.41800000000E+01 0.  1.
</event>
<event>
11    1  0.8299058E-009  0.3985237E+03  0.7561462E-02  0.9654124E-01
         22   -1    0    0    0    0  0.00000000000E+00  0.00000000000E+00  0.17124500408E+04  0.17124500408E+04  0.00000000000E+00 0.  1.
         22   -1    0    0    0    0 -0.00000000000E+00 -0.00000000000E+00 -0.16013695937E+04  0.16013695937E+04  0.00000000000E+00 0.  1.
         24    2    1    2    0    0  0.30391487771E+03 -0.22650438338E+03 -0.15440725590E+04  0.15920858977E+04  0.83120090336E+02 0.  0.
         25    2    1    2    0    0 -0.30889524285E+03  0.15729197345E+03  0.13192113924E+04  0.13697166948E+04  0.12509232621E+03 0.  0.
        -24    2    1    2    0    0  0.49803651410E+01  0.69212409932E+02  0.33594161369E+03  0.35201704203E+03  0.79019417544E+02 0.  0.
        -13    1    3    3    0    0  0.27353120191E+03 -0.19359659427E+03 -0.12298876966E+04  0.12747245608E+04  0.00000000000E+00 0.  1.
         14    1    3    3    0    0  0.30383675798E+02 -0.32907789114E+02 -0.31418486247E+03  0.31736133688E+03  0.00000000000E+00 0. -1.
         13    1    5    5    0    0  0.24304723599E+01  0.86062441460E+02  0.30206520705E+03  0.31409559108E+03  0.00000000000E+00 0. -1.
        -14    1    5    5    0    0  0.25498927811E+01 -0.16850031528E+02  0.33876406638E+02  0.37921450953E+02  0.00000000000E+00 0.  1.
          5    1    4    4  501    0 -0.31418692501E+03  0.14978440875E+03  0.11834359141E+04  0.12335667101E+04  0.41800000000E+01 0.  1.
         -5    1    4    4    0  501  0.52916821589E+01  0.75075646997E+01  0.13577547831E+03  0.13614998472E+03  0.41800000000E+01 0.  1.
</event>
<event>
11    1  0.8299058E-009  0.3412650E+03  0.7561462E-02  0.9840966E-01
         22   -1    0    0    0    0  0.00000000000E+00  0.00000000000E+00  0.31628901207E+03  0.31628901207E+03  0.00000000000E+00 0.  1.
         22   -1    0    0    0    0 -0.00000000000E+00 -0.00000000000E+00 -0.63976614657E+03  0.63976614657E+03  0.00000000000E+00 0.  1.
         24    2    1    2    0    0  0.10306465166E+03  0.29853171012E+03 -0.33600970277E+03  0.46798809016E+03  0.79792404461E+02 0.  0.
         25    2    1    2    0    0 -0.97024320645E+02 -0.30596447677E+03 -0.90794918197E+02  0.35625788089E+03  0.12509188895E+03 0.  0.
        -24    2    1    2    0    0 -0.60403310178E+01  0.74327666487E+01  0.10332748648E+03  0.13180918759E+03  0.81273371121E+02 0.  0.
        -11    1    3    3    0    0  0.87535143093E+02  0.27646858647E+03 -0.33182151271E+03  0.44068446408E+03  0.00000000000E+00 0.  1.
         12    1    3    3    0    0  0.15529508569E+02  0.22063123649E+02 -0.41881900620E+01  0.27303626088E+02  0.00000000000E+00 0. -1.
         11    1    5    5    0    0 -0.13835525306E+02 -0.32212226662E+02  0.23106207150E+02  0.41987451886E+02  0.00000000000E+00 0. -1.
        -12    1    5    5    0    0  0.77951942881E+01  0.39644993311E+02  0.80221279325E+02  0.89821735706E+02  0.00000000000E+00 0.  1.
          5    1    4    4  501    0 -0.28072377637E+02 -0.25451707263E+03 -0.85395141907E+02  0.26995703604E+03  0.41800000000E+01 0.  1.
         -5    1    4    4    0  501 -0.68951943008E+02 -0.51447404144E+02 -0.53997762901E+01  0.86300844849E+02  0.41800000000E+01 0.  1.
</event>
<event>
11    1  0.8299058E-009  0.1955750E+03  0.7561462E-02  0.1057698E+00
         22   -1    0    0    0    0  0.00000000000E+00  0.00000000000E+00  0.40089186179E+03  0.40089186179E+03  0.00000000000E+00 0. -1.
         22   -1    0    0    0    0 -0.00000000000E+00 -0.00000000000E+00 -0.11659204627E+04  0.11659204627E+04  0.00000000000E+00 0.  1.
         24    2    1    2    0    0 -0.11181621212E+02  0.74725942603E+01 -0.84745961693E+03  0.85139992455E+03  0.80704156523E+02 0.  0.
         25    2    1    2    0    0  0.15578093292E+03 -0.45631855207E+02 -0.26160894957E+03  0.33232261470E+03  0.12509641272E+03 0.  0.
        -24    2    1    2    0    0 -0.14459931171E+03  0.38159260947E+02  0.34403996556E+03  0.38308978527E+03  0.77647894576E+02 0.  0.
        -13    1    3    3    0    0  0.16534845091E+01 -0.29804691333E+02 -0.60668140596E+03  0.60741532906E+03  0.00000000000E+00 0.  1.
         14    1    3    3    0    0 -0.12835105721E+02  0.37277285593E+02 -0.24077821097E+03  0.24398459549E+03  0.00000000000E+00 0. -1.
         11    1    5    5    0    0 -0.35095823599E+02  0.45894681330E+02  0.13859459293E+03  0.15015491932E+03  0.00000000000E+00 0. -1.
        -12    1    5    5    0    0 -0.10950348811E+03 -0.77354203834E+01  0.20544537264E+03  0.23293486595E+03  0.00000000000E+00 0.  1.
          5    1    4    4  501    0  0.91447279204E+01 -0.23385948517E+02 -0.13468158862E+03  0.13706615683E+03  0.41800000000E+01 0.  1.
         -5    1    4    4    0  501  0.14663620500E+03 -0.22245906690E+02 -0.12692736095E+03  0.19525645787E+03  0.41800000000E+01 0.  1.
</event>
<event>
11    1  0.8299058E-009  0.2235882E+03  0.7561462E-02  0.1038993E+00
         22   -1    0    0    0    0  0.00000000000E+00  0.00000000000E+00  0.62992094596E+03  0.62992094596E+03  0.00000000000E+00 0.  1.
         22   -1    0    0    0    0 -0.00000000000E+00 -0.00000000000E+00 -0.52253464399E+03  0.52253464399E+03  0.00000000000E+00 0. -1.
         24    2    1    2    0    0 -0.36823265522E+02  0.31570715189E+02 -0.35800181988E+03  0.36972068222E+03  0.78583820751E+02 0.  0.
         25    2    1    2    0    0  0.10902073754E+03 -0.19640223491E+03 -0.20535562121E+02  0.25793222551E+03  0.12509182449E+03 0.  0.
        -24    2    1    2    0    0 -0.72197472022E+02  0.16483151972E+03  0.48592368397E+03  0.52480268222E+03  0.83151210219E+02 0.  0.
        -13    1    3    3    0    0 -0.22517822277E+02 -0.19425177938E+02 -0.21829033175E+03  0.22030673797E+03  0.00000000000E+00 0.  1.
         14    1    3    3    0    0 -0.14305443245E+02  0.50995893127E+02 -0.13971148812E+03  0.14941394425E+03  0.00000000000E+00 0. -1.
         13    1    5    5    0    0 -0.97947195866E+01 -0.12372635998E+01  0.94952241041E+02  0.95464105462E+02  0.00000000000E+00 0. -1.
        -14    1    5    5    0    0 -0.62402752436E+02  0.16606878332E+03  0.39097144293E+03  0.42933857675E+03  0.00000000000E+00 0.  1.
          5    1    4    4  501    0  0.38933148376E+02 -0.11726268813E+02 -0.42711577110E+02  0.59118919493E+02  0.41800000000E+01 0. -1.
         -5    1    4    4    0  501  0.70087589168E+02 -0.18467596610E+03  0.22176014990E+02  0.19881330602E+03  0.41800000000E+01 0. -1.
</event>
<event>
11    1  0.8299058E-009  0.1375752E+03  0.7561462E-02  0.1110297E+00
         22   -1    0    0    0    0  0.00000000000E+00  0.00000000000E+00  0.31586460443E+02  0.31586460443E+02  0.00000000000E+00 0.  1.
         22   -1    0    0    0    0 -0.00000000000E+00 -0.00000000000E+00 -0.29661094516E+04  0.29661094516E+04  0.00000000000E+00 0. -1.
        -24    2    1    2    0    0 -0.10962536099E+02 -0.13136703029E+01 -0.25003829990E+04  0.25016823741E+04  0.79860231038E+02 0.  0.
         25    2    1    2    0    0 -0.32488681548E+02 -0.41899092872E+02 -0.22680329441E+03  0.26438302769E+03  0.12509037760E+03 0.  0.
         24    2    1    2    0    0  0.43451217647E+02  0.43212763175E+02 -0.20733669775E+03  0.23163051020E+03  0.83119406913E+02 0.  0.
        -11    1    5    5    0    0  0.19229950066E+02  0.47334513491E+02 -0.46997605776E+02  0.69419896972E+02  0.00000000000E+00 0.  1.
         12    1    5    5    0    0  0.24221267581E+02 -0.41217503160E+01 -0.16033909197E+03  0.16221061323E+03  0.00000000000E+00 0. -1.
         11    1    3    3    0    0 -0.29155531691E+02  0.15391588769E+02 -0.22114103563E+04  0.22116561012E+04  0.00000000000E+00 0. -1.
        -12    1    3    3    0    0  0.18192995592E+02 -0.16705259072E+02 -0.28897264270E+03  0.29002627294E+03  0.00000000000E+00 0.  1.
          5    1    4    4  501    0  0.43280148616E+02  0.85943221672E+01 -0.65013055849E+02  0.78684200882E+02  0.41800000000E+01 0.  1.
         -5    1    4    4    0  501 -0.75768830164E+02 -0.50493415039E+02 -0.16179023856E+03  0.18569882681E+03  0.41800000000E+01 0.  1.
</event>
<event>
11    1  0.8299058E-009  0.1488248E+03  0.7561462E-02  0.1098086E+00
         22   -1    0    0    0    0  0.00000000000E+00  0.00000000000E+00  0.79177678400E+03  0.79177678400E+03  0.00000000000E+00 0. -1.
         22   -1    0    0    0    0 -0.00000000000E+00 -0.00000000000E+00 -0.21348310253E+03  0.21348310253E+03  0.00000000000E+00 0. -1.
        -24    2    1    2    0    0  0.39769360951E+02 -0.61497030219E+02 -0.12449547266E+03  0.16580022936E+03  0.81407042364E+02 0.  0.
         25    2    1    2    0    0  0.40857686161E+02  0.35182675269E+02  0.10133293106E+02  0.13658955285E+03  0.12508737411E+03 0.  0.
         24    2    1    2    0    0 -0.80627047112E+02  0.26314354950E+02  0.69265586102E+03  0.70287010433E+03  0.84030207324E+02 0.  0.
        -11    1    5    5    0    0 -0.10723276540E+02  0.30526655465E+02  0.81074100295E+02  0.87291895914E+02  0.00000000000E+00 0.  1.
         12    1    5    5    0    0 -0.69903770571E+02 -0.42123005156E+01  0.61158176073E+03  0.61557820841E+03  0.00000000000E+00 0. -1.
         11    1    3    3    0    0  0.60384487429E+02 -0.33859012361E+02 -0.10618711625E+03  0.12676128233E+03  0.00000000000E+00 0. -1.
        -12    1    3    3    0    0 -0.20615126478E+02 -0.27638017858E+02 -0.18308356411E+02  0.39038947031E+02  0.00000000000E+00 0.  1.
          5    1    4    4  501    0  0.27223856424E+02 -0.16555381231E+02 -0.47813022246E+02  0.57608823132E+02  0.41800000000E+01 0. -1.
         -5    1    4    4    0  501  0.13633829737E+02  0.51738056500E+02  0.57946315352E+02  0.78980729716E+02  0.41800000000E+01 0. -1.
</event>
<event>
11    1  0.8299058E-009  0.2263925E+03  0.7561462E-02  0.1037285E+00
         22   -1    0    0    0    0  0.00000000000E+00  0.00000000000E+00  0.84713303906E+03  0.84713303906E+03  0.00000000000E+00 0.  1.
         22   -1    0    0    0    0 -0.00000000000E+00 -0.00000000000E+00 -0.15046757648E+03  0.15046757648E+03  0.00000000000E+00 0. -1.
        -24    2    1    2    0    0  0.44629039859E+02  0.24743964089E+01 -0.16784635388E+02  0.93828405087E+02  0.80772345390E+02 0.  0.
         25    2    1    2    0    0  0.52858579350E+02 -0.16802209306E+03  0.69569806425E+02  0.22696478458E+03  0.12509037655E+03 0.  0.
         24    2    1    2    0    0 -0.97487619210E+02  0.16554769666E+03  0.64388029154E+03  0.67680742587E+03  0.81096153446E+02 0.  0.
        -11    1    5    5    0    0 -0.10391585828E+03  0.10668453707E+03  0.44148619447E+03  0.46592934653E+03  0.00000000000E+00 0.  1.
         12    1    5    5    0    0  0.64282390712E+01  0.58863159587E+02  0.20239409707E+03  0.21087807933E+03  0.00000000000E+00 0. -1.
         11    1    3    3    0    0  0.63674186417E+00  0.30401711804E+02  0.13815564979E+02  0.33399690964E+02  0.00000000000E+00 0. -1.
        -12    1    3    3    0    0  0.43992297995E+02 -0.27927315395E+02 -0.30600200367E+02  0.60428714123E+02  0.00000000000E+00 0.  1.
          5    1    4    4  501    0 -0.39905417142E+01  0.15989941394E+02 -0.86199546928E+01  0.19062493747E+02  0.41800000000E+01 0. -1.
         -5    1    4    4    0  501  0.56849121064E+02 -0.18401203446E+03  0.78189761118E+02  0.20790229084E+03  0.41800000000E+01 0. -1.
</event>
<event>
11    1  0.8299058E-009  0.1560473E+03  0.7561462E-02  0.1090855E+00
         22   -1    0    0    0    0  0.00000000000E+00  0.00000000000E+00  0.96445362572E+02  0.96445362572E+02  0.00000000000E+00 0. -1.
         22   -1    0    0    0    0 -0.00000000000E+00 -0.00000000000E+00 -0.60168711780E+03  0.60168711780E+03  0.00000000000E+00 0.  1.
         24    2    1    2    0    0 -0.97957277097E+02  0.13262556787E+02 -0.26774299450E+03  0.29788335142E+03  0.85303319976E+02 0.  0.
         25    2    1    2    0    0  0.81767175964E+02 -0.30539337473E+02 -0.27014802165E+03  0.31022445460E+03  0.12506292988E+03 0.  0.
        -24    2    1    2    0    0  0.16190101132E+02  0.17276780687E+02  0.32649260918E+02  0.90024674363E+02  0.80485161553E+02 0.  0.
        -11    1    3    3    0    0 -0.96927983016E+02  0.37768563707E+02 -0.19344836033E+03  0.21964463665E+03  0.00000000000E+00 0.  1.
         12    1    3    3    0    0 -0.10292940803E+01 -0.24506006920E+02 -0.74294634170E+02  0.78238714764E+02  0.00000000000E+00 0. -1.
         11    1    5    5    0    0 -0.15712040891E+00 -0.21919638329E+02  0.41232716707E+02  0.46697239301E+02  0.00000000000E+00 0. -1.
        -12    1    5    5    0    0  0.16347221541E+02  0.39196419016E+02 -0.85834557895E+01  0.43327435062E+02  0.00000000000E+00 0.  1.
          5    1    4    4  501    0  0.76264859129E+01 -0.65858060839E+02 -0.15588137902E+03  0.16944593294E+03  0.41800000000E+01 0.  1.
         -5    1    4    4    0  501  0.74140690052E+02  0.35318723365E+02 -0.11426664263E+03  0.14077852165E+03  0.41800000000E+01 0.  1.
</event>
<event>
11    1  0.8299058E-009  0.2321703E+03  0.7561462E-02  0.1033851E+00
         22   -1    0    0    0    0  0.00000000000E+00  0.00000000000E+00  0.60605058103E+02  0.60605058103E+02  0.00000000000E+00 0. -1.
         22   -1    0    0    0    0 -0.00000000000E+00 -0.00000000000E+00 -0.12992500708E+04  0.12992500708E+04  0.00000000000E+00 0.  1.
         24    2    1    2    0    0 -0.45951214809E+02  0.26189515564E+02 -0.27985841870E+03  0.29558153686E+03  0.79058873909E+02 0.  0.
         25    2    1    2    0    0 -0.16195034563E+03 -0.55604679587E+02 -0.63856349316E+03  0.67285274216E+03  0.12509069905E+03 0.  0.
        -24    2    1    2    0    0  0.20790156044E+03  0.29415164023E+02 -0.32022310082E+03  0.39142084988E+03  0.81111877762E+02 0.  0.
        -13    1    3    3    0    0  0.15929305306E+02  0.77978865565E+01 -0.14486249752E+03  0.14594414339E+03  0.00000000000E+00 0.  1.
         14    1    3    3    0    0 -0.61880520116E+02  0.18391629007E+02 -0.13499592118E+03  0.14963739347E+03  0.00000000000E+00 0. -1.
         13    1    5    5    0    0  0.19069971172E+03  0.24132791072E+02 -0.32015349780E+03  0.37342607543E+03  0.00000000000E+00 0. -1.
        -14    1    5    5    0    0  0.17201848714E+02  0.52823729513E+01 -0.69603027806E-01  0.17994774457E+02  0.00000000000E+00 0.  1.
          5    1    4    4  501    0 -0.15729683852E+03 -0.85061217518E+02 -0.58066758467E+03  0.60759363264E+03  0.41800000000E+01 0.  1.
         -5    1    4    4    0  501 -0.46535071076E+01  0.29456537931E+02 -0.57895908490E+02  0.65259109519E+02  0.41800000000E+01 0.  1.
</event>
<event>
11    1  0.8741371E-009  0.1986789E+03  0.7561462E-02  0.1055462E+00
         22   -1    0    0    0    0  0.00000000000E+00  0.00000000000E+00  0.89685594399E+03  0.89685594399E+03  0.00000000000E+00 0. -1.
         22   -1    0    0    0    0 -0.00000000000E+00 -0.00000000000E+00 -0.24020925032E+04  0.24020925032E+04  0.00000000000E+00 0.  1.
         24    2    1    2    0    0  0.20953085684E+02  0.63102201367E+01 -0.19607477620E+04  0.19624165918E+04  0.77898925114E+02 0.  0.
         25    2    1    2    0    0  0.10295486794E+03  0.86417009573E+02 -0.41210981090E+03  0.45116718603E+03  0.12509887745E+03 0.  0.
        -24    2    1    2    0    0 -0.12390795363E+03 -0.92727229709E+02  0.86762101377E+03  0.88536466937E+03  0.84574547841E+02 0.  0.
        -13    1    3    3    0    0 -0.41595526244E+01 -0.21973634450E+02 -0.14847556820E+04  0.14849240983E+04  0.00000000000E+00 0.  1.
         14    1    3    3    0    0  0.25112638308E+02  0.28283854587E+02 -0.47599208006E+03  0.47749249346E+03  0.00000000000E+00 0. -1.
         13    1    5    5    0    0 -0.96433126743E+02 -0.28994859925E+02  0.62313412658E+03  0.63121802061E+03  0.00000000000E+00 0. -1.
        -14    1    5    5    0    0 -0.27474826885E+02 -0.63732369784E+02  0.24448688719E+03  0.25414664876E+03  0.00000000000E+00 0.  1.
          5    1    4    4  501    0  0.10761182299E+03  0.10435926934E+03 -0.27937308409E+03  0.31707720520E+03  0.41800000000E+01 0.  1.
         -5    1    4    4    0  501 -0.46569550424E+01 -0.17942259770E+02 -0.13273672681E+03  0.13408998083E+03  0.41800000000E+01 0.  1.
</event>
<event>
11    1  0.8299058E-009  0.1356288E+03  0.7561462E-02  0.1112540E+00
         22   -1    0    0    0    0  0.00000000000E+00  0.00000000000E+00  0.69468852320E+03  0.69468852320E+03  0.00000000000E+00 0. -1.
         22   -1    0    0    0    0 -0.00000000000E+00 -0.00000000000E+00 -0.20777844785E+03  0.20777844785E+03  0.00000000000E+00 0. -1.
         24    2    1    2    0    0  0.66289784377E+01 -0.10909376312E+02 -0.15827575603E+03  0.17783305290E+03  0.80065110445E+02 0.  0.
         25    2    1    2    0    0 -0.40201807203E+02  0.49437475325E+02  0.10302852199E+03  0.17413183157E+03  0.12508704631E+03 0.  0.
        -24    2    1    2    0    0  0.33572828765E+02 -0.38528099013E+02  0.54215730940E+03  0.55050208658E+03  0.80662568464E+02 0.  0.
        -11    1    3    3    0    0  0.29466798985E+01  0.34903956471E+02 -0.72562572762E+02  0.80574785545E+02  0.00000000000E+00 0.  1.
         12    1    3    3    0    0  0.36822985392E+01 -0.45813332783E+02 -0.85713183270E+02  0.97258267358E+02  0.00000000000E+00 0. -1.
         11    1    5    5    0    0  0.59759958973E+02 -0.25776178629E+02  0.33018246341E+03  0.33653547097E+03  0.00000000000E+00 0. -1.
        -12    1    5    5    0    0 -0.26187130207E+02 -0.12751920384E+02  0.21197484599E+03  0.21396661561E+03  0.00000000000E+00 0.  1.
          5    1    4    4  501    0 -0.78474563627E+02  0.17748858180E+02  0.93400282855E+02  0.12334652140E+03  0.41800000000E+01 0. -1.
         -5    1    4    4    0  501  0.38272756424E+02  0.31688617145E+02  0.96282391313E+01  0.50785310175E+02  0.41800000000E+01 0. -1.
</event>
<event>
11    1  0.8299058E-009  0.1549870E+03  0.7561462E-02  0.1091889E+00
         22   -1    0    0    0    0  0.00000000000E+00  0.00000000000E+00  0.42858462268E+03  0.42858462268E+03  0.00000000000E+00 0. -1.
         22   -1    0    0    0    0 -0.00000000000E+00 -0.00000000000E+00 -0.45548992844E+03  0.45548992844E+03  0.00000000000E+00 0.  1.
         24    2    1    2    0    0 -0.35392228855E+02 -0.10110794880E+03 -0.35739103988E+03  0.38171372951E+03  0.80632429813E+02 0.  0.
         25    2    1    2    0    0  0.33411990218E+02  0.84782969861E+01 -0.19610466218E+02  0.13122542621E+03  0.12508916615E+03 0.  0.
        -24    2    1    2    0    0  0.19802386376E+01  0.92629651810E+02  0.35009620033E+03  0.37113539540E+03  0.81178559317E+02 0.  0.
        -11    1    3    3    0    0 -0.12526410495E+02 -0.10901665999E+03 -0.29951126583E+03  0.31898047193E+03  0.00000000000E+00 0.  1.
         12    1    3    3    0    0 -0.22865818361E+02  0.79087111985E+01 -0.57879774047E+02  0.62733257574E+02  0.00000000000E+00 0. -1.
         11    1    5    5    0    0  0.22540778704E+02  0.57394157815E+02  0.30124096936E+03  0.30748706912E+03  0.00000000000E+00 0. -1.
        -12    1    5    5    0    0 -0.20560540066E+02  0.35235493995E+02  0.48855230974E+02  0.63648326282E+02  0.00000000000E+00 0.  1.
          5    1    4    4  501    0 -0.34686786261E+02 -0.33719147440E+02  0.35401488284E+00  0.48556686169E+02  0.41800000000E+01 0. -1.
         -5    1    4    4    0  501  0.68098776479E+02  0.42197444426E+02 -0.19964481101E+02  0.82668740039E+02  0.41800000000E+01 0. -1.
</event>
<event>
11    1  0.8299058E-009  0.1566783E+03  0.7561462E-02  0.1090244E+00
         22   -1    0    0    0    0  0.00000000000E+00  0.00000000000E+00  0.11187019934E+03  0.11187019934E+03  0.00000000000E+00 0.  1.
         22   -1    0    0    0    0 -0.00000000000E+00 -0.00000000000E+00 -0.11818368967E+04  0.11818368967E+04  0.00000000000E+00 0.  1.
        -24    2    1    2    0    0 -0.35513739553E+02  0.23882582179E+02 -0.93774554876E+03  0.94222606979E+03  0.81188970579E+02 0.  0.
         25    2    1    2    0    0 -0.56757031954E+02 -0.60173073762E+02 -0.16226369817E+03  0.22093297595E+03  0.12505883670E+03 0.  0.
         24    2    1    2    0    0  0.92270771507E+02  0.36290491583E+02  0.30042549593E+02  0.13054805027E+03  0.79431376606E+02 0.  0.
        -13    1    5    5    0    0  0.15057849663E+02  0.42504025577E+02  0.27960172361E+02  0.53057537307E+02  0.00000000000E+00 0.  1.
         14    1    5    5    0    0  0.77212921844E+02 -0.62135339937E+01  0.20823772329E+01  0.77490512963E+02  0.00000000000E+00 0. -1.
         13    1    3    3    0    0  0.25020354235E+02  0.51472963266E+01 -0.38812942611E+03  0.38896910443E+03  0.00000000000E+00 0. -1.
        -14    1    3    3    0    0 -0.60534093787E+02  0.18735285852E+02 -0.54961612265E+03  0.55325696536E+03  0.00000000000E+00 0.  1.
          5    1    4    4  501    0 -0.11033725958E+02 -0.13163318737E+02  0.20291331757E+02  0.26911458770E+02  0.41800000000E+01 0. -1.
         -5    1    4    4    0  501 -0.45723305997E+02 -0.47009755024E+02 -0.18255502993E+03  0.19402151718E+03  0.41800000000E+01 0. -1.
</event>
<event>
11    1  0.8299058E-009  0.1389936E+03  0.7561462E-02  0.1108687E+00
         22   -1    0    0    0    0  0.00000000000E+00  0.00000000000E+00  0.15540590350E+03  0.15540590350E+03  0.00000000000E+00 0. -1.
         22   -1    0    0    0    0 -0.00000000000E+00 -0.00000000000E+00 -0.62033262479E+03  0.62033262479E+03  0.00000000000E+00 0. -1.
         24    2    1    2    0    0 -0.33439114302E+02 -0.54610683936E+02 -0.49958688443E+03  0.50995723815E+03  0.79804940215E+02 0.  0.
         25    2    1    2    0    0  0.22683633272E+02  0.24264937497E+02 -0.57328315948E+02  0.14155682398E+03  0.12509382157E+03 0.  0.
        -24    2    1    2    0    0  0.10755481030E+02  0.30345746440E+02  0.91988479094E+02  0.12422446615E+03  0.77027871615E+02 0.  0.
        -13    1    3    3    0    0  0.13251307889E+02 -0.22536065273E+02 -0.46518553494E+02  0.53361476909E+02  0.00000000000E+00 0.  1.
         14    1    3    3    0    0 -0.46690422191E+02 -0.32074618664E+02 -0.45306833094E+03  0.45659576124E+03  0.00000000000E+00 0. -1.
         13    1    5    5    0    0  0.16623568162E+02  0.45628163234E+02  0.95809773955E+02  0.10741408233E+03  0.00000000000E+00 0. -1.
        -14    1    5    5    0    0 -0.58680871317E+01 -0.15282416794E+02 -0.38212948612E+01  0.16810383817E+02  0.00000000000E+00 0.  1.
          5    1    4    4  501    0 -0.21267312105E+02  0.44606838186E+02  0.17273079885E+02  0.52515714465E+02  0.41800000000E+01 0. -1.
         -5    1    4    4    0  501  0.43950945376E+02 -0.20341900689E+02 -0.74601395833E+02  0.89041109513E+02  0.41800000000E+01 0. -1.
</event>
<event>
11    1  0.8299058E-009  0.1922895E+03  0.7561462E-02  0.1060114E+00
         22   -1    0    0    0    0  0.00000000000E+00  0.00000000000E+00  0.81855821897E+02  0.81855821897E+02  0.00000000000E+00 0. -1.
         22   -1    0    0    0    0 -0.00000000000E+00 -0.00000000000E+00 -0.99601873052E+03  0.99601873052E+03  0.00000000000E+00 0. -1.
         24    2    1    2    0    0 -0.15928305133E+03  0.17633160180E+02 -0.40350188493E+03  0.44193444833E+03  0.82524340046E+02 0.  0.
         25    2    1    2    0    0  0.13490965309E+03  0.89558628603E+01 -0.51149400538E+03  0.54364752314E+03  0.12508273221E+03 0.  0.
        -24    2    1    2    0    0  0.24373398237E+02 -0.26589023040E+02  0.83298168942E+00  0.92292580949E+02  0.84948148607E+02 0.  0.
        -13    1    3    3    0    0 -0.13713015691E+02 -0.69396691927E+01 -0.13199553369E+03  0.13288727073E+03  0.00000000000E+00 0.  1.
         14    1    3    3    0    0 -0.14557003564E+03  0.24572829373E+02 -0.27150635124E+03  0.30904717760E+03  0.00000000000E+00 0. -1.
         13    1    5    5    0    0  0.18209321298E+02 -0.57574008959E+02  0.41461524600E+01  0.60527154815E+02  0.00000000000E+00 0. -1.
        -14    1    5    5    0    0  0.61640769392E+01  0.30984985919E+02 -0.33131707706E+01  0.31765426134E+02  0.00000000000E+00 0.  1.
          5    1    4    4  501    0 -0.12134156424E+02  0.31820977706E+02 -0.75294212848E+02  0.82743599527E+02  0.41800000000E+01 0. -1.
         -5    1    4    4    0  501  0.14704380952E+03 -0.22865114846E+02 -0.43619979253E+03  0.46090392361E+03  0.41800000000E+01 0. -1.
</event>
<event>
11    1  0.8299058E-009  0.1320023E+03  0.7561462E-02  0.1116833E+00
         22   -1    0    0    0    0  0.00000000000E+00  0.00000000000E+00  0.16881949855E+04  0.16881949855E+04  0.00000000000E+00 0.  1.
         22   -1    0    0    0    0 -0.00000000000E+00 -0.00000000000E+00 -0.22144961449E+03  0.22144961449E+03  0.00000000000E+00 0. -1.
         24    2    1    2    0    0 -0.14763545201E+02 -0.41186428686E+02 -0.16571900536E+03  0.18951850599E+03  0.80871448607E+02 0.  0.
         25    2    1    2    0    0 -0.87312730105E+01  0.33035207563E+02  0.55780650832E+02  0.14117136438E+03  0.12510121121E+03 0.  0.
        -24    2    1    2    0    0  0.23494818211E+02  0.81512211231E+01  0.15766837255E+04  0.15789547296E+04  0.80919830287E+02 0.  0.
        -11    1    3    3    0    0 -0.24983090247E+02  0.11407882019E+02 -0.19198538371E+02  0.33509378479E+02  0.00000000000E+00 0.  1.
         12    1    3    3    0    0  0.10219545046E+02 -0.52594310706E+02 -0.14652046699E+03  0.15600912751E+03  0.00000000000E+00 0. -1.
         11    1    5    5    0    0  0.35233815472E+02 -0.23663868169E+02  0.52080644971E+03  0.52253302141E+03  0.00000000000E+00 0. -1.
        -12    1    5    5    0    0 -0.11738997261E+02  0.31815089292E+02  0.10558772758E+04  0.10564217082E+04  0.00000000000E+00 0.  1.
          5    1    4    4  501    0 -0.46872090118E+02  0.64074730611E+02  0.42099978639E+02  0.89958015409E+02  0.41800000000E+01 0. -1.
         -5    1    4    4    0  501  0.38140817108E+02 -0.31039523048E+02  0.13680672193E+02  0.51213348966E+02  0.41800000000E+01 0. -1.
</event>
<event>
11    1  0.8299058E-009  0.2173119E+03  0.7561462E-02  0.1042914E+00
         22   -1    0    0    0    0  0.00000000000E+00  0.00000000000E+00  0.62607446452E+03  0.62607446452E+03  0.00000000000E+00 0.  1.
         22   -1    0    0    0    0 -0.00000000000E+00 -0.00000000000E+00 -0.48370404125E+03  0.48370404125E+03  0.00000000000E+00 0. -1.
        -24    2    1    2    0    0 -0.12371367643E+03  0.11575256927E+03 -0.32015322177E+03  0.37091668730E+03  0.79858452774E+02 0.  0.
         25    2    1    2    0    0  0.18335989851E+03 -0.11997111236E+03 -0.14463214547E+02  0.25272507628E+03  0.12508740713E+03 0.  0.
         24    2    1    2    0    0 -0.59646222075E+02  0.42185430898E+01  0.47698685959E+03  0.48613674219E+03  0.72367119423E+02 0.  0.
        -13    1    5    5    0    0 -0.46308293715E+02  0.19484102419E+02  0.44774884325E+03  0.45055866981E+03  0.00000000000E+00 0.  1.
         14    1    5    5    0    0 -0.13337928360E+02 -0.15265559329E+02  0.29238016343E+02  0.35578072380E+02  0.00000000000E+00 0. -1.
         13    1    3    3    0    0 -0.39617137109E+02  0.70003776594E+02 -0.21054090135E+03  0.22538304602E+03  0.00000000000E+00 0. -1.
        -14    1    3    3    0    0 -0.84096539325E+02  0.45748792677E+02 -0.10961232042E+03  0.14553364128E+03  0.00000000000E+00 0.  1.
          5    1    4    4  501    0  0.11616369278E+03 -0.13998235141E+03 -0.13951387227E+02  0.18248609764E+03  0.41800000000E+01 0. -1.
         -5    1    4    4    0  501  0.67196205727E+02  0.20011239050E+02 -0.51182732015E+00  0.70238978635E+02  0.41800000000E+01 0. -1.
</event>
<event>
11    1  0.8299058E-009  0.5266211E+03  0.7561462E-02  0.9335927E-01
         22   -1    0    0    0    0  0.00000000000E+00  0.00000000000E+00  0.10832206114E+04  0.10832206114E+04  0.00000000000E+00 0. -1.
         22   -1    0    0    0    0 -0.00000000000E+00 -0.00000000000E+00 -0.63382279941E+03  0.63382279941E+03  0.00000000000E+00 0.  1.
         24    2    1    2    0    0 -0.30788166133E+02 -0.93268723938E+00 -0.36009030381E+03  0.36984570556E+03  0.78562318836E+02 0.  0.
         25    2    1    2    0    0  0.40862146913E+03  0.33230994549E+03  0.26888565516E+03  0.60444059590E+03  0.12509010156E+03 0.  0.
        -24    2    1    2    0    0 -0.37783330300E+03 -0.33137725825E+03  0.54060246064E+03  0.74275710935E+03  0.82874669824E+02 0.  0.
        -13    1    3    3    0    0 -0.26548917255E+02 -0.21954220323E+02 -0.33530823998E+03  0.33707335788E+03  0.00000000000E+00 0.  1.
         14    1    3    3    0    0 -0.42392488783E+01  0.21021533084E+02 -0.24782063835E+02  0.32772347675E+02  0.00000000000E+00 0. -1.
         11    1    5    5    0    0 -0.21318199682E+03 -0.14948291777E+03  0.32247559341E+03  0.41446618054E+03  0.00000000000E+00 0. -1.
        -12    1    5    5    0    0 -0.16465130618E+03 -0.18189434049E+03  0.21812686723E+03  0.32829092881E+03  0.00000000000E+00 0.  1.
          5    1    4    4  501    0  0.41398303508E+02 -0.58702022559E+01  0.23752959380E+02  0.48269600031E+02  0.41800000000E+01 0.  1.
         -5    1    4    4    0  501  0.36722316562E+03  0.33818014775E+03  0.24513269578E+03  0.55617099587E+03  0.41800000000E+01 0.  1.
</event>
<event>
11    1  0.8299058E-009  0.2243100E+03  0.7561462E-02  0.1038551E+00
         22   -1    0    0    0    0  0.00000000000E+00  0.00000000000E+00  0.24912670906E+03  0.24912670906E+03  0.00000000000E+00 0. -1.
         22   -1    0    0    0    0 -0.00000000000E+00 -0.00000000000E+00 -0.75736577639E+03  0.75736577639E+03  0.00000000000E+00 0.  1.
        -24    2    1    2    0    0 -0.33504237905E+02 -0.40705202190E+01 -0.54415913700E+03  0.55109145281E+03  0.80333802881E+02 0.  0.
         25    2    1    2    0    0  0.18135362256E+03  0.10102793979E+03 -0.43802948272E+02  0.24629609172E+03  0.12508911019E+03 0.  0.
         24    2    1    2    0    0 -0.14784938466E+03 -0.96957419570E+02  0.79723017946E+02  0.20910494092E+03  0.78159676143E+02 0.  0.
        -11    1    5    5    0    0 -0.31325030145E+02  0.11520451910E+02  0.71116643730E+01  0.34125563673E+02  0.00000000000E+00 0.  1.
         12    1    5    5    0    0 -0.11652435451E+03 -0.10847787148E+03  0.72611353573E+02  0.17497937725E+03  0.00000000000E+00 0. -1.
         13    1    3    3    0    0  0.14235292892E+02 -0.24004810232E+02 -0.96552834587E+02  0.10050534486E+03  0.00000000000E+00 0. -1.
        -14    1    3    3    0    0 -0.47739530797E+02  0.19934290013E+02 -0.44760630242E+03  0.45058610795E+03  0.00000000000E+00 0.  1.
          5    1    4    4  501    0  0.11411444250E+03 -0.76021737503E+01 -0.24251487283E+02  0.11698506772E+03  0.41800000000E+01 0.  1.
         -5    1    4    4    0  501  0.67239180057E+02  0.10863011354E+03 -0.19551460989E+02  0.12931102400E+03  0.41800000000E+01 0.  1.
</event>
<event>
11    1  0.8299058E-009  0.2784460E+03  0.7561462E-02  0.1009750E+00
         22   -1    0    0    0    0  0.00000000000E+00  0.00000000000E+00  0.91834102943E+03  0.91834102943E+03  0.00000000000E+00 0. -1.
         22   -1    0    0    0    0 -0.00000000000E+00 -0.00000000000E+00 -0.24075953188E+03  0.24075953188E+03  0.00000000000E+00 0.  1.
         24    2    1    2    0    0  0.61548632683E+02  0.21339689291E+03 -0.76347406615E+02  0.24845123367E+03  0.81071702382E+02 0.  0.
         25    2    1    2    0    0  0.10361764230E+03  0.78834521655E+01  0.87899607998E+02  0.18489089442E+03  0.12513807230E+03 0.  0.
        -24    2    1    2    0    0 -0.16516627498E+03 -0.22128034507E+03  0.66602929616E+03  0.72575843322E+03  0.82978253356E+02 0.  0.
        -13    1    3    3    0    0  0.67021377193E+02  0.20409098498E+03 -0.88380933463E+02  0.23228470580E+03  0.00000000000E+00 0.  1.
         14    1    3    3    0    0 -0.54727445092E+01  0.93059079312E+01  0.12033526848E+02  0.16166527868E+02  0.00000000000E+00 0. -1.
         11    1    5    5    0    0 -0.13974557372E+03 -0.20765951650E+03  0.52249045775E+03  0.57935099776E+03  0.00000000000E+00 0. -1.
        -12    1    5    5    0    0 -0.25420701263E+02 -0.13620828575E+02  0.14353883841E+03  0.14640743546E+03  0.00000000000E+00 0.  1.
          5    1    4    4  501    0  0.44088288697E+02 -0.57387550068E+02  0.26295081928E+02  0.77110387346E+02  0.41800000000E+01 0. -1.
         -5    1    4    4    0  501  0.59529353604E+02  0.65271002234E+02  0.61604526069E+02  0.10778050708E+03  0.41800000000E+01 0. -1.
</event>
<event>
11    1  0.8299058E-009  0.1406657E+03  0.7561462E-02  0.1106817E+00
         22   -1    0    0    0    0  0.00000000000E+00  0.00000000000E+00  0.10995106959E+04  0.10995106959E+04  0.00000000000E+00 0. -1.
         22   -1    0    0    0    0 -0.00000000000E+00 -0.00000000000E+00 -0.72469756341E+03  0.72469756341E+03  0.00000000000E+00 0.  1.
         24    2    1    2    0    0 -0.42016540316E+02  0.45697143535E+02 -0.63544390535E+03  0.64349362989E+03  0.80258808055E+02 0.  0.
         25    2    1    2    0    0  0.88216904887E+02 -0.69301312603E+02  0.22813609926E+01  0.16806340880E+03  0.12512078378E+03 0.  0.
        -24    2    1    2    0    0 -0.46200364571E+02  0.23604169068E+02  0.10079756769E+04  0.10126512207E+04  0.82194276083E+02 0.  0.
        -13    1    3    3    0    0  0.43160231910E+01  0.30013405925E+02 -0.46981976886E+03  0.47079724702E+03  0.00000000000E+00 0.  1.
         14    1    3    3    0    0 -0.46332563507E+02  0.15683737610E+02 -0.16562413649E+03  0.17269638287E+03  0.00000000000E+00 0. -1.
         11    1    5    5    0    0  0.25790108492E+01 -0.15286231395E+02  0.57452695834E+03  0.57473606641E+03  0.00000000000E+00 0. -1.
        -12    1    5    5    0    0 -0.48779375420E+02  0.38890400463E+02  0.43344871854E+03  0.43791515425E+03  0.00000000000E+00 0.  1.
          5    1    4    4  501    0  0.30395631522E+02 -0.74216148538E+02  0.48449271221E+02  0.93790913212E+02  0.41800000000E+01 0. -1.
         -5    1    4    4    0  501  0.57821273365E+02  0.49148359348E+01 -0.46167910228E+02  0.74272495587E+02  0.41800000000E+01 0. -1.
</event>
<event>
11    1  0.8299058E-009  0.2407122E+03  0.7561462E-02  0.1028967E+00
         22   -1    0    0    0    0  0.00000000000E+00  0.00000000000E+00  0.12053828995E+04  0.12053828995E+04  0.00000000000E+00 0.  1.
         22   -1    0    0    0    0 -0.00000000000E+00 -0.00000000000E+00 -0.90209086354E+03  0.90209086354E+03  0.00000000000E+00 0.  1.
        -24    2    1    2    0    0 -0.17679052454E+03  0.84785014653E+02 -0.71124577617E+03  0.74219697633E+03  0.80885161066E+02 0.  0.
         25    2    1    2    0    0  0.27105413865E+03 -0.13542954221E+03 -0.13902720753E+02  0.32810481428E+03  0.12509187235E+03 0.  0.
         24    2    1    2    0    0 -0.94263614108E+02  0.50644527554E+02  0.10284405329E+04  0.10371719724E+04  0.81149698819E+02 0.  0.
        -13    1    5    5    0    0 -0.76332274371E+02 -0.28666252509E+00  0.47382105660E+03  0.47993029906E+03  0.00000000000E+00 0.  1.
         14    1    5    5    0    0 -0.17931339737E+02  0.50931190079E+02  0.55461947629E+03  0.55724167337E+03  0.00000000000E+00 0. -1.
         13    1    3    3    0    0 -0.20112920353E+02  0.34588851300E+02 -0.23382402457E+03  0.23722266474E+03  0.00000000000E+00 0. -1.
        -14    1    3    3    0    0 -0.15667760419E+03  0.50196163353E+02 -0.47742175159E+03  0.50497431159E+03  0.00000000000E+00 0.  1.
          5    1    4    4  501    0  0.37386724171E+02  0.19015204783E+02  0.18647986839E+02  0.46093003486E+02  0.41800000000E+01 0.  1.
         -5    1    4    4    0  501  0.23366741447E+03 -0.15444474699E+03 -0.32550707591E+02  0.28201181079E+03  0.41800000000E+01 0.  1.
</event>
<event>
11    1  0.8299058E-009  0.1749751E+03  0.7561462E-02  0.1073781E+00
         22   -1    0    0    0    0  0.00000000000E+00  0.00000000000E+00  0.13373736423E+03  0.13373736423E+03  0.00000000000E+00 0. -1.
         22   -1    0    0    0    0 -0.00000000000E+00 -0.00000000000E+00 -0.56249657932E+03  0.56249657932E+03  0.00000000000E+00 0.  1.
         24    2    1    2    0    0  0.10870876559E+01  0.12399364611E+03 -0.33877217326E+03  0.36975645911E+03  0.81102698148E+02 0.  0.
         25    2    1    2    0    0  0.28814703622E+01 -0.11812529284E+03 -0.14775527172E+03  0.22680917872E+03  0.12509554569E+03 0.  0.
        -24    2    1    2    0    0 -0.39685580182E+01 -0.58683532654E+01  0.57768229887E+02  0.99668305715E+02  0.80909923723E+02 0.  0.
        -13    1    3    3    0    0 -0.22156617672E+02  0.11323196496E+03 -0.31224947688E+03  0.33288455868E+03  0.00000000000E+00 0.  1.
         14    1    3    3    0    0  0.23243705328E+02  0.10761681141E+02 -0.26522696385E+02  0.36871900437E+02  0.00000000000E+00 0. -1.
         11    1    5    5    0    0  0.27848422239E+02  0.24592619973E+02  0.27508314921E+02  0.46228118804E+02  0.00000000000E+00 0. -1.
        -12    1    5    5    0    0 -0.31816980257E+02 -0.30460973238E+02  0.30259914966E+02  0.53440186911E+02  0.00000000000E+00 0.  1.
          5    1    4    4  501    0 -0.15110489769E+01 -0.11718627841E+03 -0.16843508514E+03  0.20523829424E+03  0.41800000000E+01 0.  1.
         -5    1    4    4    0  501  0.43925193391E+01 -0.93901443032E+00  0.20679813421E+02  0.21570884483E+02  0.41800000000E+01 0.  1.
</event>
<event>
11    1  0.8299058E-009  0.4114979E+03  0.7561462E-02  0.9616429E-01
         22   -1    0    0    0    0  0.00000000000E+00  0.00000000000E+00  0.19882580444E+04  0.19882580444E+04  0.00000000000E+00 0.  1.
         22   -1    0    0    0    0 -0.00000000000E+00 -0.00000000000E+00 -0.15226995883E+04  0.15226995883E+04  0.00000000000E+00 0.  1.
        -24    2    1    2    0    0  0.30280312928E+03 -0.23067612457E+03 -0.12565113498E+04  0.13155864840E+04  0.83939355107E+02 0.  0.
         25    2    1    2    0    0 -0.37193145617E+03  0.34350764662E+03  0.58761174814E+02  0.52481542906E+03  0.12509135675E+03 0.  0.
         24    2    1    2    0    0  0.69128326890E+02 -0.11283152205E+03  0.16633086311E+04  0.16705557195E+04  0.81554471996E+02 0.  0.
        -13    1    5    5    0    0 -0.12451479128E+02 -0.52299972752E+02  0.60321722356E+03  0.60560824406E+03  0.00000000000E+00 0.  1.
         14    1    5    5    0    0  0.81579806018E+02 -0.60531549298E+02  0.10600914075E+04  0.10649474755E+04  0.00000000000E+00 0. -1.
         11    1    3    3    0    0  0.21011675817E+03 -0.13045971648E+03 -0.69413784173E+03  0.73688271320E+03  0.00000000000E+00 0. -1.
        -12    1    3    3    0    0  0.92686371106E+02 -0.10021640810E+03 -0.56237350803E+03  0.57870377084E+03  0.00000000000E+00 0.  1.
          5    1    4    4  501    0  0.63261074065E+01 -0.83078772745E+00  0.75396008874E+01  0.10725102550E+02  0.41800000000E+01 0. -1.
         -5    1    4    4    0  501 -0.37825756358E+03  0.34433843435E+03  0.51221573927E+02  0.51409032651E+03  0.41800000000E+01 0. -1.
</event>
<event>
11    1  0.8299058E-009  0.2004993E+03  0.7561462E-02  0.1054171E+00
         22   -1    0    0    0    0  0.00000000000E+00  0.00000000000E+00  0.44426120972E+03  0.44426120972E+03  0.00000000000E+00 0.  1.
         22   -1    0    0    0    0 -0.00000000000E+00 -0.00000000000E+00 -0.33993969874E+03  0.33993969874E+03  0.00000000000E+00 0. -1.
        -24    2    1    2    0    0 -0.21242399344E+02 -0.10248653443E+03 -0.19693724203E+03  0.23602295276E+03  0.77251716260E+02 0.  0.
         25    2    1    2    0    0  0.12586757105E+03 -0.31491554200E+02 -0.14367253944E+02  0.18079644257E+03  0.12508625918E+03 0.  0.
         24    2    1    2    0    0 -0.10462517170E+03  0.13397808863E+03  0.31562600695E+03  0.36738151311E+03  0.80329603046E+02 0.  0.
        -13    1    5    5    0    0 -0.38671964212E+02  0.66961641695E+02  0.69736990723E+02  0.10412795086E+03  0.00000000000E+00 0.  1.
         14    1    5    5    0    0 -0.65953207490E+02  0.67016446934E+02  0.24588901623E+03  0.26325356226E+03  0.00000000000E+00 0. -1.
         11    1    3    3    0    0 -0.30946472478E+02 -0.59307527199E+02 -0.17348762206E+03  0.18593822079E+03  0.00000000000E+00 0. -1.
        -12    1    3    3    0    0  0.97040731344E+01 -0.43179007230E+02 -0.23449619969E+02  0.50084731979E+02  0.00000000000E+00 0.  1.
          5    1    4    4  501    0  0.12093230064E+03 -0.25978454256E+02 -0.57761874634E+02  0.13657747979E+03  0.41800000000E+01 0.  1.
         -5    1    4    4    0  501  0.49352704016E+01 -0.55130999441E+01  0.43394620689E+02  0.44218962784E+02  0.41800000000E+01 0.  1.
</event>
<event>
11    1  0.8299058E-009  0.1439681E+03  0.7561462E-02  0.1103207E+00
         22   -1    0    0    0    0  0.00000000000E+00  0.00000000000E+00  0.11879577955E+04  0.11879577955E+04  0.00000000000E+00 0. -1.
         22   -1    0    0    0    0 -0.00000000000E+00 -0.00000000000E+00 -0.37695166537E+03  0.37695166537E+03  0.00000000000E+00 0. -1.
         24    2    1    2    0    0  0.69757640521E+02 -0.29714179787E+02 -0.30283210570E+03  0.32208977236E+03  0.79280995998E+02 0.  0.
         25    2    1    2    0    0 -0.10882829972E+02 -0.15815092642E+02  0.31739699690E+01  0.12659517877E+03  0.12509081524E+03 0.  0.
        -24    2    1    2    0    0 -0.58874810549E+02  0.45529272429E+02  0.11106642658E+04  0.11162245097E+04  0.82721742813E+02 0.  0.
        -11    1    3    3    0    0  0.22898666069E+02 -0.36366711779E+01 -0.11533022584E+02  0.25895653977E+02  0.00000000000E+00 0.  1.
         12    1    3    3    0    0  0.46858974452E+02 -0.26077508609E+02 -0.29129908312E+03  0.29619411839E+03  0.00000000000E+00 0. -1.
         11    1    5    5    0    0 -0.47964186302E+02  0.54747496508E+02  0.10794076882E+04  0.10818589598E+04  0.00000000000E+00 0. -1.
        -12    1    5    5    0    0 -0.10910624247E+02 -0.92182240791E+01  0.31256577686E+02  0.34365549978E+02  0.00000000000E+00 0.  1.
          5    1    4    4  501    0  0.55655432999E+02 -0.20742119771E+02  0.46944141066E+01  0.59726649652E+02  0.41800000000E+01 0.  1.
         -5    1    4    4    0  501 -0.66538262971E+02  0.49270271294E+01 -0.15204441376E+01  0.66868529114E+02  0.41800000000E+01 0.  1.
</event>
<event>
11    1  0.8299058E-009  0.2538533E+03  0.7561462E-02  0.1021866E+00
         22   -1    0    0    0    0  0.00000000000E+00  0.00000000000E+00  0.48377919338E+03  0.48377919338E+03  0.00000000000E+00 0. -1.
         22   -1    0    0    0    0 -0.00000000000E+00 -0.00000000000E+00 -0.15423624352E+04  0.15423624352E+04  0.00000000000E+00 0. -1.
        -24    2    1    2    0    0  0.22203433685E+03  0.42942896473E+02 -0.12785701866E+04  0.13009258006E+04  0.80764333538E+02 0.  0.
         25    2    1    2    0    0 -0.20092446101E+03  0.26431421397E+02 -0.18798516302E+03  0.30340609224E+03  0.12509027231E+03 0.  0.
         24    2    1    2    0    0 -0.21109875840E+02 -0.69374317870E+02  0.40797210775E+03  0.42180973577E+03  0.78890998539E+02 0.  0.
        -13    1    5    5    0    0  0.14089056283E+02 -0.64746686729E+01  0.12766580546E+02  0.20085029753E+02  0.00000000000E+00 0.  1.
         14    1    5    5    0    0 -0.35198932122E+02 -0.62899649197E+02  0.39520552720E+03  0.40172470601E+03  0.00000000000E+00 0. -1.
         11    1    3    3    0    0  0.16811404297E+03  0.64830470854E+02 -0.89388040744E+03  0.91185936646E+03  0.00000000000E+00 0. -1.
        -12    1    3    3    0    0  0.53920293886E+02 -0.21887574381E+02 -0.38468977915E+03  0.38906643415E+03  0.00000000000E+00 0.  1.
          5    1    4    4  501    0 -0.11216172828E+03  0.55271774189E+02 -0.45709933422E+02  0.13319944717E+03  0.41800000000E+01 0.  1.
         -5    1    4    4    0  501 -0.88762732735E+02 -0.28840352792E+02 -0.14227522959E+03  0.17020664508E+03  0.41800000000E+01 0.  1.
</event>
<event>
11    1  0.8299058E-009  0.1640709E+03  0.7561462E-02  0.1083310E+00
         22   -1    0    0    0    0  0.00000000000E+00  0.00000000000E+00  0.84730667092E+03  0.84730667092E+03  0.00000000000E+00 0. -1.
         22   -1    0    0    0    0 -0.00000000000E+00 -0.00000000000E+00 -0.27261030013E+03  0.27261030013E+03  0.00000000000E+00 0.  1.
         24    2    1    2    0    0  0.68338923687E+02 -0.82413683180E+02 -0.22820592245E+03  0.26494834196E+03  0.81593242341E+02 0.  0.
         25    2    1    2    0    0 -0.59352916439E+02  0.72194140192E+02  0.23811218710E+03  0.28474488900E+03  0.12508987007E+03 0.  0.
        -24    2    1    2    0    0 -0.89860072478E+01  0.10219542988E+02  0.56479010614E+03  0.57022374010E+03  0.77343793536E+02 0.  0.
        -11    1    3    3    0    0  0.41484958939E+02 -0.84315709405E+02 -0.21566818763E+03  0.23525073395E+03  0.00000000000E+00 0.  1.
         12    1    3    3    0    0  0.26853964748E+02  0.19020262259E+01 -0.12537734826E+02  0.29697608002E+02  0.00000000000E+00 0. -1.
         13    1    5    5    0    0  0.25348896734E+02 -0.20246335396E+02  0.21472299957E+03  0.21715995765E+03  0.00000000000E+00 0. -1.
        -14    1    5    5    0    0 -0.34334903982E+02  0.30465878384E+02  0.35006710657E+03  0.35306378246E+03  0.00000000000E+00 0.  1.
          5    1    4    4  501    0 -0.22799216077E+01 -0.30068656160E+02  0.95095579939E+02  0.99849706307E+02  0.41800000000E+01 0.  1.
         -5    1    4    4    0  501 -0.57072994832E+02  0.10226279635E+03  0.14301660716E+03  0.18489518269E+03  0.41800000000E+01 0.  1.
</event>
<event>
11    1  0.8299058E-009  0.2448006E+03  0.7561462E-02  0.1026706E+00
         22   -1    0    0    0    0  0.00000000000E+00  0.00000000000E+00  0.11141028596E+03  0.11141028596E+03  0.00000000000E+00 0.  1.
         22   -1    0    0    0    0 -0.00000000000E+00 -0.00000000000E+00 -0.22248604578E+04  0.22248604578E+04  0.00000000000E+00 0.  1.
        -24    2    1    2    0    0  0.52717047951E+02 -0.59148688249E+02 -0.43862247984E+03  0.45303737360E+03  0.81089626932E+02 0.  0.
         25    2    1    2    0    0 -0.20689228457E+03  0.19349634902E+03 -0.16303262657E+04  0.16594750786E+04  0.12509416213E+03 0.  0.
         24    2    1    2    0    0  0.15417523662E+03 -0.13434766077E+03 -0.44501426245E+02  0.22375829149E+03  0.79171323938E+02 0.  0.
        -13    1    5    5    0    0  0.96218650563E+02 -0.34439762802E+02 -0.74846385058E+01  0.10247021905E+03  0.00000000000E+00 0.  1.
         14    1    5    5    0    0  0.57956586055E+02 -0.99907897966E+02 -0.37016787740E+02  0.12128807245E+03  0.00000000000E+00 0. -1.
         13    1    3    3    0    0  0.14130435124E+02 -0.42413933177E+02 -0.77468709927E+02  0.89442785858E+02  0.00000000000E+00 0. -1.
        -14    1    3    3    0    0  0.38586612827E+02 -0.16734755072E+02 -0.36115376991E+03  0.36359458774E+03  0.00000000000E+00 0.  1.
          5    1    4    4  501    0 -0.91590617363E+02  0.79706658045E+02 -0.10481149006E+04  0.10551323660E+04  0.41800000000E+01 0.  1.
         -5    1    4    4    0  501 -0.11530166721E+03  0.11378969097E+03 -0.58221136516E+03  0.60434271266E+03  0.41800000000E+01 0.  1.
</event>
<event>
11    1  0.8299058E-009  0.2136815E+03  0.7561462E-02  0.1045249E+00
         22   -1    0    0    0    0  0.00000000000E+00  0.00000000000E+00  0.84315783203E+03  0.84315783203E+03  0.00000000000E+00 0.  1.
         22   -1    0    0    0    0 -0.00000000000E+00 -0.00000000000E+00 -0.45612561472E+03  0.45612561472E+03  0.00000000000E+00 0.  1.
         24    2    1    2    0    0  0.16290213689E+03 -0.41290879002E+02 -0.36157558186E+03  0.41003064599E+03  0.95635696073E+02 0.  0.
         25    2    1    2    0    0 -0.24371030772E+03 -0.10832983092E+01  0.23349370456E+03  0.35994754540E+03  0.12508811993E+03 0.  0.
        -24    2    1    2    0    0  0.80808170826E+02  0.42374177311E+02  0.51511409460E+03  0.52930525536E+03  0.80597714092E+02 0.  0.
        -13    1    3    3    0    0  0.12010325358E+03 -0.70262332107E+02 -0.29098521895E+03  0.32254299633E+03  0.00000000000E+00 0.  1.
         14    1    3    3    0    0  0.42798883314E+02  0.28971453105E+02 -0.70590362905E+02  0.87487649660E+02  0.00000000000E+00 0. -1.
         11    1    5    5    0    0  0.28037103140E+02  0.59636965776E+02  0.29861685989E+03  0.30580169367E+03  0.00000000000E+00 0. -1.
        -12    1    5    5    0    0  0.52771067686E+02 -0.17262788465E+02  0.21649723471E+03  0.22350356169E+03  0.00000000000E+00 0.  1.
          5    1    4    4  501    0 -0.50046940588E+02 -0.25259669712E+01 -0.74019864815E+01  0.50826553839E+02  0.41800000000E+01 0. -1.
         -5    1    4    4    0  501 -0.19366336713E+03  0.14426686620E+01  0.24089569104E+03  0.30912099156E+03  0.41800000000E+01 0. -1.
</event>
<event>
11    1  0.8299058E-009  0.1418562E+03  0.7561462E-02  0.1105503E+00
         22   -1    0    0    0    0  0.00000000000E+00  0.00000000000E+00  0.21977640774E+03  0.21977640774E+03  0.00000000000E+00 0. -1.
         22   -1    0    0    0    0 -0.00000000000E+00 -0.00000000000E+00 -0.24388499890E+04  0.24388499890E+04  0.00000000000E+00 0.  1.
        -24    2    1    2    0    0  0.46462493624E+02  0.56821364021E+02 -0.20116296769E+04  0.20145711484E+04  0.80346275688E+02 0.  0.
         25    2    1    2    0    0  0.10060813853E+02 -0.34869231017E+02 -0.40342303757E+03  0.42393035444E+03  0.12509882062E+03 0.  0.
         24    2    1    2    0    0 -0.56523307476E+02 -0.21952133004E+02  0.19597913320E+03  0.22012489397E+03  0.79814584304E+02 0.  0.
        -11    1    5    5    0    0 -0.55668638440E+02 -0.35267345129E+00  0.57740999747E+02  0.80206887086E+02  0.00000000000E+00 0.  1.
         12    1    5    5    0    0 -0.85466903684E+00 -0.21599459552E+02  0.13823813345E+03  0.13991800689E+03  0.00000000000E+00 0. -1.
         11    1    3    3    0    0  0.41546403833E+02  0.33866817356E+02 -0.51970949620E+03  0.52246629119E+03  0.00000000000E+00 0. -1.
        -12    1    3    3    0    0  0.49160897905E+01  0.22954546665E+02 -0.14919201807E+04  0.14921048572E+04  0.00000000000E+00 0.  1.
          5    1    4    4  501    0  0.44220357214E+02  0.22092815296E+01 -0.50046090405E+02  0.66950761622E+02  0.41800000000E+01 0.  1.
         -5    1    4    4    0  501 -0.34159543362E+02 -0.37078512547E+02 -0.35337694717E+03  0.35697959281E+03  0.41800000000E+01 0.  1.
</event>
<event>
11    1  0.8299058E-009  0.1394293E+03  0.7561462E-02  0.1108197E+00
         22   -1    0    0    0    0  0.00000000000E+00  0.00000000000E+00  0.87185797194E+03  0.87185797194E+03  0.00000000000E+00 0. -1.
         22   -1    0    0    0    0 -0.00000000000E+00 -0.00000000000E+00 -0.61637020660E+03  0.61637020660E+03  0.00000000000E+00 0.  1.
         24    2    1    2    0    0  0.30838509380E+01 -0.32346119082E+02 -0.54169844688E+03  0.54842127843E+03  0.79201702792E+02 0.  0.
         25    2    1    2    0    0  0.22839009903E+02  0.86774482846E+02  0.19130525900E+02  0.15512949231E+03  0.12509097137E+03 0.  0.
        -24    2    1    2    0    0 -0.25922860841E+02 -0.54428363764E+02  0.77805568633E+03  0.78467740780E+03  0.81936205590E+02 0.  0.
        -11    1    3    3    0    0  0.86468798211E+01  0.24637022705E+02 -0.23298772046E+03  0.23444621836E+03  0.00000000000E+00 0.  1.
         12    1    3    3    0    0 -0.55630288832E+01 -0.56983141786E+02 -0.30871072642E+03  0.31397506007E+03  0.00000000000E+00 0. -1.
         11    1    5    5    0    0 -0.27123590508E+01 -0.71879782734E+02  0.59510010488E+03  0.59943155980E+03  0.00000000000E+00 0. -1.
        -12    1    5    5    0    0 -0.23210501791E+02  0.17451418970E+02  0.18295558144E+03  0.18524584799E+03  0.00000000000E+00 0.  1.
          5    1    4    4  501    0  0.27469116710E+02  0.59019745529E+02 -0.48810887987E+02  0.81473050276E+02  0.41800000000E+01 0. -1.
         -5    1    4    4    0  501 -0.46301068069E+01  0.27754737316E+02  0.67941413887E+02  0.73656442037E+02  0.41800000000E+01 0. -1.
</event>
<event>
11    1  0.8299058E-009  0.2530328E+03  0.7561462E-02  0.1022296E+00
         22   -1    0    0    0    0  0.00000000000E+00  0.00000000000E+00  0.18469178587E+03  0.18469178587E+03  0.00000000000E+00 0.  1.
         22   -1    0    0    0    0 -0.00000000000E+00 -0.00000000000E+00 -0.80703241477E+03  0.80703241477E+03  0.00000000000E+00 0.  1.
        -24    2    1    2    0    0  0.15530212530E+03 -0.19444717078E+03 -0.37531241893E+03  0.45751650144E+03  0.80829975515E+02 0.  0.
         25    2    1    2    0    0 -0.12882408437E+02  0.20923150685E+03 -0.27443633416E+03  0.36729772620E+03  0.12509411760E+03 0.  0.
         24    2    1    2    0    0 -0.14241971686E+03 -0.14784336078E+02  0.27408124197E+02  0.16690997299E+03  0.81275958733E+02 0.  0.
        -11    1    5    5    0    0 -0.60324410273E+02  0.15813473763E+02  0.45817917673E+02  0.77384636764E+02  0.00000000000E+00 0.  1.
         12    1    5    5    0    0 -0.82095306589E+02 -0.30597809840E+02 -0.18409793476E+02  0.89525336228E+02  0.00000000000E+00 0. -1.
         11    1    3    3    0    0 -0.58525093072E+01 -0.10806175975E+02 -0.45090003614E+02  0.46734716543E+02  0.00000000000E+00 0. -1.
        -12    1    3    3    0    0  0.16115463461E+03 -0.18364099480E+03 -0.33022241532E+03  0.41078178490E+03  0.00000000000E+00 0.  1.
          5    1    4    4  501    0 -0.21159073156E+02  0.18004451665E+03 -0.28244516988E+03  0.33564338328E+03  0.41800000000E+01 0.  1.
         -5    1    4    4    0  501  0.82766647189E+01  0.29186990205E+02  0.80088357208E+01  0.31654342920E+02  0.41800000000E+01 0.  1.
</event>
<event>
11    1  0.8299058E-009  0.1420424E+03  0.7561462E-02  0.1105299E+00
         22   -1    0    0    0    0  0.00000000000E+00  0.00000000000E+00  0.12897675431E+04  0.12897675431E+04  0.00000000000E+00 0.  1.
         22   -1    0    0    0    0 -0.00000000000E+00 -0.00000000000E+00 -0.48839355386E+03  0.48839355386E+03  0.00000000000E+00 0. -1.
        -24    2    1    2    0    0 -0.57371919073E+02  0.34722535892E+02 -0.47019359517E+03  0.48165480107E+03  0.80075831932E+02 0.  0.
         25    2    1    2    0    0  0.81027013574E+02 -0.64726652588E+02  0.86193680870E+03  0.87711878709E+03  0.12508951992E+03 0.  0.
         24    2    1    2    0    0 -0.23655094501E+02  0.30004116695E+02  0.40963077573E+03  0.41938750883E+03  0.81416826379E+02 0.  0.
        -11    1    5    5    0    0  0.52642049035E+01  0.15129004570E+02  0.35806665749E+03  0.35842478965E+03  0.00000000000E+00 0.  1.
         12    1    5    5    0    0 -0.28919299404E+02  0.14875112125E+02  0.51564118246E+02  0.60962719176E+02  0.00000000000E+00 0. -1.
         13    1    3    3    0    0 -0.36772512190E+02  0.46610203349E+02 -0.43587999348E+03  0.43990464583E+03  0.00000000000E+00 0. -1.
        -14    1    3    3    0    0 -0.20599406883E+02 -0.11887667457E+02 -0.34313601687E+02  0.41750155236E+02  0.00000000000E+00 0.  1.
          5    1    4    4  501    0 -0.20570039922E+02 -0.11599677229E+02  0.36029275416E+02  0.43281175367E+02  0.41800000000E+01 0. -1.
         -5    1    4    4    0  501  0.10159705350E+03 -0.53126975359E+02  0.82590753328E+03  0.83383761172E+03  0.41800000000E+01 0. -1.
</event>
<event>
11    1  0.8299058E-009  0.1459204E+03  0.7561462E-02  0.1101122E+00
         22   -1    0    0    0    0  0.00000000000E+00  0.00000000000E+00  0.44284663244E+03  0.44284663244E+03  0.00000000000E+00 0.  1.
         22   -1    0    0    0    0 -0.00000000000E+00 -0.00000000000E+00 -0.24014305349E+03  0.24014305349E+03  0.00000000000E+00 0. -1.
         24    2    1    2    0    0  0.18891007640E+02  0.10171688709E+01 -0.17744974328E+03  0.19602047550E+03  0.81103086390E+02 0.  0.
         25    2    1    2    0    0 -0.67191388462E+02  0.53630167071E+02  0.88483374690E+02  0.17569018405E+03  0.12508739213E+03 0.  0.
        -24    2    1    2    0    0  0.48300380822E+02 -0.54647335942E+02  0.29166994754E+03  0.31127902639E+03  0.80647478927E+02 0.  0.
        -13    1    3    3    0    0 -0.26991404400E+02 -0.18181757460E+02 -0.55817467079E+02  0.64611932698E+02  0.00000000000E+00 0.  1.
         14    1    3    3    0    0  0.45882412040E+02  0.19198926331E+02 -0.12163227620E+03  0.13140854280E+03  0.00000000000E+00 0. -1.
         13    1    5    5    0    0  0.55299489114E+02 -0.26947353648E+02  0.99382330699E+02  0.11688045611E+03  0.00000000000E+00 0. -1.
        -14    1    5    5    0    0 -0.69991082924E+01 -0.27699982294E+02  0.19228761684E+03  0.19439857028E+03  0.00000000000E+00 0.  1.
          5    1    4    4  501    0 -0.82598736310E+02  0.60562589194E+02  0.10843237116E+03  0.14921605130E+03  0.41800000000E+01 0.  1.
         -5    1    4    4    0  501  0.15407347848E+02 -0.69324221224E+01 -0.19948996474E+02  0.26474132743E+02  0.41800000000E+01 0.  1.
</event>
<event>
11    1  0.8299058E-009  0.1375540E+03  0.7561462E-02  0.1110321E+00
         22   -1    0    0    0    0  0.00000000000E+00  0.00000000000E+00  0.14168029426E+03  0.14168029426E+03  0.00000000000E+00 0.  1.
         22   -1    0    0    0    0 -0.00000000000E+00 -0.00000000000E+00 -0.79712823381E+03  0.79712823381E+03  0.00000000000E+00 0. -1.
         24    2    1    2    0    0  0.38246882457E+02  0.39441445379E+02 -0.63703272402E+03  0.64433342227E+03  0.79601607655E+02 0.  0.
         25    2    1    2    0    0 -0.26837973670E+02 -0.93691485178E+02 -0.82520415376E+02  0.17876004695E+03  0.12508862540E+03 0.  0.
        -24    2    1    2    0    0 -0.11408908787E+02  0.54250039799E+02  0.64105199847E+02  0.11571505886E+03  0.78786218224E+02 0.  0.
        -13    1    3    3    0    0  0.43368297249E+02  0.33248502915E+02 -0.20301194103E+03  0.21023824665E+03  0.00000000000E+00 0.  1.
         14    1    3    3    0    0 -0.51214147926E+01  0.61929424646E+01 -0.43402078299E+03  0.43409517561E+03  0.00000000000E+00 0. -1.
         13    1    5    5    0    0  0.24894323727E+02  0.10673947120E+01  0.90329440431E-01  0.24917360308E+02  0.00000000000E+00 0. -1.
        -14    1    5    5    0    0 -0.36303232514E+02  0.53182645087E+02  0.64014870407E+02  0.90797698554E+02  0.00000000000E+00 0.  1.
          5    1    4    4  501    0 -0.16671731619E+02  0.17818556268E+02  0.16065968206E+02  0.29513307457E+02  0.41800000000E+01 0. -1.
         -5    1    4    4    0  501 -0.10166242051E+02 -0.11151004145E+03 -0.98586383581E+02  0.14924673949E+03  0.41800000000E+01 0. -1.
</event>
<event>
11    1  0.8299058E-009  0.1925329E+03  0.7561462E-02  0.1059933E+00
         22   -1    0    0    0    0  0.00000000000E+00  0.00000000000E+00  0.12073383152E+04  0.12073383152E+04  0.00000000000E+00 0. -1.
         22   -1    0    0    0    0 -0.00000000000E+00 -0.00000000000E+00 -0.24499521033E+04  0.24499521033E+04  0.00000000000E+00 0.  1.
         24    2    1    2    0    0 -0.82266569851E+02  0.12104739838E+03 -0.23880045142E+04  0.23938805286E+04  0.81720037596E+02 0.  0.
         25    2    1    2    0    0  0.85144407060E+02 -0.11933601156E+03  0.10405273389E+03  0.21900967057E+03  0.12509040995E+03 0.  0.
        -24    2    1    2    0    0 -0.28778372087E+01 -0.17113868202E+01  0.10413379921E+04  0.10444002193E+04  0.79848566037E+02 0.  0.
        -13    1    3    3    0    0 -0.77189723844E+02  0.13176792877E+03 -0.23022824168E+04  0.23073416235E+04  0.00000000000E+00 0.  1.
         14    1    3    3    0    0 -0.50768460070E+01 -0.10720530390E+02 -0.85722097344E+02  0.86538905183E+02  0.00000000000E+00 0. -1.
         11    1    5    5    0    0  0.41408807857E+01  0.30499428207E+02  0.82414495861E+03  0.82471951282E+03  0.00000000000E+00 0. -1.
        -12    1    5    5    0    0 -0.70187179944E+01 -0.32210815028E+02  0.21719303353E+03  0.21968070653E+03  0.00000000000E+00 0.  1.
          5    1    4    4  501    0 -0.10643974418E+02 -0.22150303552E+02 -0.21960443571E+02  0.33221433152E+02  0.41800000000E+01 0. -1.
         -5    1    4    4    0  501  0.95788381478E+02 -0.97185708013E+02  0.12601317746E+03  0.18578823742E+03  0.41800000000E+01 0. -1.
</event>
<event>
11    1  0.8299058E-009  0.1597594E+03  0.7561462E-02  0.1087304E+00
         22   -1    0    0    0    0  0.00000000000E+00  0.00000000000E+00  0.69116256391E+02  0.69116256391E+02  0.00000000000E+00 0. -1.
         22   -1    0    0    0    0 -0.00000000000E+00 -0.00000000000E+00 -0.20455680782E+04  0.20455680782E+04  0.00000000000E+00 0. -1.
        -24    2    1    2    0    0  0.42975481342E+01 -0.39931674137E+02 -0.15858087817E+04  0.15883129329E+04  0.79595684997E+02 0.  0.
         25    2    1    2    0    0  0.95757174598E+02  0.36893221454E+02 -0.35987741477E+03  0.39457568739E+03  0.12509065966E+03 0.  0.
         24    2    1    2    0    0 -0.10005472273E+03  0.30384526833E+01 -0.30765625273E+02  0.13179571428E+03  0.80021290093E+02 0.  0.
        -11    1    5    5    0    0 -0.18283981515E+02  0.15925796690E+02 -0.41759690844E+02  0.48288785030E+02  0.00000000000E+00 0.  1.
         12    1    5    5    0    0 -0.81770741217E+02 -0.12887344007E+02  0.10994065572E+02  0.83506929249E+02  0.00000000000E+00 0. -1.
         11    1    3    3    0    0  0.22690885318E+02 -0.37615494197E+01 -0.12272201163E+04  0.12274356355E+04  0.00000000000E+00 0. -1.
        -12    1    3    3    0    0 -0.18393337184E+02 -0.36170124718E+02 -0.35858866545E+03  0.36087729738E+03  0.00000000000E+00 0.  1.
          5    1    4    4  501    0  0.95502062527E+02  0.32862644181E+01 -0.12565765610E+03  0.15792011403E+03  0.41800000000E+01 0. -1.
         -5    1    4    4    0  501  0.25511207082E+00  0.33606957036E+02 -0.23421975868E+03  0.23665557335E+03  0.41800000000E+01 0. -1.
</event>
<event>
11    1  0.8299058E-009  0.1336954E+03  0.7561462E-02  0.1114810E+00
         22   -1    0    0    0    0  0.00000000000E+00  0.00000000000E+00  0.13690025357E+03  0.13690025357E+03  0.00000000000E+00 0.  1.
         22   -1    0    0    0    0 -0.00000000000E+00 -0.00000000000E+00 -0.49444974640E+03  0.49444974640E+03  0.00000000000E+00 0.  1.
        -24    2    1    2    0    0  0.34174489009E+01 -0.39043625150E+01 -0.22575320345E+03  0.23957071480E+03  0.80016845224E+02 0.  0.
         25    2    1    2    0    0  0.36283276425E+02 -0.22269332839E+02 -0.22447205935E+03  0.26047709778E+03  0.12509282037E+03 0.  0.
         24    2    1    2    0    0 -0.39700725326E+02  0.26173695354E+02  0.92675769958E+02  0.13130218739E+03  0.79939077781E+02 0.  0.
        -11    1    5    5    0    0 -0.18519254785E+01  0.12800551734E+02  0.90158429816E+02  0.91081426315E+02  0.00000000000E+00 0.  1.
         12    1    5    5    0    0 -0.37848799847E+02  0.13373143619E+02  0.25173401422E+01  0.40220761076E+02  0.00000000000E+00 0. -1.
         11    1    3    3    0    0 -0.11555019777E+02  0.10792174117E+02 -0.33270745882E+01  0.16157318142E+02  0.00000000000E+00 0. -1.
        -12    1    3    3    0    0  0.14972468678E+02 -0.14696536632E+02 -0.22242612886E+03  0.22341339666E+03  0.00000000000E+00 0.  1.
          5    1    4    4  501    0 -0.43326375070E+02  0.59127093513E+01 -0.49728295480E+02  0.66351418070E+02  0.41800000000E+01 0. -1.
         -5    1    4    4    0  501  0.79609651495E+02 -0.28182042190E+02 -0.17474376387E+03  0.19412567971E+03  0.41800000000E+01 0. -1.
</event>
<event>
11    1  0.8299058E-009  0.1497122E+03  0.7561462E-02  0.1097173E+00
         22   -1    0    0    0    0  0.00000000000E+00  0.00000000000E+00  0.46455963328E+03  0.46455963328E+03  0.00000000000E+00 0.  1.
         22   -1    0    0    0    0 -0.00000000000E+00 -0.00000000000E+00 -0.45493641786E+03  0.45493641786E+03  0.00000000000E+00 0.  1.
        -24    2    1    2    0    0  0.76050878981E+02 -0.27831269686E+02 -0.28437082967E+03  0.30637691588E+03  0.80260389057E+02 0.  0.
         25    2    1    2    0    0 -0.10269009114E+03 -0.46705081890E+02 -0.10489884724E+03  0.19843643552E+03  0.12508649526E+03 0.  0.
         24    2    1    2    0    0  0.26639212159E+02  0.74536351575E+02  0.39889289232E+03  0.41468269974E+03  0.81122663860E+02 0.  0.
        -11    1    5    5    0    0  0.51308214192E+02  0.35980932575E+02  0.28753475484E+03  0.29428454868E+03  0.00000000000E+00 0.  1.
         12    1    5    5    0    0 -0.24669002033E+02  0.38555419000E+02  0.11135813748E+03  0.12039815106E+03  0.00000000000E+00 0. -1.
         11    1    3    3    0    0 -0.48014806651E+01 -0.29922949060E+02 -0.11109757808E+03  0.11515688843E+03  0.00000000000E+00 0. -1.
        -12    1    3    3    0    0  0.80852359646E+02  0.20916793741E+01 -0.17327325159E+03  0.19122002745E+03  0.00000000000E+00 0.  1.
          5    1    4    4  501    0 -0.76805270067E+02 -0.89144167293E+02 -0.64548672348E+02  0.13427485086E+03  0.41800000000E+01 0.  1.
         -5    1    4    4    0  501 -0.25884821073E+02  0.42439085403E+02 -0.40350174888E+02  0.64161584654E+02  0.41800000000E+01 0.  1.
</event>
<event>
11    1  0.8299058E-009  0.1406144E+03  0.7561462E-02  0.1106874E+00
         22   -1    0    0    0    0  0.00000000000E+00  0.00000000000E+00  0.16300443052E+03  0.16300443052E+03  0.00000000000E+00 0.  1.
         22   -1    0    0    0    0 -0.00000000000E+00 -0.00000000000E+00 -0.34543838645E+03  0.34543838645E+03  0.00000000000E+00 0.  1.
         24    2    1    2    0    0  0.34450486846E+02 -0.44601896489E+01 -0.22149288464E+03  0.23813270025E+03  0.80258056586E+02 0.  0.
         25    2    1    2    0    0 -0.90234304815E+02  0.10532918702E+02 -0.21220555709E+02  0.15604993584E+03  0.12509235927E+03 0.  0.
        -24    2    1    2    0    0  0.55783817969E+02 -0.60727290529E+01  0.60279484416E+02  0.11426018088E+03  0.79202653415E+02 0.  0.
        -13    1    3    3    0    0  0.80121844604E+01  0.25621718574E+02 -0.17377265488E+03  0.17583402158E+03  0.00000000000E+00 0.  1.
         14    1    3    3    0    0  0.26438302386E+02 -0.30081908223E+02 -0.47720229764E+02  0.62298678671E+02  0.00000000000E+00 0. -1.
         11    1    5    5    0    0  0.49907745809E+02 -0.99093726073E+01 -0.26400939932E+01  0.50950454890E+02  0.00000000000E+00 0. -1.
        -12    1    5    5    0    0  0.58760721605E+01  0.38366435544E+01  0.62919578409E+02  0.63309725991E+02  0.00000000000E+00 0.  1.
          5    1    4    4  501    0  0.97780701407E+00 -0.67104608395E+01  0.42589594632E+02  0.43328193618E+02  0.41800000000E+01 0. -1.
         -5    1    4    4    0  501 -0.91212111830E+02  0.17243379541E+02 -0.63810150342E+02  0.11272174222E+03  0.41800000000E+01 0. -1.
</event>
<event>
11    1  0.8299058E-009  0.1399007E+03  0.7561462E-02  0.1107669E+00
         22   -1    0    0    0    0  0.00000000000E+00  0.00000000000E+00  0.34653578038E+03  0.34653578038E+03  0.00000000000E+00 0. -1.
         22   -1    0    0    0    0 -0.00000000000E+00 -0.00000000000E+00 -0.34365684340E+03  0.34365684340E+03  0.00000000000E+00 0. -1.
        -24    2    1    2    0    0  0.53070779355E+02  0.28891133168E+02 -0.25397730386E+03  0.28156155140E+03  0.10545724800E+03 0.  0.
         25    2    1    2    0    0 -0.31319105231E+02 -0.98601655588E+02  0.41071974757E+02  0.16744378256E+03  0.12508932957E+03 0.  0.
         24    2    1    2    0    0 -0.21751674125E+02  0.69710522420E+02  0.21578426608E+03  0.24118728982E+03  0.79219738836E+02 0.  0.
        -11    1    5    5    0    0 -0.11137215235E+01 -0.17795217310E+02  0.36667251261E+02  0.40772508504E+02  0.00000000000E+00 0.  1.
         12    1    5    5    0    0 -0.20637952601E+02  0.87505739730E+02  0.17911701482E+03  0.20041478132E+03  0.00000000000E+00 0. -1.
         11    1    3    3    0    0  0.40505353251E+02 -0.23378808474E+02 -0.19994311030E+03  0.20533996124E+03  0.00000000000E+00 0. -1.
        -12    1    3    3    0    0  0.12565426104E+02  0.52269941641E+02 -0.54034193558E+02  0.76221590156E+02  0.00000000000E+00 0.  1.
          5    1    4    4  501    0 -0.19044948327E+02 -0.14194515060E+02  0.72531476837E+02  0.76436129198E+02  0.41800000000E+01 0. -1.
         -5    1    4    4    0  501 -0.12274156903E+02 -0.84407140528E+02 -0.31459502080E+02  0.91007653364E+02  0.41800000000E+01 0. -1.
</event>
<event>
11    1  0.8299058E-009  0.1538242E+03  0.7561462E-02  0.1093034E+00
         22   -1    0    0    0    0  0.00000000000E+00  0.00000000000E+00  0.15095378736E+04  0.15095378736E+04  0.00000000000E+00 0. -1.
         22   -1    0    0    0    0 -0.00000000000E+00 -0.00000000000E+00 -0.11738200966E+03  0.11738200966E+03  0.00000000000E+00 0.  1.
        -24    2    1    2    0    0 -0.81355456261E+01 -0.86634228710E+02 -0.67230396468E+02  0.13614062973E+03  0.80266233039E+02 0.  0.
         25    2    1    2    0    0  0.20640401326E+02  0.13926277205E+03  0.68744818579E+03  0.71277741831E+03  0.12508594667E+03 0.  0.
         24    2    1    2    0    0 -0.12504855700E+02 -0.52628543342E+02  0.77193807466E+03  0.77800183527E+03  0.80450789873E+02 0.  0.
        -11    1    5    5    0    0 -0.12004842591E+02 -0.49832904290E+02  0.21388082061E+03  0.21993735477E+03  0.00000000000E+00 0.  1.
         12    1    5    5    0    0 -0.50001310872E+00 -0.27956390525E+01  0.55805725405E+03  0.55806448051E+03  0.00000000000E+00 0. -1.
         13    1    3    3    0    0  0.35469802956E+02 -0.27517378522E+02 -0.23995570581E+02  0.50902853063E+02  0.00000000000E+00 0. -1.
        -14    1    3    3    0    0 -0.43605348582E+02 -0.59116850188E+02 -0.43234825887E+02  0.85237776664E+02  0.00000000000E+00 0.  1.
          5    1    4    4  501    0 -0.37030954407E+02  0.61509779306E+02  0.45943119774E+03  0.46502606635E+03  0.41800000000E+01 0. -1.
         -5    1    4    4    0  501  0.57671355733E+02  0.77752992746E+02  0.22801698805E+03  0.24775135195E+03  0.41800000000E+01 0. -1.
</event>
<event>
11    1  0.8299058E-009  0.1365519E+03  0.7561462E-02  0.1111471E+00
         22   -1    0    0    0    0  0.00000000000E+00  0.00000000000E+00  0.28945477686E+03  0.28945477686E+03  0.00000000000E+00 0. -1.
         22   -1    0    0    0    0 -0.00000000000E+00 -0.00000000000E+00 -0.42008730544E+03  0.42008730544E+03  0.00000000000E+00 0. -1.
        -24    2    1    2    0    0 -0.17029601801E+02  0.65873083398E+01 -0.23646115854E+03  0.24358179035E+03  0.55541058018E+02 0.  0.
         25    2    1    2    0    0  0.60864027912E+02 -0.37864257122E+02 -0.14046089115E+03  0.20128587006E+03  0.12509439508E+03 0.  0.
         24    2    1    2    0    0 -0.43834426110E+02  0.31276948783E+02  0.24628952111E+03  0.26467442190E+03  0.80587325073E+02 0.  0.
        -11    1    5    5    0    0  0.14209050153E+02 -0.15545304595E+02  0.38131710029E+02  0.43561231742E+02  0.00000000000E+00 0.  1.
         12    1    5    5    0    0 -0.58043476263E+02  0.46822253377E+02  0.20815781108E+03  0.22111319015E+03  0.00000000000E+00 0. -1.
         13    1    3    3    0    0 -0.46496633919E+00 -0.68403918505E+01 -0.20752129979E+03  0.20763452753E+03  0.00000000000E+00 0. -1.
        -14    1    3    3    0    0 -0.16564635462E+02  0.13427700190E+02 -0.28939858747E+02  0.35947262826E+02  0.00000000000E+00 0.  1.
          5    1    4    4  501    0 -0.42235987395E+01  0.34637148389E+02 -0.67430373986E+01  0.35784239383E+02  0.41800000000E+01 0. -1.
         -5    1    4    4    0  501  0.65087626651E+02 -0.72501405512E+02 -0.13371785375E+03  0.16550163067E+03  0.41800000000E+01 0. -1.
</event>
<event>
11    1  0.8299058E-009  0.3254934E+03  0.7561462E-02  0.9899441E-01
         22   -1    0    0    0    0  0.00000000000E+00  0.00000000000E+00  0.30270127265E+04  0.30270127265E+04  0.00000000000E+00 0.  1.
         22   -1    0    0    0    0 -0.00000000000E+00 -0.00000000000E+00 -0.75595503090E+02  0.75595503090E+02  0.00000000000E+00 0. -1.
         24    2    1    2    0    0  0.82223236916E+02  0.28649217721E+03  0.35058005892E+03  0.46704987525E+03  0.79942354048E+02 0.  0.
         25    2    1    2    0    0 -0.85812480844E+02 -0.29979477467E+03  0.18858415854E+04  0.19155383208E+04  0.12509150555E+03 0.  0.
        -24    2    1    2    0    0  0.35892439275E+01  0.13302597465E+02  0.71499557916E+03  0.72002003352E+03  0.83787401698E+02 0.  0.
        -13    1    3    3    0    0  0.53674067271E+02  0.13777906108E+03  0.23021790142E+03  0.27361333539E+03  0.00000000000E+00 0.  1.
         14    1    3    3    0    0  0.28549169645E+02  0.14871311613E+03  0.12036215750E+03  0.19343653986E+03  0.00000000000E+00 0. -1.
         11    1    5    5    0    0 -0.34927461147E+02 -0.12505743280E+02  0.38500917487E+03  0.38679243257E+03  0.00000000000E+00 0. -1.
        -12    1    5    5    0    0  0.38516705074E+02  0.25808340745E+02  0.32998640429E+03  0.33322760095E+03  0.00000000000E+00 0.  1.
          5    1    4    4  501    0  0.16547699380E+02 -0.66878495825E+02  0.65788953214E+03  0.66150031630E+03  0.41800000000E+01 0. -1.
         -5    1    4    4    0  501 -0.10236018022E+03 -0.23291627885E+03  0.12279520532E+04  0.12540380046E+04  0.41800000000E+01 0. -1.
</event>
<event>
11    1  0.8299058E-009  0.1377138E+03  0.7561462E-02  0.1110138E+00
         22   -1    0    0    0    0  0.00000000000E+00  0.00000000000E+00  0.20393622122E+04  0.20393622122E+04  0.00000000000E+00 0.  1.
         22   -1    0    0    0    0 -0.00000000000E+00 -0.00000000000E+00 -0.61935915435E+03  0.61935915435E+03  0.00000000000E+00 0. -1.
        -24    2    1    2    0    0 -0.53295616186E+02 -0.20354128899E+02 -0.53970204062E+03  0.54859216203E+03  0.80127113513E+02 0.  0.
         25    2    1    2    0    0  0.69339839658E+02  0.28669807330E+01 -0.54578852322E+01  0.14315650048E+03  0.12509101557E+03 0.  0.
         24    2    1    2    0    0 -0.16044223472E+02  0.17487148166E+02  0.19651629838E+04  0.19669727041E+04  0.80949665964E+02 0.  0.
        -13    1    5    5    0    0  0.39926830734E+01  0.29513417977E+01  0.17961210888E+04  0.17961279513E+04  0.00000000000E+00 0.  1.
         14    1    5    5    0    0 -0.20036906545E+02  0.14535806369E+02  0.16904189499E+03  0.17084475278E+03  0.00000000000E+00 0. -1.
         11    1    3    3    0    0 -0.10820538871E+02 -0.41699123228E+02 -0.36516454099E+03  0.36769694442E+03  0.00000000000E+00 0. -1.
        -12    1    3    3    0    0 -0.42475077315E+02  0.21344994329E+02 -0.17453749963E+03  0.18089521761E+03  0.00000000000E+00 0.  1.
          5    1    4    4  501    0  0.86423841770E+02  0.41082644104E+02 -0.21442231751E+02  0.98153480709E+02  0.41800000000E+01 0. -1.
         -5    1    4    4    0  501 -0.17084002112E+02 -0.38215663371E+02  0.15984346519E+02  0.45003019773E+02  0.41800000000E+01 0. -1.
</event>
<event>
11    1  0.8299058E-009  0.1403047E+03  0.7561462E-02  0.1107219E+00
         22   -1    0    0    0    0  0.00000000000E+00  0.00000000000E+00  0.13688034947E+03  0.13688034947E+03  0.00000000000E+00 0.  1.
         22   -1    0    0    0    0 -0.00000000000E+00 -0.00000000000E+00 -0.39632413505E+03  0.39632413505E+03  0.00000000000E+00 0.  1.
         24    2    1    2    0    0 -0.44496786070E+02 -0.35877296677E+02 -0.18668156782E+03  0.21127694395E+03  0.80751438950E+02 0.  0.
         25    2    1    2    0    0  0.61099484404E+02  0.50961806014E+02 -0.14694745201E+03  0.20874018718E+03  0.12509460190E+03 0.  0.
        -24    2    1    2    0    0 -0.16602698334E+02 -0.15084509337E+02  0.74185234250E+02  0.11318735339E+03  0.82490823564E+02 0.  0.
        -11    1    3    3    0    0 -0.41167015345E+02 -0.49278497330E+01 -0.17187826160E+03  0.17680821153E+03  0.00000000000E+00 0.  1.
         12    1    3    3    0    0 -0.33297707242E+01 -0.30949446944E+02 -0.14803306225E+02  0.34468732417E+02  0.00000000000E+00 0. -1.
         13    1    5    5    0    0 -0.44190338211E+02  0.89473597828E+01  0.23986855591E+02  0.51070642050E+02  0.00000000000E+00 0. -1.
        -14    1    5    5    0    0  0.27587639877E+02 -0.24031869119E+02  0.50198378659E+02  0.62116711337E+02  0.00000000000E+00 0.  1.
          5    1    4    4  501    0  0.78038237027E+00  0.49565226511E+02 -0.13913095142E+03  0.14775728313E+03  0.41800000000E+01 0. -1.
         -5    1    4    4    0  501  0.60319102034E+02  0.13965795029E+01 -0.78165005896E+01  0.60982904046E+02  0.41800000000E+01 0. -1.
</event>
<event>
11    1  0.8299058E-009  0.1754077E+03  0.7561462E-02  0.1073419E+00
         22   -1    0    0    0    0  0.00000000000E+00  0.00000000000E+00  0.69887592593E+03  0.69887592593E+03  0.00000000000E+00 0. -1.
         22   -1    0    0    0    0 -0.00000000000E+00 -0.00000000000E+00 -0.24017634124E+04  0.24017634124E+04  0.00000000000E+00 0.  1.
         24    2    1    2    0    0 -0.10679473753E+03 -0.59033478397E+02 -0.19521879058E+04  0.19572290894E+04  0.69411967128E+02 0.  0.
         25    2    1    2    0    0  0.91902684616E+02  0.10092179476E+03 -0.42460566853E+03  0.46321582980E+03  0.12509044382E+03 0.  0.
        -24    2    1    2    0    0  0.14892052911E+02 -0.41888316359E+02  0.67390608791E+03  0.68019441911E+03  0.80861784428E+02 0.  0.
        -13    1    3    3    0    0 -0.81472163201E+02 -0.67148773733E+01 -0.10573976552E+04  0.10605529710E+04  0.00000000000E+00 0.  1.
         14    1    3    3    0    0 -0.25322574326E+02 -0.52318601024E+02 -0.89479025059E+03  0.89667611841E+03  0.00000000000E+00 0. -1.
         11    1    5    5    0    0 -0.10023321990E+01  0.37102875212E+01  0.49118634171E+03  0.49120137743E+03  0.00000000000E+00 0. -1.
        -12    1    5    5    0    0  0.15894385110E+02 -0.45598603881E+02  0.18271974620E+03  0.18899304168E+03  0.00000000000E+00 0.  1.
          5    1    4    4  501    0 -0.11272784650E+02  0.50024596702E+02 -0.51672700496E+02  0.72918285261E+02  0.41800000000E+01 0. -1.
         -5    1    4    4    0  501  0.10317546927E+03  0.50897198055E+02 -0.37293296803E+03  0.39029754454E+03  0.41800000000E+01 0. -1.
</event>
<event>
11    1  0.8299058E-009  0.2501618E+03  0.7561462E-02  0.1023813E+00
         22   -1    0    0    0    0  0.00000000000E+00  0.00000000000E+00  0.15427328721E+03  0.15427328721E+03  0.00000000000E+00 0. -1.
         22   -1    0    0    0    0 -0.00000000000E+00 -0.00000000000E+00 -0.78242193703E+03  0.78242193703E+03  0.00000000000E+00 0. -1.
         24    2    1    2    0    0 -0.20302858362E+03  0.76061816164E+02 -0.42681459302E+03  0.48556149400E+03  0.81198903928E+02 0.  0.
         25    2    1    2    0    0  0.16109958151E+03 -0.16664541514E+03 -0.18601096417E+03  0.32244852506E+03  0.12509677443E+03 0.  0.
        -24    2    1    2    0    0  0.41929002104E+02  0.90583598977E+02 -0.15323092623E+02  0.12868520517E+03  0.79759985215E+02 0.  0.
        -13    1    3    3    0    0 -0.93458405485E+02  0.34305777597E+02 -0.28301629030E+03  0.30001596709E+03  0.00000000000E+00 0.  1.
         14    1    3    3    0    0 -0.10957017813E+03  0.41756038567E+02 -0.14379830272E+03  0.18554552691E+03  0.00000000000E+00 0. -1.
         13    1    5    5    0    0  0.35982008982E+02  0.87286174542E+01 -0.26949757429E+02  0.45795012376E+02  0.00000000000E+00 0. -1.
        -14    1    5    5    0    0  0.59469931225E+01  0.81854981523E+02  0.11626664806E+02  0.82890192797E+02  0.00000000000E+00 0.  1.
          5    1    4    4  501    0  0.17371682025E+03 -0.14028545316E+03 -0.18927699537E+03  0.29274698186E+03  0.41800000000E+01 0.  1.
         -5    1    4    4    0  501 -0.12617238742E+02 -0.26359961977E+02  0.32660312040E+01  0.29701543204E+02  0.41800000000E+01 0.  1.
</event>
<event>
11    1  0.8299058E-009  0.2146044E+03  0.7561462E-02  0.1044651E+00
         22   -1    0    0    0    0  0.00000000000E+00  0.00000000000E+00  0.71033165892E+03  0.71033165892E+03  0.00000000000E+00 0. -1.
         22   -1    0    0    0    0 -0.00000000000E+00 -0.00000000000E+00 -0.32028481421E+04  0.32028481421E+04  0.00000000000E+00 0.  1.
        -24    2    1    2    0    0  0.77463288432E+02  0.15628718993E+03 -0.31121990975E+04  0.31180845756E+04  0.79006022518E+02 0.  0.
         25    2    1    2    0    0 -0.59314731891E+02 -0.16248568952E+03  0.49816728352E+02  0.21920055814E+03  0.12508933427E+03 0.  0.
         24    2    1    2    0    0 -0.18148556541E+02  0.61984995899E+01  0.56986588589E+03  0.57589466731E+03  0.80868711142E+02 0.  0.
        -13    1    5    5    0    0 -0.12002108471E+02  0.32800455465E+02  0.11444451597E+03  0.11965562136E+03  0.00000000000E+00 0.  1.
         14    1    5    5    0    0 -0.61464480696E+01 -0.26601955875E+02  0.45542136991E+03  0.45623904595E+03  0.00000000000E+00 0. -1.
         13    1    3    3    0    0  0.97885386356E+01  0.78879258993E+02 -0.18490811583E+04  0.18507887192E+04  0.00000000000E+00 0. -1.
        -14    1    3    3    0    0  0.67674749796E+02  0.77407930934E+02 -0.12631179391E+04  0.12672958564E+04  0.00000000000E+00 0.  1.
          5    1    4    4  501    0 -0.37796631024E+02 -0.67643488765E+02 -0.39514411623E+02  0.87080927963E+02  0.41800000000E+01 0. -1.
         -5    1    4    4    0  501 -0.21518100867E+02 -0.94842200752E+02  0.89331139976E+02  0.13211963018E+03  0.41800000000E+01 0. -1.
</event>
<event>
11    1  0.8299058E-009  0.1482955E+03  0.7561462E-02  0.1098633E+00
         22   -1    0    0    0    0  0.00000000000E+00  0.00000000000E+00  0.21816164194E+03  0.21816164194E+03  0.00000000000E+00 0.  1.
         22   -1    0    0    0    0 -0.00000000000E+00 -0.00000000000E+00 -0.11213251156E+04  0.11213251156E+04  0.00000000000E+00 0. -1.
         24    2    1    2    0    0 -0.75991089300E+02 -0.48084258305E+01 -0.10148976942E+04  0.10210659510E+04  0.82222745565E+02 0.  0.
         25    2    1    2    0    0  0.29732351050E+02  0.77711093760E+02 -0.10050419340E+02  0.15060846831E+03  0.12513541867E+03 0.  0.
        -24    2    1    2    0    0  0.46258738250E+02 -0.72902667930E+02  0.12178463993E+03  0.16781233822E+03  0.76647325336E+02 0.  0.
        -11    1    3    3    0    0  0.17933979633E+02  0.91639618095E+00 -0.16695355658E+03  0.16791651932E+03  0.00000000000E+00 0.  1.
         12    1    3    3    0    0 -0.93925068933E+02 -0.57248220115E+01 -0.84794413766E+03  0.85314943167E+03  0.00000000000E+00 0. -1.
         13    1    5    5    0    0  0.39090547961E+02 -0.67095159689E+01  0.79764153736E+02  0.89080911343E+02  0.00000000000E+00 0. -1.
        -14    1    5    5    0    0  0.71681902889E+01 -0.66193151961E+02  0.42020486192E+02  0.78731426879E+02  0.00000000000E+00 0.  1.
          5    1    4    4  501    0 -0.15227908699E+02  0.90419747710E+02 -0.34070661214E+02  0.97907621434E+02  0.41800000000E+01 0. -1.
         -5    1    4    4    0  501  0.44960259749E+02 -0.12708653950E+02  0.24020241875E+02  0.52700846878E+02  0.41800000000E+01 0. -1.
</event>
<event>
11    1  0.8299058E-009  0.1629813E+03  0.7561462E-02  0.1084306E+00
         22   -1    0    0    0    0  0.00000000000E+00  0.00000000000E+00  0.55945824655E+03  0.55945824655E+03  0.00000000000E+00 0.  1.
         22   -1    0    0    0    0 -0.00000000000E+00 -0.00000000000E+00 -0.21173576912E+04  0.21173576912E+04  0.00000000000E+00 0.  1.
        -24    2    1    2    0    0 -0.41074577124E+01 -0.11315199557E+02 -0.20292205326E+04  0.20307629682E+04  0.78213540249E+02 0.  0.
         25    2    1    2    0    0 -0.98574271274E+02  0.31557950329E+02  0.61179387595E+01  0.16247690784E+03  0.12509406548E+03 0.  0.
         24    2    1    2    0    0  0.10268172899E+03 -0.20242750772E+02  0.46520314925E+03  0.48357606173E+03  0.80489322179E+02 0.  0.
        -13    1    5    5    0    0  0.61054677326E+02  0.16484174601E+02  0.35033467707E+03  0.35599689268E+03  0.00000000000E+00 0.  1.
         14    1    5    5    0    0  0.41627051660E+02 -0.36726925374E+02  0.11486847217E+03  0.12757916906E+03  0.00000000000E+00 0. -1.
         11    1    3    3    0    0 -0.35811825414E+01 -0.10263216007E+01 -0.38184207936E+01  0.53346547948E+01  0.00000000000E+00 0. -1.
        -12    1    3    3    0    0 -0.52627517096E+00 -0.10288877956E+02 -0.20254021118E+04  0.20254283134E+04  0.00000000000E+00 0.  1.
          5    1    4    4  501    0 -0.10241665907E+03  0.69247597063E+02 -0.99101343573E+00  0.12370471398E+03  0.41800000000E+01 0. -1.
         -5    1    4    4    0  501  0.38423877965E+01 -0.37689646733E+02  0.71089521953E+01  0.38772193853E+02  0.41800000000E+01 0. -1.
</event>
<event>
11    1  0.8299058E-009  0.1325181E+03  0.7561462E-02  0.1116213E+00
         22   -1    0    0    0    0  0.00000000000E+00  0.00000000000E+00  0.13066008904E+04  0.13066008904E+04  0.00000000000E+00 0.  1.
         22   -1    0    0    0    0 -0.00000000000E+00 -0.00000000000E+00 -0.66675308434E+03  0.66675308434E+03  0.00000000000E+00 0.  1.
         24    2    1    2    0    0 -0.15198816055E+02 -0.42164261116E+02 -0.61320835260E+03  0.62120696973E+03  0.88683632151E+02 0.  0.
         25    2    1    2    0    0  0.16322398262E+02  0.16209424415E+02  0.36012923071E+02  0.13219198156E+03  0.12509445726E+03 0.  0.
        -24    2    1    2    0    0 -0.11235822072E+01  0.25954836701E+02  0.12170432356E+04  0.12199550235E+04  0.80131803475E+02 0.  0.
        -13    1    3    3    0    0 -0.91921059509E+01 -0.32459616243E+02 -0.60751785935E+03  0.60845383632E+03  0.00000000000E+00 0.  1.
         14    1    3    3    0    0 -0.60067101040E+01 -0.97046448725E+01 -0.56904932543E+01  0.12753133413E+02  0.00000000000E+00 0. -1.
         13    1    5    5    0    0  0.17646716751E+02  0.37304184022E+00  0.61670272635E+02  0.64146459756E+02  0.00000000000E+00 0. -1.
        -14    1    5    5    0    0 -0.18770298958E+02  0.25581794861E+02  0.11553729630E+04  0.11558085637E+04  0.00000000000E+00 0.  1.
          5    1    4    4  501    0 -0.44136310786E+02  0.41857477919E+02  0.12003140783E+02  0.62141855269E+02  0.41800000000E+01 0.  1.
         -5    1    4    4    0  501  0.60458709049E+02 -0.25648053504E+02  0.24009782288E+02  0.70050126294E+02  0.41800000000E+01 0.  1.
</event>
<event>
11    1  0.8299058E-009  0.1577093E+03  0.7561462E-02  0.1089252E+00
         22   -1    0    0    0    0  0.00000000000E+00  0.00000000000E+00  0.14138584155E+04  0.14138584155E+04  0.00000000000E+00 0.  1.
         22   -1    0    0    0    0 -0.00000000000E+00 -0.00000000000E+00 -0.25521463012E+03  0.25521463012E+03  0.00000000000E+00 0.  1.
         24    2    1    2    0    0 -0.33910362179E+02  0.88997114208E+02 -0.20725810330E+03  0.24122406949E+03  0.78503065677E+02 0.  0.
         25    2    1    2    0    0  0.16366326828E+02 -0.10836335241E+03  0.20715678962E+03  0.26565370666E+03  0.12508990199E+03 0.  0.
        -24    2    1    2    0    0  0.17544035352E+02  0.19366238198E+02  0.11587450990E+04  0.11621952695E+04  0.85585018756E+02 0.  0.
        -13    1    3    3    0    0 -0.39856616883E+02  0.60903983663E+02 -0.19815514489E+03  0.21110022876E+03  0.00000000000E+00 0.  1.
         14    1    3    3    0    0  0.59462547036E+01  0.28093130545E+02 -0.91029584032E+01  0.30123840733E+02  0.00000000000E+00 0. -1.
         13    1    5    5    0    0 -0.34403623437E+01 -0.28836801119E+02  0.21049385794E+03  0.21248779123E+03  0.00000000000E+00 0. -1.
        -14    1    5    5    0    0  0.20984397695E+02  0.48203039317E+02  0.94825124110E+03  0.94970747823E+03  0.00000000000E+00 0.  1.
          5    1    4    4  501    0  0.57672765081E+02 -0.10850993068E+02  0.57459989696E+02  0.82237550417E+02  0.41800000000E+01 0. -1.
         -5    1    4    4    0  501 -0.41306438254E+02 -0.97512359337E+02  0.14969679992E+03  0.18341615625E+03  0.41800000000E+01 0. -1.
</event>
<event>
11    1  0.8299058E-009  0.2338144E+03  0.7561462E-02  0.1032893E+00
         22   -1    0    0    0    0  0.00000000000E+00  0.00000000000E+00  0.60688755687E+02  0.60688755687E+02  0.00000000000E+00 0. -1.
         22   -1    0    0    0    0 -0.00000000000E+00 -0.00000000000E+00 -0.13942593961E+04  0.13942593961E+04  0.00000000000E+00 0.  1.
         24    2    1    2    0    0 -0.52818577931E+02 -0.11315109885E+02 -0.29091276116E+03  0.30629394181E+03  0.79170135159E+02 0.  0.
         25    2    1    2    0    0 -0.84165777824E+02 -0.14825096183E+03 -0.74946754194E+03  0.77872428713E+03  0.12509073946E+03 0.  0.
        -24    2    1    2    0    0  0.13698435576E+03  0.15956607171E+03 -0.29319033735E+03  0.36992992288E+03  0.81618190151E+02 0.  0.
        -13    1    3    3    0    0 -0.19138270810E+02 -0.44040205648E+02 -0.12654576693E+03  0.13535008035E+03  0.00000000000E+00 0.  1.
         14    1    3    3    0    0 -0.33680307121E+02  0.32725095762E+02 -0.16436699423E+03  0.17094386146E+03  0.00000000000E+00 0. -1.
         13    1    5    5    0    0  0.13634989895E+03  0.16601306384E+03 -0.26568792555E+03  0.34167485435E+03  0.00000000000E+00 0. -1.
        -14    1    5    5    0    0  0.63445680158E+00 -0.64469921311E+01 -0.27502411792E+02  0.28255068525E+02  0.00000000000E+00 0.  1.
          5    1    4    4  501    0 -0.27966579955E+02 -0.12061121469E+03 -0.29518972432E+03  0.32013066153E+03  0.41800000000E+01 0. -1.
         -5    1    4    4    0  501 -0.56199197869E+02 -0.27639747143E+02 -0.45427781762E+03  0.45859362560E+03  0.41800000000E+01 0. -1.
</event>
<event>
11    1  0.8299058E-009  0.1572474E+03  0.7561462E-02  0.1089695E+00
         22   -1    0    0    0    0  0.00000000000E+00  0.00000000000E+00  0.54056985441E+03  0.54056985441E+03  0.00000000000E+00 0.  1.
         22   -1    0    0    0    0 -0.00000000000E+00 -0.00000000000E+00 -0.30278349276E+03  0.30278349276E+03  0.00000000000E+00 0.  1.
         24    2    1    2    0    0  0.14813433363E+02  0.54121144184E+02 -0.23508345999E+03  0.25468977561E+03  0.80337491742E+02 0.  0.
         25    2    1    2    0    0  0.16749626429E+02 -0.13537873356E+03  0.13180986571E+03  0.22721820478E+03  0.12508525253E+03 0.  0.
        -24    2    1    2    0    0 -0.31563059791E+02  0.81257589374E+02  0.34105995593E+03  0.36144536679E+03  0.81986810260E+02 0.  0.
        -11    1    3    3    0    0  0.76587969158E+00  0.71169567444E+02 -0.20740197495E+03  0.21927442422E+03  0.00000000000E+00 0.  1.
         12    1    3    3    0    0  0.14047553671E+02 -0.17048423261E+02 -0.27681485044E+02  0.35415351389E+02  0.00000000000E+00 0. -1.
         11    1    5    5    0    0  0.13268947393E+02  0.16238844641E+02  0.14560521521E+02  0.25529861479E+02  0.00000000000E+00 0. -1.
        -12    1    5    5    0    0 -0.44832007184E+02  0.65018744733E+02  0.32649943441E+03  0.33591550531E+03  0.00000000000E+00 0.  1.
          5    1    4    4  501    0  0.37835404006E+01  0.24098300193E+02  0.21995944604E+02  0.33110983512E+02  0.41800000000E+01 0. -1.
         -5    1    4    4    0  501  0.12966086028E+02 -0.15947703375E+03  0.10981392111E+03  0.19410722127E+03  0.41800000000E+01 0. -1.
</event>
<event>
11    1  0.8299058E-009  0.1359218E+03  0.7561462E-02  0.1112200E+00
         22   -1    0    0    0    0  0.00000000000E+00  0.00000000000E+00  0.13292879320E+04  0.13292879320E+04  0.00000000000E+00 0.  1.
         22   -1    0    0    0    0 -0.00000000000E+00 -0.00000000000E+00 -0.19674574723E+03  0.19674574723E+03  0.00000000000E+00 0.  1.
         24    2    1    2    0    0 -0.71974914625E+01 -0.60583002311E+02 -0.11947004052E+03  0.15766314797E+03  0.82840048240E+02 0.  0.
         25    2    1    2    0    0  0.13285181311E+02  0.21992487593E+02  0.15580799372E+02  0.12864404217E+03  0.12508542171E+03 0.  0.
        -24    2    1    2    0    0 -0.60876898483E+01  0.38590514717E+02  0.12364314259E+04  0.12397264891E+04  0.81442059048E+02 0.  0.
        -13    1    3    3    0    0  0.63709846871E+01  0.10019604374E+02 -0.68530414369E+02  0.69551417033E+02  0.00000000000E+00 0.  1.
         14    1    3    3    0    0 -0.13568476150E+02 -0.70602606685E+02 -0.50939626151E+02  0.88111730934E+02  0.00000000000E+00 0. -1.
         11    1    5    5    0    0 -0.18149711269E+02  0.35987150967E+02  0.25081148818E+03  0.25402930865E+03  0.00000000000E+00 0. -1.
        -12    1    5    5    0    0  0.12062021420E+02  0.26033637501E+01  0.98561993775E+03  0.98569718045E+03  0.00000000000E+00 0.  1.
          5    1    4    4  501    0  0.57312551641E+02  0.47488211972E+02  0.20622875732E+02  0.77347490298E+02  0.41800000000E+01 0.  1.
         -5    1    4    4    0  501 -0.44027370330E+02 -0.25495724379E+02 -0.50420763594E+01  0.51296551871E+02  0.41800000000E+01 0.  1.
</event>
<event>
11    1  0.8299058E-009  0.2314137E+03  0.7561462E-02  0.1034294E+00
         22   -1    0    0    0    0  0.00000000000E+00  0.00000000000E+00  0.36003842682E+04  0.36003842682E+04  0.00000000000E+00 0.  1.
         22   -1    0    0    0    0 -0.00000000000E+00 -0.00000000000E+00 -0.56718194178E+02  0.56718194178E+02  0.00000000000E+00 0.  1.
         24    2    1    2    0    0  0.16743887801E+03 -0.10279516732E+03  0.20597674669E+03  0.29577775658E+03  0.80345733024E+02 0.  0.
         25    2    1    2    0    0 -0.17179929272E+03  0.75998751702E+02  0.11436051197E+04  0.11656639164E+04  0.12509551912E+03 0.  0.
        -24    2    1    2    0    0  0.43604147035E+01  0.26796415621E+02  0.21940842076E+04  0.21956607894E+04  0.78636702055E+02 0.  0.
        -11    1    3    3    0    0  0.11450681842E+03 -0.11005701345E+03  0.15239247158E+03  0.22010866195E+03  0.00000000000E+00 0.  1.
         12    1    3    3    0    0  0.52932059598E+02  0.72618461262E+01  0.53584275110E+02  0.75669094626E+02  0.00000000000E+00 0. -1.
         11    1    5    5    0    0 -0.17562349311E+02 -0.22549244085E+02  0.89108242517E+03  0.89154068498E+03  0.00000000000E+00 0. -1.
        -12    1    5    5    0    0  0.21922764015E+02  0.49345659706E+02  0.13030017824E+04  0.13041201044E+04  0.00000000000E+00 0.  1.
          5    1    4    4  501    0 -0.39522588956E+02  0.19738138764E+01  0.63300378287E+02  0.74768584782E+02  0.41800000000E+01 0.  1.
         -5    1    4    4    0  501 -0.13227670376E+03  0.74024937826E+02  0.10803047415E+04  0.10908953316E+04  0.41800000000E+01 0.  1.
</event>
<event>
11    1  0.8299058E-009  0.1432167E+03  0.7561462E-02  0.1104019E+00
         22   -1    0    0    0    0  0.00000000000E+00  0.00000000000E+00  0.67203893442E+03  0.67203893442E+03  0.00000000000E+00 0. -1.
         22   -1    0    0    0    0 -0.00000000000E+00 -0.00000000000E+00 -0.13145217862E+04  0.13145217862E+04  0.00000000000E+00 0. -1.
         24    2    1    2    0    0 -0.67670412432E+02 -0.10664213065E+02 -0.12032930254E+04  0.12078716275E+04  0.79666513227E+02 0.  0.
         25    2    1    2    0    0  0.10085940248E+03  0.24970494200E+02 -0.43151031698E+02  0.16824136792E+03  0.12508797581E+03 0.  0.
        -24    2    1    2    0    0 -0.33188990048E+02 -0.14306281136E+02  0.60396120531E+03  0.61044772523E+03  0.81062377058E+02 0.  0.
        -13    1    3    3    0    0 -0.69218917108E+02 -0.64131219593E+01 -0.52718296271E+03  0.53174642715E+03  0.00000000000E+00 0.  1.
         14    1    3    3    0    0  0.15485046764E+01 -0.42510911052E+01 -0.67611006269E+03  0.67612520033E+03  0.00000000000E+00 0. -1.
         11    1    5    5    0    0 -0.36274157858E+02  0.14815601860E+02  0.52096621119E+03  0.52243766115E+03  0.00000000000E+00 0. -1.
        -12    1    5    5    0    0  0.30851678097E+01 -0.29121882996E+02  0.82994994115E+02  0.88010064071E+02  0.00000000000E+00 0.  1.
          5    1    4    4  501    0  0.76904532319E+02  0.27834824126E+01  0.34095486201E+02  0.84273539411E+02  0.41800000000E+01 0.  1.
         -5    1    4    4    0  501  0.23954870161E+02  0.22187011788E+02 -0.77246517899E+02  0.83967828506E+02  0.41800000000E+01 0.  1.
</event>
<event>
11    1  0.8299058E-009  0.1733511E+03  0.7561462E-02  0.1075152E+00
         22   -1    0    0    0    0  0.00000000000E+00  0.00000000000E+00  0.13308215201E+04  0.13308215201E+04  0.00000000000E+00 0. -1.
         22   -1    0    0    0    0 -0.00000000000E+00 -0.00000000000E+00 -0.59877184854E+03  0.59877184854E+03  0.00000000000E+00 0. -1.
         24    2    1    2    0    0 -0.20973073034E+02 -0.24315000565E+01 -0.55784328607E+03  0.56414051192E+03  0.81360945147E+02 0.  0.
         25    2    1    2    0    0  0.11581082607E+03 -0.67903300655E+02  0.22160925134E+03  0.28771737561E+03  0.12509045636E+03 0.  0.
        -24    2    1    2    0    0 -0.94837753037E+02  0.70334800712E+02  0.10682837063E+04  0.10777354812E+04  0.79639855288E+02 0.  0.
        -11    1    3    3    0    0 -0.68203345485E+01 -0.32966851402E+02 -0.11004472469E+03  0.11507898021E+03  0.00000000000E+00 0.  1.
         12    1    3    3    0    0 -0.14152738486E+02  0.30535351346E+02 -0.44779856138E+03  0.44906153171E+03  0.00000000000E+00 0. -1.
         13    1    5    5    0    0 -0.88618951672E+02  0.84736343971E+02  0.10085735442E+04  0.10159990948E+04  0.00000000000E+00 0. -1.
        -14    1    5    5    0    0 -0.62188013648E+01 -0.14401543259E+02  0.59710162140E+02  0.61736386366E+02  0.00000000000E+00 0.  1.
          5    1    4    4  501    0 -0.10308767646E+02 -0.35429527216E+01 -0.10562639054E+02  0.15743727264E+02  0.41800000000E+01 0. -1.
         -5    1    4    4    0  501  0.12611959372E+03 -0.64360347934E+02  0.23217189039E+03  0.27197364834E+03  0.41800000000E+01 0. -1.
</event>
<event>
11    1  0.8299058E-009  0.2107740E+03  0.7561462E-02  0.1047156E+00
         22   -1    0    0    0    0  0.00000000000E+00  0.00000000000E+00  0.18489093573E+04  0.18489093573E+04  0.00000000000E+00 0.  1.
         22   -1    0    0    0    0 -0.00000000000E+00 -0.00000000000E+00 -0.16680380149E+03  0.16680380149E+03  0.00000000000E+00 0.  1.
         24    2    1    2    0    0  0.13190914575E+02  0.25339073983E+02 -0.92512028587E+02  0.12608511006E+03  0.80764538304E+02 0.  0.
         25    2    1    2    0    0  0.51802426258E+02 -0.18014698060E+03  0.19185760644E+03  0.29596132620E+03  0.12508932597E+03 0.  0.
        -24    2    1    2    0    0 -0.64993340833E+02  0.15480790662E+03  0.15827599779E+04  0.15936667225E+04  0.80342096018E+02 0.  0.
        -13    1    3    3    0    0  0.45081826987E+02  0.19520788537E+02 -0.73796843900E+02  0.88653293674E+02  0.00000000000E+00 0.  1.
         14    1    3    3    0    0 -0.31890912412E+02  0.58182854456E+01 -0.18715184686E+02  0.37431816384E+02  0.00000000000E+00 0. -1.
         13    1    5    5    0    0  0.47747115977E+01  0.27462211302E+02  0.99948925555E+02  0.10376299263E+03  0.00000000000E+00 0. -1.
        -14    1    5    5    0    0 -0.69768052431E+02  0.12734569531E+03  0.14828110524E+04  0.14899037299E+04  0.00000000000E+00 0.  1.
          5    1    4    4  501    0  0.58073262880E+01 -0.10561694292E+02  0.93865634479E+02  0.94728581543E+02  0.41800000000E+01 0. -1.
         -5    1    4    4    0  501  0.45995099970E+02 -0.16958528631E+03  0.97991971959E+02  0.20123274466E+03  0.41800000000E+01 0. -1.
</event>
<event>
11    1  0.8299058E-009  0.1666465E+03  0.7561462E-02  0.1080987E+00
         22   -1    0    0    0    0  0.00000000000E+00  0.00000000000E+00  0.10644621519E+04  0.10644621519E+04  0.00000000000E+00 0.  1.
         22   -1    0    0    0    0 -0.00000000000E+00 -0.00000000000E+00 -0.27236232980E+03  0.27236232980E+03  0.00000000000E+00 0. -1.
         24    2    1    2    0    0 -0.11039003694E+03  0.34880802102E+02 -0.20140213590E+03  0.24580807924E+03  0.80350238726E+02 0.  0.
         25    2    1    2    0    0  0.80686810028E+02 -0.76435838914E+01  0.73105462100E+02  0.16603131930E+03  0.12511276798E+03 0.  0.
        -24    2    1    2    0    0  0.29703226910E+02 -0.27237218210E+02  0.92039649591E+03  0.92498508316E+03  0.82725731469E+02 0.  0.
        -13    1    3    3    0    0 -0.99135975853E+02  0.46487648633E+02 -0.11849151115E+03  0.16133592718E+03  0.00000000000E+00 0.  1.
         14    1    3    3    0    0 -0.11254061086E+02 -0.11606846531E+02 -0.82910624751E+02  0.84472152062E+02  0.00000000000E+00 0. -1.
         13    1    5    5    0    0  0.37555734876E+02  0.21023659573E+02  0.41114207056E+03  0.41338871498E+03  0.00000000000E+00 0. -1.
        -14    1    5    5    0    0 -0.78525079659E+01 -0.48260877783E+02  0.50925442534E+03  0.51159636818E+03  0.00000000000E+00 0.  1.
          5    1    4    4  501    0  0.10822267011E+03 -0.21926378966E+02  0.33331103778E+02  0.11541814112E+03  0.41800000000E+01 0. -1.
         -5    1    4    4    0  501 -0.27535860083E+02  0.14282795075E+02  0.39774358322E+02  0.50613178181E+02  0.41800000000E+01 0. -1.
</event>
<event>
11    1  0.8299058E-009  0.1265033E+03  0.7561462E-02  0.1123641E+00
         22   -1    0    0    0    0  0.00000000000E+00  0.00000000000E+00  0.28806296971E+03  0.28806296971E+03  0.00000000000E+00 0.  1.
         22   -1    0    0    0    0 -0.00000000000E+00 -0.00000000000E+00 -0.62993285398E+03  0.62993285398E+03  0.00000000000E+00 0.  1.
        -24    2    1    2    0    0  0.24494451198E+02  0.15278188641E+01 -0.39086012799E+03  0.39987251632E+03  0.80771760434E+02 0.  0.
         25    2    1    2    0    0  0.25345173809E+01  0.46580234564E+01 -0.21074961369E+03  0.24513273223E+03  0.12508611345E+03 0.  0.
         24    2    1    2    0    0 -0.27028968578E+02 -0.61858423205E+01  0.25973985740E+03  0.27299057515E+03  0.79310975332E+02 0.  0.
        -13    1    5    5    0    0 -0.10551096276E+01  0.35125949250E+02  0.11457426756E+03  0.11984243136E+03  0.00000000000E+00 0.  1.
         14    1    5    5    0    0 -0.25973858951E+02 -0.41311791571E+02  0.14516558984E+03  0.15314814379E+03  0.00000000000E+00 0. -1.
         13    1    3    3    0    0  0.33541063757E+02  0.20994458623E+02 -0.90824516079E+02  0.99069990269E+02  0.00000000000E+00 0. -1.
        -14    1    3    3    0    0 -0.90466125598E+01 -0.19466639759E+02 -0.30003561191E+03  0.30080252605E+03  0.00000000000E+00 0.  1.
          5    1    4    4  501    0  0.55958629459E+02 -0.20623961970E+02 -0.67822765592E+02  0.90410817664E+02  0.41800000000E+01 0.  1.
         -5    1    4    4    0  501 -0.53424112078E+02  0.25281985426E+02 -0.14292684810E+03  0.15472191456E+03  0.41800000000E+01 0.  1.
</event>
<event>
11    1  0.8299058E-009  0.1377428E+03  0.7561462E-02  0.1110105E+00
         22   -1    0    0    0    0  0.00000000000E+00  0.00000000000E+00  0.20320750462E+04  0.20320750462E+04  0.00000000000E+00 0. -1.
         22   -1    0    0    0    0 -0.00000000000E+00 -0.00000000000E+00 -0.62523923812E+02  0.62523923812E+02  0.00000000000E+00 0.  1.
        -24    2    1    2    0    0  0.59988906650E+02  0.12467726090E+02  0.20973399274E+01  0.10180551731E+03  0.81276388972E+02 0.  0.
         25    2    1    2    0    0 -0.26743884855E+02 -0.25688910203E+02  0.35998758545E+03  0.38290321168E+03  0.12509457363E+03 0.  0.
         24    2    1    2    0    0 -0.33245021795E+02  0.13221184114E+02  0.16074661970E+04  0.16098902410E+04  0.80740215710E+02 0.  0.
        -13    1    5    5    0    0 -0.89849792387E+01  0.33086814203E+02  0.28535617559E+03  0.28740844468E+03  0.00000000000E+00 0.  1.
         14    1    5    5    0    0 -0.24260042556E+02 -0.19865630089E+02  0.13221100214E+04  0.13224817963E+04  0.00000000000E+00 0. -1.
         11    1    3    3    0    0  0.21533484878E+02  0.14676009661E+02  0.40016873663E+02  0.47753810407E+02  0.00000000000E+00 0. -1.
        -12    1    3    3    0    0  0.38455421772E+02 -0.22082835713E+01 -0.37919533736E+02  0.54051706900E+02  0.00000000000E+00 0.  1.
          5    1    4    4  501    0 -0.62733694800E+02  0.46539539561E+01  0.29991307681E+03  0.30646778263E+03  0.41800000000E+01 0.  1.
         -5    1    4    4    0  501  0.35989809945E+02 -0.30342864159E+02  0.60074508644E+02  0.76435429051E+02  0.41800000000E+01 0.  1.
</event>
<event>
11    1  0.8299058E-009  0.1485526E+03  0.7561462E-02  0.1098367E+00
         22   -1    0    0    0    0  0.00000000000E+00  0.00000000000E+00  0.51183058161E+03  0.51183058161E+03  0.00000000000E+00 0.  1.
         22   -1    0    0    0    0 -0.00000000000E+00 -0.00000000000E+00 -0.58436716391E+03  0.58436716391E+03  0.00000000000E+00 0. -1.
         24    2    1    2    0    0  0.55841253959E+02 -0.44051863044E+02 -0.49910501100E+03  0.51039739410E+03  0.79629615191E+02 0.  0.
         25    2    1    2    0    0 -0.12070423752E+03  0.78340754165E+02  0.54419464245E+02  0.19828056548E+03  0.12508764063E+03 0.  0.
        -24    2    1    2    0    0  0.64862983566E+02 -0.34288891121E+02  0.37214896446E+03  0.38751978595E+03  0.79333461164E+02 0.  0.
        -11    1    3    3    0    0 -0.13429881830E+02  0.35482421532E+00 -0.18867573515E+02  0.23161885859E+02  0.00000000000E+00 0.  1.
         12    1    3    3    0    0  0.69271135790E+02 -0.44406687259E+02 -0.48023743749E+03  0.48723550824E+03  0.00000000000E+00 0. -1.
         11    1    5    5    0    0 -0.28352466663E+01  0.12318409273E+01 -0.32087534721E+01  0.44555756725E+01  0.00000000000E+00 0. -1.
        -12    1    5    5    0    0  0.67698230232E+02 -0.35520732049E+02  0.37535771793E+03  0.38306421027E+03  0.00000000000E+00 0.  1.
          5    1    4    4  501    0 -0.43496790802E+02  0.97596716940E+02  0.51136889215E+02  0.11853077156E+03  0.41800000000E+01 0.  1.
         -5    1    4    4    0  501 -0.77207446723E+02 -0.19255962774E+02  0.32825750298E+01  0.79749793923E+02  0.41800000000E+01 0.  1.
</event>
<event>
11    1  0.8299058E-009  0.1906758E+03  0.7561462E-02  0.1061320E+00
         22   -1    0    0    0    0  0.00000000000E+00  0.00000000000E+00  0.62403312284E+03  0.62403312284E+03  0.00000000000E+00 0. -1.
         22   -1    0    0    0    0 -0.00000000000E+00 -0.00000000000E+00 -0.25905531593E+04  0.25905531593E+04  0.00000000000E+00 0.  1.
        -24    2    1    2    0    0 -0.47843399918E+02  0.13429083359E+03 -0.23737765931E+04  0.23793950413E+04  0.79890110060E+02 0.  0.
         25    2    1    2    0    0 -0.46737981529E+02 -0.20498100182E+03 -0.13161021089E+03  0.27779542901E+03  0.12508957888E+03 0.  0.
         24    2    1    2    0    0  0.94581381447E+02  0.70690168236E+02  0.53886676752E+03  0.55739581184E+03  0.79812031120E+02 0.  0.
        -13    1    5    5    0    0  0.45737448821E+02 -0.10467744309E+02  0.15048836473E+03  0.15763323195E+03  0.00000000000E+00 0.  1.
         14    1    5    5    0    0  0.48843932626E+02  0.81157912545E+02  0.38837840279E+03  0.39976257989E+03  0.00000000000E+00 0. -1.
         11    1    3    3    0    0  0.71050930087E+01  0.36592571182E+02 -0.11193279210E+04  0.11199484334E+04  0.00000000000E+00 0. -1.
        -12    1    3    3    0    0 -0.54948492927E+02  0.97698262406E+02 -0.12544486721E+04  0.12594466079E+04  0.00000000000E+00 0.  1.
          5    1    4    4  501    0  0.20431708891E+02 -0.15977055221E+03 -0.68634299660E+02  0.17513487252E+03  0.41800000000E+01 0.  1.
         -5    1    4    4    0  501 -0.67169690419E+02 -0.45210449612E+02 -0.62975911226E+02  0.10266055650E+03  0.41800000000E+01 0.  1.
</event>
<event>
11    1  0.8299058E-009  0.1745073E+03  0.7561462E-02  0.1074174E+00
         22   -1    0    0    0    0  0.00000000000E+00  0.00000000000E+00  0.97244366656E+02  0.97244366656E+02  0.00000000000E+00 0.  1.
         22   -1    0    0    0    0 -0.00000000000E+00 -0.00000000000E+00 -0.34105459851E+04  0.34105459851E+04  0.00000000000E+00 0.  1.
         24    2    1    2    0    0 -0.63305622770E+02  0.15031052774E+01 -0.25120066727E+04  0.25140683562E+04  0.79701411007E+02 0.  0.
         25    2    1    2    0    0 -0.49315457389E+02 -0.57010800163E+02 -0.82882973796E+03  0.84159845671E+03  0.12508789759E+03 0.  0.
        -24    2    1    2    0    0  0.11262108016E+03  0.55507694885E+02  0.27534792230E+02  0.15212353881E+03  0.81355973282E+02 0.  0.
        -13    1    3    3    0    0 -0.41467677940E+02  0.25174514661E+02 -0.65950596279E+03  0.66128771307E+03  0.00000000000E+00 0.  1.
         14    1    3    3    0    0 -0.21837944830E+02 -0.23671409384E+02 -0.18525007099E+04  0.18527806431E+04  0.00000000000E+00 0. -1.
         11    1    5    5    0    0  0.49066071676E+02  0.31721086021E+02 -0.27666746921E+02  0.64646388711E+02  0.00000000000E+00 0. -1.
        -12    1    5    5    0    0  0.63555008482E+02  0.23786608864E+02  0.55201539151E+02  0.87477150097E+02  0.00000000000E+00 0.  1.
          5    1    4    4  501    0  0.29185875590E+02  0.20260982727E+02 -0.19471053632E+03  0.19796966461E+03  0.41800000000E+01 0.  1.
         -5    1    4    4    0  501 -0.78501332979E+02 -0.77271782889E+02 -0.63411920165E+03  0.64362879209E+03  0.41800000000E+01 0.  1.
</event>
<event>
11    1  0.8299058E-009  0.1291878E+03  0.7561462E-02  0.1120271E+00
         22   -1    0    0    0    0  0.00000000000E+00  0.00000000000E+00  0.84943283322E+03  0.84943283322E+03  0.00000000000E+00 0. -1.
         22   -1    0    0    0    0 -0.00000000000E+00 -0.00000000000E+00 -0.84421812316E+03  0.84421812316E+03  0.00000000000E+00 0.  1.
        -24    2    1    2    0    0  0.56348048707E+00  0.32230105851E+00 -0.82608296852E+03  0.83008214752E+03  0.81381074891E+02 0.  0.
         25    2    1    2    0    0 -0.19327436369E+02  0.25951509650E+02  0.32280325572E+03  0.34769970512E+03  0.12508442102E+03 0.  0.
         24    2    1    2    0    0  0.18763955882E+02 -0.26273810708E+02  0.50849442285E+03  0.51586910375E+03  0.80696684962E+02 0.  0.
        -11    1    5    5    0    0 -0.28303770513E+02  0.29519453736E+01  0.11374775620E+03  0.11725344109E+03  0.00000000000E+00 0.  1.
         12    1    5    5    0    0  0.47067726394E+02 -0.29225756082E+02  0.39474666665E+03  0.39861566266E+03  0.00000000000E+00 0. -1.
         13    1    3    3    0    0  0.15913938578E+02  0.30475879989E+02 -0.18902293044E+03  0.19212418102E+03  0.00000000000E+00 0. -1.
        -14    1    3    3    0    0 -0.15350458091E+02 -0.30153578931E+02 -0.63706003808E+03  0.63795796649E+03  0.00000000000E+00 0.  1.
          5    1    4    4  501    0  0.44030142277E+02  0.25929567919E+02  0.22733519002E+03  0.23304453854E+03  0.41800000000E+01 0. -1.
         -5    1    4    4    0  501 -0.63357578646E+02  0.21941730912E-01  0.95468065709E+02  0.11465516658E+03  0.41800000000E+01 0. -1.
</event>
<event>
11    1  0.8299058E-009  0.1456828E+03  0.7561462E-02  0.1101373E+00
         22   -1    0    0    0    0  0.00000000000E+00  0.00000000000E+00  0.14268784813E+04  0.14268784813E+04  0.00000000000E+00 0.  1.
         22   -1    0    0    0    0 -0.00000000000E+00 -0.00000000000E+00 -0.10832565489E+03  0.10832565489E+03  0.00000000000E+00 0. -1.
         24    2    1    2    0    0  0.66139303350E+02  0.24760621721E+02 -0.50926850051E+02  0.12321697366E+03  0.87185908877E+02 0.  0.
         25    2    1    2    0    0 -0.11566668384E+03 -0.29833316179E+02  0.37554195161E+03  0.41345875439E+03  0.12509027005E+03 0.  0.
        -24    2    1    2    0    0  0.49527380486E+02  0.50726944579E+01  0.99393772482E+03  0.99852840811E+03  0.81658357445E+02 0.  0.
        -13    1    3    3    0    0 -0.10738959793E+02 -0.75236525265E+01 -0.36256044158E+02  0.38554264910E+02  0.00000000000E+00 0.  1.
         14    1    3    3    0    0  0.76878263144E+02  0.32284274247E+02 -0.14670805893E+02  0.84662708752E+02  0.00000000000E+00 0. -1.
         13    1    5    5    0    0 -0.45686557732E+01 -0.21700410133E+02  0.94476863118E+02  0.97044619016E+02  0.00000000000E+00 0. -1.
        -14    1    5    5    0    0  0.54096036259E+02  0.26773104591E+02  0.89946086170E+03  0.90148378909E+03  0.00000000000E+00 0.  1.
          5    1    4    4  501    0 -0.10509638575E+01 -0.55271410244E+02  0.11602341249E+03  0.12858824970E+03  0.41800000000E+01 0. -1.
         -5    1    4    4    0  501 -0.11461571998E+03  0.25438094065E+02  0.25951853911E+03  0.28487050469E+03  0.41800000000E+01 0. -1.
</event>
<event>
11    1  0.8299058E-009  0.1589715E+03  0.7561462E-02  0.1088049E+00
         22   -1    0    0    0    0  0.00000000000E+00  0.00000000000E+00  0.51110738385E+03  0.51110738385E+03  0.00000000000E+00 0. -1.
         22   -1    0    0    0    0 -0.00000000000E+00 -0.00000000000E+00 -0.28965866531E+03  0.28965866531E+03  0.00000000000E+00 0. -1.
         24    2    1    2    0    0 -0.30963196297E+02  0.36119650843E+02 -0.20196623600E+03  0.22253588787E+03  0.80427061388E+02 0.  0.
         25    2    1    2    0    0  0.11104516942E+03  0.19078989083E+02  0.37913704961E+02  0.17256732910E+03  0.12508795534E+03 0.  0.
        -24    2    1    2    0    0 -0.80081973120E+02 -0.55198639926E+02  0.38550124958E+03  0.40566283219E+03  0.80567411042E+02 0.  0.
        -11    1    3    3    0    0 -0.21534107928E+01  0.64447933675E+01  0.68585912423E+01  0.96546783178E+01  0.00000000000E+00 0.  1.
         12    1    3    3    0    0 -0.28809785504E+02  0.29674857476E+02 -0.20882482724E+03  0.21288120955E+03  0.00000000000E+00 0. -1.
         11    1    5    5    0    0 -0.74248281852E+02 -0.44820116230E+02  0.38398922958E+03  0.39366150258E+03  0.00000000000E+00 0. -1.
        -12    1    5    5    0    0 -0.58336912685E+01 -0.10378523696E+02  0.15120199980E+01  0.12001329610E+02  0.00000000000E+00 0.  1.
          5    1    4    4  501    0  0.80434124690E+02 -0.24884810221E+02  0.70354202105E+02  0.10980022016E+03  0.41800000000E+01 0. -1.
         -5    1    4    4    0  501  0.30611044727E+02  0.43963799304E+02 -0.32440497144E+02  0.62767108931E+02  0.41800000000E+01 0. -1.
</event>
<event>
11    1  0.8299058E-009  0.1293077E+03  0.7561462E-02  0.1120122E+00
         22   -1    0    0    0    0  0.00000000000E+00  0.00000000000E+00  0.64274479899E+02  0.64274479899E+02  0.00000000000E+00 0.  1.
         22   -1    0    0    0    0 -0.00000000000E+00 -0.00000000000E+00 -0.85414286991E+03  0.85414286991E+03  0.00000000000E+00 0.  1.
        -24    2    1    2    0    0  0.32180129249E+02  0.94550029411E+01 -0.61410271358E+03  0.62180639006E+03  0.91630159339E+02 0.  0.
         25    2    1    2    0    0 -0.33421040001E+02  0.20947516349E+02 -0.16469424195E+03  0.21054107284E+03  0.12509031003E+03 0.  0.
         24    2    1    2    0    0  0.12409107516E+01 -0.30402519291E+02 -0.11071434477E+02  0.86069886904E+02  0.79747073498E+02 0.  0.
        -13    1    5    5    0    0  0.32443753425E+02 -0.18766296202E+02  0.18260723171E+02  0.41692025858E+02  0.00000000000E+00 0.  1.
         14    1    5    5    0    0 -0.31202842674E+02 -0.11636223089E+02 -0.29332157648E+02  0.44377861046E+02  0.00000000000E+00 0. -1.
         11    1    3    3    0    0 -0.13408028493E+02 -0.20706710482E+02 -0.40256768903E+03  0.40332280786E+03  0.00000000000E+00 0. -1.
        -12    1    3    3    0    0  0.45588157742E+02  0.30161713423E+02 -0.21153502455E+03  0.21848358221E+03  0.00000000000E+00 0.  1.
          5    1    4    4  501    0  0.15588092082E+02  0.55830163498E+02 -0.12636853546E+03  0.13909160624E+03  0.41800000000E+01 0. -1.
         -5    1    4    4    0  501 -0.49009132083E+02 -0.34882647149E+02 -0.38325706491E+02  0.71449466601E+02  0.41800000000E+01 0. -1.
</event>
<event>
11    1  0.8299058E-009  0.1699986E+03  0.7561462E-02  0.1078033E+00
         22   -1    0    0    0    0  0.00000000000E+00  0.00000000000E+00  0.11268169578E+04  0.11268169578E+04  0.00000000000E+00 0.  1.
         22   -1    0    0    0    0 -0.00000000000E+00 -0.00000000000E+00 -0.14233089060E+04  0.14233089060E+04  0.00000000000E+00 0. -1.
         24    2    1    2    0    0  0.12765982831E+02  0.31348613193E+01 -0.13660457489E+04  0.13683298733E+04  0.77928534516E+02 0.  0.
         25    2    1    2    0    0 -0.12568246148E+03 -0.18140179731E+02  0.10502855450E+03  0.20689027582E+03  0.12508973469E+03 0.  0.
        -24    2    1    2    0    0  0.11291647865E+03  0.15005318411E+02  0.96452524628E+03  0.97490571467E+03  0.84598528740E+02 0.  0.
        -11    1    3    3    0    0 -0.17494568419E+02  0.19137485217E+02 -0.18719193177E+03  0.18897915912E+03  0.00000000000E+00 0.  1.
         12    1    3    3    0    0  0.30260551250E+02 -0.16002623898E+02 -0.11788538171E+04  0.11793507142E+04  0.00000000000E+00 0. -1.
         13    1    5    5    0    0  0.64090014782E+02 -0.21321049570E+02  0.29563330918E+03  0.30325100271E+03  0.00000000000E+00 0. -1.
        -14    1    5    5    0    0  0.48826463863E+02  0.36326367982E+02  0.66889193710E+03  0.67165471196E+03  0.00000000000E+00 0.  1.
          5    1    4    4  501    0 -0.32659239871E+02  0.50882573045E+02  0.22699669749E+02  0.64717923292E+02  0.41800000000E+01 0.  1.
         -5    1    4    4    0  501 -0.93023221606E+02 -0.69022752776E+02  0.82328884749E+02  0.14217235253E+03  0.41800000000E+01 0.  1.
</event>
<event>
11    1  0.8299058E-009  0.2078375E+03  0.7561462E-02  0.1049116E+00
         22   -1    0    0    0    0  0.00000000000E+00  0.00000000000E+00  0.23726344252E+02  0.23726344252E+02  0.00000000000E+00 0.  1.
         22   -1    0    0    0    0 -0.00000000000E+00 -0.00000000000E+00 -0.26708748448E+04  0.26708748448E+04  0.00000000000E+00 0. -1.
         24    2    1    2    0    0 -0.83861414802E+02  0.12477713001E+03 -0.10453476220E+04  0.10591640680E+04  0.80466160904E+02 0.  0.
         25    2    1    2    0    0  0.14619960453E+03 -0.11267178165E+03 -0.96174083892E+03  0.98724979497E+03  0.12508981444E+03 0.  0.
        -24    2    1    2    0    0 -0.62338189732E+02 -0.12105348362E+02 -0.64006003968E+03  0.64818732614E+03  0.80233197683E+02 0.  0.
        -13    1    3    3    0    0 -0.65177372868E+02  0.12284530221E+03 -0.72196423750E+03  0.73523562103E+03  0.00000000000E+00 0.  1.
         14    1    3    3    0    0 -0.18684041934E+02  0.19318278015E+01 -0.32338338448E+03  0.32392844694E+03  0.00000000000E+00 0. -1.
         11    1    5    5    0    0 -0.35277927539E+02 -0.30661976863E+02 -0.55583407169E+03  0.55779584460E+03  0.00000000000E+00 0. -1.
        -12    1    5    5    0    0 -0.27060262193E+02  0.18556628501E+02 -0.84225967991E+02  0.90391481542E+02  0.00000000000E+00 0.  1.
          5    1    4    4  501    0  0.16509627393E+03 -0.11421193448E+03 -0.82213905605E+03  0.84630446384E+03  0.41800000000E+01 0. -1.
         -5    1    4    4    0  501 -0.18896669397E+02  0.15401528298E+01 -0.13960178287E+03  0.14094533113E+03  0.41800000000E+01 0. -1.
</event>
<event>
11    1  0.8299058E-009  0.2609422E+03  0.7561462E-02  0.1018226E+00
         22   -1    0    0    0    0  0.00000000000E+00  0.00000000000E+00  0.98378969654E+03  0.98378969654E+03  0.00000000000E+00 0.  1.
         22   -1    0    0    0    0 -0.00000000000E+00 -0.00000000000E+00 -0.40867978021E+03  0.40867978021E+03  0.00000000000E+00 0. -1.
        -24    2    1    2    0    0 -0.47127872603E+02 -0.11830263001E+03 -0.30391110734E+03  0.33852925605E+03  0.77611515839E+02 0.  0.
         25    2    1    2    0    0 -0.11796437865E+03  0.25886160606E+03  0.30232277889E+03  0.43355691540E+03  0.12509040945E+03 0.  0.
         24    2    1    2    0    0  0.16509225125E+03 -0.14055897605E+03  0.57669824478E+03  0.62038330530E+03  0.72679452305E+02 0.  0.
        -13    1    5    5    0    0  0.46505984543E+02 -0.84076530401E+02  0.27609496741E+03  0.29233559583E+03  0.00000000000E+00 0.  1.
         14    1    5    5    0    0  0.11858626671E+03 -0.56482445651E+02  0.30060327737E+03  0.32804770947E+03  0.00000000000E+00 0. -1.
         13    1    3    3    0    0 -0.16007379878E+02 -0.81867077943E+02 -0.26169433495E+03  0.27466776223E+03  0.00000000000E+00 0. -1.
        -14    1    3    3    0    0 -0.31120492725E+02 -0.36435552065E+02 -0.42216772391E+02  0.63861493819E+02  0.00000000000E+00 0.  1.
          5    1    4    4  501    0 -0.11284090543E+03  0.12851504064E+03  0.22213997850E+03  0.28037979253E+03  0.41800000000E+01 0. -1.
         -5    1    4    4    0  501 -0.51234732182E+01  0.13034656542E+03  0.80182800388E+02  0.15317712288E+03  0.41800000000E+01 0. -1.
</event>
<event>
11    1  0.8299058E-009  0.1710432E+03  0.7561462E-02  0.1077127E+00
         22   -1    0    0    0    0  0.00000000000E+00  0.00000000000E+00  0.51454435396E+03  0.51454435396E+03  0.00000000000E+00 0.  1.
         22   -1    0    0    0    0 -0.00000000000E+00 -0.00000000000E+00 -0.38624372317E+03  0.38624372317E+03  0.00000000000E+00 0. -1.
        -24    2    1    2    0    0 -0.37483864379E+02 -0.71657140573E+02 -0.24042551807E+03  0.26636193322E+03  0.81267852473E+02 0.  0.
         25    2    1    2    0    0 -0.67883789490E+02  0.89472000065E+01 -0.79329145405E+02  0.16317645034E+03  0.12508069144E+03 0.  0.
         24    2    1    2    0    0  0.10536765387E+03  0.62709940567E+02  0.44805529427E+03  0.47124969356E+03  0.79295950933E+02 0.  0.
        -13    1    5    5    0    0  0.41583283295E+02 -0.16101427890E+01  0.25028875940E+03  0.25372470336E+03  0.00000000000E+00 0.  1.
         14    1    5    5    0    0  0.63784370573E+02  0.64320083356E+02  0.19776653486E+03  0.21752499020E+03  0.00000000000E+00 0. -1.
         13    1    3    3    0    0 -0.30447302596E+02  0.74747000733E+00 -0.13421501706E+03  0.13762727836E+03  0.00000000000E+00 0. -1.
        -14    1    3    3    0    0 -0.70365617829E+01 -0.72404610581E+02 -0.10621050101E+03  0.12873465485E+03  0.00000000000E+00 0.  1.
          5    1    4    4  501    0 -0.28534861869E+02  0.39446730301E+02 -0.98268134094E+02  0.10974689723E+03  0.41800000000E+01 0.  1.
         -5    1    4    4    0  501 -0.39348927621E+02 -0.30499530295E+02  0.18938988689E+02  0.53429553111E+02  0.41800000000E+01 0.  1.
</event>
<event>
11    1  0.8299058E-009  0.1437944E+03  0.7561462E-02  0.1103394E+00
         22   -1    0    0    0    0  0.00000000000E+00  0.00000000000E+00  0.17988466966E+03  0.17988466966E+03  0.00000000000E+00 0.  1.
         22   -1    0    0    0    0 -0.00000000000E+00 -0.00000000000E+00 -0.13828764223E+04  0.13828764223E+04  0.00000000000E+00 0.  1.
         24    2    1    2    0    0  0.72851538396E+01 -0.33838481594E+01 -0.84932310173E+03  0.85305202481E+03  0.79268543580E+02 0.  0.
         25    2    1    2    0    0  0.57788512218E+01 -0.66477100545E+02 -0.50484111501E+03  0.52437010906E+03  0.12508740886E+03 0.  0.
        -24    2    1    2    0    0 -0.13064005061E+02  0.69860948705E+02  0.15117246415E+03  0.18533895804E+03  0.80288200041E+02 0.  0.
        -11    1    3    3    0    0  0.42001760545E+02  0.48405251314E+01 -0.37131848452E+03  0.37371780199E+03  0.00000000000E+00 0.  1.
         12    1    3    3    0    0 -0.34716606706E+02 -0.82243732908E+01 -0.47800461721E+03  0.47933422283E+03  0.00000000000E+00 0. -1.
         11    1    5    5    0    0  0.10091995841E+02 -0.69186326161E+01 -0.20424267766E+01  0.12405134601E+02  0.00000000000E+00 0. -1.
        -12    1    5    5    0    0 -0.23156000902E+02  0.76779581321E+02  0.15321489093E+03  0.17293382344E+03  0.00000000000E+00 0.  1.
          5    1    4    4  501    0  0.32239542367E+02 -0.34931515069E+02 -0.46323366680E+03  0.46568498074E+03  0.41800000000E+01 0. -1.
         -5    1    4    4    0  501 -0.26460691145E+02 -0.31545585476E+02 -0.41607448215E+02  0.58685128319E+02  0.41800000000E+01 0. -1.
</event>
<event>
11    1  0.8299058E-009  0.2026815E+03  0.7561462E-02  0.1052643E+00
         22   -1    0    0    0    0  0.00000000000E+00  0.00000000000E+00  0.90983811767E+03  0.90983811767E+03  0.00000000000E+00 0. -1.
         22   -1    0    0    0    0 -0.00000000000E+00 -0.00000000000E+00 -0.87661603337E+03  0.87661603337E+03  0.00000000000E+00 0.  1.
         24    2    1    2    0    0  0.70794757811E+02  0.12745237287E+03 -0.54347799301E+03  0.56845015645E+03  0.80692294570E+02 0.  0.
         25    2    1    2    0    0 -0.13227415220E+03 -0.16914366677E+03 -0.26841863007E+03  0.36579024035E+03  0.12509159689E+03 0.  0.
        -24    2    1    2    0    0  0.61479394392E+02  0.41691293895E+02  0.84511870738E+03  0.85221375425E+03  0.80776069748E+02 0.  0.
        -11    1    3    3    0    0  0.76668612982E+02  0.84440228842E+02 -0.29638108223E+03  0.31756884981E+03  0.00000000000E+00 0.  1.
         12    1    3    3    0    0 -0.58738551712E+01  0.43012144029E+02 -0.24709691077E+03  0.25088130664E+03  0.00000000000E+00 0. -1.
         13    1    5    5    0    0  0.60709858981E+02  0.25910374964E+02  0.81922806779E+03  0.82188299749E+03  0.00000000000E+00 0. -1.
        -14    1    5    5    0    0  0.76953541096E+00  0.15780918931E+02  0.25890639583E+02  0.30330756751E+02  0.00000000000E+00 0.  1.
          5    1    4    4  501    0 -0.13396014685E+03 -0.10726175680E+03 -0.13409394601E+03  0.21782806102E+03  0.41800000000E+01 0.  1.
         -5    1    4    4    0  501  0.16859946449E+01 -0.61881909971E+02 -0.13432468407E+03  0.14796217932E+03  0.41800000000E+01 0.  1.
</event>
<event>
11    1  0.8299058E-009  0.1334434E+03  0.7561462E-02  0.1115109E+00
         22   -1    0    0    0    0  0.00000000000E+00  0.00000000000E+00  0.18887860587E+04  0.18887860587E+04  0.00000000000E+00 0.  1.
         22   -1    0    0    0    0 -0.00000000000E+00 -0.00000000000E+00 -0.21988817791E+03  0.21988817791E+03  0.00000000000E+00 0. -1.
         24    2    1    2    0    0  0.17691004680E+02 -0.63976647537E+01 -0.18257334365E+03  0.19918900223E+03  0.77390768418E+02 0.  0.
         25    2    1    2    0    0 -0.53302393818E+02  0.35278643125E+02  0.14824339807E+03  0.20422848873E+03  0.12508973855E+03 0.  0.
        -24    2    1    2    0    0  0.35611389138E+02 -0.28880978371E+02  0.17032278264E+04  0.17052567457E+04  0.69377648641E+02 0.  0.
        -13    1    3    3    0    0 -0.11240709582E+02 -0.36062270540E+02 -0.76741129369E+02  0.85533863734E+02  0.00000000000E+00 0.  1.
         14    1    3    3    0    0  0.28931714262E+02  0.29664605786E+02 -0.10583221428E+03  0.11365513849E+03  0.00000000000E+00 0. -1.
         11    1    5    5    0    0  0.42026805213E+02 -0.30062684581E+02  0.66369120583E+03  0.66569965755E+03  0.00000000000E+00 0. -1.
        -12    1    5    5    0    0 -0.64154160754E+01  0.11817062097E+01  0.10395366206E+04  0.10395570881E+04  0.00000000000E+00 0.  1.
          5    1    4    4  501    0 -0.25695133737E+02 -0.44868673722E+02  0.79890631796E+02  0.95254518151E+02  0.41800000000E+01 0. -1.
         -5    1    4    4    0  501 -0.27607260080E+02  0.80147316847E+02  0.68352766276E+02  0.10897397058E+03  0.41800000000E+01 0. -1.
</event>
<event>
11    1  0.8299058E-009  0.1383537E+03  0.7561462E-02  0.1109411E+00
         22   -1    0    0    0    0  0.00000000000E+00  0.00000000000E+00  0.44527238152E+03  0.44527238152E+03  0.00000000000E+00 0. -1.
         22   -1    0    0    0    0 -0.00000000000E+00 -0.00000000000E+00 -0.36801133331E+03  0.36801133331E+03  0.00000000000E+00 0.  1.
         24    2    1    2    0    0  0.47734473100E+02 -0.38059204702E+02 -0.30333722640E+03  0.32031854617E+03  0.82845730799E+02 0.  0.
         25    2    1    2    0    0 -0.38839024916E+02  0.12969634693E+02  0.33160708171E+02  0.13578315713E+03  0.12514292594E+03 0.  0.
        -24    2    1    2    0    0 -0.88954481841E+01  0.25089570009E+02  0.34743756645E+03  0.35718201153E+03  0.78469811149E+02 0.  0.
        -11    1    3    3    0    0  0.42626783940E+02 -0.10735359723E+02 -0.28165653427E+03  0.28506612207E+03  0.00000000000E+00 0.  1.
         12    1    3    3    0    0  0.51076891608E+01 -0.27323844979E+02 -0.21680692132E+02  0.35252424091E+02  0.00000000000E+00 0. -1.
         11    1    5    5    0    0  0.73321402658E+01  0.26464925234E+02  0.33637533642E+03  0.33749447329E+03  0.00000000000E+00 0. -1.
        -12    1    5    5    0    0 -0.16227588450E+02 -0.13753552251E+01  0.11062230025E+02  0.19687538242E+02  0.00000000000E+00 0.  1.
          5    1    4    4  501    0 -0.22454649363E+02 -0.65418563814E+01  0.79370162194E+02  0.82849877548E+02  0.41800000000E+01 0. -1.
         -5    1    4    4    0  501 -0.16384375554E+02  0.19511491074E+02 -0.46209454023E+02  0.52933279582E+02  0.41800000000E+01 0. -1.
</event>
<event>
11    1  0.8299058E-009  0.1921860E+03  0.7561462E-02  0.1060191E+00
         22   -1    0    0    0    0  0.00000000000E+00  0.00000000000E+00  0.49217454805E+04  0.49217454805E+04  0.00000000000E+00 0.  1.
         22   -1    0    0    0    0 -0.00000000000E+00 -0.00000000000E+00 -0.56578857102E+03  0.56578857102E+03  0.00000000000E+00 0.  1.
         24    2    1    2    0    0  0.84268122155E+02  0.15228495626E+03 -0.53840875912E+03  0.57168148524E+03  0.81510148753E+02 0.  0.
         25    2    1    2    0    0  0.15444247578E+02 -0.87819743982E+01  0.45204568596E+03  0.46936968799E+03  0.12508778500E+03 0.  0.
        -24    2    1    2    0    0 -0.99712369733E+02 -0.14350298186E+03  0.44423199826E+04  0.44464828783E+04  0.80420745376E+02 0.  0.
        -11    1    3    3    0    0  0.61966072564E+02  0.15350112952E+03 -0.50545858783E+03  0.53187477372E+03  0.00000000000E+00 0.  1.
         12    1    3    3    0    0  0.22302049591E+02 -0.12161732613E+01 -0.32950171294E+02  0.39806711515E+02  0.00000000000E+00 0. -1.
         11    1    5    5    0    0  0.11983664566E+02 -0.21341671400E+02  0.37644840197E+03  0.37724325640E+03  0.00000000000E+00 0. -1.
        -12    1    5    5    0    0 -0.11169603430E+03 -0.12216131046E+03  0.40658715807E+04  0.40692396219E+04  0.00000000000E+00 0.  1.
          5    1    4    4  501    0  0.56555424757E+02  0.34475059184E+02  0.22615401489E+03  0.23569080726E+03  0.41800000000E+01 0.  1.
         -5    1    4    4    0  501 -0.41111177179E+02 -0.43257033582E+02  0.22589167106E+03  0.23367888073E+03  0.41800000000E+01 0.  1.
</event>
<event>
11    1  0.8299058E-009  0.1703562E+03  0.7561462E-02  0.1077722E+00
         22   -1    0    0    0    0  0.00000000000E+00  0.00000000000E+00  0.10849277310E+04  0.10849277310E+04  0.00000000000E+00 0.  1.
         22   -1    0    0    0    0 -0.00000000000E+00 -0.00000000000E+00 -0.42498064232E+04  0.42498064232E+04  0.00000000000E+00 0. -1.
        -24    2    1    2    0    0 -0.85945009847E+02 -0.61124138247E+02 -0.23542092727E+04  0.23579350323E+04  0.80209799826E+02 0.  0.
         25    2    1    2    0    0  0.13034338257E+03  0.59900162809E+02 -0.18869808735E+04  0.18965553146E+04  0.12509123645E+03 0.  0.
         24    2    1    2    0    0 -0.44398372726E+02  0.12239754381E+01  0.10763114540E+04  0.10802438073E+04  0.80669843575E+02 0.  0.
        -13    1    5    5    0    0 -0.58331842618E+01  0.17154380060E+01  0.88812280223E+03  0.88814361486E+03  0.00000000000E+00 0.  1.
         14    1    5    5    0    0 -0.38565188464E+02 -0.49146256786E+00  0.18818865175E+03  0.19210019246E+03  0.00000000000E+00 0. -1.
         11    1    3    3    0    0 -0.65770986899E+02 -0.60917755360E+02 -0.11270046992E+04  0.11305646323E+04  0.00000000000E+00 0. -1.
        -12    1    3    3    0    0 -0.20174022947E+02 -0.20638288635E+00 -0.12272045735E+04  0.12273704000E+04  0.00000000000E+00 0.  1.
          5    1    4    4  501    0  0.99633250220E+01 -0.33450174748E+02 -0.49817345354E+03  0.49941209862E+03  0.41800000000E+01 0.  1.
         -5    1    4    4    0  501  0.12038005755E+03  0.93350337557E+02 -0.13888074200E+04  0.13971432160E+04  0.41800000000E+01 0.  1.
</event>
<event>
11    1  0.8299058E-009  0.2084041E+03  0.7561462E-02  0.1048735E+00
         22   -1    0    0    0    0  0.00000000000E+00  0.00000000000E+00  0.10467350168E+04  0.10467350168E+04  0.00000000000E+00 0. -1.
         22   -1    0    0    0    0 -0.00000000000E+00 -0.00000000000E+00 -0.84863035264E+03  0.84863035264E+03  0.00000000000E+00 0. -1.
         24    2    1    2    0    0 -0.81626989967E+02  0.29934211833E+01 -0.78934928206E+03  0.79738436711E+03  0.77959051905E+02 0.  0.
         25    2    1    2    0    0  0.18457272751E+03 -0.11888079103E+03  0.31658614365E+03  0.40506014309E+03  0.12508876428E+03 0.  0.
        -24    2    1    2    0    0 -0.10294573755E+03  0.11588736985E+03  0.67086780259E+03  0.69292085925E+03  0.77768896512E+02 0.  0.
        -11    1    3    3    0    0 -0.37525567115E+02 -0.34160797216E+02 -0.26020091425E+03  0.26510308189E+03  0.00000000000E+00 0.  1.
         12    1    3    3    0    0 -0.44101422852E+02  0.37154218399E+02 -0.52914836781E+03  0.53228128522E+03  0.00000000000E+00 0. -1.
         11    1    5    5    0    0 -0.10071698571E+03  0.85305520551E+02  0.61679516154E+03  0.63075923643E+03  0.00000000000E+00 0. -1.
        -12    1    5    5    0    0 -0.22287518364E+01  0.30581849298E+02  0.54072641047E+02  0.62161622815E+02  0.00000000000E+00 0.  1.
          5    1    4    4  501    0  0.13061858903E+03 -0.12337932392E+02  0.19046584197E+03  0.23131828664E+03  0.41800000000E+01 0.  1.
         -5    1    4    4    0  501  0.53954138479E+02 -0.10654285864E+03  0.12612030168E+03  0.17374185645E+03  0.41800000000E+01 0.  1.
</event>
<event>
11    1  0.8299058E-009  0.2086062E+03  0.7561462E-02  0.1048599E+00
         22   -1    0    0    0    0  0.00000000000E+00  0.00000000000E+00  0.75648579892E+03  0.75648579892E+03  0.00000000000E+00 0. -1.
         22   -1    0    0    0    0 -0.00000000000E+00 -0.00000000000E+00 -0.21839078145E+04  0.21839078145E+04  0.00000000000E+00 0. -1.
        -24    2    1    2    0    0  0.31308803695E+02  0.21587201391E+02 -0.18257084327E+04  0.18292922509E+04  0.10794725387E+03 0.  0.
         25    2    1    2    0    0  0.47945739968E+02 -0.16835309298E+03 -0.31127224922E+03  0.37839249692E+03  0.12509560619E+03 0.  0.
         24    2    1    2    0    0 -0.79254543663E+02  0.14676589159E+03  0.70955866633E+03  0.73270886559E+03  0.74614148268E+02 0.  0.
        -13    1    5    5    0    0 -0.38536807424E+02  0.45420704281E+02  0.13065901530E+03  0.14359632371E+03  0.00000000000E+00 0.  1.
         14    1    5    5    0    0 -0.40717736239E+02  0.10134518731E+03  0.57889965104E+03  0.58911254188E+03  0.00000000000E+00 0. -1.
         13    1    3    3    0    0  0.37849068007E+02  0.58186110079E+02 -0.83270987493E+03  0.83559793631E+03  0.00000000000E+00 0. -1.
        -14    1    3    3    0    0 -0.65402643119E+01 -0.36598908688E+02 -0.99299855772E+03  0.99369431457E+03  0.00000000000E+00 0.  1.
          5    1    4    4  501    0 -0.38602979441E+02 -0.40042130474E+02 -0.11984578486E+03  0.13218943522E+03  0.41800000000E+01 0.  1.
         -5    1    4    4    0  501  0.86548719408E+02 -0.12831096251E+03 -0.19142646436E+03  0.24620306170E+03  0.41800000000E+01 0.  1.
</event>
<event>
11    1  0.8299058E-009  0.1505523E+03  0.7561462E-02  0.1096316E+00
         22   -1    0    0    0    0  0.00000000000E+00  0.00000000000E+00  0.15889439264E+03  0.15889439264E+03  0.00000000000E+00 0. -1.
         22   -1    0    0    0    0 -0.00000000000E+00 -0.00000000000E+00 -0.13331718233E+04  0.13331718233E+04  0.00000000000E+00 0. -1.
         24    2    1    2    0    0 -0.69343343299E+02 -0.43968415497E+02 -0.10782759888E+04  0.10839087651E+04  0.73738606500E+02 0.  0.
         25    2    1    2    0    0  0.11377853520E+03  0.78223926791E+01 -0.20212442975E+03  0.26365117726E+03  0.12510361013E+03 0.  0.
        -24    2    1    2    0    0 -0.44435191900E+02  0.36146022818E+02  0.10612298791E+03  0.14450627362E+03  0.79617543963E+02 0.  0.
        -11    1    3    3    0    0 -0.23068422498E+02  0.85737548028E+01 -0.94753211828E+02  0.97897050721E+02  0.00000000000E+00 0.  1.
         12    1    3    3    0    0 -0.46274920801E+02 -0.52542170299E+02 -0.98352277699E+03  0.98601171434E+03  0.00000000000E+00 0. -1.
         11    1    5    5    0    0 -0.41246727867E+01  0.50189161039E+02  0.79784380229E+02  0.94347825306E+02  0.00000000000E+00 0. -1.
        -12    1    5    5    0    0 -0.40310519113E+02 -0.14043138222E+02  0.26338607680E+02  0.50158448310E+02  0.00000000000E+00 0.  1.
          5    1    4    4  501    0  0.99994520713E+02  0.46912979473E+02 -0.85292204358E+02  0.13961362519E+03  0.41800000000E+01 0.  1.
         -5    1    4    4    0  501  0.13784014487E+02 -0.39090586794E+02 -0.11683222539E+03  0.12403755206E+03  0.41800000000E+01 0.  1.
</event>
<event>
11    1  0.8299058E-009  0.1877174E+03  0.7561462E-02  0.1063566E+00
         22   -1    0    0    0    0  0.00000000000E+00  0.00000000000E+00  0.10675037699E+04  0.10675037699E+04  0.00000000000E+00 0.  1.
         22   -1    0    0    0    0 -0.00000000000E+00 -0.00000000000E+00 -0.27686934354E+03  0.27686934354E+03  0.00000000000E+00 0.  1.
        -24    2    1    2    0    0 -0.12834430711E+03 -0.52832485558E+02 -0.17532745021E+03  0.23885051459E+03  0.83942366097E+02 0.  0.
         25    2    1    2    0    0  0.14076927460E+03  0.38360873657E+02  0.68146536337E+02  0.20390803253E+03  0.12508792915E+03 0.  0.
         24    2    1    2    0    0 -0.12424967489E+02  0.14471611901E+02  0.89781534023E+03  0.90161456630E+03  0.80452679569E+02 0.  0.
        -11    1    5    5    0    0 -0.13340667011E+02  0.37191525924E+02  0.80800382387E+03  0.80896932104E+03  0.00000000000E+00 0.  1.
         12    1    5    5    0    0  0.91569952137E+00 -0.22719914023E+02  0.89811516362E+02  0.92645245264E+02  0.00000000000E+00 0. -1.
         13    1    3    3    0    0 -0.18003310495E+02 -0.47674794845E+02 -0.44772866215E+02  0.67835203261E+02  0.00000000000E+00 0. -1.
        -14    1    3    3    0    0 -0.11034099662E+03 -0.51576907125E+01 -0.13055458400E+03  0.17101531133E+03  0.00000000000E+00 0.  1.
          5    1    4    4  501    0  0.77924598644E+02  0.50184787071E+02 -0.20016470816E+02  0.94915159122E+02  0.41800000000E+01 0. -1.
         -5    1    4    4    0  501  0.62844675956E+02 -0.11823913414E+02  0.88163007153E+02  0.10899287341E+03  0.41800000000E+01 0. -1.
</event>
<event>
11    1  0.8299058E-009  0.1517573E+03  0.7561462E-02  0.1095097E+00
         22   -1    0    0    0    0  0.00000000000E+00  0.00000000000E+00  0.70678114777E+03  0.70678114777E+03  0.00000000000E+00 0. -1.
         22   -1    0    0    0    0 -0.00000000000E+00 -0.00000000000E+00 -0.23643117506E+03  0.23643117506E+03  0.00000000000E+00 0.  1.
         24    2    1    2    0    0 -0.80846747192E+02  0.73004156364E+01 -0.14924051485E+03  0.18779365146E+03  0.80026443476E+02 0.  0.
         25    2    1    2    0    0  0.11207441999E+03 -0.15017929648E+02  0.45242451640E+02  0.17458700251E+03  0.12509008030E+03 0.  0.
        -24    2    1    2    0    0 -0.31227672796E+02  0.77175140120E+01  0.57434803591E+03  0.58083166887E+03  0.80343223921E+02 0.  0.
        -13    1    3    3    0    0 -0.27010124243E+02 -0.45005240425E+01 -0.12433197462E+03  0.12731159193E+03  0.00000000000E+00 0.  1.
         14    1    3    3    0    0 -0.53836622949E+02  0.11800939679E+02 -0.24908540231E+02  0.60482059524E+02  0.00000000000E+00 0. -1.
         11    1    5    5    0    0 -0.56922559074E+02  0.16555386234E+02  0.40589840911E+03  0.41020455514E+03  0.00000000000E+00 0. -1.
        -12    1    5    5    0    0  0.25694886278E+02 -0.88378722225E+01  0.16844962681E+03  0.17062711372E+03  0.00000000000E+00 0.  1.
          5    1    4    4  501    0 -0.23980646147E+02 -0.90059552827E+01 -0.96535455623E+01  0.27691911492E+02  0.41800000000E+01 0. -1.
         -5    1    4    4    0  501  0.13605506613E+03 -0.60119743656E+01  0.54895997202E+02  0.14689509102E+03  0.41800000000E+01 0. -1.
</event>
<event>
11    1  0.8299058E-009  0.1342477E+03  0.7561462E-02  0.1114157E+00
         22   -1    0    0    0    0  0.00000000000E+00  0.00000000000E+00  0.84033815535E+02  0.84033815535E+02  0.00000000000E+00 0. -1.
         22   -1    0    0    0    0 -0.00000000000E+00 -0.00000000000E+00 -0.28253844723E+04  0.28253844723E+04  0.00000000000E+00 0. -1.
        -24    2    1    2    0    0 -0.38696314719E+02  0.22188392789E+02 -0.24037893817E+04  0.24064482921E+04  0.10392430641E+03 0.  0.
         25    2    1    2    0    0  0.73973770947E+02 -0.92626191289E+02 -0.35033763749E+03  0.39042623503E+03  0.12507779444E+03 0.  0.
         24    2    1    2    0    0 -0.35277456228E+02  0.70437798501E+02  0.12776362357E+02  0.11254376076E+03  0.79352884481E+02 0.  0.
        -13    1    5    5    0    0  0.10305785690E+02  0.52853904954E+02 -0.15574906359E+02  0.56056419755E+02  0.00000000000E+00 0.  1.
         14    1    5    5    0    0 -0.45583241918E+02  0.17583893546E+02  0.28351268717E+02  0.56487341005E+02  0.00000000000E+00 0. -1.
         13    1    3    3    0    0 -0.47983426594E+02  0.37089605933E+02 -0.23221626898E+04  0.23229544994E+04  0.00000000000E+00 0. -1.
        -14    1    3    3    0    0  0.92871118751E+01 -0.14901213145E+02 -0.81626691836E+02  0.83493792705E+02  0.00000000000E+00 0.  1.
          5    1    4    4  501    0 -0.25629810465E+02  0.95235798604E+01 -0.37807860618E+02  0.46845410473E+02  0.41800000000E+01 0. -1.
         -5    1    4    4    0  501  0.99603581411E+02 -0.10214977115E+03 -0.31252977687E+03  0.34358082456E+03  0.41800000000E+01 0. -1.
</event>
<event>
11    1  0.8299058E-009  0.1372006E+03  0.7561462E-02  0.1110725E+00
         22   -1    0    0    0    0  0.00000000000E+00  0.00000000000E+00  0.15906876531E+04  0.15906876531E+04  0.00000000000E+00 0.  1.
         22   -1    0    0    0    0 -0.00000000000E+00 -0.00000000000E+00 -0.90737860079E+03  0.90737860079E+03  0.00000000000E+00 0. -1.
        -24    2    1    2    0    0  0.57393852044E+02 -0.35584869267E+01 -0.85240355203E+03  0.85817982620E+03  0.81080709787E+02 0.  0.
         25    2    1    2    0    0 -0.24557320292E+02  0.19197483400E+01  0.29062985544E+02  0.13076415938E+03  0.12509140992E+03 0.  0.
         24    2    1    2    0    0 -0.32836531752E+02  0.16387385867E+01  0.15066496188E+04  0.15091222683E+04  0.79850007013E+02 0.  0.
        -11    1    5    5    0    0 -0.56874417633E+01 -0.14226228754E+02  0.13003246548E+04  0.13004149109E+04  0.00000000000E+00 0.  1.
         12    1    5    5    0    0 -0.27149089989E+02  0.15864967341E+02  0.20632496405E+03  0.20870735747E+03  0.00000000000E+00 0. -1.
         13    1    3    3    0    0  0.76357394522E+02 -0.11777067556E+02 -0.72577703930E+03  0.72987770331E+03  0.00000000000E+00 0. -1.
        -14    1    3    3    0    0 -0.18963542477E+02  0.82185806293E+01 -0.12662651273E+03  0.12830212289E+03  0.00000000000E+00 0.  1.
          5    1    4    4  501    0  0.33451387923E+02 -0.40410081560E+02  0.26170075688E+02  0.58773423476E+02  0.41800000000E+01 0. -1.
         -5    1    4    4    0  501 -0.58008708215E+02  0.42329829900E+02  0.28929098567E+01  0.71990735901E+02  0.41800000000E+01 0. -1.
</event>
<event>
11    1  0.8299058E-009  0.1920852E+03  0.7561462E-02  0.1060266E+00
         22   -1    0    0    0    0  0.00000000000E+00  0.00000000000E+00  0.14180369543E+04  0.14180369543E+04  0.00000000000E+00 0.  1.
         22   -1    0    0    0    0 -0.00000000000E+00 -0.00000000000E+00 -0.21615409748E+03  0.21615409748E+03  0.00000000000E+00 0.  1.
         24    2    1    2    0    0  0.13948659051E+03 -0.36694081216E+02 -0.15462545270E+03  0.22700307282E+03  0.82573603057E+02 0.  0.
         25    2    1    2    0    0 -0.15140237552E+03  0.76261035712E+02  0.45497660902E+03  0.50138734065E+03  0.12508847159E+03 0.  0.
        -24    2    1    2    0    0  0.11915785013E+02 -0.39566954496E+02  0.90153170050E+03  0.90580063831E+03  0.77510383376E+02 0.  0.
        -13    1    3    3    0    0  0.11343571342E+03  0.28712507437E+01 -0.13328910338E+03  0.17504825118E+03  0.00000000000E+00 0.  1.
         14    1    3    3    0    0  0.26050877082E+02 -0.39565331960E+02 -0.21336349316E+02  0.51954821643E+02  0.00000000000E+00 0. -1.
         13    1    5    5    0    0  0.29932470391E+02 -0.22027092185E+02  0.17829741884E+03  0.18212939120E+03  0.00000000000E+00 0. -1.
        -14    1    5    5    0    0 -0.18016685377E+02 -0.17539862311E+02  0.72323428166E+03  0.72367124711E+03  0.00000000000E+00 0.  1.
          5    1    4    4  501    0 -0.80555751622E+02  0.50051259317E+01  0.82172696015E+02  0.11525669080E+03  0.41800000000E+01 0. -1.
         -5    1    4    4    0  501 -0.70846623898E+02  0.71255909781E+02  0.37280391300E+03  0.38613064984E+03  0.41800000000E+01 0. -1.
</event>
<event>
11    1  0.8299058E-009  0.5164127E+03  0.7561462E-02  0.9357576E-01
         22   -1    0    0    0    0  0.00000000000E+00  0.00000000000E+00  0.51171736971E+03  0.51171736971E+03  0.00000000000E+00 0.  1.
         22   -1    0    0    0    0 -0.00000000000E+00 -0.00000000000E+00 -0.87350111015E+03  0.87350111015E+03  0.00000000000E+00 0.  1.
         24    2    1    2    0    0  0.32541703179E+03  0.42859805188E+03 -0.50514211390E+03  0.74295633178E+03  0.84988358174E+02 0.  0.
         25    2    1    2    0    0 -0.20933903538E+03 -0.37619287659E+03  0.22768711800E+02  0.44889862126E+03  0.12509055043E+03 0.  0.
        -24    2    1    2    0    0 -0.11607799641E+03 -0.52405175299E+02  0.12058966167E+03  0.19336352682E+03  0.81407514108E+02 0.  0.
        -11    1    3    3    0    0  0.25358610774E+03  0.29023140992E+03 -0.32017017461E+03  0.50104802770E+03  0.00000000000E+00 0.  1.
         12    1    3    3    0    0  0.71830924051E+02  0.13836664196E+03 -0.18497193929E+03  0.24190830408E+03  0.00000000000E+00 0. -1.
         13    1    5    5    0    0  0.60301262111E+00 -0.46001569294E+01 -0.10495937488E+02  0.11475616399E+02  0.00000000000E+00 0. -1.
        -14    1    5    5    0    0 -0.11668100903E+03 -0.47805018370E+02  0.13108559916E+03  0.18188791042E+03  0.00000000000E+00 0.  1.
          5    1    4    4  501    0 -0.11791399203E+03 -0.96330215458E+02  0.25507497777E+02  0.15443874115E+03  0.41800000000E+01 0. -1.
         -5    1    4    4    0  501 -0.91425043354E+02 -0.27986266113E+03 -0.27387859767E+01  0.29445988011E+03  0.41800000000E+01 0. -1.
</event>
<event>
11    1  0.8299058E-009  0.1585612E+03  0.7561462E-02  0.1088438E+00
         22   -1    0    0    0    0  0.00000000000E+00  0.00000000000E+00  0.88998363272E+03  0.88998363272E+03  0.00000000000E+00 0.  1.
         22   -1    0    0    0    0 -0.00000000000E+00 -0.00000000000E+00 -0.15302043330E+03  0.15302043330E+03  0.00000000000E+00 0. -1.
        -24    2    1    2    0    0  0.39393263679E+02 -0.85835123776E+02 -0.82830149744E+02  0.14931707760E+03  0.80717149718E+02 0.  0.
         25    2    1    2    0    0 -0.90256456376E+02  0.87738655261E+02  0.20308525697E+03  0.26969675801E+03  0.12509364548E+03 0.  0.
         24    2    1    2    0    0  0.50863192697E+02 -0.19035314848E+01  0.61670809220E+03  0.62399023041E+03  0.80276079050E+02 0.  0.
        -11    1    5    5    0    0  0.37783916993E+02  0.13735610449E+02  0.58443997222E+03  0.58582110965E+03  0.00000000000E+00 0.  1.
         12    1    5    5    0    0  0.13079275704E+02 -0.15639141934E+02  0.32268119974E+02  0.38169120766E+02  0.00000000000E+00 0. -1.
         13    1    3    3    0    0 -0.64609790405E+01 -0.36686796977E+02 -0.72228504227E+02  0.81268826406E+02  0.00000000000E+00 0. -1.
        -14    1    3    3    0    0  0.45854242719E+02 -0.49148326799E+02 -0.10601645518E+02  0.68048251191E+02  0.00000000000E+00 0.  1.
          5    1    4    4  501    0  0.11608990988E+02  0.51279074792E+02  0.12655702094E+03  0.13710749116E+03  0.41800000000E+01 0. -1.
         -5    1    4    4    0  501 -0.10186544736E+03  0.36459580469E+02  0.76528236023E+02  0.13258926685E+03  0.41800000000E+01 0. -1.
</event>
<event>
11    1  0.8299058E-009  0.2258938E+03  0.7561462E-02  0.1037587E+00
         22   -1    0    0    0    0  0.00000000000E+00  0.00000000000E+00  0.60619789819E+03  0.60619789819E+03  0.00000000000E+00 0.  1.
         22   -1    0    0    0    0 -0.00000000000E+00 -0.00000000000E+00 -0.10449593611E+04  0.10449593611E+04  0.00000000000E+00 0. -1.
         24    2    1    2    0    0 -0.16522146054E+01 -0.18384389576E+03 -0.89748021960E+03  0.91968980796E+03  0.80977098436E+02 0.  0.
         25    2    1    2    0    0 -0.14918865026E+02  0.24300069617E+03  0.12864976093E+02  0.27401759532E+03  0.12509286177E+03 0.  0.
        -24    2    1    2    0    0  0.16571079632E+02 -0.59156800412E+02  0.44585378060E+03  0.45744985601E+03  0.81857494296E+02 0.  0.
        -13    1    3    3    0    0 -0.13846368783E+02 -0.16231921564E+03 -0.61781057360E+03  0.63892812941E+03  0.00000000000E+00 0.  1.
         14    1    3    3    0    0  0.12194154178E+02 -0.21524680116E+02 -0.27966964600E+03  0.28076167855E+03  0.00000000000E+00 0. -1.
         13    1    5    5    0    0 -0.27731775812E+02 -0.48267345301E+02  0.21193529781E+03  0.21912407095E+03  0.00000000000E+00 0. -1.
        -14    1    5    5    0    0  0.44302855444E+02 -0.10889455111E+02  0.23391848279E+03  0.23832578506E+03  0.00000000000E+00 0.  1.
          5    1    4    4  501    0  0.68267557224E+01  0.86880713683E+02  0.64050962279E+02  0.10823521226E+03  0.41800000000E+01 0.  1.
         -5    1    4    4    0  501 -0.21745620749E+02  0.15611998249E+03 -0.51185986186E+02  0.16578238307E+03  0.41800000000E+01 0.  1.
</event>
<event>
11    1  0.8299058E-009  0.1807838E+03  0.7561462E-02  0.1069011E+00
         22   -1    0    0    0    0  0.00000000000E+00  0.00000000000E+00  0.98277778329E+02  0.98277778329E+02  0.00000000000E+00 0. -1.
         22   -1    0    0    0    0 -0.00000000000E+00 -0.00000000000E+00 -0.25411578401E+04  0.25411578401E+04  0.00000000000E+00 0. -1.
         24    2    1    2    0    0  0.67167885761E+02 -0.15834077766E+02 -0.14205531793E+04  0.14244135737E+04  0.78869834666E+02 0.  0.
         25    2    1    2    0    0  0.66763508337E+02  0.27626913903E+02 -0.10464858891E+04  0.10564094857E+04  0.12509065924E+03 0.  0.
        -24    2    1    2    0    0 -0.13393139410E+03 -0.11792836137E+02  0.24159006679E+02  0.15861255896E+03  0.80607672992E+02 0.  0.
        -11    1    3    3    0    0  0.24300278369E+02 -0.12114294872E+02 -0.11540162579E+03  0.11855292027E+03  0.00000000000E+00 0.  1.
         12    1    3    3    0    0  0.42867607392E+02 -0.37197828934E+01 -0.13051515535E+04  0.13058606534E+04  0.00000000000E+00 0. -1.
         13    1    5    5    0    0 -0.14077929837E+03 -0.18737070387E+01  0.31803944947E+02  0.14433922732E+03  0.00000000000E+00 0. -1.
        -14    1    5    5    0    0  0.68479042720E+01 -0.99191290982E+01 -0.76449382677E+01  0.14273331640E+02  0.00000000000E+00 0.  1.
          5    1    4    4  501    0  0.26455303519E+02  0.76171060398E+02 -0.54373130279E+03  0.54969365610E+03  0.41800000000E+01 0.  1.
         -5    1    4    4    0  501  0.40308204818E+02 -0.48544146495E+02 -0.50275458632E+03  0.50671582963E+03  0.41800000000E+01 0.  1.
</event>
<event>
11    1  0.8299058E-009  0.1379229E+03  0.7561462E-02  0.1109900E+00
         22   -1    0    0    0    0  0.00000000000E+00  0.00000000000E+00  0.25527421809E+04  0.25527421809E+04  0.00000000000E+00 0.  1.
         22   -1    0    0    0    0 -0.00000000000E+00 -0.00000000000E+00 -0.41193851654E+03  0.41193851654E+03  0.00000000000E+00 0. -1.
         24    2    1    2    0    0  0.18071826463E+02 -0.31152640296E+01 -0.39283811067E+03  0.40141870102E+03  0.80491593045E+02 0.  0.
         25    2    1    2    0    0 -0.60456506495E+02 -0.35264120759E+02  0.36321980113E+03  0.39048093683E+03  0.12509272843E+03 0.  0.
        -24    2    1    2    0    0  0.42384680032E+02  0.38379384788E+02  0.21704219739E+04  0.21727810596E+04  0.83525743681E+02 0.  0.
        -13    1    3    3    0    0  0.25332936667E+02 -0.25068073277E+02 -0.78271909869E+02  0.86003824639E+02  0.00000000000E+00 0.  1.
         14    1    3    3    0    0 -0.72611102033E+01  0.21952809247E+02 -0.31456620080E+03  0.31541487638E+03  0.00000000000E+00 0. -1.
         11    1    5    5    0    0  0.26188949223E+01 -0.80395139843E+01  0.23257865989E+02  0.24747135715E+02  0.00000000000E+00 0. -1.
        -12    1    5    5    0    0  0.39765785110E+02  0.46418898773E+02  0.21471641079E+04  0.21480339238E+04  0.00000000000E+00 0.  1.
          5    1    4    4  501    0  0.19100459359E+02  0.28470470442E+02  0.47804475278E+02  0.58975719508E+02  0.41800000000E+01 0. -1.
         -5    1    4    4    0  501 -0.79556965854E+02 -0.63734591201E+02  0.31541532585E+03  0.33150521732E+03  0.41800000000E+01 0. -1.
</event>
<event>
11    1  0.8299058E-009  0.2500922E+03  0.7561462E-02  0.1023850E+00
         22   -1    0    0    0    0  0.00000000000E+00  0.00000000000E+00  0.22919231702E+03  0.22919231702E+03  0.00000000000E+00 0. -1.
         22   -1    0    0    0    0 -0.00000000000E+00 -0.00000000000E+00 -0.79719405021E+03  0.79719405021E+03  0.00000000000E+00 0.  1.
        -24    2    1    2    0    0  0.46872993068E+02 -0.18895192464E+03 -0.37825131152E+03  0.43297945360E+03  0.80605491536E+02 0.  0.
         25    2    1    2    0    0 -0.61918661158E+02  0.25424541417E+03 -0.31637613027E+03  0.42920345564E+03  0.12508836598E+03 0.  0.
         24    2    1    2    0    0  0.15045668090E+02 -0.65293489536E+02  0.12662570859E+03  0.16420345799E+03  0.80243963233E+02 0.  0.
        -13    1    5    5    0    0  0.69087760796E+01 -0.30768438485E+02 -0.11901503760E+01  0.31557003210E+02  0.00000000000E+00 0.  1.
         14    1    5    5    0    0  0.81368920108E+01 -0.34525051051E+02  0.12781585897E+03  0.13264645478E+03  0.00000000000E+00 0. -1.
         11    1    3    3    0    0 -0.20662381467E+02 -0.59489412903E+02 -0.89883605371E+02  0.10974965499E+03  0.00000000000E+00 0. -1.
        -12    1    3    3    0    0  0.67535374535E+02 -0.12946251173E+03 -0.28836770615E+03  0.32322979861E+03  0.00000000000E+00 0.  1.
          5    1    4    4  501    0 -0.26722920345E+02  0.17686704095E+03 -0.28880795766E+03  0.33974045013E+03  0.41800000000E+01 0. -1.
         -5    1    4    4    0  501 -0.35195740813E+02  0.77378373221E+02 -0.27568172604E+02  0.89463005508E+02  0.41800000000E+01 0. -1.
</event>
<event>
11    1  0.8299058E-009  0.1619819E+03  0.7561462E-02  0.1085228E+00
         22   -1    0    0    0    0  0.00000000000E+00  0.00000000000E+00  0.34078704568E+03  0.34078704568E+03  0.00000000000E+00 0.  1.
         22   -1    0    0    0    0 -0.00000000000E+00 -0.00000000000E+00 -0.22697574809E+03  0.22697574809E+03  0.00000000000E+00 0. -1.
         24    2    1    2    0    0 -0.21164490927E+02 -0.11043598635E+03 -0.15775708529E+03  0.20967638708E+03  0.80205028430E+02 0.  0.
         25    2    1    2    0    0  0.98312059996E+01  0.46215860975E+02  0.12202295813E+03  0.18102523907E+03  0.12509187205E+03 0.  0.
        -24    2    1    2    0    0  0.11333284927E+02  0.64220125371E+02  0.14954542475E+03  0.17706116761E+03  0.68805197222E+02 0.  0.
        -13    1    3    3    0    0 -0.35956487922E+01 -0.10344321236E+03 -0.83318524634E+02  0.13287363704E+03  0.00000000000E+00 0.  1.
         14    1    3    3    0    0 -0.17568842134E+02 -0.69927739883E+01 -0.74438560654E+02  0.76802750043E+02  0.00000000000E+00 0. -1.
         11    1    5    5    0    0  0.64401129012E+01  0.95170864779E+01  0.10692928231E+03  0.10754497387E+03  0.00000000000E+00 0. -1.
        -12    1    5    5    0    0  0.48931720259E+01  0.54703038893E+02  0.42616142434E+02  0.69516193743E+02  0.00000000000E+00 0.  1.
          5    1    4    4  501    0 -0.47590849541E+02  0.11413746174E+02  0.97944660465E+02  0.10957094266E+03  0.41800000000E+01 0. -1.
         -5    1    4    4    0  501  0.57422055541E+02  0.34802114801E+02  0.24078297668E+02  0.71454296412E+02  0.41800000000E+01 0. -1.
</event>
<event>
11    1  0.8299058E-009  0.1820602E+03  0.7561462E-02  0.1067988E+00
         22   -1    0    0    0    0  0.00000000000E+00  0.00000000000E+00  0.15030632497E+04  0.15030632497E+04  0.00000000000E+00 0. -1.
         22   -1    0    0    0    0 -0.00000000000E+00 -0.00000000000E+00 -0.13773477586E+04  0.13773477586E+04  0.00000000000E+00 0.  1.
        -24    2    1    2    0    0 -0.94184675717E+02 -0.79113111080E+02 -0.13518250217E+04  0.13597942911E+04  0.80498368377E+02 0.  0.
         25    2    1    2    0    0 -0.77728041563E+02  0.40971582013E+02  0.45666078593E+03  0.48156891346E+03  0.12509686657E+03 0.  0.
         24    2    1    2    0    0  0.17191271728E+03  0.38141529067E+02  0.10208797269E+04  0.10390478037E+04  0.80100954958E+02 0.  0.
        -11    1    5    5    0    0  0.10802050068E+02  0.16059390767E+02  0.36377817038E+02  0.41205993374E+02  0.00000000000E+00 0.  1.
         12    1    5    5    0    0  0.16111066721E+03  0.22082138300E+02  0.98450190990E+03  0.99784181037E+03  0.00000000000E+00 0. -1.
         13    1    3    3    0    0  0.94704230739E+01 -0.35197184685E+01 -0.27992919310E+02  0.29760390837E+02  0.00000000000E+00 0. -1.
        -14    1    3    3    0    0 -0.10365509879E+03 -0.75593392612E+02 -0.13238321024E+04  0.13300339003E+04  0.00000000000E+00 0.  1.
          5    1    4    4  501    0  0.10600768356E+02  0.10260145801E+02  0.29010613058E+03  0.29051107772E+03  0.41800000000E+01 0. -1.
         -5    1    4    4    0  501 -0.88328809919E+02  0.30711436212E+02  0.16655465535E+03  0.19105783574E+03  0.41800000000E+01 0. -1.
</event>
<event>
11    1  0.8299058E-009  0.1331371E+03  0.7561462E-02  0.1115474E+00
         22   -1    0    0    0    0  0.00000000000E+00  0.00000000000E+00  0.44533026046E+03  0.44533026046E+03  0.00000000000E+00 0.  1.
         22   -1    0    0    0    0 -0.00000000000E+00 -0.00000000000E+00 -0.70397504328E+03  0.70397504328E+03  0.00000000000E+00 0. -1.
         24    2    1    2    0    0  0.32620933954E+02 -0.29551368483E+01 -0.65323131684E+03  0.65920122575E+03  0.82232867920E+02 0.  0.
         25    2    1    2    0    0 -0.31929238081E+02 -0.42882970402E+02  0.69956823136E+02  0.15296809414E+03  0.12508739076E+03 0.  0.
        -24    2    1    2    0    0 -0.69169587309E+00  0.45838107251E+02  0.32462971088E+03  0.33713598384E+03  0.78578698742E+02 0.  0.
        -13    1    3    3    0    0  0.58347410282E+02  0.84483064112E+01 -0.38338000873E+03  0.38788661393E+03  0.00000000000E+00 0.  1.
         14    1    3    3    0    0 -0.25726476328E+02 -0.11403443260E+02 -0.26985130811E+03  0.27131461183E+03  0.00000000000E+00 0. -1.
         13    1    5    5    0    0  0.10138124134E+02 -0.19224922548E+02  0.12546339790E+03  0.12733202040E+03  0.00000000000E+00 0. -1.
        -14    1    5    5    0    0 -0.10829820007E+02  0.65063029799E+02  0.19916631298E+03  0.20980396344E+03  0.00000000000E+00 0.  1.
          5    1    4    4  501    0 -0.54507379202E+02 -0.27024754734E+02 -0.15624299111E+02  0.62952226956E+02  0.41800000000E+01 0. -1.
         -5    1    4    4    0  501  0.22578141122E+02 -0.15858215668E+02  0.85581122247E+02  0.90015867189E+02  0.41800000000E+01 0. -1.
</event>
<event>
11    1  0.8299058E-009  0.1362704E+03  0.7561462E-02  0.1111796E+00
         22   -1    0    0    0    0  0.00000000000E+00  0.00000000000E+00  0.12195956387E+04  0.12195956387E+04  0.00000000000E+00 0. -1.
         22   -1    0    0    0    0 -0.00000000000E+00 -0.00000000000E+00 -0.41792874473E+03  0.41792874473E+03  0.00000000000E+00 0. -1.
        -24    2    1    2    0    0 -0.13419390646E+02  0.52676411095E+02 -0.37928579278E+03  0.39123376757E+03  0.79064935015E+02 0.  0.
         25    2    1    2    0    0  0.53006785582E+02 -0.33477246653E+02  0.12832733523E+03  0.18985598902E+03  0.12508775415E+03 0.  0.
         24    2    1    2    0    0 -0.39587394937E+02 -0.19199164442E+02  0.10526253515E+04  0.10564346268E+04  0.78091103066E+02 0.  0.
        -11    1    5    5    0    0  0.12706204085E+02 -0.26265904905E+02  0.19320705877E+03  0.19539783248E+03  0.00000000000E+00 0.  1.
         12    1    5    5    0    0 -0.52293599021E+02  0.70667404631E+01  0.85941829271E+03  0.86103679432E+03  0.00000000000E+00 0. -1.
         11    1    3    3    0    0 -0.19102165065E+01  0.67453770137E+02 -0.35017518414E+03  0.35661789021E+03  0.00000000000E+00 0. -1.
        -12    1    3    3    0    0 -0.11509174139E+02 -0.14777359042E+02 -0.29110608643E+02  0.34615877357E+02  0.00000000000E+00 0.  1.
          5    1    4    4  501    0 -0.88319227642E+01 -0.52600870081E+02  0.11021122687E+03  0.12251057637E+03  0.41800000000E+01 0. -1.
         -5    1    4    4    0  501  0.61838708347E+02  0.19123623427E+02  0.18116108358E+02  0.67345412650E+02  0.41800000000E+01 0. -1.
</event>
<event>
11    1  0.8299058E-009  0.1444835E+03  0.7561462E-02  0.1102653E+00
         22   -1    0    0    0    0  0.00000000000E+00  0.00000000000E+00  0.16500725398E+04  0.16500725398E+04  0.00000000000E+00 0.  1.
         22   -1    0    0    0    0 -0.00000000000E+00 -0.00000000000E+00 -0.73588319929E+02  0.73588319929E+02  0.00000000000E+00 0.  1.
         24    2    1    2    0    0 -0.24761025452E+02  0.18369550854E+02 -0.32590263963E+02  0.91558465539E+02  0.79814024623E+02 0.  0.
         25    2    1    2    0    0 -0.53320450147E+02 -0.16292986409E+02  0.52341608008E+03  0.54103681481E+03  0.12509160758E+03 0.  0.
        -24    2    1    2    0    0  0.78081475599E+02 -0.20765644450E+01  0.10856584038E+04  0.10910655794E+04  0.75292097246E+02 0.  0.
        -11    1    3    3    0    0  0.17532799303E+02  0.29712824986E+02  0.36847460850E+01  0.34696229965E+02  0.00000000000E+00 0.  1.
         12    1    3    3    0    0 -0.42293824755E+02 -0.11343274132E+02 -0.36275010048E+02  0.56862235574E+02  0.00000000000E+00 0. -1.
         11    1    5    5    0    0  0.50721736789E+02  0.25859478753E+01  0.25851179500E+03  0.26345346812E+03  0.00000000000E+00 0. -1.
        -12    1    5    5    0    0  0.27359738811E+02 -0.46625123204E+01  0.82714660879E+03  0.82761211130E+03  0.00000000000E+00 0.  1.
          5    1    4    4  501    0 -0.81362438243E+02 -0.45820660048E+02  0.31226987274E+03  0.32595908495E+03  0.41800000000E+01 0. -1.
         -5    1    4    4    0  501  0.28041988096E+02  0.29527673639E+02  0.21114620734E+03  0.21507772986E+03  0.41800000000E+01 0. -1.
</event>
<event>
11    1  0.8299058E-009  0.2469880E+03  0.7561462E-02  0.1025516E+00
         22   -1    0    0    0    0  0.00000000000E+00  0.00000000000E+00  0.21511578027E+04  0.21511578027E+04  0.00000000000E+00 0. -1.
         22   -1    0    0    0    0 -0.00000000000E+00 -0.00000000000E+00 -0.65538620913E+03  0.65538620913E+03  0.00000000000E+00 0. -1.
        -24    2    1    2    0    0  0.13953174455E+03 -0.15679011566E+03 -0.54796282804E+03  0.59207660881E+03  0.78988617409E+02 0.  0.
         25    2    1    2    0    0 -0.14536463984E+03  0.19743317720E+03  0.14037357404E+03  0.30897890653E+03  0.12510989738E+03 0.  0.
         24    2    1    2    0    0  0.58328952830E+01 -0.40643061542E+02  0.19033608476E+04  0.19054884965E+04  0.80112502520E+02 0.  0.
        -13    1    5    5    0    0  0.27211473044E+02  0.10444634603E+00  0.24803833368E+03  0.24952653195E+03  0.00000000000E+00 0.  1.
         14    1    5    5    0    0 -0.21378577761E+02 -0.40747507888E+02  0.16553225139E+04  0.16559619646E+04  0.00000000000E+00 0. -1.
         11    1    3    3    0    0  0.58118438543E+02 -0.12022145878E+03 -0.36096820399E+03  0.38487529973E+03  0.00000000000E+00 0. -1.
        -12    1    3    3    0    0  0.81413306010E+02 -0.36568656880E+02 -0.18699462405E+03  0.20720130908E+03  0.00000000000E+00 0.  1.
          5    1    4    4  501    0 -0.15299483201E+03  0.12494993271E+03  0.76147685454E+02  0.21174476784E+03  0.41800000000E+01 0.  1.
         -5    1    4    4    0  501  0.76301921749E+01  0.72483244489E+02  0.64225888583E+02  0.97234138699E+02  0.41800000000E+01 0.  1.
</event>
<event>
11    1  0.8299058E-009  0.2384728E+03  0.7561462E-02  0.1030226E+00
         22   -1    0    0    0    0  0.00000000000E+00  0.00000000000E+00  0.19665394752E+04  0.19665394752E+04  0.00000000000E+00 0.  1.
         22   -1    0    0    0    0 -0.00000000000E+00 -0.00000000000E+00 -0.13449578463E+03  0.13449578463E+03  0.00000000000E+00 0.  1.
        -24    2    1    2    0    0 -0.16226775900E+03 -0.12324780998E+03 -0.51868324153E+01  0.22133822549E+03  0.86272003305E+02 0.  0.
         25    2    1    2    0    0  0.17579954629E+03  0.95746230051E+02  0.68981028046E+03  0.72908070253E+03  0.12509047418E+03 0.  0.
         24    2    1    2    0    0 -0.13531787282E+02  0.27501579926E+02  0.11474202425E+04  0.11506163318E+04  0.80033017546E+02 0.  0.
        -13    1    5    5    0    0  0.13035478453E+02  0.11760654619E+02  0.99213841785E+03  0.99229374526E+03  0.00000000000E+00 0.  1.
         14    1    5    5    0    0 -0.26567265735E+02  0.15740925307E+02  0.15528182465E+03  0.15832258653E+03  0.00000000000E+00 0. -1.
         11    1    3    3    0    0 -0.57362401026E+01 -0.44901385547E+02 -0.94520439881E+01  0.46242621142E+02  0.00000000000E+00 0. -1.
        -12    1    3    3    0    0 -0.15653151890E+03 -0.78346424430E+02  0.42652115728E+01  0.17509560434E+03  0.00000000000E+00 0.  1.
          5    1    4    4  501    0  0.12267253277E+03  0.87131516826E+01  0.48345598919E+03  0.49887035910E+03  0.41800000000E+01 0. -1.
         -5    1    4    4    0  501  0.53127013519E+02  0.87033078368E+02  0.20635429127E+03  0.23021034343E+03  0.41800000000E+01 0. -1.
</event>
<event>
11    1  0.8299058E-009  0.1527304E+03  0.7561462E-02  0.1094121E+00
         22   -1    0    0    0    0  0.00000000000E+00  0.00000000000E+00  0.26513986445E+03  0.26513986445E+03  0.00000000000E+00 0.  1.
         22   -1    0    0    0    0 -0.00000000000E+00 -0.00000000000E+00 -0.16393922992E+04  0.16393922992E+04  0.00000000000E+00 0.  1.
         24    2    1    2    0    0  0.27111101544E+01 -0.50042828973E+02 -0.10182381562E+04  0.10225691349E+04  0.79542806655E+02 0.  0.
         25    2    1    2    0    0 -0.25458440751E+02 -0.35707231535E+02 -0.59757599708E+03  0.61210156730E+03  0.12509243711E+03 0.  0.
        -24    2    1    2    0    0  0.22747330597E+02  0.85750060508E+02  0.24156171847E+03  0.26986146148E+03  0.81256572900E+02 0.  0.
        -13    1    3    3    0    0 -0.13909620174E+02 -0.63971988439E+02 -0.89859042132E+03  0.90097205180E+03  0.00000000000E+00 0.  1.
         14    1    3    3    0    0  0.16620730328E+02  0.13929159466E+02 -0.11964773487E+03  0.12159708311E+03  0.00000000000E+00 0. -1.
         11    1    5    5    0    0 -0.14167674223E+02 -0.11981781101E+01  0.91122610404E+02  0.92225206699E+02  0.00000000000E+00 0. -1.
        -12    1    5    5    0    0  0.36915004821E+02  0.86948238619E+02  0.15043910806E+03  0.17763625479E+03  0.00000000000E+00 0.  1.
          5    1    4    4  501    0  0.10772942973E+02 -0.37753002195E+02 -0.55327753058E+03  0.55468445419E+03  0.41800000000E+01 0.  1.
         -5    1    4    4    0  501 -0.36231383725E+02  0.20457706596E+01 -0.44298466493E+02  0.57417113110E+02  0.41800000000E+01 0.  1.
</event>
<event>
11    1  0.8299058E-009  0.1278262E+03  0.7561462E-02  0.1121969E+00
         22   -1    0    0    0    0  0.00000000000E+00  0.00000000000E+00  0.23402606864E+04  0.23402606864E+04  0.00000000000E+00 0. -1.
         22   -1    0    0    0    0 -0.00000000000E+00 -0.00000000000E+00 -0.12381863177E+03  0.12381863177E+03  0.00000000000E+00 0.  1.
        -24    2    1    2    0    0  0.30084968458E+02 -0.64406738728E+00 -0.73855696922E+02  0.11260137953E+03  0.79491424414E+02 0.  0.
         25    2    1    2    0    0 -0.67626407962E+00 -0.33551326816E+01  0.10136999263E+03  0.16104453936E+03  0.12509098291E+03 0.  0.
         24    2    1    2    0    0 -0.29408704378E+02  0.39992000689E+01  0.21889277590E+04  0.21904333993E+04  0.75583578615E+02 0.  0.
        -11    1    5    5    0    0 -0.27110846842E+02 -0.25357118737E+02  0.55486055636E+03  0.55610090675E+03  0.00000000000E+00 0.  1.
         12    1    5    5    0    0 -0.22978575365E+01  0.29356318806E+02  0.16340672026E+04  0.16343324926E+04  0.00000000000E+00 0. -1.
         13    1    3    3    0    0  0.15602365296E+02 -0.51829368168E+01  0.15122531364E+02  0.22338030167E+02  0.00000000000E+00 0. -1.
        -14    1    3    3    0    0  0.14482603162E+02  0.45388694295E+01 -0.88978228287E+02  0.90263349368E+02  0.00000000000E+00 0.  1.
          5    1    4    4  501    0 -0.74555198794E+01 -0.12657320714E+02 -0.27573510486E+02  0.31520841119E+02  0.41800000000E+01 0. -1.
         -5    1    4    4    0  501  0.67792557998E+01  0.93021880324E+01  0.12894350311E+03  0.12952369824E+03  0.41800000000E+01 0. -1.
</event>
<event>
11    1  0.8299058E-009  0.1296985E+03  0.7561462E-02  0.1119640E+00
         22   -1    0    0    0    0  0.00000000000E+00  0.00000000000E+00  0.72011719616E+02  0.72011719616E+02  0.00000000000E+00 0.  1.
         22   -1    0    0    0    0 -0.00000000000E+00 -0.00000000000E+00 -0.39348274274E+03  0.39348274274E+03  0.00000000000E+00 0.  1.
        -24    2    1    2    0    0 -0.18637688261E+00  0.42365687679E+02 -0.12828386092E+03  0.15704968244E+03  0.80081006194E+02 0.  0.
         25    2    1    2    0    0  0.24654088812E+01 -0.23127719958E+02 -0.18588795831E+03  0.22526213582E+03  0.12509087543E+03 0.  0.
         24    2    1    2    0    0 -0.22790319986E+01 -0.19237967721E+02 -0.72992038927E+01  0.83182644102E+02  0.80565380365E+02 0.  0.
        -13    1    5    5    0    0 -0.40908632934E+02 -0.45142992303E+01  0.25458179264E+00  0.41157744811E+02  0.00000000000E+00 0.  1.
         14    1    5    5    0    0  0.38629600935E+02 -0.14723668491E+02 -0.75537856854E+01  0.42024899291E+02  0.00000000000E+00 0. -1.
         13    1    3    3    0    0  0.30576609793E+02  0.10794566247E+02 -0.98882602712E+02  0.10406354235E+03  0.00000000000E+00 0. -1.
        -14    1    3    3    0    0 -0.30762986676E+02  0.31571121432E+02 -0.29401258211E+02  0.52986140094E+02  0.00000000000E+00 0.  1.
          5    1    4    4  501    0  0.32355761620E+02 -0.41785503039E+02 -0.21697759915E+02  0.57281661634E+02  0.41800000000E+01 0. -1.
         -5    1    4    4    0  501 -0.29890352739E+02  0.18657783081E+02 -0.16419019840E+03  0.16798047418E+03  0.41800000000E+01 0. -1.
</event>
<event>
11    1  0.8299058E-009  0.1487857E+03  0.7561462E-02  0.1098126E+00
         22   -1    0    0    0    0  0.00000000000E+00  0.00000000000E+00  0.42707875886E+03  0.42707875886E+03  0.00000000000E+00 0.  1.
         22   -1    0    0    0    0 -0.00000000000E+00 -0.00000000000E+00 -0.34121910843E+03  0.34121910843E+03  0.00000000000E+00 0. -1.
        -24    2    1    2    0    0 -0.40616300380E+02 -0.68035388928E+02 -0.27302943172E+03  0.29626954384E+03  0.83379098217E+02 0.  0.
         25    2    1    2    0    0  0.81316770937E+02  0.62122654750E+02  0.84578226731E+02  0.18240791789E+03  0.12509008995E+03 0.  0.
         24    2    1    2    0    0 -0.40700470557E+02  0.59127341779E+01  0.27431085541E+03  0.28962040556E+03  0.83318936570E+02 0.  0.
        -13    1    5    5    0    0 -0.62574966403E+02  0.16385190385E+02  0.23203253902E+03  0.24088005324E+03  0.00000000000E+00 0.  1.
         14    1    5    5    0    0  0.21874495846E+02 -0.10472456207E+02  0.42278316392E+02  0.48740352322E+02  0.00000000000E+00 0. -1.
         13    1    3    3    0    0  0.31179930681E+01 -0.27648086199E+02 -0.20057707259E+03  0.20249765579E+03  0.00000000000E+00 0. -1.
        -14    1    3    3    0    0 -0.43734293448E+02 -0.40387302729E+02 -0.72452359122E+02  0.93771888045E+02  0.00000000000E+00 0.  1.
          5    1    4    4  501    0  0.89151414925E+02  0.40355888175E+02  0.11033268596E+03  0.14753761041E+03  0.41800000000E+01 0.  1.
         -5    1    4    4    0  501 -0.78346439885E+01  0.21766766575E+02 -0.25754459233E+02  0.34870307483E+02  0.41800000000E+01 0.  1.
</event>
<event>
11    1  0.8299058E-009  0.2266377E+03  0.7561462E-02  0.1037137E+00
         22   -1    0    0    0    0  0.00000000000E+00  0.00000000000E+00  0.32174209003E+04  0.32174209003E+04  0.00000000000E+00 0. -1.
         22   -1    0    0    0    0 -0.00000000000E+00 -0.00000000000E+00 -0.21034117502E+04  0.21034117502E+04  0.00000000000E+00 0. -1.
        -24    2    1    2    0    0  0.17923951542E+03 -0.56312505738E+02 -0.20433367536E+04  0.20536565380E+04  0.83559469671E+02 0.  0.
         25    2    1    2    0    0 -0.27595979865E+03  0.87397233371E+02  0.41220794204E+03  0.51899380712E+03  0.12508835869E+03 0.  0.
         24    2    1    2    0    0  0.96720283231E+02 -0.31084727633E+02  0.27451379617E+04  0.27481823054E+04  0.80015508797E+02 0.  0.
        -11    1    5    5    0    0  0.53165953576E+02  0.22909381379E+02  0.10095389619E+04  0.10111974950E+04  0.00000000000E+00 0.  1.
         12    1    5    5    0    0  0.43554329655E+02 -0.53994109012E+02  0.17355989998E+04  0.17369848104E+04  0.00000000000E+00 0. -1.
         13    1    3    3    0    0  0.18050261831E+03 -0.37135292125E+02 -0.19210550919E+04  0.19298738019E+04  0.00000000000E+00 0. -1.
        -14    1    3    3    0    0 -0.12631028982E+01 -0.19177213613E+02 -0.12228166177E+03  0.12378273610E+03  0.00000000000E+00 0.  1.
          5    1    4    4  501    0 -0.61355518374E+02  0.67746412631E+02  0.72782146906E+02  0.11691359787E+03  0.41800000000E+01 0.  1.
         -5    1    4    4    0  501 -0.21460428027E+03  0.19650820740E+02  0.33942579514E+03  0.40208020925E+03  0.41800000000E+01 0.  1.
</event>
<event>
11    1  0.8299058E-009  0.1261266E+03  0.7561462E-02  0.1124122E+00
         22   -1    0    0    0    0  0.00000000000E+00  0.00000000000E+00  0.64677294334E+03  0.64677294334E+03  0.00000000000E+00 0.  1.
         22   -1    0    0    0    0 -0.00000000000E+00 -0.00000000000E+00 -0.22164702069E+03  0.22164702069E+03  0.00000000000E+00 0. -1.
         24    2    1    2    0    0 -0.16282260138E+02  0.26266168227E+00 -0.16372515123E+03  0.18285062861E+03  0.79769958344E+02 0.  0.
         25    2    1    2    0    0  0.14486859862E+02  0.11550566926E+02  0.42336606673E+02  0.13335437847E+03  0.12509083615E+03 0.  0.
        -24    2    1    2    0    0  0.17954002756E+01 -0.11813228608E+02  0.54651446720E+03  0.55221495695E+03  0.78233752229E+02 0.  0.
        -11    1    3    3    0    0  0.20550909951E+02  0.28401627403E+02 -0.69369052734E+02  0.77724242139E+02  0.00000000000E+00 0.  1.
         12    1    3    3    0    0 -0.36833170088E+02 -0.28138965720E+02 -0.94356098492E+02  0.10512638648E+03  0.00000000000E+00 0. -1.
         13    1    5    5    0    0  0.10511355780E+02 -0.40892590482E+02  0.20199189991E+03  0.20635750576E+03  0.00000000000E+00 0. -1.
        -14    1    5    5    0    0 -0.87159555045E+01  0.29079361873E+02  0.34452256729E+03  0.34585745119E+03  0.00000000000E+00 0.  1.
          5    1    4    4  501    0  0.58026820936E+02 -0.45656464188E+01  0.59819358190E+02  0.83569043847E+02  0.41800000000E+01 0. -1.
         -5    1    4    4    0  501 -0.43539961074E+02  0.16116213345E+02 -0.17482751517E+02  0.49785334623E+02  0.41800000000E+01 0. -1.
</event>
<event>
11    1  0.8299058E-009  0.1957807E+03  0.7561462E-02  0.1057548E+00
         22   -1    0    0    0    0  0.00000000000E+00  0.00000000000E+00  0.10057376261E+04  0.10057376261E+04  0.00000000000E+00 0. -1.
         22   -1    0    0    0    0 -0.00000000000E+00 -0.00000000000E+00 -0.25047131543E+03  0.25047131543E+03  0.00000000000E+00 0. -1.
        -24    2    1    2    0    0 -0.13674895973E+03  0.61010165124E+02 -0.19710788800E+03  0.26031758519E+03  0.80568029704E+02 0.  0.
         25    2    1    2    0    0  0.14201710902E+03 -0.96869806807E+02  0.66615673503E+03  0.69926036299E+03  0.12509053086E+03 0.  0.
         24    2    1    2    0    0 -0.52681492957E+01  0.35859641682E+02  0.28621746369E+03  0.29663099340E+03  0.68962616150E+02 0.  0.
        -13    1    5    5    0    0  0.13616068629E+02  0.47313772875E+02  0.13281654992E+03  0.14164824871E+03  0.00000000000E+00 0.  1.
         14    1    5    5    0    0 -0.18884217925E+02 -0.11454131193E+02  0.15340091376E+03  0.15498274469E+03  0.00000000000E+00 0. -1.
         11    1    3    3    0    0 -0.88121132085E+02  0.77243210654E+02 -0.15277918774E+03  0.19254435260E+03  0.00000000000E+00 0. -1.
        -12    1    3    3    0    0 -0.48627827643E+02 -0.16233045529E+02 -0.44328700263E+02  0.67773232588E+02  0.00000000000E+00 0.  1.
          5    1    4    4  501    0 -0.21185399339E+02 -0.27586767192E+01  0.42416347928E+02  0.47676518475E+02  0.41800000000E+01 0.  1.
         -5    1    4    4    0  501  0.16320250836E+03 -0.94111130087E+02  0.62374038710E+03  0.65158384452E+03  0.41800000000E+01 0.  1.
</event>
<event>
11    1  0.8299058E-009  0.1493184E+03  0.7561462E-02  0.1097577E+00
         22   -1    0    0    0    0  0.00000000000E+00  0.00000000000E+00  0.13162785186E+03  0.13162785186E+03  0.00000000000E+00 0. -1.
         22   -1    0    0    0    0 -0.00000000000E+00 -0.00000000000E+00 -0.93312707496E+03  0.93312707496E+03  0.00000000000E+00 0. -1.
         24    2    1    2    0    0 -0.66471426058E+00  0.46477031616E+02 -0.64765062601E+03  0.65453066996E+03  0.82453066786E+02 0.  0.
         25    2    1    2    0    0 -0.61771791862E+02 -0.93675814287E+02 -0.22135934587E+03  0.27791700502E+03  0.12508792598E+03 0.  0.
        -24    2    1    2    0    0  0.62436506122E+02  0.47198782670E+02  0.67510748778E+02  0.13230725185E+03  0.82592162510E+02 0.  0.
        -13    1    3    3    0    0  0.29091629643E+02  0.13257168396E+01 -0.98244023428E+02  0.10246935434E+03  0.00000000000E+00 0.  1.
         14    1    3    3    0    0 -0.29756343904E+02  0.45151314777E+02 -0.54940660259E+03  0.55206131561E+03  0.00000000000E+00 0. -1.
         13    1    5    5    0    0  0.70136449616E+02  0.38795211644E+02  0.81469151550E+02  0.11428653755E+03  0.00000000000E+00 0. -1.
        -14    1    5    5    0    0 -0.76999434931E+01  0.84035710268E+01 -0.13958402771E+02  0.18020714296E+02  0.00000000000E+00 0.  1.
          5    1    4    4  501    0 -0.61913990607E+01 -0.10946214929E+03 -0.15376534718E+03  0.18889560594E+03  0.41800000000E+01 0. -1.
         -5    1    4    4    0  501 -0.55580392801E+02  0.15786335000E+02 -0.67593998681E+02  0.89021399081E+02  0.41800000000E+01 0. -1.
</event>
<event>
11    1  0.8299058E-009  0.1339495E+03  0.7561462E-02  0.1114509E+00
         22   -1    0    0    0    0  0.00000000000E+00  0.00000000000E+00  0.11203206055E+04  0.11203206055E+04  0.00000000000E+00 0. -1.
         22   -1    0    0    0    0 -0.00000000000E+00 -0.00000000000E+00 -0.17405523586E+04  0.17405523586E+04  0.00000000000E+00 0.  1.
         24    2    1    2    0    0 -0.19881961860E+02  0.21517357746E+02 -0.16960406979E+04  0.16981521410E+04  0.79425159084E+02 0.  0.
         25    2    1    2    0    0  0.29390709298E+02 -0.67168818124E+02  0.85971635662E+02  0.16857116522E+03  0.12509856787E+03 0.  0.
        -24    2    1    2    0    0 -0.95087474377E+01  0.45651460378E+02  0.98983730916E+03  0.99414965796E+03  0.79882236379E+02 0.  0.
        -13    1    3    3    0    0 -0.92692057397E+01 -0.12053787000E+02 -0.13914755163E+04  0.13915585954E+04  0.00000000000E+00 0.  1.
         14    1    3    3    0    0 -0.10612756120E+02  0.33571144746E+02 -0.30456518157E+03  0.30659354555E+03  0.00000000000E+00 0. -1.
         11    1    5    5    0    0  0.78406386990E+01  0.65508389156E+02  0.73225942115E+03  0.73522560111E+03  0.00000000000E+00 0. -1.
        -12    1    5    5    0    0 -0.17349386137E+02 -0.19856928778E+02  0.25757788802E+03  0.25892405685E+03  0.00000000000E+00 0.  1.
          5    1    4    4  501    0  0.17027228690E+01 -0.99051668337E+02  0.76134359095E+02  0.12501218061E+03  0.41800000000E+01 0. -1.
         -5    1    4    4    0  501  0.27687986429E+02  0.31882850213E+02  0.98372765677E+01  0.43558984612E+02  0.41800000000E+01 0. -1.
</event>
<event>
11    1  0.8299058E-009  0.2312569E+03  0.7561462E-02  0.1034386E+00
         22   -1    0    0    0    0  0.00000000000E+00  0.00000000000E+00  0.40213730732E+03  0.40213730732E+03  0.00000000000E+00 0. -1.
         22   -1    0    0    0    0 -0.00000000000E+00 -0.00000000000E+00 -0.20760041116E+04  0.20760041116E+04  0.00000000000E+00 0.  1.
        -24    2    1    2    0    0 -0.15527584136E+03  0.11597090639E+03 -0.16422181781E+04  0.16555595991E+04  0.80232186879E+02 0.  0.
         25    2    1    2    0    0  0.15094372391E+03 -0.12855440418E+03 -0.38936727267E+03  0.45449360417E+03  0.12508925045E+03 0.  0.
         24    2    1    2    0    0  0.43321174554E+01  0.12583497791E+02  0.35771864649E+03  0.36808821560E+03  0.85727432951E+02 0.  0.
        -13    1    5    5    0    0 -0.88316271341E+01 -0.23845455323E+02  0.36164142799E+02  0.44209146133E+02  0.00000000000E+00 0.  1.
         14    1    5    5    0    0  0.13163744590E+02  0.36428953114E+02  0.32155450369E+03  0.32387906947E+03  0.00000000000E+00 0. -1.
         11    1    3    3    0    0 -0.13143093243E+03  0.55741408409E+02 -0.10118090659E+04  0.10218310919E+04  0.00000000000E+00 0. -1.
        -12    1    3    3    0    0 -0.23844908938E+02  0.60229497984E+02 -0.63040911216E+03  0.63372850717E+03  0.00000000000E+00 0.  1.
          5    1    4    4  501    0  0.28211454770E+02 -0.14011093188E+02 -0.19524701658E+03  0.19781573951E+03  0.41800000000E+01 0.  1.
         -5    1    4    4    0  501  0.12273226914E+03 -0.11454331100E+03 -0.19412025609E+03  0.25667786466E+03  0.41800000000E+01 0.  1.
</event>
<event>
11    1  0.8299058E-009  0.1276196E+03  0.7561462E-02  0.1122229E+00
         22   -1    0    0    0    0  0.00000000000E+00  0.00000000000E+00  0.80387407534E+03  0.80387407534E+03  0.00000000000E+00 0.  1.
         22   -1    0    0    0    0 -0.00000000000E+00 -0.00000000000E+00 -0.37014593379E+03  0.37014593379E+03  0.00000000000E+00 0. -1.
        -24    2    1    2    0    0  0.41096930930E+01  0.53950259817E+01 -0.34165566376E+03  0.35110917352E+03  0.80641572798E+02 0.  0.
         25    2    1    2    0    0 -0.22599741637E+02  0.11943504728E+02  0.17274498034E+03  0.21480664736E+03  0.12509065468E+03 0.  0.
         24    2    1    2    0    0  0.18490048543E+02 -0.17338530709E+02  0.60263882497E+03  0.60810418826E+03  0.77295820588E+02 0.  0.
        -13    1    5    5    0    0 -0.11467306570E+02 -0.18876293219E+02  0.51500954847E+03  0.51548292753E+03  0.00000000000E+00 0.  1.
         14    1    5    5    0    0  0.29957355113E+02  0.15377625093E+01  0.87629276503E+02  0.92621260731E+02  0.00000000000E+00 0. -1.
         13    1    3    3    0    0  0.22577120311E+01  0.24328236729E+02 -0.32472431311E+03  0.32564219611E+03  0.00000000000E+00 0. -1.
        -14    1    3    3    0    0  0.18519810620E+01 -0.18933210748E+02 -0.16931350656E+02  0.25466977404E+02  0.00000000000E+00 0.  1.
          5    1    4    4  501    0 -0.18694912292E+02  0.67505050565E+02  0.78829520600E+02  0.10553671075E+03  0.41800000000E+01 0.  1.
         -5    1    4    4    0  501 -0.39048293450E+01 -0.55561545837E+02  0.93915459743E+02  0.10926993661E+03  0.41800000000E+01 0.  1.
</event>
<event>
11    1  0.8299058E-009  0.1411741E+03  0.7561462E-02  0.1106254E+00
         22   -1    0    0    0    0  0.00000000000E+00  0.00000000000E+00  0.64680191333E+03  0.64680191333E+03  0.00000000000E+00 0. -1.
         22   -1    0    0    0    0 -0.00000000000E+00 -0.00000000000E+00 -0.19380106949E+03  0.19380106949E+03  0.00000000000E+00 0.  1.
         24    2    1    2    0    0  0.22205194007E+02  0.53964939998E+02 -0.11025143616E+03  0.14762358046E+03  0.78943378087E+02 0.  0.
         25    2    1    2    0    0  0.82041028527E+01  0.90735845204E+01  0.62334988961E+01  0.12583922066E+03  0.12508803184E+03 0.  0.
        -24    2    1    2    0    0 -0.30409296859E+02 -0.63038524518E+02  0.55701878109E+03  0.56714018169E+03  0.80495231484E+02 0.  0.
        -13    1    3    3    0    0  0.31896717163E+02  0.27302016277E+02 -0.11158506915E+03  0.11922259986E+03  0.00000000000E+00 0.  1.
         14    1    3    3    0    0 -0.96915231564E+01  0.26662923721E+02  0.13336329949E+01  0.28400980606E+02  0.00000000000E+00 0. -1.
         11    1    5    5    0    0 -0.65729915629E+01 -0.61505562691E+02  0.51584022071E+03  0.51953563089E+03  0.00000000000E+00 0. -1.
        -12    1    5    5    0    0 -0.23836305297E+02 -0.15329618278E+01  0.41178560383E+02  0.47604550805E+02  0.00000000000E+00 0.  1.
          5    1    4    4  501    0 -0.79537419278E+01 -0.52857666495E+02  0.24788039217E+02  0.59068724434E+02  0.41800000000E+01 0. -1.
         -5    1    4    4    0  501  0.16157844780E+02  0.61931251016E+02 -0.18554540321E+02  0.66770496230E+02  0.41800000000E+01 0. -1.
</event>
<event>
11    1  0.8299058E-009  0.1856368E+03  0.7561462E-02  0.1065172E+00
         22   -1    0    0    0    0  0.00000000000E+00  0.00000000000E+00  0.13870731751E+04  0.13870731751E+04  0.00000000000E+00 0. -1.
         22   -1    0    0    0    0 -0.00000000000E+00 -0.00000000000E+00 -0.18296206744E+03  0.18296206744E+03  0.00000000000E+00 0. -1.
        -24    2    1    2    0    0  0.16316103861E+02 -0.87840303060E+02 -0.12411026718E+03  0.17250843563E+03  0.79835254478E+02 0.  0.
         25    2    1    2    0    0  0.30164197192E+02  0.20208760919E+03  0.47662280423E+03  0.53344792656E+03  0.12509241486E+03 0.  0.
         24    2    1    2    0    0 -0.46480301053E+02 -0.11424730613E+03  0.85159857065E+03  0.86407888040E+03  0.78735764974E+02 0.  0.
        -11    1    5    5    0    0  0.90560253246E+01  0.75446411507E+01  0.95290999971E+02  0.96017226997E+02  0.00000000000E+00 0.  1.
         12    1    5    5    0    0 -0.55536326377E+02 -0.12179194728E+03  0.75630757068E+03  0.76806165341E+03  0.00000000000E+00 0. -1.
         11    1    3    3    0    0 -0.13713403447E+02  0.57197002653E+01 -0.41685575988E+02  0.44254487350E+02  0.00000000000E+00 0. -1.
        -12    1    3    3    0    0  0.30029507308E+02 -0.93560003325E+02 -0.82424691188E+02  0.12825394828E+03  0.00000000000E+00 0.  1.
          5    1    4    4  501    0  0.70750340596E+02  0.17022004707E+03  0.33093564544E+03  0.37883551700E+03  0.41800000000E+01 0. -1.
         -5    1    4    4    0  501 -0.40586143405E+02  0.31867562119E+02  0.14568715880E+03  0.15461240956E+03  0.41800000000E+01 0. -1.
</event>
<event>
11    1  0.8299058E-009  0.1602425E+03  0.7561462E-02  0.1086849E+00
         22   -1    0    0    0    0  0.00000000000E+00  0.00000000000E+00  0.14653791283E+03  0.14653791283E+03  0.00000000000E+00 0. -1.
         22   -1    0    0    0    0 -0.00000000000E+00 -0.00000000000E+00 -0.40782987450E+03  0.40782987450E+03  0.00000000000E+00 0. -1.
        -24    2    1    2    0    0  0.32327639137E+01  0.25593412050E+02 -0.13237606046E+03  0.16186773450E+03  0.89511276313E+02 0.  0.
         25    2    1    2    0    0  0.96389633265E+02 -0.69694424028E+01 -0.19021472850E+03  0.24731989548E+03  0.12508378487E+03 0.  0.
         24    2    1    2    0    0 -0.99622397178E+02 -0.18623969647E+02  0.61298827288E+02  0.14518015734E+03  0.83953901601E+02 0.  0.
        -11    1    5    5    0    0 -0.10928364238E+03 -0.17425984897E+02  0.33343798618E+02  0.11557849431E+03  0.00000000000E+00 0.  1.
         12    1    5    5    0    0  0.96612451997E+01 -0.11979847499E+01  0.27955028670E+02  0.29601663031E+02  0.00000000000E+00 0. -1.
         11    1    3    3    0    0 -0.81403123693E+01  0.37756256962E+01 -0.13660793496E+03  0.13690232989E+03  0.00000000000E+00 0. -1.
        -12    1    3    3    0    0  0.11373076283E+02  0.21817786354E+02  0.42318745039E+01  0.24965404610E+02  0.00000000000E+00 0.  1.
          5    1    4    4  501    0  0.34415610898E+02 -0.54608715850E+02 -0.14026491028E+03  0.15446120412E+03  0.41800000000E+01 0. -1.
         -5    1    4    4    0  501  0.61974022367E+02  0.47639273447E+02 -0.49949818213E+02  0.92858691367E+02  0.41800000000E+01 0. -1.
</event>
<event>
11    1  0.8299058E-009  0.1470290E+03  0.7561462E-02  0.1099954E+00
         22   -1    0    0    0    0  0.00000000000E+00  0.00000000000E+00  0.89644088135E+03  0.89644088135E+03  0.00000000000E+00 0. -1.
         22   -1    0    0    0    0 -0.00000000000E+00 -0.00000000000E+00 -0.29077168323E+03  0.29077168323E+03  0.00000000000E+00 0. -1.
        -24    2    1    2    0    0 -0.77920130208E+02  0.20450729575E+02 -0.20991970927E+03  0.23832237869E+03  0.79003119010E+02 0.  0.
         25    2    1    2    0    0  0.23742101895E+02 -0.78649532795E+02  0.27094426988E+02  0.15208974960E+03  0.12509095710E+03 0.  0.
         24    2    1    2    0    0  0.54178028313E+02  0.58198803219E+02  0.78849448040E+03  0.79680043629E+03  0.82734697678E+02 0.  0.
        -13    1    5    5    0    0 -0.15405233030E+01 -0.18635304564E+02  0.17687809778E+03  0.17786373791E+03  0.00000000000E+00 0.  1.
         14    1    5    5    0    0  0.55718551616E+02  0.76834107783E+02  0.61161638262E+03  0.61893669838E+03  0.00000000000E+00 0. -1.
         13    1    3    3    0    0 -0.33775005171E+02  0.38528008481E+02 -0.16509876504E+03  0.17286630855E+03  0.00000000000E+00 0. -1.
        -14    1    3    3    0    0 -0.44145125037E+02 -0.18077278906E+02 -0.44820944220E+02  0.65456070138E+02  0.00000000000E+00 0.  1.
          5    1    4    4  501    0  0.40003492502E+02 -0.10220085741E+03 -0.36332330940E+01  0.10989070684E+03  0.41800000000E+01 0.  1.
         -5    1    4    4    0  501 -0.16261390607E+02  0.23551324614E+02  0.30727660082E+02  0.42199042758E+02  0.41800000000E+01 0.  1.
</event>
<event>
11    1  0.8299058E-009  0.1413921E+03  0.7561462E-02  0.1106014E+00
         22   -1    0    0    0    0  0.00000000000E+00  0.00000000000E+00  0.27350190184E+02  0.27350190184E+02  0.00000000000E+00 0. -1.
         22   -1    0    0    0    0 -0.00000000000E+00 -0.00000000000E+00 -0.17432108497E+04  0.17432108497E+04  0.00000000000E+00 0. -1.
         24    2    1    2    0    0 -0.51654477157E+01 -0.10208228223E+02 -0.11200685810E+04  0.11227820567E+04  0.77168847102E+02 0.  0.
         25    2    1    2    0    0  0.30204414123E+02  0.67231192705E+02 -0.41137217022E+03  0.43624104531E+03  0.12508735856E+03 0.  0.
        -24    2    1    2    0    0 -0.25038966407E+02 -0.57022964482E+02 -0.18441990832E+03  0.21153793789E+03  0.82819250567E+02 0.  0.
        -13    1    3    3    0    0  0.24055074166E+02  0.20337310331E+02 -0.66774003643E+03  0.66848261685E+03  0.00000000000E+00 0.  1.
         14    1    3    3    0    0 -0.29220521882E+02 -0.30545538554E+02 -0.45232854458E+03  0.45429943987E+03  0.00000000000E+00 0. -1.
         13    1    5    5    0    0 -0.36934935795E+02 -0.73461527551E+02 -0.13437090474E+03  0.15753198264E+03  0.00000000000E+00 0. -1.
        -14    1    5    5    0    0  0.11895969388E+02  0.16438563070E+02 -0.50049003583E+02  0.54005955256E+02  0.00000000000E+00 0.  1.
          5    1    4    4  501    0 -0.18842112179E+02  0.72692598778E+02 -0.12709233536E+03  0.14767929176E+03  0.41800000000E+01 0. -1.
         -5    1    4    4    0  501  0.49046526302E+02 -0.54614060733E+01 -0.28427983487E+03  0.28856175355E+03  0.41800000000E+01 0. -1.
</event>
<event>
11    1  0.8299058E-009  0.1484011E+03  0.7561462E-02  0.1098524E+00
         22   -1    0    0    0    0  0.00000000000E+00  0.00000000000E+00  0.30447491005E+03  0.30447491005E+03  0.00000000000E+00 0.  1.
         22   -1    0    0    0    0 -0.00000000000E+00 -0.00000000000E+00 -0.10050114944E+03  0.10050114944E+03  0.00000000000E+00 0. -1.
        -24    2    1    2    0    0 -0.16380777646E+02 -0.61262713287E+01  0.32147003137E+02  0.87966381057E+02  0.79992457825E+02 0.  0.
         25    2    1    2    0    0  0.87259701051E+02 -0.58733466851E+01  0.13132062018E+03  0.20134801462E+03  0.12508863288E+03 0.  0.
         24    2    1    2    0    0 -0.70878923405E+02  0.11999618014E+02  0.40506137295E+02  0.11566166382E+03  0.81049742152E+02 0.  0.
        -13    1    5    5    0    0 -0.39711693073E+02  0.32406825045E+01  0.64188836931E+02  0.75549502820E+02  0.00000000000E+00 0.  1.
         14    1    5    5    0    0 -0.31167230332E+02  0.87589355093E+01 -0.23682699636E+02  0.40112160998E+02  0.00000000000E+00 0. -1.
         13    1    3    3    0    0 -0.50684628187E+01 -0.22855876883E+02 -0.20788851507E+02  0.31309052532E+02  0.00000000000E+00 0. -1.
        -14    1    3    3    0    0 -0.11312314827E+02  0.16729605554E+02  0.52935854644E+02  0.56657328526E+02  0.00000000000E+00 0.  1.
          5    1    4    4  501    0  0.22403998874E+02 -0.82337068920E+00 -0.23875904013E+02  0.33017393859E+02  0.41800000000E+01 0. -1.
         -5    1    4    4    0  501  0.64855702177E+02 -0.50499759959E+01  0.15519652420E+03  0.16833062076E+03  0.41800000000E+01 0. -1.
</event>
<event>
11    1  0.8299058E-009  0.1575050E+03  0.7561462E-02  0.1089448E+00
         22   -1    0    0    0    0  0.00000000000E+00  0.00000000000E+00  0.68780750100E+03  0.68780750100E+03  0.00000000000E+00 0. -1.
         22   -1    0    0    0    0 -0.00000000000E+00 -0.00000000000E+00 -0.23669849705E+04  0.23669849705E+04  0.00000000000E+00 0. -1.
        -24    2    1    2    0    0  0.12295347419E+02 -0.70525421779E+01 -0.20261158090E+04  0.20276160926E+04  0.76686593285E+02 0.  0.
         25    2    1    2    0    0  0.71199672930E+02  0.54081161508E+02 -0.31671033489E+03  0.35206206192E+03  0.12509234094E+03 0.  0.
         24    2    1    2    0    0 -0.83495020349E+02 -0.47028619330E+02  0.66364867437E+03  0.67511431700E+03  0.78528138718E+02 0.  0.
        -13    1    5    5    0    0 -0.76843964785E+02 -0.31791125956E+02  0.30657357628E+03  0.31765237019E+03  0.00000000000E+00 0.  1.
         14    1    5    5    0    0 -0.66510555641E+01 -0.15237493374E+02  0.35707509809E+03  0.35746194681E+03  0.00000000000E+00 0. -1.
         13    1    3    3    0    0  0.34769919967E+02  0.16149726430E+02 -0.15123197870E+04  0.15128056383E+04  0.00000000000E+00 0. -1.
        -14    1    3    3    0    0 -0.22474572548E+02 -0.23202268608E+02 -0.51379602199E+03  0.51481045433E+03  0.00000000000E+00 0.  1.
          5    1    4    4  501    0  0.63565224103E+02 -0.11110787476E+02 -0.64179321560E+02  0.91106778175E+02  0.41800000000E+01 0.  1.
         -5    1    4    4    0  501  0.76344488269E+01  0.65191948984E+02 -0.25253101333E+03  0.26095528374E+03  0.41800000000E+01 0.  1.
</event>
<event>
11    1  0.8299058E-009  0.1508391E+03  0.7561462E-02  0.1096024E+00
         22   -1    0    0    0    0  0.00000000000E+00  0.00000000000E+00  0.10070352253E+03  0.10070352253E+03  0.00000000000E+00 0.  1.
         22   -1    0    0    0    0 -0.00000000000E+00 -0.00000000000E+00 -0.72675188096E+03  0.72675188096E+03  0.00000000000E+00 0.  1.
        -24    2    1    2    0    0  0.54016248965E+02 -0.62836397096E+02 -0.36811065464E+03  0.38623527172E+03  0.82498867317E+02 0.  0.
         25    2    1    2    0    0 -0.13208714050E+02 -0.23808848909E+02 -0.28533660826E+03  0.31273985457E+03  0.12509158730E+03 0.  0.
         24    2    1    2    0    0 -0.40807534915E+02  0.86645246005E+02  0.27398904468E+02  0.12848027720E+03  0.81140791848E+02 0.  0.
        -13    1    5    5    0    0 -0.41530381563E+01  0.88291432614E+02  0.14400531274E+02  0.89554453267E+02  0.00000000000E+00 0.  1.
         14    1    5    5    0    0 -0.36654496759E+02 -0.16461866092E+01  0.12998373194E+02  0.38925823931E+02  0.00000000000E+00 0. -1.
         11    1    3    3    0    0  0.22514797757E+02 -0.69593304286E+02 -0.16365961148E+03  0.17926129685E+03  0.00000000000E+00 0. -1.
        -12    1    3    3    0    0  0.31501451208E+02  0.67569071902E+01 -0.20445104316E+03  0.20697397487E+03  0.00000000000E+00 0.  1.
          5    1    4    4  501    0  0.34606048904E+02  0.36728417468E+02 -0.10618767216E+03  0.11764288925E+03  0.41800000000E+01 0.  1.
         -5    1    4    4    0  501 -0.47814762953E+02 -0.60537266376E+02 -0.17914893609E+03  0.19509696533E+03  0.41800000000E+01 0.  1.
</event>
<event>
11    1  0.8299058E-009  0.1377461E+03  0.7561462E-02  0.1110102E+00
         22   -1    0    0    0    0  0.00000000000E+00  0.00000000000E+00  0.23646156460E+03  0.23646156460E+03  0.00000000000E+00 0.  1.
         22   -1    0    0    0    0 -0.00000000000E+00 -0.00000000000E+00 -0.21459533847E+03  0.21459533847E+03  0.00000000000E+00 0.  1.
        -24    2    1    2    0    0  0.39537653955E+02 -0.41288372788E+02 -0.95936692307E+02  0.13664145695E+03  0.78734255696E+02 0.  0.
         25    2    1    2    0    0 -0.39827174035E+02  0.43623388901E+02 -0.34097251774E+02  0.14247297730E+03  0.12508686115E+03 0.  0.
         24    2    1    2    0    0  0.28952007942E+00 -0.23350161139E+01  0.15190017021E+03  0.17194246881E+03  0.80529589265E+02 0.  0.
        -11    1    5    5    0    0 -0.27910614263E+02 -0.26105966146E+02  0.10824240529E+03  0.11479086271E+03  0.00000000000E+00 0.  1.
         12    1    5    5    0    0  0.28200134343E+02  0.23770950032E+02  0.43657764916E+02  0.57151606100E+02  0.00000000000E+00 0. -1.
         13    1    3    3    0    0  0.60027826044E+00  0.16358877701E+02  0.20224921571E+01  0.16494353220E+02  0.00000000000E+00 0. -1.
        -14    1    3    3    0    0  0.38937375695E+02 -0.57647250488E+02 -0.97959184464E+02  0.12014710373E+03  0.00000000000E+00 0.  1.
          5    1    4    4  501    0 -0.53667621348E+01  0.79512042346E+02  0.36413244413E+01  0.79885534720E+02  0.41800000000E+01 0. -1.
         -5    1    4    4    0  501 -0.34460411900E+02 -0.35888653445E+02 -0.37738576216E+02  0.62587442583E+02  0.41800000000E+01 0. -1.
</event>
<event>
11    1  0.8299058E-009  0.1438040E+03  0.7561462E-02  0.1103383E+00
         22   -1    0    0    0    0  0.00000000000E+00  0.00000000000E+00  0.65109700937E+03  0.65109700937E+03  0.00000000000E+00 0.  1.
         22   -1    0    0    0    0 -0.00000000000E+00 -0.00000000000E+00 -0.81752768924E+03  0.81752768924E+03  0.00000000000E+00 0.  1.
        -24    2    1    2    0    0 -0.68559623618E+02 -0.21574364742E+01 -0.71040634979E+03  0.71836631444E+03  0.81657231048E+02 0.  0.
         25    2    1    2    0    0  0.11330420904E+03 -0.47138244348E+01 -0.27773097882E+02  0.17111118140E+03  0.12509047728E+03 0.  0.
         24    2    1    2    0    0 -0.44744585426E+02  0.68712609089E+01  0.57174876779E+03  0.57914720277E+03  0.80408562074E+02 0.  0.
        -13    1    5    5    0    0 -0.45855333828E+02  0.24491241788E+02  0.54248527545E+03  0.54497046402E+03  0.00000000000E+00 0.  1.
         14    1    5    5    0    0  0.11107484015E+01 -0.17619980879E+02  0.29263492341E+02  0.34176738759E+02  0.00000000000E+00 0. -1.
         11    1    3    3    0    0 -0.13085320041E+00 -0.28288540313E+02 -0.31220890331E+03  0.31348789122E+03  0.00000000000E+00 0. -1.
        -12    1    3    3    0    0 -0.68428770418E+02  0.26131103839E+02 -0.39819744648E+03  0.40487842322E+03  0.00000000000E+00 0.  1.
          5    1    4    4  501    0  0.77685193985E+01 -0.32812221702E+02 -0.49147057866E+02  0.59748619093E+02  0.41800000000E+01 0. -1.
         -5    1    4    4    0  501  0.10553568965E+03  0.28098397267E+02  0.21373959985E+02  0.11136256231E+03  0.41800000000E+01 0. -1.
</event>
<event>
11    1  0.8299058E-009  0.1368233E+03  0.7561462E-02  0.1111158E+00
         22   -1    0    0    0    0  0.00000000000E+00  0.00000000000E+00  0.50177282670E+03  0.50177282670E+03  0.00000000000E+00 0. -1.
         22   -1    0    0    0    0 -0.00000000000E+00 -0.00000000000E+00 -0.20319224807E+03  0.20319224807E+03  0.00000000000E+00 0. -1.
        -24    2    1    2    0    0  0.31017470166E+02  0.13647311801E+02 -0.15638086152E+03  0.17944041992E+03  0.81213040057E+02 0.  0.
         25    2    1    2    0    0  0.11783888513E+02 -0.52977158634E+02  0.14437165854E+03  0.19858325521E+03  0.12508674628E+03 0.  0.
         24    2    1    2    0    0 -0.42801358679E+02  0.39329846833E+02  0.31058978161E+03  0.32694139964E+03  0.83939699805E+02 0.  0.
        -13    1    5    5    0    0 -0.75956941076E+01  0.28211226760E+02  0.23518678525E+02  0.37505947847E+02  0.00000000000E+00 0.  1.
         14    1    5    5    0    0 -0.35205664572E+02  0.11118620072E+02  0.28707110309E+03  0.28943545180E+03  0.00000000000E+00 0. -1.
         13    1    3    3    0    0  0.42236806189E+02  0.10662243218E+02 -0.16111681376E+03  0.16690194398E+03  0.00000000000E+00 0. -1.
        -14    1    3    3    0    0 -0.11219336022E+02  0.29850685835E+01  0.47359522404E+01  0.12538475938E+02  0.00000000000E+00 0.  1.
          5    1    4    4  501    0  0.50521105878E+02 -0.57466165003E+02  0.38658924347E+02  0.85829639932E+02  0.41800000000E+01 0. -1.
         -5    1    4    4    0  501 -0.38737217365E+02  0.44890063696E+01  0.10571273420E+03  0.11275361528E+03  0.41800000000E+01 0. -1.
</event>
<event>
11    1  0.8299058E-009  0.1382758E+03  0.7561462E-02  0.1109499E+00
         22   -1    0    0    0    0  0.00000000000E+00  0.00000000000E+00  0.16818022408E+04  0.16818022408E+04  0.00000000000E+00 0.  1.
         22   -1    0    0    0    0 -0.00000000000E+00 -0.00000000000E+00 -0.30497402699E+03  0.30497402699E+03  0.00000000000E+00 0. -1.
        -24    2    1    2    0    0 -0.80297892720E+01 -0.44593413467E+02 -0.26288972620E+03  0.27873463684E+03  0.80801853894E+02 0.  0.
         25    2    1    2    0    0 -0.12832191413E+02 -0.12833545211E+02  0.90410192704E+02  0.15540699003E+03  0.12509182461E+03 0.  0.
         24    2    1    2    0    0  0.20861980685E+02  0.57426958678E+02  0.15493077474E+04  0.15526346410E+04  0.81158822923E+02 0.  0.
        -13    1    5    5    0    0  0.34364513021E+02  0.72701751225E+02  0.11511456500E+04  0.11539509400E+04  0.00000000000E+00 0.  1.
         14    1    5    5    0    0 -0.13502532336E+02 -0.15274792547E+02  0.39816209731E+03  0.39868370095E+03  0.00000000000E+00 0. -1.
         13    1    3    3    0    0 -0.23265918786E+02 -0.55009003632E+02 -0.24779637580E+03  0.25489279573E+03  0.00000000000E+00 0. -1.
        -14    1    3    3    0    0  0.15236129514E+02  0.10415590165E+02 -0.15093350400E+02  0.23841841106E+02  0.00000000000E+00 0.  1.
          5    1    4    4  501    0  0.14058261483E+02  0.45745649095E+02  0.74895463119E+02  0.88978097995E+02  0.41800000000E+01 0.  1.
         -5    1    4    4    0  501 -0.26890452896E+02 -0.58579194306E+02  0.15514729585E+02  0.66428892032E+02  0.41800000000E+01 0.  1.
</event>
<event>
11    1  0.8299058E-009  0.1425736E+03  0.7561462E-02  0.1104718E+00
         22   -1    0    0    0    0  0.00000000000E+00  0.00000000000E+00  0.59305419046E+03  0.59305419046E+03  0.00000000000E+00 0.  1.
         22   -1    0    0    0    0 -0.00000000000E+00 -0.00000000000E+00 -0.38700732375E+03  0.38700732375E+03  0.00000000000E+00 0.  1.
         24    2    1    2    0    0  0.12207236338E+02 -0.11609002840E+02 -0.26225010894E+03  0.27485480798E+03  0.80537322190E+02 0.  0.
         25    2    1    2    0    0 -0.65168766961E+02  0.53631556766E+02 -0.62417253935E+02  0.16330291184E+03  0.12509442576E+03 0.  0.
        -24    2    1    2    0    0  0.52961530623E+02 -0.42022553926E+02  0.53071422959E+03  0.54190379439E+03  0.86205046989E+02 0.  0.
        -13    1    3    3    0    0  0.31202741608E+02  0.19017043880E+02 -0.19656591606E+03  0.19993353495E+03  0.00000000000E+00 0.  1.
         14    1    3    3    0    0 -0.18995505270E+02 -0.30626046719E+02 -0.65684192881E+02  0.74921273031E+02  0.00000000000E+00 0. -1.
         11    1    5    5    0    0  0.38410538643E+02 -0.55394154966E+02  0.20939865375E+03  0.21998108572E+03  0.00000000000E+00 0. -1.
        -12    1    5    5    0    0  0.14550991980E+02  0.13371601040E+02  0.32131557584E+03  0.32192270867E+03  0.00000000000E+00 0.  1.
          5    1    4    4  501    0  0.15912951203E+01  0.22214995091E+02 -0.83445946208E+02  0.86468124563E+02  0.41800000000E+01 0.  1.
         -5    1    4    4    0  501 -0.66760062081E+02  0.31416561675E+02  0.21028692273E+02  0.76834787273E+02  0.41800000000E+01 0.  1.
</event>
<event>
11    1  0.8299058E-009  0.1474216E+03  0.7561462E-02  0.1099543E+00
         22   -1    0    0    0    0  0.00000000000E+00  0.00000000000E+00  0.37728569415E+03  0.37728569415E+03  0.00000000000E+00 0. -1.
         22   -1    0    0    0    0 -0.00000000000E+00 -0.00000000000E+00 -0.16075881644E+04  0.16075881644E+04  0.00000000000E+00 0.  1.
        -24    2    1    2    0    0 -0.19733482830E+02 -0.43520180874E+01 -0.14346954024E+04  0.14370713624E+04  0.80092774206E+02 0.  0.
         25    2    1    2    0    0 -0.24652303817E+02  0.68988294085E+02 -0.13006134638E+03  0.19475994218E+03  0.12509340691E+03 0.  0.
         24    2    1    2    0    0  0.44385786648E+02 -0.64636275998E+02  0.33445427857E+03  0.35304255396E+03  0.81433618476E+02 0.  0.
        -11    1    5    5    0    0 -0.82886140999E+01 -0.24316349877E+02  0.22615382672E+02  0.34226328001E+02  0.00000000000E+00 0.  1.
         12    1    5    5    0    0  0.52674400748E+02 -0.40319926121E+02  0.31183889590E+03  0.31881622595E+03  0.00000000000E+00 0. -1.
         13    1    3    3    0    0  0.27225667733E+02 -0.10387844412E+02 -0.30626638631E+03  0.30764954685E+03  0.00000000000E+00 0. -1.
        -14    1    3    3    0    0 -0.46959150563E+02  0.60358263251E+01 -0.11284290161E+04  0.11294218155E+04  0.00000000000E+00 0.  1.
          5    1    4    4  501    0 -0.25655919652E+02 -0.20466847430E+02  0.42204329448E+01  0.33352698709E+02  0.41800000000E+01 0. -1.
         -5    1    4    4    0  501  0.10036158347E+01  0.89455141516E+02 -0.13428177932E+03  0.16140724347E+03  0.41800000000E+01 0. -1.
</event>
<event>
11    1  0.8299058E-009  0.1777692E+03  0.7561462E-02  0.1071462E+00
         22   -1    0    0    0    0  0.00000000000E+00  0.00000000000E+00  0.33917827831E+03  0.33917827831E+03  0.00000000000E+00 0. -1.
         22   -1    0    0    0    0 -0.00000000000E+00 -0.00000000000E+00 -0.15805347364E+04  0.15805347364E+04  0.00000000000E+00 0. -1.
         24    2    1    2    0    0 -0.76827885541E+02  0.62759082533E+02 -0.11972178777E+04  0.12040290441E+04  0.80709762566E+02 0.  0.
         25    2    1    2    0    0  0.44784646617E+02  0.63364508985E+02 -0.34658444526E+03  0.37654838535E+03  0.12508870148E+03 0.  0.
        -24    2    1    2    0    0  0.32043238924E+02 -0.12612359152E+03  0.30244586496E+03  0.33913558525E+03  0.81274316067E+02 0.  0.
        -11    1    3    3    0    0  0.46557684354E+01  0.16970411638E+01 -0.37222525310E+01  0.61976844338E+01  0.00000000000E+00 0.  1.
         12    1    3    3    0    0 -0.81483653977E+02  0.61062041369E+02 -0.11934956252E+04  0.11978313597E+04  0.00000000000E+00 0. -1.
         13    1    5    5    0    0  0.54740140356E+02 -0.11112457968E+03  0.22211550346E+03  0.25432351848E+03  0.00000000000E+00 0. -1.
        -14    1    5    5    0    0 -0.22696901432E+02 -0.14999011840E+02  0.80330361501E+02  0.84812066769E+02  0.00000000000E+00 0.  1.
          5    1    4    4  501    0  0.19489887540E+02  0.92484590133E+02 -0.30647204728E+03  0.32074264340E+03  0.41800000000E+01 0.  1.
         -5    1    4    4    0  501  0.25294759077E+02 -0.29120081148E+02 -0.40112397979E+02  0.55805741948E+02  0.41800000000E+01 0.  1.
</event>
<event>
11    1  0.8299058E-009  0.1597646E+03  0.7561462E-02  0.1087299E+00
         22   -1    0    0    0    0  0.00000000000E+00  0.00000000000E+00  0.64661992736E+03  0.64661992736E+03  0.00000000000E+00 0. -1.
         22   -1    0    0    0    0 -0.00000000000E+00 -0.00000000000E+00 -0.16735365686E+03  0.16735365686E+03  0.00000000000E+00 0.  1.
         24    2    1    2    0    0 -0.48104390071E+02  0.33281536917E+02 -0.11031839842E+03  0.14925558859E+03  0.81764225985E+02 0.  0.
         25    2    1    2    0    0 -0.65531531185E+02 -0.18564275827E+02  0.16617214034E+03  0.21886149352E+03  0.12509260251E+03 0.  0.
        -24    2    1    2    0    0  0.11363592126E+03 -0.14717261090E+02  0.42341252857E+03  0.44585650212E+03  0.79875720701E+02 0.  0.
        -11    1    3    3    0    0  0.18593753251E+02  0.25782650906E+02 -0.48609998800E+02  0.58081018681E+02  0.00000000000E+00 0.  1.
         12    1    3    3    0    0 -0.66698143322E+02  0.74988860107E+01 -0.61708399620E+02  0.91174569906E+02  0.00000000000E+00 0. -1.
         11    1    5    5    0    0  0.12404508185E+02 -0.19812191380E+02  0.18938253735E+03  0.19081965361E+03  0.00000000000E+00 0. -1.
        -12    1    5    5    0    0  0.10123141307E+03  0.50949302900E+01  0.23402999122E+03  0.25503684851E+03  0.00000000000E+00 0.  1.
          5    1    4    4  501    0 -0.17121814122E+02  0.52325981347E+02  0.51058828881E+02  0.75203997563E+02  0.41800000000E+01 0. -1.
         -5    1    4    4    0  501 -0.48409717063E+02 -0.70890257174E+02  0.11511331146E+03  0.14365749595E+03  0.41800000000E+01 0. -1.
</event>
<event>
11    1  0.8299058E-009  0.1365872E+03  0.7561462E-02  0.1111430E+00
         22   -1    0    0    0    0  0.00000000000E+00  0.00000000000E+00  0.59542873658E+03  0.59542873658E+03  0.00000000000E+00 0.  1.
         22   -1    0    0    0    0 -0.00000000000E+00 -0.00000000000E+00 -0.11412515533E+04  0.11412515533E+04  0.00000000000E+00 0.  1.
        -24    2    1    2    0    0  0.20825053966E+02 -0.30401614104E+02 -0.10083043785E+04  0.10121117768E+04  0.79590125668E+02 0.  0.
         25    2    1    2    0    0 -0.68522306366E+02  0.35623641540E+01 -0.86743652758E+02  0.16697438275E+03  0.12509191138E+03 0.  0.
         24    2    1    2    0    0  0.47697252400E+02  0.26839249950E+02  0.54922521457E+03  0.55759413026E+03  0.79167572674E+02 0.  0.
        -13    1    5    5    0    0  0.52386315056E+02  0.48269099572E+02  0.47080705638E+03  0.47616542957E+03  0.00000000000E+00 0.  1.
         14    1    5    5    0    0 -0.46890626561E+01 -0.21429849621E+02  0.78418158185E+02  0.81428700693E+02  0.00000000000E+00 0. -1.
         13    1    3    3    0    0 -0.99378690797E+01 -0.31159280391E+01 -0.16876030493E+02  0.19831052785E+02  0.00000000000E+00 0. -1.
        -14    1    3    3    0    0  0.30762923045E+02 -0.27285686065E+02 -0.99142834799E+03  0.99228072404E+03  0.00000000000E+00 0.  1.
          5    1    4    4  501    0 -0.83536147910E+02 -0.37745599717E+02 -0.33220050301E+02  0.97591303135E+02  0.41800000000E+01 0. -1.
         -5    1    4    4    0  501  0.15013841544E+02  0.41307963871E+02 -0.53523602457E+02  0.69383079616E+02  0.41800000000E+01 0. -1.
</event>
<event>
11    1  0.8299058E-009  0.1320039E+03  0.7561462E-02  0.1116831E+00
         22   -1    0    0    0    0  0.00000000000E+00  0.00000000000E+00  0.76103707500E+03  0.76103707500E+03  0.00000000000E+00 0. -1.
         22   -1    0    0    0    0 -0.00000000000E+00 -0.00000000000E+00 -0.10608358510E+03  0.10608358510E+03  0.00000000000E+00 0.  1.
         24    2    1    2    0    0 -0.25865513706E+02  0.16760047931E+02 -0.54889860534E+02  0.10313736881E+03  0.81697589013E+02 0.  0.
         25    2    1    2    0    0 -0.17694689007E+02 -0.12918834231E+01  0.14732742984E+03  0.19408441730E+03  0.12509443823E+03 0.  0.
        -24    2    1    2    0    0  0.43560202713E+02 -0.15468164508E+02  0.56251592059E+03  0.56989887398E+03  0.78891129235E+02 0.  0.
        -13    1    3    3    0    0 -0.38848995237E+01  0.41105788808E+02 -0.56869387221E+02  0.70277347138E+02  0.00000000000E+00 0.  1.
         14    1    3    3    0    0 -0.21980614182E+02 -0.24345740877E+02  0.19795266868E+01  0.32860021676E+02  0.00000000000E+00 0. -1.
         11    1    5    5    0    0 -0.16356817835E+01  0.99013647656E+00  0.40942891403E+03  0.40943337855E+03  0.00000000000E+00 0. -1.
        -12    1    5    5    0    0  0.45195884496E+02 -0.16458300985E+02  0.15308700656E+03  0.16046549544E+03  0.00000000000E+00 0.  1.
          5    1    4    4  501    0 -0.33925081691E+01 -0.62510628868E+02  0.64078032985E+02  0.89680290724E+02  0.41800000000E+01 0. -1.
         -5    1    4    4    0  501 -0.14302180838E+02  0.61218745445E+02  0.83249396854E+02  0.10440412658E+03  0.41800000000E+01 0. -1.
</event>
<event>
11    1  0.8299058E-009  0.2682600E+03  0.7561462E-02  0.1014598E+00
         22   -1    0    0    0    0  0.00000000000E+00  0.00000000000E+00  0.20516771565E+03  0.20516771565E+03  0.00000000000E+00 0. -1.
         22   -1    0    0    0    0 -0.00000000000E+00 -0.00000000000E+00 -0.20267929173E+04  0.20267929173E+04  0.00000000000E+00 0. -1.
        -24    2    1    2    0    0 -0.15349792021E+03 -0.16816404220E+03 -0.15870930249E+04  0.16053285947E+04  0.79842786172E+02 0.  0.
         25    2    1    2    0    0  0.25453390580E+03  0.19542248422E+03 -0.31928965185E+03  0.46965026447E+03  0.12509209649E+03 0.  0.
         24    2    1    2    0    0 -0.10103598559E+03 -0.27258442018E+02  0.84757475070E+02  0.15698177386E+03  0.80673134936E+02 0.  0.
        -11    1    5    5    0    0  0.12104408081E+02 -0.10845832949E+02  0.19346326121E+02  0.25267154999E+02  0.00000000000E+00 0.  1.
         12    1    5    5    0    0 -0.11314039367E+03 -0.16412609069E+02  0.65411148948E+02  0.13171461887E+03  0.00000000000E+00 0. -1.
         11    1    3    3    0    0 -0.16033423210E+03 -0.15334571584E+03 -0.13937016093E+04  0.14112498540E+04  0.00000000000E+00 0. -1.
        -12    1    3    3    0    0  0.68363118973E+01 -0.14818326363E+02 -0.19339141559E+03  0.19407874067E+03  0.00000000000E+00 0.  1.
          5    1    4    4  501    0  0.13574766923E+03  0.11963801065E+03 -0.94135540215E+02  0.20400895967E+03  0.41800000000E+01 0.  1.
         -5    1    4    4    0  501  0.11878623657E+03  0.75784473567E+02 -0.22515411164E+03  0.26564130481E+03  0.41800000000E+01 0.  1.
</event>
<event>
11    1  0.8299058E-009  0.1427057E+03  0.7561462E-02  0.1104574E+00
         22   -1    0    0    0    0  0.00000000000E+00  0.00000000000E+00  0.18709817987E+04  0.18709817987E+04  0.00000000000E+00 0.  1.
         22   -1    0    0    0    0 -0.00000000000E+00 -0.00000000000E+00 -0.53038635157E+02  0.53038635157E+02  0.00000000000E+00 0.  1.
         24    2    1    2    0    0  0.25188869966E+02  0.13868977542E+01  0.10353981898E+02  0.85790193983E+02  0.81340947787E+02 0.  0.
         25    2    1    2    0    0 -0.71626001001E+02  0.46250636415E+02  0.41543074918E+03  0.44215213312E+03  0.12508555498E+03 0.  0.
        -24    2    1    2    0    0  0.46437131035E+02 -0.47637534169E+02  0.13921584324E+04  0.13960781067E+04  0.80642651841E+02 0.  0.
        -13    1    3    3    0    0  0.39443038909E+02 -0.13124063173E+02 -0.22410439297E+02  0.47225227814E+02  0.00000000000E+00 0.  1.
         14    1    3    3    0    0 -0.14254168943E+02  0.14510960927E+02  0.32764421196E+02  0.38564966169E+02  0.00000000000E+00 0. -1.
         11    1    5    5    0    0 -0.14815002429E+02 -0.23181899610E+02  0.17644327009E+03  0.17857522876E+03  0.00000000000E+00 0. -1.
        -12    1    5    5    0    0  0.61252133463E+02 -0.24455634560E+02  0.12157151623E+04  0.12175028780E+04  0.00000000000E+00 0.  1.
          5    1    4    4  501    0 -0.22540023430E+02  0.62765005857E+02  0.36011148661E+03  0.36625845219E+03  0.41800000000E+01 0. -1.
         -5    1    4    4    0  501 -0.49085977571E+02 -0.16514369442E+02  0.55319262574E+02  0.75893680922E+02  0.41800000000E+01 0. -1.
</event>
<event>
11    1  0.8299058E-009  0.1487419E+03  0.7561462E-02  0.1098171E+00
         22   -1    0    0    0    0  0.00000000000E+00  0.00000000000E+00  0.15403815329E+03  0.15403815329E+03  0.00000000000E+00 0.  1.
         22   -1    0    0    0    0 -0.00000000000E+00 -0.00000000000E+00 -0.11610912100E+04  0.11610912100E+04  0.00000000000E+00 0. -1.
         24    2    1    2    0    0  0.12481119068E+02  0.27247414471E+02 -0.82294560097E+03  0.82769165108E+03  0.83281493557E+02 0.  0.
         25    2    1    2    0    0 -0.36212077112E+02 -0.10189308335E+03 -0.28961768678E+03  0.33349690399E+03  0.12509302741E+03 0.  0.
        -24    2    1    2    0    0  0.23730958044E+02  0.74645668881E+02  0.10551023102E+03  0.15394080826E+03  0.80188710838E+02 0.  0.
        -13    1    3    3    0    0  0.32254547763E+02  0.35566078466E+02 -0.26374312617E+03  0.26807785882E+03  0.00000000000E+00 0.  1.
         14    1    3    3    0    0 -0.19773428694E+02 -0.83186639950E+01 -0.55920247481E+03  0.55961379225E+03  0.00000000000E+00 0. -1.
         13    1    5    5    0    0  0.31578858063E+02  0.27331462906E+01  0.61710051083E+02  0.69374525367E+02  0.00000000000E+00 0. -1.
        -14    1    5    5    0    0 -0.78479000196E+01  0.71912522591E+02  0.43800179938E+02  0.84566282895E+02  0.00000000000E+00 0.  1.
          5    1    4    4  501    0  0.73086848475E+01 -0.79590880306E+02 -0.63646238884E+02  0.10225674171E+03  0.41800000000E+01 0. -1.
         -5    1    4    4    0  501 -0.43520761959E+02 -0.22302203047E+02 -0.22597144790E+03  0.23124016227E+03  0.41800000000E+01 0. -1.
</event>
<event>
11    1  0.8299058E-009  0.2433331E+03  0.7561462E-02  0.1027512E+00
         22   -1    0    0    0    0  0.00000000000E+00  0.00000000000E+00  0.41986685135E+03  0.41986685135E+03  0.00000000000E+00 0. -1.
         22   -1    0    0    0    0 -0.00000000000E+00 -0.00000000000E+00 -0.57560559602E+03  0.57560559602E+03  0.00000000000E+00 0. -1.
         24    2    1    2    0    0  0.40578981948E+01 -0.18545884407E+02 -0.36390205261E+03  0.37520077359E+03  0.89389598076E+02 0.  0.
         25    2    1    2    0    0  0.17216326685E+03 -0.97930492692E+02 -0.85757850909E+02  0.24947053888E+03  0.12510223389E+03 0.  0.
        -24    2    1    2    0    0 -0.17622116504E+03  0.11647637710E+03  0.29392115885E+03  0.37080113490E+03  0.80518250047E+02 0.  0.
        -13    1    3    3    0    0 -0.28108814491E+02  0.23927166620E+02 -0.12009355723E+03  0.12563867734E+03  0.00000000000E+00 0.  1.
         14    1    3    3    0    0  0.32166712686E+02 -0.42473051026E+02 -0.24380849538E+03  0.24956209625E+03  0.00000000000E+00 0. -1.
         11    1    5    5    0    0 -0.18447124538E+03  0.11575122154E+03  0.28317449344E+03  0.35723350822E+03  0.00000000000E+00 0. -1.
        -12    1    5    5    0    0  0.82500803389E+01  0.72515555485E+00  0.10746665411E+02  0.13567626676E+02  0.00000000000E+00 0.  1.
          5    1    4    4  501    0  0.22358669094E+02 -0.80088225111E+02 -0.27183521836E+02  0.87581106093E+02  0.41800000000E+01 0.  1.
         -5    1    4    4    0  501  0.14980459776E+03 -0.17842267581E+02 -0.58574329072E+02  0.16188943278E+03  0.41800000000E+01 0.  1.
</event>
<event>
11    1  0.8299058E-009  0.1549481E+03  0.7561462E-02  0.1091927E+00
         22   -1    0    0    0    0  0.00000000000E+00  0.00000000000E+00  0.84094619439E+03  0.84094619439E+03  0.00000000000E+00 0. -1.
         22   -1    0    0    0    0 -0.00000000000E+00 -0.00000000000E+00 -0.17568622225E+03  0.17568622225E+03  0.00000000000E+00 0. -1.
        -24    2    1    2    0    0  0.26722131036E+02  0.29548291893E+02 -0.11856980011E+03  0.15097742390E+03  0.84547094499E+02 0.  0.
         25    2    1    2    0    0  0.62382443052E+02 -0.58195859654E+02  0.12781250429E+03  0.19814799389E+03  0.12509302119E+03 0.  0.
         24    2    1    2    0    0 -0.89104574088E+02  0.28647567761E+02  0.65601726796E+03  0.66750699884E+03  0.80290904669E+02 0.  0.
        -11    1    5    5    0    0  0.97451955590E+01  0.11758195270E+02  0.20054823530E+03  0.20112886086E+03  0.00000000000E+00 0.  1.
         12    1    5    5    0    0 -0.98849769647E+02  0.16889372491E+02  0.45546903267E+03  0.46637813798E+03  0.00000000000E+00 0. -1.
         13    1    3    3    0    0 -0.14985099218E+02  0.39951559288E+02 -0.89307714800E+02  0.98977513663E+02  0.00000000000E+00 0. -1.
        -14    1    3    3    0    0  0.41707230254E+02 -0.10403267394E+02 -0.29262085311E+02  0.51999910237E+02  0.00000000000E+00 0.  1.
          5    1    4    4  501    0 -0.36346724053E+01 -0.77222883873E+02  0.41799200310E+02  0.87984261000E+02  0.41800000000E+01 0. -1.
         -5    1    4    4    0  501  0.66017115457E+02  0.19027024218E+02  0.86013303977E+02  0.11016373289E+03  0.41800000000E+01 0. -1.
</event>
<event>
11    1  0.8299058E-009  0.2607603E+03  0.7561462E-02  0.1018318E+00
         22   -1    0    0    0    0  0.00000000000E+00  0.00000000000E+00  0.46017096803E+03  0.46017096803E+03  0.00000000000E+00 0.  1.
         22   -1    0    0    0    0 -0.00000000000E+00 -0.00000000000E+00 -0.68154129394E+03  0.68154129394E+03  0.00000000000E+00 0.  1.
         24    2    1    2    0    0  0.60930597828E+02 -0.20656122232E+03 -0.34792465814E+03  0.41728817439E+03  0.81839943931E+02 0.  0.
         25    2    1    2    0    0 -0.14115162195E+03  0.22278460568E+03 -0.21613090936E+03  0.36320281719E+03  0.12508779127E+03 0.  0.
        -24    2    1    2    0    0  0.80221024118E+02 -0.16223383357E+02  0.34268524159E+03  0.36122127041E+03  0.79680741162E+02 0.  0.
        -13    1    3    3    0    0  0.66607197015E+02 -0.20698723860E+03 -0.30834996051E+03  0.37730615392E+03  0.00000000000E+00 0.  1.
         14    1    3    3    0    0 -0.56765991871E+01  0.42601628296E+00 -0.39574697624E+02  0.39982020462E+02  0.00000000000E+00 0. -1.
         13    1    5    5    0    0  0.52767332058E+02  0.15726743898E+02  0.93560036427E+02  0.10855967125E+03  0.00000000000E+00 0. -1.
        -14    1    5    5    0    0  0.27453692060E+02 -0.31950127255E+02  0.24912520517E+03  0.25266159916E+03  0.00000000000E+00 0.  1.
          5    1    4    4  501    0 -0.35962002340E+01  0.46881499975E+02 -0.10199392824E+03  0.11238790635E+03  0.41800000000E+01 0.  1.
         -5    1    4    4    0  501 -0.13755542171E+03  0.17590310570E+03 -0.11413698113E+03  0.25081491084E+03  0.41800000000E+01 0.  1.
</event>
<event>
11    1  0.8299058E-009  0.1975145E+03  0.7561462E-02  0.1056295E+00
         22   -1    0    0    0    0  0.00000000000E+00  0.00000000000E+00  0.23245930626E+03  0.23245930626E+03  0.00000000000E+00 0.  1.
         22   -1    0    0    0    0 -0.00000000000E+00 -0.00000000000E+00 -0.81507675871E+03  0.81507675871E+03  0.00000000000E+00 0. -1.
         24    2    1    2    0    0  0.23668074275E+02 -0.74293289304E+02 -0.55549199078E+03  0.56660760921E+03  0.79957241189E+02 0.  0.
         25    2    1    2    0    0 -0.27611069320E+02  0.21440982588E+03 -0.13735894286E+03  0.28504592260E+03  0.12509897771E+03 0.  0.
        -24    2    1    2    0    0  0.39429950446E+01 -0.14011653657E+03  0.11023348119E+03  0.19588253315E+03  0.81057728736E+02 0.  0.
        -11    1    3    3    0    0  0.31540507165E+02  0.50366368294E+01 -0.15384830358E+03  0.15712883827E+03  0.00000000000E+00 0.  1.
         12    1    3    3    0    0 -0.78724328901E+01 -0.79329926134E+02 -0.40164368721E+03  0.40947877094E+03  0.00000000000E+00 0. -1.
         13    1    5    5    0    0  0.12397144873E+02 -0.68732049913E+02  0.71437623388E+01  0.70205535584E+02  0.00000000000E+00 0. -1.
        -14    1    5    5    0    0 -0.84541498283E+01 -0.71384486661E+02  0.10308971885E+03  0.12567699757E+03  0.00000000000E+00 0.  1.
          5    1    4    4  501    0  0.18468245859E+02 -0.32715331251E+01 -0.35352210040E+02  0.40237174215E+02  0.41800000000E+01 0.  1.
         -5    1    4    4    0  501 -0.46079315178E+02  0.21768135900E+03 -0.10200673282E+03  0.24480874838E+03  0.41800000000E+01 0.  1.
</event>
<event>
11    1  0.8299058E-009  0.2018482E+03  0.7561462E-02  0.1053224E+00
         22   -1    0    0    0    0  0.00000000000E+00  0.00000000000E+00  0.22742998610E+03  0.22742998610E+03  0.00000000000E+00 0. -1.
         22   -1    0    0    0    0 -0.00000000000E+00 -0.00000000000E+00 -0.14913801485E+04  0.14913801485E+04  0.00000000000E+00 0. -1.
         24    2    1    2    0    0  0.20410650491E+02 -0.39154013494E+02 -0.11643478665E+04  0.11671477519E+04  0.67663055640E+02 0.  0.
         25    2    1    2    0    0  0.13326113053E+03  0.81873258962E+02 -0.24841228313E+03  0.31908850108E+03  0.12508816758E+03 0.  0.
        -24    2    1    2    0    0 -0.15367178102E+03 -0.42719245467E+02  0.14880998729E+03  0.23257388156E+03  0.80661315718E+02 0.  0.
        -11    1    3    3    0    0  0.42507353507E+02 -0.25998050467E+02 -0.54708376613E+03  0.54934817820E+03  0.00000000000E+00 0.  1.
         12    1    3    3    0    0 -0.22096703016E+02 -0.13155963027E+02 -0.61726410039E+03  0.61779957371E+03  0.00000000000E+00 0. -1.
         13    1    5    5    0    0 -0.87095664701E+02 -0.44240379764E+02  0.13141489399E+03  0.16374596292E+03  0.00000000000E+00 0. -1.
        -14    1    5    5    0    0 -0.66576116317E+02  0.15211342970E+01  0.17395093303E+02  0.68827918641E+02  0.00000000000E+00 0.  1.
          5    1    4    4  501    0  0.10860554190E+03  0.98005823417E+02 -0.24956091379E+03  0.28930680470E+03  0.41800000000E+01 0.  1.
         -5    1    4    4    0  501  0.24655588629E+02 -0.16132564456E+02  0.11486306620E+01  0.29781696375E+02  0.41800000000E+01 0.  1.
</event>
<event>
11    1  0.8299058E-009  0.2634070E+03  0.7561462E-02  0.1016990E+00
         22   -1    0    0    0    0  0.00000000000E+00  0.00000000000E+00  0.15790038898E+03  0.15790038898E+03  0.00000000000E+00 0.  1.
         22   -1    0    0    0    0 -0.00000000000E+00 -0.00000000000E+00 -0.21984796367E+04  0.21984796367E+04  0.00000000000E+00 0.  1.
        -24    2    1    2    0    0 -0.15318895765E+03  0.19667838871E+03 -0.18440681725E+04  0.18625354063E+04  0.79381796440E+02 0.  0.
         25    2    1    2    0    0  0.11837966508E+03 -0.11729784738E+03 -0.27464899864E+03  0.34474200887E+03  0.12506978100E+03 0.  0.
         24    2    1    2    0    0  0.34809292571E+02 -0.79380541328E+02  0.78137923488E+02  0.14910261044E+03  0.92806767871E+02 0.  0.
        -13    1    5    5    0    0  0.30885129127E+02  0.84037444336E+01  0.44929508252E+02  0.55164978324E+02  0.00000000000E+00 0.  1.
         14    1    5    5    0    0  0.39241634441E+01 -0.87784285762E+02  0.33208415236E+02  0.93937632118E+02  0.00000000000E+00 0. -1.
         11    1    3    3    0    0 -0.27400457194E+02  0.10046093514E+01 -0.13960003653E+03  0.14226722917E+03  0.00000000000E+00 0. -1.
        -12    1    3    3    0    0 -0.12578850045E+03  0.19567377936E+03 -0.17044681360E+04  0.17202681772E+04  0.00000000000E+00 0.  1.
          5    1    4    4  501    0 -0.17711645203E+02 -0.23086919441E+02 -0.73242834925E+01  0.30295639187E+02  0.41800000000E+01 0.  1.
         -5    1    4    4    0  501  0.13609131028E+03 -0.94210927944E+02 -0.26732471515E+03  0.31444636969E+03  0.41800000000E+01 0.  1.
</event>
<event>
11    1  0.8299058E-009  0.2151385E+03  0.7561462E-02  0.1044306E+00
         22   -1    0    0    0    0  0.00000000000E+00  0.00000000000E+00  0.62002099684E+03  0.62002099684E+03  0.00000000000E+00 0.  1.
         22   -1    0    0    0    0 -0.00000000000E+00 -0.00000000000E+00 -0.95273734042E+03  0.95273734042E+03  0.00000000000E+00 0.  1.
         24    2    1    2    0    0 -0.94110610603E+02  0.14758869396E+03 -0.87815903079E+03  0.89903758844E+03  0.80411892481E+02 0.  0.
         25    2    1    2    0    0  0.15140757239E+03 -0.10969451578E+03  0.16495467391E+03  0.27896416840E+03  0.12511523902E+03 0.  0.
        -24    2    1    2    0    0 -0.57296961786E+02 -0.37894178173E+02  0.38048801330E+03  0.39475658042E+03  0.79641188761E+02 0.  0.
        -13    1    3    3    0    0 -0.97925451740E+02  0.96339614038E+02 -0.55094728551E+03  0.56781478207E+03  0.00000000000E+00 0.  1.
         14    1    3    3    0    0  0.38148411366E+01  0.51249079920E+02 -0.32721174528E+03  0.33122280636E+03  0.00000000000E+00 0. -1.
         11    1    5    5    0    0 -0.84521943097E+01  0.24414712265E+02  0.84369220859E+02  0.88236518471E+02  0.00000000000E+00 0. -1.
        -12    1    5    5    0    0 -0.48844767477E+02 -0.62308890438E+02  0.29611879244E+03  0.30652006195E+03  0.00000000000E+00 0.  1.
          5    1    4    4  501    0  0.13148197969E+03 -0.48779609063E+02  0.53162841508E+02  0.15003573361E+03  0.41800000000E+01 0.  1.
         -5    1    4    4    0  501  0.19925592703E+02 -0.60914906722E+02  0.11179183240E+03  0.12892843479E+03  0.41800000000E+01 0.  1.
</event>
<event>
11    1  0.8299058E-009  0.1911183E+03  0.7561462E-02  0.1060988E+00
         22   -1    0    0    0    0  0.00000000000E+00  0.00000000000E+00  0.38286446862E+03  0.38286446862E+03  0.00000000000E+00 0. -1.
         22   -1    0    0    0    0 -0.00000000000E+00 -0.00000000000E+00 -0.52698021012E+03  0.52698021012E+03  0.00000000000E+00 0. -1.
        -24    2    1    2    0    0 -0.62688037307E+01 -0.35129244718E+02 -0.40699327433E+03  0.41951038199E+03  0.95247433111E+02 0.  0.
         25    2    1    2    0    0 -0.13558739417E+03 -0.75605419618E+01  0.11425496873E+02  0.18496810287E+03  0.12506619787E+03 0.  0.
         24    2    1    2    0    0  0.14185619790E+03  0.42689786680E+02  0.25145203596E+03  0.30536619388E+03  0.89859819762E+02 0.  0.
        -13    1    5    5    0    0  0.86944946529E+02  0.28462192486E+02  0.69824496814E+02  0.11508683888E+03  0.00000000000E+00 0.  1.
         14    1    5    5    0    0  0.54911251372E+02  0.14227594193E+02  0.18162753914E+03  0.19027935500E+03  0.00000000000E+00 0. -1.
         13    1    3    3    0    0 -0.48831909953E+02 -0.21075303894E+02 -0.27551409955E+03  0.28060068231E+03  0.00000000000E+00 0. -1.
        -14    1    3    3    0    0  0.42563106222E+02 -0.14053940824E+02 -0.13147917479E+03  0.13890969969E+03  0.00000000000E+00 0.  1.
          5    1    4    4  501    0 -0.13419235638E+03  0.17940013468E+02 -0.27510777272E+02  0.13821630823E+03  0.41800000000E+01 0.  1.
         -5    1    4    4    0  501 -0.13950377850E+01 -0.25500555430E+02  0.38936274145E+02  0.46751794639E+02  0.41800000000E+01 0.  1.
</event>
<event>
11    1  0.8299058E-009  0.2180083E+03  0.7561462E-02  0.1042472E+00
         22   -1    0    0    0    0  0.00000000000E+00  0.00000000000E+00  0.75665665729E+03  0.75665665729E+03  0.00000000000E+00 0. -1.
         22   -1    0    0    0    0 -0.00000000000E+00 -0.00000000000E+00 -0.55781334958E+03  0.55781334958E+03  0.00000000000E+00 0.  1.
         24    2    1    2    0    0 -0.10940650865E+03 -0.74220801970E+02 -0.41676811980E+03  0.44428363927E+03  0.78827500673E+02 0.  0.
         25    2    1    2    0    0  0.27250430542E+03  0.39986562319E+02  0.94111211296E+02  0.31679847568E+03  0.12508729937E+03 0.  0.
        -24    2    1    2    0    0 -0.16309779676E+03  0.34234239651E+02  0.52150021622E+03  0.55338789191E+03  0.80639995850E+02 0.  0.
        -11    1    3    3    0    0 -0.51128008938E+02 -0.80439204439E+02 -0.25736789154E+03  0.27444994171E+03  0.00000000000E+00 0.  1.
         12    1    3    3    0    0 -0.58278499714E+02  0.62184024694E+01 -0.15940022826E+03  0.16983369756E+03  0.00000000000E+00 0. -1.
         13    1    5    5    0    0 -0.16809520770E+03  0.29998136562E+02  0.51901478583E+03  0.54638103459E+03  0.00000000000E+00 0. -1.
        -14    1    5    5    0    0  0.49974109329E+01  0.42361030887E+01  0.24854303891E+01  0.70068573291E+01  0.00000000000E+00 0.  1.
          5    1    4    4  501    0  0.81501242713E+01 -0.26019388788E+02  0.20972764322E+02  0.34652018150E+02  0.41800000000E+01 0.  1.
         -5    1    4    4    0  501  0.26435418114E+03  0.66005951107E+02  0.73138446974E+02  0.28214645753E+03  0.41800000000E+01 0.  1.
</event>
<event>
11    1  0.8299058E-009  0.1420427E+03  0.7561462E-02  0.1105299E+00
         22   -1    0    0    0    0  0.00000000000E+00  0.00000000000E+00  0.50564344917E+03  0.50564344917E+03  0.00000000000E+00 0.  1.
         22   -1    0    0    0    0 -0.00000000000E+00 -0.00000000000E+00 -0.28729387917E+03  0.28729387917E+03  0.00000000000E+00 0.  1.
        -24    2    1    2    0    0 -0.10819720622E+02 -0.29052341570E+02 -0.18125545588E+03  0.20082239903E+03  0.80715492692E+02 0.  0.
         25    2    1    2    0    0 -0.54983227529E+02  0.10112801695E+02 -0.37851444340E+02  0.14214629763E+03  0.12508962397E+03 0.  0.
         24    2    1    2    0    0  0.65802948151E+02  0.18939539875E+02  0.43745647022E+03  0.44996863166E+03  0.80092895984E+02 0.  0.
        -11    1    5    5    0    0  0.59598500162E+02  0.36137444342E+02  0.41591449779E+03  0.42171408037E+03  0.00000000000E+00 0.  1.
         12    1    5    5    0    0  0.62044479895E+01 -0.17197904467E+02  0.21541972429E+02  0.28254551298E+02  0.00000000000E+00 0. -1.
         11    1    3    3    0    0 -0.30723095093E+02 -0.37609319777E+01 -0.21087873286E+02  0.37453325369E+02  0.00000000000E+00 0. -1.
        -12    1    3    3    0    0  0.19903374471E+02 -0.25291409593E+02 -0.16016758260E+03  0.16336907366E+03  0.00000000000E+00 0.  1.
          5    1    4    4  501    0 -0.77474093964E+02  0.19917564241E+02 -0.66562842514E+02  0.10414907107E+03  0.41800000000E+01 0.  1.
         -5    1    4    4    0  501  0.22490866435E+02 -0.98047625461E+01  0.28711398174E+02  0.37997226566E+02  0.41800000000E+01 0.  1.
</event>
<event>
11    1  0.1292081E-008  0.1708936E+03  0.7561462E-02  0.1077257E+00
         22   -1    0    0    0    0  0.00000000000E+00  0.00000000000E+00  0.12745676610E+04  0.12745676610E+04  0.00000000000E+00 0.  1.
         22   -1    0    0    0    0 -0.00000000000E+00 -0.00000000000E+00 -0.25566573154E+03  0.25566573154E+03  0.00000000000E+00 0.  1.
         24    2    1    2    0    0 -0.18850986284E+02  0.16165231327E+02 -0.10299907549E+03  0.13424124152E+03  0.82433166782E+02 0.  0.
         25    2    1    2    0    0  0.13251573323E+03  0.68039497971E+01 -0.70328994276E+02  0.19545402554E+03  0.12509754346E+03 0.  0.
        -24    2    1    2    0    0 -0.11366474694E+03 -0.22969181124E+02  0.11922299992E+04  0.12005381254E+04  0.80200758719E+02 0.  0.
        -11    1    3    3    0    0 -0.17666922715E+02  0.56094121036E+01 -0.11598931418E+03  0.11746108576E+03  0.00000000000E+00 0.  1.
         12    1    3    3    0    0 -0.11840635691E+01  0.10555819224E+02  0.12990238697E+02  0.16780155763E+02  0.00000000000E+00 0. -1.
         13    1    5    5    0    0  0.39937435042E+01  0.45092897772E+00  0.24117994596E+01  0.46872274058E+01  0.00000000000E+00 0. -1.
        -14    1    5    5    0    0 -0.11765849045E+03 -0.23420110102E+02  0.11898181997E+04  0.11958508980E+04  0.00000000000E+00 0.  1.
          5    1    4    4  501    0  0.49932481823E+02  0.56809757770E+02 -0.63032700088E+02  0.98545395627E+02  0.41800000000E+01 0. -1.
         -5    1    4    4    0  501  0.82583251403E+02 -0.50005807973E+02 -0.72962941873E+01  0.96908629916E+02  0.41800000000E+01 0. -1.
</event>
<event>
11    1  0.8299058E-009  0.1494667E+03  0.7561462E-02  0.1097425E+00
         22   -1    0    0    0    0  0.00000000000E+00  0.00000000000E+00  0.51101779728E+03  0.51101779728E+03  0.00000000000E+00 0.  1.
         22   -1    0    0    0    0 -0.00000000000E+00 -0.00000000000E+00 -0.47217589370E+03  0.47217589370E+03  0.00000000000E+00 0. -1.
         24    2    1    2    0    0 -0.29543581154E+02  0.74108313043E+02 -0.39677426563E+03  0.41251559961E+03  0.79840070167E+02 0.  0.
         25    2    1    2    0    0  0.24940650821E+02 -0.10890097555E+03  0.48760782110E+02  0.17466441699E+03  0.12509430904E+03 0.  0.
        -24    2    1    2    0    0  0.46029303330E+01  0.34792662505E+02  0.38685538709E+03  0.39601367438E+03  0.77058571499E+02 0.  0.
        -13    1    3    3    0    0 -0.45554138761E+02  0.18779074770E+02 -0.11837686651E+03  0.12822213433E+03  0.00000000000E+00 0.  1.
         14    1    3    3    0    0  0.16010557607E+02  0.55329238273E+02 -0.27839739912E+03  0.28429346528E+03  0.00000000000E+00 0. -1.
         13    1    5    5    0    0  0.92834025105E+01 -0.16848158126E+02  0.31604020467E+02  0.36998055410E+02  0.00000000000E+00 0. -1.
        -14    1    5    5    0    0 -0.46804721774E+01  0.51640820631E+02  0.35525136663E+03  0.35901561897E+03  0.00000000000E+00 0.  1.
          5    1    4    4  501    0 -0.33942127053E+02 -0.96151703491E+02  0.51296479455E+02  0.11421917211E+03  0.41800000000E+01 0. -1.
         -5    1    4    4    0  501  0.58882777874E+02 -0.12749272057E+02 -0.25356973451E+01  0.60445244885E+02  0.41800000000E+01 0. -1.
</event>
<event>
11    1  0.8299058E-009  0.1458822E+03  0.7561462E-02  0.1101162E+00
         22   -1    0    0    0    0  0.00000000000E+00  0.00000000000E+00  0.28130816231E+03  0.28130816231E+03  0.00000000000E+00 0.  1.
         22   -1    0    0    0    0 -0.00000000000E+00 -0.00000000000E+00 -0.76600735275E+03  0.76600735275E+03  0.00000000000E+00 0. -1.
        -24    2    1    2    0    0  0.65651448008E+02  0.32372520142E+02 -0.50913925596E+03  0.52045836255E+03  0.79347542478E+02 0.  0.
         25    2    1    2    0    0 -0.56915358861E+02 -0.10567305221E+03 -0.20773638089E+03  0.27056947602E+03  0.12508910972E+03 0.  0.
         24    2    1    2    0    0 -0.87360891468E+01  0.73300532072E+02  0.23217644640E+03  0.25628767649E+03  0.79549881215E+02 0.  0.
        -11    1    5    5    0    0 -0.25126949258E+01  0.45844352689E+02  0.22145207096E+03  0.22616153086E+03  0.00000000000E+00 0.  1.
         12    1    5    5    0    0 -0.62233942210E+01  0.27456179383E+02  0.10724375446E+02  0.30126145632E+02  0.00000000000E+00 0. -1.
         11    1    3    3    0    0  0.30738600087E+02 -0.22594601586E+02 -0.26718062409E+03  0.26989046565E+03  0.00000000000E+00 0. -1.
        -12    1    3    3    0    0  0.34912847921E+02  0.54967121728E+02 -0.24195863187E+03  0.25056789690E+03  0.00000000000E+00 0.  1.
          5    1    4    4  501    0 -0.17024401393E+02  0.27343133926E+02 -0.56763475213E+02  0.65399095819E+02  0.41800000000E+01 0.  1.
         -5    1    4    4    0  501 -0.39890957468E+02 -0.13301618614E+03 -0.15097290568E+03  0.20517038020E+03  0.41800000000E+01 0.  1.
</event>
<event>
11    1  0.8299058E-009  0.1781938E+03  0.7561462E-02  0.1071113E+00
         22   -1    0    0    0    0  0.00000000000E+00  0.00000000000E+00  0.21117829615E+03  0.21117829615E+03  0.00000000000E+00 0.  1.
         22   -1    0    0    0    0 -0.00000000000E+00 -0.00000000000E+00 -0.21334301191E+04  0.21334301191E+04  0.00000000000E+00 0. -1.
        -24    2    1    2    0    0  0.54898150308E+02  0.54022504281E+02 -0.19665977901E+04  0.19695402521E+04  0.75164477091E+02 0.  0.
         25    2    1    2    0    0 -0.11096348477E+03  0.65472841176E+02 -0.59185129586E+02  0.18907291964E+03  0.12508437750E+03 0.  0.
         24    2    1    2    0    0  0.56065334460E+02 -0.11949534546E+03  0.10353109674E+03  0.18599524354E+03  0.80331085585E+02 0.  0.
        -11    1    5    5    0    0  0.70212593750E+02 -0.73870888800E+02  0.90955178539E+02  0.13660000379E+03  0.00000000000E+00 0.  1.
         12    1    5    5    0    0 -0.14147259290E+02 -0.45624456657E+02  0.12575918205E+02  0.49395239744E+02  0.00000000000E+00 0. -1.
         13    1    3    3    0    0  0.59342505144E+02  0.65937113226E+02 -0.18708179700E+04  0.18729199429E+04  0.00000000000E+00 0. -1.
        -14    1    3    3    0    0 -0.44443548361E+01 -0.11914608945E+02 -0.95779820132E+02  0.96620309153E+02  0.00000000000E+00 0.  1.
          5    1    4    4  501    0  0.18102116958E+02  0.92601152048E+01  0.18868533625E+02  0.28052278573E+02  0.41800000000E+01 0. -1.
         -5    1    4    4    0  501 -0.12906560173E+03  0.56212725971E+02 -0.78053663212E+02  0.16102064107E+03  0.41800000000E+01 0. -1.
</event>
<event>
11    1  0.8299058E-009  0.1543743E+03  0.7561462E-02  0.1092491E+00
         22   -1    0    0    0    0  0.00000000000E+00  0.00000000000E+00  0.36957734314E+03  0.36957734314E+03  0.00000000000E+00 0.  1.
         22   -1    0    0    0    0 -0.00000000000E+00 -0.00000000000E+00 -0.50018541919E+03  0.50018541919E+03  0.00000000000E+00 0. -1.
        -24    2    1    2    0    0 -0.26995764127E+02 -0.12157012556E+02 -0.44282521145E+03  0.45200228317E+03  0.85646551906E+02 0.  0.
         25    2    1    2    0    0  0.10635715386E+03  0.11364372779E+02  0.18560349998E+03  0.24806220082E+03  0.12508078640E+03 0.  0.
         24    2    1    2    0    0 -0.79361389732E+02  0.79263977713E+00  0.12661363543E+03  0.16969827835E+03  0.80421604937E+02 0.  0.
        -13    1    5    5    0    0 -0.75539396888E+02 -0.21721063742E+02  0.58849766906E+02  0.98190122503E+02  0.00000000000E+00 0.  1.
         14    1    5    5    0    0 -0.38219928433E+01  0.22513703519E+02  0.67763868524E+02  0.71508155848E+02  0.00000000000E+00 0. -1.
         13    1    3    3    0    0  0.19896713301E+02  0.85972809789E+00 -0.30834313001E+03  0.30898560510E+03  0.00000000000E+00 0. -1.
        -14    1    3    3    0    0 -0.46892477429E+02 -0.13016740654E+02 -0.13448208144E+03  0.14301667807E+03  0.00000000000E+00 0.  1.
          5    1    4    4  501    0  0.35559687614E+02 -0.55969144868E+02  0.83024485965E+02  0.10633707834E+03  0.41800000000E+01 0.  1.
         -5    1    4    4    0  501  0.70797466245E+02  0.67333517647E+02  0.10257901401E+03  0.14172512248E+03  0.41800000000E+01 0.  1.
</event>
<event>
11    1  0.8299058E-009  0.1414790E+03  0.7561462E-02  0.1105918E+00
         22   -1    0    0    0    0  0.00000000000E+00  0.00000000000E+00  0.93474161139E+03  0.93474161139E+03  0.00000000000E+00 0. -1.
         22   -1    0    0    0    0 -0.00000000000E+00 -0.00000000000E+00 -0.96113697090E+03  0.96113697090E+03  0.00000000000E+00 0. -1.
        -24    2    1    2    0    0  0.18620213558E+02  0.68305985697E+02 -0.76184158178E+03  0.76912484514E+03  0.78345463530E+02 0.  0.
         25    2    1    2    0    0 -0.50155748200E+02 -0.12509650108E+03 -0.14847164622E+03  0.23633765729E+03  0.12508766870E+03 0.  0.
         24    2    1    2    0    0  0.31535534642E+02  0.56790515379E+02  0.88391786849E+03  0.89041607986E+03  0.85500552294E+02 0.  0.
        -13    1    5    5    0    0 -0.90139303040E+01  0.84182658485E+01  0.15980154477E+02  0.20186219966E+02  0.00000000000E+00 0.  1.
         14    1    5    5    0    0  0.40549464946E+02  0.48372249531E+02  0.86793771402E+03  0.87022985989E+03  0.00000000000E+00 0. -1.
         11    1    3    3    0    0  0.68602646551E+01  0.57395548261E+02 -0.23380105336E+03  0.24084070409E+03  0.00000000000E+00 0. -1.
        -12    1    3    3    0    0  0.11759948902E+02  0.10910437437E+02 -0.52804052842E+03  0.52828414106E+03  0.00000000000E+00 0.  1.
          5    1    4    4  501    0  0.22809996925E+02  0.82873691741E+01 -0.48310714899E+02  0.54225215736E+02  0.41800000000E+01 0.  1.
         -5    1    4    4    0  501 -0.72965745125E+02 -0.13338387025E+03 -0.10016093132E+03  0.18211244155E+03  0.41800000000E+01 0.  1.
</event>
<event>
11    1  0.8299058E-009  0.1391743E+03  0.7561462E-02  0.1108484E+00
         22   -1    0    0    0    0  0.00000000000E+00  0.00000000000E+00  0.10648255690E+04  0.10648255690E+04  0.00000000000E+00 0.  1.
         22   -1    0    0    0    0 -0.00000000000E+00 -0.00000000000E+00 -0.41236340843E+03  0.41236340843E+03  0.00000000000E+00 0.  1.
         24    2    1    2    0    0  0.19318383815E+02  0.25829315325E+02 -0.29202018701E+03  0.30421071880E+03  0.78917794766E+02 0.  0.
         25    2    1    2    0    0 -0.60332213360E+02 -0.70089296489E+02 -0.57701251800E+02  0.16591305082E+03  0.12508085594E+03 0.  0.
        -24    2    1    2    0    0  0.41013829545E+02  0.44259981164E+02  0.10021835993E+04  0.10070652078E+04  0.78532068402E+02 0.  0.
        -11    1    3    3    0    0  0.28579945725E+02  0.31689944143E+02 -0.28992925682E+03  0.29305296418E+03  0.00000000000E+00 0.  1.
         12    1    3    3    0    0 -0.92615619101E+01 -0.58606288183E+01 -0.20909301942E+01  0.11157754623E+02  0.00000000000E+00 0. -1.
         11    1    5    5    0    0  0.12984173869E+02 -0.21961681444E+02  0.19016149522E+03  0.19186531340E+03  0.00000000000E+00 0. -1.
        -12    1    5    5    0    0  0.28029655676E+02  0.66221662609E+02  0.81202210413E+03  0.81519989438E+03  0.00000000000E+00 0.  1.
          5    1    4    4  501    0 -0.11561770249E+02 -0.64707638577E+02  0.24347193108E+02  0.70221159445E+02  0.41800000000E+01 0. -1.
         -5    1    4    4    0  501 -0.48770443110E+02 -0.53816579119E+01 -0.82048444909E+02  0.95691891375E+02  0.41800000000E+01 0. -1.
</event>
<event>
11    1  0.8299058E-009  0.2043467E+03  0.7561462E-02  0.1051492E+00
         22   -1    0    0    0    0  0.00000000000E+00  0.00000000000E+00  0.11713694061E+04  0.11713694061E+04  0.00000000000E+00 0. -1.
         22   -1    0    0    0    0 -0.00000000000E+00 -0.00000000000E+00 -0.86970225727E+03  0.86970225727E+03  0.00000000000E+00 0.  1.
         24    2    1    2    0    0  0.65764027415E+01 -0.68028171515E+02 -0.68004630850E+03  0.68810417417E+03  0.79707537972E+02 0.  0.
         25    2    1    2    0    0  0.54174975310E+02  0.21517728185E+03 -0.87294690675E+02  0.26926253994E+03  0.12508301971E+03 0.  0.
        -24    2    1    2    0    0 -0.60751378052E+02 -0.14714911034E+03  0.10690081480E+04  0.10837049493E+04  0.79337292353E+02 0.  0.
        -11    1    3    3    0    0 -0.36432474265E+02 -0.25246518066E+02 -0.29148378472E+03  0.29483471406E+03  0.00000000000E+00 0.  1.
         12    1    3    3    0    0  0.43008877006E+02 -0.42781653449E+02 -0.38856252378E+03  0.39326946011E+03  0.00000000000E+00 0. -1.
         11    1    5    5    0    0 -0.16123094272E+02 -0.58085681059E+02  0.65969380163E+03  0.66244230875E+03  0.00000000000E+00 0. -1.
        -12    1    5    5    0    0 -0.44628283780E+02 -0.89063429279E+02  0.40931434642E+03  0.42126264056E+03  0.00000000000E+00 0.  1.
          5    1    4    4  501    0 -0.19844448829E+02  0.25877216787E+02  0.20907102179E+02  0.38961671159E+02  0.41800000000E+01 0. -1.
         -5    1    4    4    0  501  0.74019424139E+02  0.18930006507E+03 -0.10820179285E+03  0.23030086878E+03  0.41800000000E+01 0. -1.
</event>
<event>
11    1  0.8299058E-009  0.1355968E+03  0.7561462E-02  0.1112577E+00
         22   -1    0    0    0    0  0.00000000000E+00  0.00000000000E+00  0.25430133279E+03  0.25430133279E+03  0.00000000000E+00 0. -1.
         22   -1    0    0    0    0 -0.00000000000E+00 -0.00000000000E+00 -0.30451177849E+03  0.30451177849E+03  0.00000000000E+00 0.  1.
        -24    2    1    2    0    0 -0.45347200180E+02  0.33316388333E+02 -0.20467161323E+03  0.22683025518E+03  0.79969651153E+02 0.  0.
         25    2    1    2    0    0 -0.92648322326E+01 -0.49421921375E+02 -0.15645404345E+02  0.13572268314E+03  0.12508998606E+03 0.  0.
         24    2    1    2    0    0  0.54612032412E+02  0.16105533042E+02  0.17010657188E+03  0.19626017296E+03  0.79623786743E+02 0.  0.
        -11    1    5    5    0    0 -0.37917703032E+01  0.34873246783E+02  0.78852772485E+02  0.86303421669E+02  0.00000000000E+00 0.  1.
         12    1    5    5    0    0  0.58403802716E+02 -0.18767713741E+02  0.91253799394E+02  0.10995675129E+03  0.00000000000E+00 0. -1.
         11    1    3    3    0    0 -0.29337989768E+01  0.41037295470E+02 -0.43009678125E+02  0.59518897910E+02  0.00000000000E+00 0. -1.
        -12    1    3    3    0    0 -0.42413401203E+02 -0.77209071373E+01 -0.16166193510E+03  0.16731135727E+03  0.00000000000E+00 0.  1.
          5    1    4    4  501    0  0.12709515547E+02 -0.77892918045E+02  0.23447624956E+02  0.82438473925E+02  0.41800000000E+01 0. -1.
         -5    1    4    4    0  501 -0.21974347780E+02  0.28470996670E+02 -0.39093029300E+02  0.53284209215E+02  0.41800000000E+01 0. -1.
</event>
<event>
11    1  0.8299058E-009  0.2239568E+03  0.7561462E-02  0.1038767E+00
         22   -1    0    0    0    0  0.00000000000E+00  0.00000000000E+00  0.57491421805E+03  0.57491421805E+03  0.00000000000E+00 0. -1.
         22   -1    0    0    0    0 -0.00000000000E+00 -0.00000000000E+00 -0.14006075700E+04  0.14006075700E+04  0.00000000000E+00 0. -1.
         24    2    1    2    0    0 -0.25442121553E+02 -0.18427992223E+03 -0.13476592169E+04  0.13627571720E+04  0.79469199285E+02 0.  0.
         25    2    1    2    0    0  0.56113689074E+02  0.16960762168E+03  0.24875739321E+03  0.33082153797E+03  0.12508860010E+03 0.  0.
        -24    2    1    2    0    0 -0.30671567521E+02  0.14672300554E+02  0.27320847175E+03  0.28194307807E+03  0.60770130660E+02 0.  0.
        -11    1    3    3    0    0 -0.26911501422E+02 -0.29258574330E+02 -0.45525329241E+03  0.45698561611E+03  0.00000000000E+00 0.  1.
         12    1    3    3    0    0  0.14693798687E+01 -0.15502134790E+03 -0.89240592449E+03  0.90577155588E+03  0.00000000000E+00 0. -1.
         13    1    5    5    0    0 -0.30094644437E+02 -0.11925417365E+02  0.22088598045E+03  0.22324542450E+03  0.00000000000E+00 0. -1.
        -14    1    5    5    0    0 -0.57692308415E+00  0.26597717919E+02  0.52322491301E+02  0.58697653571E+02  0.00000000000E+00 0.  1.
          5    1    4    4  501    0  0.92947941446E+02  0.11043603262E+03  0.13705119981E+03  0.19908777182E+03  0.41800000000E+01 0. -1.
         -5    1    4    4    0  501 -0.36834252372E+02  0.59171589057E+02  0.11170619340E+03  0.13173376615E+03  0.41800000000E+01 0. -1.
</event>
<event>
11    1  0.8299058E-009  0.1490146E+03  0.7561462E-02  0.1097890E+00
         22   -1    0    0    0    0  0.00000000000E+00  0.00000000000E+00  0.43018380847E+03  0.43018380847E+03  0.00000000000E+00 0. -1.
         22   -1    0    0    0    0 -0.00000000000E+00 -0.00000000000E+00 -0.94316473938E+03  0.94316473938E+03  0.00000000000E+00 0.  1.
        -24    2    1    2    0    0  0.50497295663E+02 -0.56207201792E+02 -0.67458839250E+03  0.68348155936E+03  0.79801731094E+02 0.  0.
         25    2    1    2    0    0 -0.10088406838E+03 -0.76627316626E+01 -0.23066782856E+03  0.28123017311E+03  0.12508577227E+03 0.  0.
         24    2    1    2    0    0  0.50386772720E+02  0.63869933454E+02  0.39227529015E+03  0.40863681538E+03  0.80535385758E+02 0.  0.
        -13    1    5    5    0    0  0.10357955513E+02 -0.70753773305E+01  0.60718621793E+01  0.13936129919E+02  0.00000000000E+00 0.  1.
         14    1    5    5    0    0  0.40028817206E+02  0.70945310785E+02  0.38620342797E+03  0.39470068546E+03  0.00000000000E+00 0. -1.
         13    1    3    3    0    0 -0.13577528067E+02 -0.41540090400E+01 -0.25687910113E+02  0.29350873675E+02  0.00000000000E+00 0. -1.
        -14    1    3    3    0    0  0.64074823730E+02 -0.52053192752E+02 -0.64890048238E+03  0.65413068568E+03  0.00000000000E+00 0.  1.
          5    1    4    4  501    0 -0.29700321239E+02 -0.54073313538E+02 -0.43410404585E+02  0.75551094928E+02  0.41800000000E+01 0.  1.
         -5    1    4    4    0  501 -0.71183747143E+02  0.46410581875E+02 -0.18725742398E+03  0.20567907818E+03  0.41800000000E+01 0.  1.
</event>
<event>
11    1  0.8299058E-009  0.1569332E+03  0.7561462E-02  0.1089998E+00
         22   -1    0    0    0    0  0.00000000000E+00  0.00000000000E+00  0.12239453986E+04  0.12239453986E+04  0.00000000000E+00 0.  1.
         22   -1    0    0    0    0 -0.00000000000E+00 -0.00000000000E+00 -0.20616819241E+03  0.20616819241E+03  0.00000000000E+00 0.  1.
         24    2    1    2    0    0  0.33951045951E+02  0.30914130546E+02 -0.16132723368E+03  0.18632207068E+03  0.81123860283E+02 0.  0.
         25    2    1    2    0    0 -0.53397432123E+02 -0.11887867301E+03  0.25956074599E+03  0.31622179201E+03  0.12506404851E+03 0.  0.
        -24    2    1    2    0    0  0.19446386171E+02  0.87964542468E+02  0.91954369385E+03  0.92756972829E+03  0.81908932728E+02 0.  0.
        -11    1    3    3    0    0  0.22631702587E+02  0.58787542965E+02 -0.11386715407E+03  0.13013031141E+03  0.00000000000E+00 0.  1.
         12    1    3    3    0    0  0.11319343364E+02 -0.27873412419E+02 -0.47460079609E+02  0.56191759277E+02  0.00000000000E+00 0. -1.
         11    1    5    5    0    0 -0.28737228350E+02  0.10691351966E+02  0.24090032419E+03  0.24284377590E+03  0.00000000000E+00 0. -1.
        -12    1    5    5    0    0  0.48183614521E+02  0.77273190502E+02  0.67864336967E+03  0.68472595239E+03  0.00000000000E+00 0.  1.
          5    1    4    4  501    0 -0.78271593763E+01  0.23984870716E+02  0.15990508805E+02  0.30161353070E+02  0.41800000000E+01 0.  1.
         -5    1    4    4    0  501 -0.45570272746E+02 -0.14286354373E+03  0.24357023718E+03  0.28606043894E+03  0.41800000000E+01 0.  1.
</event>
<event>
11    1  0.8299058E-009  0.2059579E+03  0.7561462E-02  0.1050389E+00
         22   -1    0    0    0    0  0.00000000000E+00  0.00000000000E+00  0.26779906418E+03  0.26779906418E+03  0.00000000000E+00 0. -1.
         22   -1    0    0    0    0 -0.00000000000E+00 -0.00000000000E+00 -0.79451595604E+03  0.79451595604E+03  0.00000000000E+00 0. -1.
         24    2    1    2    0    0  0.13461674367E+02  0.26841912943E+01 -0.58939151467E+03  0.59415655318E+03  0.73832449314E+02 0.  0.
         25    2    1    2    0    0 -0.15800447557E+03 -0.73137166814E+02 -0.87798350784E+02  0.23167041363E+03  0.12509264840E+03 0.  0.
        -24    2    1    2    0    0  0.14454280120E+03  0.70452975519E+02  0.15047297359E+03  0.23648805340E+03  0.86187240823E+02 0.  0.
        -11    1    3    3    0    0  0.35857270806E+00  0.73333580990E+01 -0.35592878951E+01  0.81593655217E+01  0.00000000000E+00 0.  1.
         12    1    3    3    0    0  0.13103101659E+02 -0.46491668048E+01 -0.58583222677E+03  0.58599718766E+03  0.00000000000E+00 0. -1.
         11    1    5    5    0    0  0.12917465586E+03  0.67802085561E+02  0.16131166450E+03  0.21749636233E+03  0.00000000000E+00 0. -1.
        -12    1    5    5    0    0  0.15368145345E+02  0.26508899581E+01 -0.10838690914E+02  0.18991691069E+02  0.00000000000E+00 0.  1.
          5    1    4    4  501    0 -0.17750914960E+03 -0.74708122015E+02 -0.70213855825E+02  0.20503233802E+03  0.41800000000E+01 0. -1.
         -5    1    4    4    0  501  0.19504674027E+02  0.15709552017E+01 -0.17584494959E+02  0.26638075609E+02  0.41800000000E+01 0. -1.
</event>
<event>
11    1  0.8299058E-009  0.1694545E+03  0.7561462E-02  0.1078507E+00
         22   -1    0    0    0    0  0.00000000000E+00  0.00000000000E+00  0.81340613420E+03  0.81340613420E+03  0.00000000000E+00 0.  1.
         22   -1    0    0    0    0 -0.00000000000E+00 -0.00000000000E+00 -0.32232980333E+03  0.32232980333E+03  0.00000000000E+00 0.  1.
         24    2    1    2    0    0  0.40436546576E+01 -0.11154315385E+03 -0.21770297857E+03  0.25767796179E+03  0.80901908510E+02 0.  0.
         25    2    1    2    0    0 -0.53988098048E+02  0.12484813038E+03  0.23257813251E+02  0.18625360646E+03  0.12509080562E+03 0.  0.
        -24    2    1    2    0    0  0.49944443391E+02 -0.13304976533E+02  0.68552149619E+03  0.69180436928E+03  0.77343996486E+02 0.  0.
        -13    1    3    3    0    0 -0.38369375234E+02 -0.54647911072E+02 -0.11081585988E+03  0.12937835190E+03  0.00000000000E+00 0.  1.
         14    1    3    3    0    0  0.42413029891E+02 -0.56895242779E+02 -0.10688711869E+03  0.12829960988E+03  0.00000000000E+00 0. -1.
         11    1    5    5    0    0  0.94893731047E+01  0.31197593985E+02  0.21629543735E+03  0.21873969528E+03  0.00000000000E+00 0. -1.
        -12    1    5    5    0    0  0.40455070286E+02 -0.44502570518E+02  0.46922605884E+03  0.47306467401E+03  0.00000000000E+00 0.  1.
          5    1    4    4  501    0 -0.89489979460E+02  0.69978488302E+02  0.36591613882E+02  0.11942304575E+03  0.41800000000E+01 0.  1.
         -5    1    4    4    0  501  0.35501881411E+02  0.54869642082E+02 -0.13333800631E+02  0.66830560713E+02  0.41800000000E+01 0.  1.
</event>
<event>
11    1  0.8299058E-009  0.8867687E+03  0.7561462E-02  0.8794864E-01
         22   -1    0    0    0    0  0.00000000000E+00  0.00000000000E+00  0.29538455258E+04  0.29538455258E+04  0.00000000000E+00 0. -1.
         22   -1    0    0    0    0 -0.00000000000E+00 -0.00000000000E+00 -0.39055090698E+03  0.39055090698E+03  0.00000000000E+00 0. -1.
         24    2    1    2    0    0 -0.85195185022E+01 -0.87499681307E+03  0.40572921610E+03  0.96763848754E+03  0.77563140051E+02 0.  0.
         25    2    1    2    0    0 -0.47169571148E+02  0.88636685651E+03  0.19182278341E+04  0.21173371157E+04  0.12508902943E+03 0.  0.
        -24    2    1    2    0    0  0.55689089650E+02 -0.11370043442E+02  0.23933756863E+03  0.25942082954E+03  0.82378045911E+02 0.  0.
        -11    1    3    3    0    0  0.21230706340E+02 -0.44272798832E+03  0.17301346095E+03  0.47580717965E+03  0.00000000000E+00 0.  1.
         12    1    3    3    0    0 -0.29750224842E+02 -0.43226882475E+03  0.23271575515E+03  0.49183130789E+03  0.00000000000E+00 0. -1.
         11    1    5    5    0    0 -0.84773383640E+01  0.15115217742E+02  0.10447300037E+02  0.20235640617E+02  0.00000000000E+00 0. -1.
        -12    1    5    5    0    0  0.64166428014E+02 -0.26485261184E+02  0.22889026859E+03  0.23918518892E+03  0.00000000000E+00 0.  1.
          5    1    4    4  501    0 -0.48212366009E+02  0.79458202069E+03  0.16157047729E+04  0.18011675118E+04  0.41800000000E+01 0. -1.
         -5    1    4    4    0  501  0.10427948613E+01  0.91784835827E+02  0.30252306114E+03  0.31616960390E+03  0.41800000000E+01 0. -1.
</event>
<event>
11    1  0.8299058E-009  0.1384282E+03  0.7561462E-02  0.1109326E+00
         22   -1    0    0    0    0  0.00000000000E+00  0.00000000000E+00  0.20565735204E+04  0.20565735204E+04  0.00000000000E+00 0. -1.
         22   -1    0    0    0    0 -0.00000000000E+00 -0.00000000000E+00 -0.50318007462E+02  0.50318007462E+02  0.00000000000E+00 0.  1.
         24    2    1    2    0    0 -0.27459567896E+02 -0.57057591614E+02  0.55915588190E+02  0.11527072736E+03  0.78429528586E+02 0.  0.
         25    2    1    2    0    0  0.38034767656E+01  0.50929779790E+02  0.21253866511E+03  0.25185058331E+03  0.12509085995E+03 0.  0.
        -24    2    1    2    0    0  0.23656091130E+02  0.61278118239E+01  0.17378012596E+04  0.17397702171E+04  0.79057130496E+02 0.  0.
        -11    1    3    3    0    0  0.19903086034E+01  0.11061911081E+00 -0.17534179059E+02  0.17647124417E+02  0.00000000000E+00 0.  1.
         12    1    3    3    0    0 -0.29449876499E+02 -0.57168210725E+02  0.73449767248E+02  0.97623602946E+02  0.00000000000E+00 0. -1.
         13    1    5    5    0    0 -0.13823570789E+02  0.62157614519E+01  0.13661117314E+04  0.13661958093E+04  0.00000000000E+00 0. -1.
        -14    1    5    5    0    0  0.37479661919E+02 -0.87949628020E-01  0.37168952821E+03  0.37357440781E+03  0.00000000000E+00 0.  1.
          5    1    4    4  501    0 -0.48499281306E+02 -0.20074906394E+01  0.37108123556E+02  0.61242922364E+02  0.41800000000E+01 0. -1.
         -5    1    4    4    0  501  0.52302758071E+02  0.52937270430E+02  0.17543054155E+03  0.19060766094E+03  0.41800000000E+01 0. -1.
</event>
<event>
11    1  0.8299058E-009  0.1595355E+03  0.7561462E-02  0.1087515E+00
         22   -1    0    0    0    0  0.00000000000E+00  0.00000000000E+00  0.25566757398E+04  0.25566757398E+04  0.00000000000E+00 0. -1.
         22   -1    0    0    0    0 -0.00000000000E+00 -0.00000000000E+00 -0.74063768048E+03  0.74063768048E+03  0.00000000000E+00 0. -1.
        -24    2    1    2    0    0  0.33818327541E+02 -0.55828684507E+01 -0.72534444262E+03  0.73048684649E+03  0.79445734675E+02 0.  0.
         25    2    1    2    0    0 -0.49117367236E+02 -0.92128136334E+02  0.61288759211E+03  0.63417603486E+03  0.12509169984E+03 0.  0.
         24    2    1    2    0    0  0.15299039695E+02  0.97711004784E+02  0.19284949098E+04  0.19326505389E+04  0.79145355281E+02 0.  0.
        -13    1    5    5    0    0  0.20659225688E+02 -0.48655263832E+00  0.14726216302E+03  0.14870502680E+03  0.00000000000E+00 0.  1.
         14    1    5    5    0    0 -0.53601859925E+01  0.98197557423E+02  0.17812327468E+04  0.17839455121E+04  0.00000000000E+00 0. -1.
         11    1    3    3    0    0  0.51063236678E+02  0.11427372116E+02 -0.62791425015E+03  0.63009074308E+03  0.00000000000E+00 0. -1.
        -12    1    3    3    0    0 -0.17244909137E+02 -0.17010240566E+02 -0.97430192468E+02  0.10039610341E+03  0.00000000000E+00 0.  1.
          5    1    4    4  501    0 -0.11589344142E+02 -0.46544374089E+01 -0.74492740171E+00  0.13191057656E+02  0.41800000000E+01 0.  1.
         -5    1    4    4    0  501 -0.37528023094E+02 -0.87473698925E+02  0.61363251951E+03  0.62098497721E+03  0.41800000000E+01 0.  1.
</event>
<event>
11    1  0.8299058E-009  0.1287992E+03  0.7561462E-02  0.1120753E+00
         22   -1    0    0    0    0  0.00000000000E+00  0.00000000000E+00  0.33627857158E+03  0.33627857158E+03  0.00000000000E+00 0. -1.
         22   -1    0    0    0    0 -0.00000000000E+00 -0.00000000000E+00 -0.12720413864E+04  0.12720413864E+04  0.00000000000E+00 0.  1.
         24    2    1    2    0    0 -0.11623306919E+02  0.58015531229E+01 -0.12063053098E+04  0.12090155535E+04  0.79858304984E+02 0.  0.
         25    2    1    2    0    0  0.39188950680E+02 -0.15668743564E+02  0.18626714685E+02  0.13332574153E+03  0.12509002947E+03 0.  0.
        -24    2    1    2    0    0 -0.27565643762E+02  0.98671904411E+01  0.25191578030E+03  0.26597866295E+03  0.80161478371E+02 0.  0.
        -11    1    3    3    0    0  0.36851581831E+01 -0.15930615523E+02 -0.10709402990E+04  0.10710651189E+04  0.00000000000E+00 0.  1.
         12    1    3    3    0    0 -0.15308465102E+02  0.21732168646E+02 -0.13536501078E+03  0.13795043458E+03  0.00000000000E+00 0. -1.
         11    1    5    5    0    0 -0.54091731009E+02  0.18199103609E+02  0.15588226086E+03  0.16600121080E+03  0.00000000000E+00 0. -1.
        -12    1    5    5    0    0  0.26526087247E+02 -0.83319131676E+01  0.96033519441E+02  0.99977452148E+02  0.00000000000E+00 0.  1.
          5    1    4    4  501    0  0.84204421605E+02 -0.83110831089E+01  0.24600350517E+01  0.84752480157E+02  0.41800000000E+01 0. -1.
         -5    1    4    4    0  501 -0.45015470924E+02 -0.73576604551E+01  0.16166679633E+02  0.48573261372E+02  0.41800000000E+01 0. -1.
</event>
<event>
11    1  0.8299058E-009  0.2184814E+03  0.7561462E-02  0.1042173E+00
         22   -1    0    0    0    0  0.00000000000E+00  0.00000000000E+00  0.30541248437E+03  0.30541248437E+03  0.00000000000E+00 0.  1.
         22   -1    0    0    0    0 -0.00000000000E+00 -0.00000000000E+00 -0.14724162708E+04  0.14724162708E+04  0.00000000000E+00 0.  1.
         24    2    1    2    0    0 -0.69464128323E+02  0.13788199259E+02 -0.11988951387E+04  0.12043578427E+04  0.90071528811E+02 0.  0.
         25    2    1    2    0    0  0.16333146757E+03  0.13416168137E+03 -0.16699944834E+03  0.29700642409E+03  0.12508986833E+03 0.  0.
        -24    2    1    2    0    0 -0.93867339250E+02 -0.14794988063E+03  0.19889080057E+03  0.27646448833E+03  0.78580011455E+02 0.  0.
        -13    1    3    3    0    0 -0.91247773521E+02  0.14348271847E+02 -0.10078671571E+04  0.10120910213E+04  0.00000000000E+00 0.  1.
         14    1    3    3    0    0  0.21783645198E+02 -0.56007258795E+00 -0.19102798153E+03  0.19226682139E+03  0.00000000000E+00 0. -1.
         11    1    5    5    0    0 -0.58944109892E+02 -0.52267253183E+02  0.41640042041E+02  0.89107614419E+02  0.00000000000E+00 0. -1.
        -12    1    5    5    0    0 -0.34923229358E+02 -0.95682627447E+02  0.15725075853E+03  0.18735687391E+03  0.00000000000E+00 0.  1.
          5    1    4    4  501    0 -0.17714649471E+02  0.66492390451E+01  0.39501169426E+00  0.19381682590E+02  0.41800000000E+01 0.  1.
         -5    1    4    4    0  501  0.18104611704E+03  0.12751244233E+03 -0.16739446003E+03  0.27762474150E+03  0.41800000000E+01 0.  1.
</event>
<event>
11    1  0.8299058E-009  0.1358699E+03  0.7561462E-02  0.1112260E+00
         22   -1    0    0    0    0  0.00000000000E+00  0.00000000000E+00  0.13869123494E+03  0.13869123494E+03  0.00000000000E+00 0. -1.
         22   -1    0    0    0    0 -0.00000000000E+00 -0.00000000000E+00 -0.87518834668E+03  0.87518834668E+03  0.00000000000E+00 0. -1.
         24    2    1    2    0    0  0.25768915025E+02  0.47525621613E+02 -0.73085942523E+03  0.73695571436E+03  0.77624118581E+02 0.  0.
         25    2    1    2    0    0  0.50157563939E+01 -0.48316667428E+02 -0.86467766175E+02  0.15963982789E+03  0.12509413215E+03 0.  0.
        -24    2    1    2    0    0 -0.30784671419E+02  0.79104581535E+00  0.80830079668E+02  0.11728403936E+03  0.79206832798E+02 0.  0.
        -13    1    3    3    0    0 -0.26198238833E+02  0.18559562264E+02 -0.17493872300E+03  0.17786051241E+03  0.00000000000E+00 0.  1.
         14    1    3    3    0    0  0.51967153859E+02  0.28966059349E+02 -0.55592070224E+03  0.55909520195E+03  0.00000000000E+00 0. -1.
         11    1    5    5    0    0 -0.24902794337E+02 -0.29413642086E+02  0.77217116375E+02  0.86300605837E+02  0.00000000000E+00 0. -1.
        -12    1    5    5    0    0 -0.58818770825E+01  0.30204687901E+02  0.36129632930E+01  0.30983433525E+02  0.00000000000E+00 0.  1.
          5    1    4    4  501    0 -0.11025495328E+02 -0.81797945738E+02 -0.22650896909E+02  0.85691312308E+02  0.41800000000E+01 0.  1.
         -5    1    4    4    0  501  0.16041251722E+02  0.33481278310E+02 -0.63816869266E+02  0.73948515583E+02  0.41800000000E+01 0.  1.
</event>
<event>
11    1  0.8299058E-009  0.1762169E+03  0.7561462E-02  0.1072745E+00
         22   -1    0    0    0    0  0.00000000000E+00  0.00000000000E+00  0.21149744029E+04  0.21149744029E+04  0.00000000000E+00 0.  1.
         22   -1    0    0    0    0 -0.00000000000E+00 -0.00000000000E+00 -0.43065634622E+03  0.43065634622E+03  0.00000000000E+00 0. -1.
         24    2    1    2    0    0 -0.38262557945E+02 -0.11909426081E+03 -0.40007667696E+03  0.42656887052E+03  0.79070775564E+02 0.  0.
         25    2    1    2    0    0  0.14116510543E+02  0.96064444490E+02  0.37075383366E+03  0.40315318522E+03  0.12508569948E+03 0.  0.
        -24    2    1    2    0    0  0.24146047402E+02  0.23029816318E+02  0.17136409000E+04  0.17159086934E+04  0.81633975093E+02 0.  0.
        -13    1    3    3    0    0 -0.85562494803E+01 -0.77769516473E+02 -0.12991283560E+03  0.15165306443E+03  0.00000000000E+00 0.  1.
         14    1    3    3    0    0 -0.29706308465E+02 -0.41324744334E+02 -0.27016384136E+03  0.27491580609E+03  0.00000000000E+00 0. -1.
         11    1    5    5    0    0  0.26390020189E+02 -0.25122870504E+02  0.50829256957E+03  0.50959682894E+03  0.00000000000E+00 0. -1.
        -12    1    5    5    0    0 -0.22439727865E+01  0.48152686822E+02  0.12053483305E+04  0.12063118645E+04  0.00000000000E+00 0.  1.
          5    1    4    4  501    0  0.41874259303E+02  0.11631136047E+03  0.29369455081E+03  0.31867812561E+03  0.41800000000E+01 0. -1.
         -5    1    4    4    0  501 -0.27757748759E+02 -0.20246915981E+02  0.77059282850E+02  0.84475059611E+02  0.41800000000E+01 0. -1.
</event>
<event>
11    1  0.8299058E-009  0.1477308E+03  0.7561462E-02  0.1099220E+00
         22   -1    0    0    0    0  0.00000000000E+00  0.00000000000E+00  0.85681776884E+03  0.85681776884E+03  0.00000000000E+00 0.  1.
         22   -1    0    0    0    0 -0.00000000000E+00 -0.00000000000E+00 -0.97807789003E+02  0.97807789003E+02  0.00000000000E+00 0.  1.
         24    2    1    2    0    0  0.48707122744E+02 -0.66796296822E+02 -0.36166693184E+02  0.12139808132E+03  0.81211670202E+02 0.  0.
         25    2    1    2    0    0 -0.50492702235E+02  0.22255596793E+02  0.30332771795E+03  0.33271253193E+03  0.12508037359E+03 0.  0.
        -24    2    1    2    0    0  0.17855794904E+01  0.44540700029E+02  0.49184895507E+03  0.50051494459E+03  0.81318834882E+02 0.  0.
        -13    1    3    3    0    0  0.35425196024E+02  0.30569923911E+01 -0.35564997809E+02  0.50290742537E+02  0.00000000000E+00 0.  1.
         14    1    3    3    0    0  0.13281926720E+02 -0.69853289213E+02 -0.60169537575E+00  0.71107338782E+02  0.00000000000E+00 0. -1.
         11    1    5    5    0    0  0.34025517111E+02  0.64769873087E+01  0.10749143161E+03  0.11293402963E+03  0.00000000000E+00 0. -1.
        -12    1    5    5    0    0 -0.32239937621E+02  0.38063712720E+02  0.38435752346E+03  0.38758091496E+03  0.00000000000E+00 0.  1.
          5    1    4    4  501    0  0.15520456813E+02  0.47853969186E+02  0.55902439175E+02  0.75322254694E+02  0.41800000000E+01 0.  1.
         -5    1    4    4    0  501 -0.66013159048E+02 -0.25598372392E+02  0.24742527878E+03  0.25739027724E+03  0.41800000000E+01 0.  1.
</event>
<event>
11    1  0.8299058E-009  0.1450725E+03  0.7561462E-02  0.1102023E+00
         22   -1    0    0    0    0  0.00000000000E+00  0.00000000000E+00  0.78167955296E+03  0.78167955296E+03  0.00000000000E+00 0. -1.
         22   -1    0    0    0    0 -0.00000000000E+00 -0.00000000000E+00 -0.33399636412E+03  0.33399636412E+03  0.00000000000E+00 0.  1.
         24    2    1    2    0    0 -0.80538359590E+01  0.44090632696E+02 -0.25979955958E+03  0.27557536837E+03  0.80231691541E+02 0.  0.
         25    2    1    2    0    0 -0.34448661482E+02  0.19095757867E+02  0.73746905731E+01  0.13134728434E+03  0.12508542999E+03 0.  0.
        -24    2    1    2    0    0  0.42502497441E+02 -0.63186390563E+02  0.70010805786E+03  0.70875326437E+03  0.79880628647E+02 0.  0.
        -11    1    3    3    0    0  0.56074584226E+01  0.40363216108E+02 -0.25811822430E+03  0.26131523208E+03  0.00000000000E+00 0.  1.
         12    1    3    3    0    0 -0.13661294382E+02  0.37274165886E+01 -0.16813352876E+01  0.14260136288E+02  0.00000000000E+00 0. -1.
         11    1    5    5    0    0  0.65948331482E+02 -0.52640994342E+02  0.51460929168E+03  0.52148152393E+03  0.00000000000E+00 0. -1.
        -12    1    5    5    0    0 -0.23445834041E+02 -0.10545396221E+02  0.18549876617E+03  0.18727174044E+03  0.00000000000E+00 0.  1.
          5    1    4    4  501    0  0.16090579423E+02 -0.20875637586E+02 -0.42207238522E+02  0.49936183018E+02  0.41800000000E+01 0. -1.
         -5    1    4    4    0  501 -0.50539240905E+02  0.39971395453E+02  0.49581929095E+02  0.81411101322E+02  0.41800000000E+01 0. -1.
</event>
<event>
11    1  0.8299058E-009  0.1761089E+03  0.7561462E-02  0.1072834E+00
         22   -1    0    0    0    0  0.00000000000E+00  0.00000000000E+00  0.16616570492E+04  0.16616570492E+04  0.00000000000E+00 0.  1.
         22   -1    0    0    0    0 -0.00000000000E+00 -0.00000000000E+00 -0.20265996222E+03  0.20265996222E+03  0.00000000000E+00 0.  1.
         24    2    1    2    0    0  0.66626441175E+00 -0.62300263750E+01 -0.16466426498E+03  0.18355467830E+03  0.80862492075E+02 0.  0.
         25    2    1    2    0    0  0.26352162727E+02  0.12634380196E+03  0.30573506561E+03  0.35465193977E+03  0.12508747047E+03 0.  0.
        -24    2    1    2    0    0 -0.27018427139E+02 -0.12011377559E+03  0.13179262863E+04  0.13261103933E+04  0.80509406996E+02 0.  0.
        -13    1    3    3    0    0  0.36388244170E+02  0.12150369265E+00 -0.41676340647E+02  0.55326634153E+02  0.00000000000E+00 0.  1.
         14    1    3    3    0    0 -0.35721979758E+02 -0.63515300677E+01 -0.12298792434E+03  0.12822804414E+03  0.00000000000E+00 0. -1.
         13    1    5    5    0    0  0.16043902462E+02 -0.96801404453E+02  0.88733742972E+03  0.89274611894E+03  0.00000000000E+00 0. -1.
        -14    1    5    5    0    0 -0.43062329601E+02 -0.23312371136E+02  0.43058885662E+03  0.43336427439E+03  0.00000000000E+00 0.  1.
          5    1    4    4  501    0  0.39148079438E+02  0.46580439993E+02  0.31318184793E+02  0.68560999207E+02  0.41800000000E+01 0.  1.
         -5    1    4    4    0  501 -0.12795916711E+02  0.79763361972E+02  0.27441688081E+03  0.28609094056E+03  0.41800000000E+01 0.  1.
</event>
<event>
11    1  0.8299058E-009  0.2146740E+03  0.7561462E-02  0.1044606E+00
         22   -1    0    0    0    0  0.00000000000E+00  0.00000000000E+00  0.66664812867E+03  0.66664812867E+03  0.00000000000E+00 0.  1.
         22   -1    0    0    0    0 -0.00000000000E+00 -0.00000000000E+00 -0.89071052506E+03  0.89071052506E+03  0.00000000000E+00 0.  1.
        -24    2    1    2    0    0  0.16241590007E+03  0.32617531339E+02 -0.64368545802E+03  0.66950120738E+03  0.80362117077E+02 0.  0.
         25    2    1    2    0    0 -0.21651758684E+03 -0.54355997923E+02 -0.15871669022E+03  0.30111931628E+03  0.12508962772E+03 0.  0.
         24    2    1    2    0    0  0.54101686777E+02  0.21738466584E+02  0.57833975185E+03  0.58673813007E+03  0.79907516977E+02 0.  0.
        -11    1    5    5    0    0  0.39508836120E+02 -0.17384239006E+02  0.44313870215E+03  0.44523597029E+03  0.00000000000E+00 0.  1.
         12    1    5    5    0    0  0.14592850657E+02  0.39122705590E+02  0.13520104970E+03  0.14150215978E+03  0.00000000000E+00 0. -1.
         13    1    3    3    0    0  0.90809434880E+02 -0.15833814972E+02 -0.25049165172E+03  0.26691408869E+03  0.00000000000E+00 0. -1.
        -14    1    3    3    0    0  0.71606465187E+02  0.48451346311E+02 -0.39319380631E+03  0.40258711869E+03  0.00000000000E+00 0.  1.
          5    1    4    4  501    0 -0.55052501348E+02 -0.47316760532E+02 -0.11074035419E+03  0.13247849704E+03  0.41800000000E+01 0.  1.
         -5    1    4    4    0  501 -0.16146508550E+03 -0.70392373913E+01 -0.47976336031E+02  0.16864081925E+03  0.41800000000E+01 0.  1.
</event>
<event>
11    1  0.8299058E-009  0.1355882E+03  0.7561462E-02  0.1112587E+00
         22   -1    0    0    0    0  0.00000000000E+00  0.00000000000E+00  0.33537144337E+04  0.33537144337E+04  0.00000000000E+00 0.  1.
         22   -1    0    0    0    0 -0.00000000000E+00 -0.00000000000E+00 -0.84554587674E+02  0.84554587674E+02  0.00000000000E+00 0. -1.
        -24    2    1    2    0    0  0.27238059156E+02  0.42516153347E+02 -0.39868726829E+02  0.10409489366E+03  0.81833344944E+02 0.  0.
         25    2    1    2    0    0 -0.66701240541E+02 -0.53750143784E+02  0.47186206777E+03  0.49560745436E+03  0.12503921131E+03 0.  0.
         24    2    1    2    0    0  0.39463181384E+02  0.11233990437E+02  0.28371665051E+04  0.28385666734E+04  0.79141874593E+02 0.  0.
        -11    1    5    5    0    0  0.25736954734E+02  0.22530615617E+02  0.27042858501E+04  0.27045021684E+04  0.00000000000E+00 0.  1.
         12    1    5    5    0    0  0.13726226650E+02 -0.11296625180E+02  0.13288065495E+03  0.13406450499E+03  0.00000000000E+00 0. -1.
         11    1    3    3    0    0 -0.23225345949E+02  0.37308165788E+02 -0.27620763932E+02  0.51905900716E+02  0.00000000000E+00 0. -1.
        -12    1    3    3    0    0  0.50463405106E+02  0.52079875593E+01 -0.12247962897E+02  0.52188992943E+02  0.00000000000E+00 0.  1.
          5    1    4    4  501    0 -0.22593941383E+02 -0.37780662549E+02  0.43098209512E+03  0.43324462301E+03  0.41800000000E+01 0. -1.
         -5    1    4    4    0  501 -0.44107299158E+02 -0.15969481235E+02  0.40879972653E+02  0.62362831351E+02  0.41800000000E+01 0. -1.
</event>
<event>
11    1  0.8299058E-009  0.1498288E+03  0.7561462E-02  0.1097054E+00
         22   -1    0    0    0    0  0.00000000000E+00  0.00000000000E+00  0.39863936820E+03  0.39863936820E+03  0.00000000000E+00 0.  1.
         22   -1    0    0    0    0 -0.00000000000E+00 -0.00000000000E+00 -0.61740516998E+03  0.61740516998E+03  0.00000000000E+00 0.  1.
         24    2    1    2    0    0 -0.57846227490E+02  0.58128466390E+02 -0.51442093202E+03  0.52933623631E+03  0.94036435078E+02 0.  0.
         25    2    1    2    0    0  0.18951276142E+02 -0.10149496252E+03 -0.12405583306E+02  0.16266910503E+03  0.12508781296E+03 0.  0.
        -24    2    1    2    0    0  0.38894951348E+02  0.43366496126E+02  0.30806071355E+03  0.32403919685E+03  0.81893391898E+02 0.  0.
        -13    1    3    3    0    0 -0.80558325440E+02  0.31043724437E+02 -0.41315125756E+03  0.42207501495E+03  0.00000000000E+00 0.  1.
         14    1    3    3    0    0  0.22712097950E+02  0.27084741952E+02 -0.10126967447E+03  0.10726122135E+03  0.00000000000E+00 0. -1.
         11    1    5    5    0    0  0.39827706822E+02 -0.14678037882E+02  0.13055605915E+03  0.13728283071E+03  0.00000000000E+00 0. -1.
        -12    1    5    5    0    0 -0.93275547347E+00  0.58044534008E+02  0.17750465440E+03  0.18675636614E+03  0.00000000000E+00 0.  1.
          5    1    4    4  501    0 -0.50924609281E+02 -0.20697854959E+02 -0.76604907641E+00  0.55134166009E+02  0.41800000000E+01 0. -1.
         -5    1    4    4    0  501  0.69875885423E+02 -0.80797107557E+02 -0.11639534229E+02  0.10753493902E+03  0.41800000000E+01 0. -1.
</event>
<event>
11    1  0.8299058E-009  0.1548043E+03  0.7561462E-02  0.1092068E+00
         22   -1    0    0    0    0  0.00000000000E+00  0.00000000000E+00  0.24472426232E+04  0.24472426232E+04  0.00000000000E+00 0. -1.
         22   -1    0    0    0    0 -0.00000000000E+00 -0.00000000000E+00 -0.16036939048E+03  0.16036939048E+03  0.00000000000E+00 0. -1.
         24    2    1    2    0    0 -0.54594021679E+02  0.10790857562E+01 -0.12685886934E+03  0.15882846783E+03  0.78432377455E+02 0.  0.
         25    2    1    2    0    0  0.11811921498E+03  0.58260595180E+02  0.51118979416E+03  0.54250260954E+03  0.12509048647E+03 0.  0.
        -24    2    1    2    0    0 -0.63525193303E+02 -0.59339680936E+02  0.19025423079E+04  0.19062809363E+04  0.81750393972E+02 0.  0.
        -13    1    3    3    0    0  0.14783933866E+02  0.12585738775E+02 -0.85912365917E+01  0.21231459376E+02  0.00000000000E+00 0.  1.
         14    1    3    3    0    0 -0.69377955544E+02 -0.11506653018E+02 -0.11826763275E+03  0.13759700845E+03  0.00000000000E+00 0. -1.
         13    1    5    5    0    0 -0.21635584694E+02 -0.81740715823E+01  0.12850409840E+04  0.12852490983E+04  0.00000000000E+00 0. -1.
        -14    1    5    5    0    0 -0.41889608609E+02 -0.51165609353E+02  0.61750132384E+03  0.62103183802E+03  0.00000000000E+00 0.  1.
          5    1    4    4  501    0  0.93087785138E+02  0.96897427052E+02  0.40369733283E+03  0.42549201643E+03  0.41800000000E+01 0.  1.
         -5    1    4    4    0  501  0.25031429843E+02 -0.38636831872E+02  0.10749246133E+03  0.11701059311E+03  0.41800000000E+01 0.  1.
</event>
<event>
11    1  0.8299058E-009  0.1398891E+03  0.7561462E-02  0.1107682E+00
         22   -1    0    0    0    0  0.00000000000E+00  0.00000000000E+00  0.69122602041E+03  0.69122602041E+03  0.00000000000E+00 0. -1.
         22   -1    0    0    0    0 -0.00000000000E+00 -0.00000000000E+00 -0.16729414973E+04  0.16729414973E+04  0.00000000000E+00 0.  1.
         24    2    1    2    0    0 -0.42959736492E+02 -0.44495215544E+02 -0.15992452772E+04  0.16024686121E+04  0.80590525040E+02 0.  0.
         25    2    1    2    0    0  0.93184502009E+02  0.66517628984E+02  0.37636214267E+02  0.17370399168E+03  0.12509454713E+03 0.  0.
        -24    2    1    2    0    0 -0.50224765517E+02 -0.22022413440E+02  0.57989358605E+03  0.58799491400E+03  0.80336380201E+02 0.  0.
        -11    1    3    3    0    0  0.14142084066E+02 -0.17369589416E+02 -0.92378158566E+03  0.92405309327E+03  0.00000000000E+00 0.  1.
         12    1    3    3    0    0 -0.57101820558E+02 -0.27125626128E+02 -0.67546369159E+03  0.67841551881E+03  0.00000000000E+00 0. -1.
         13    1    5    5    0    0 -0.20188523483E+02 -0.10261266930E+02  0.51527670339E+03  0.51577412802E+03  0.00000000000E+00 0. -1.
        -14    1    5    5    0    0 -0.30036242034E+02 -0.11761146510E+02  0.64616882655E+02  0.72220785975E+02  0.00000000000E+00 0.  1.
          5    1    4    4  501    0  0.12139003884E+03  0.54732246230E+02  0.47301863727E+02  0.14137220030E+03  0.41800000000E+01 0.  1.
         -5    1    4    4    0  501 -0.28205536826E+02  0.11785382753E+02 -0.96656494608E+01  0.32331791379E+02  0.41800000000E+01 0.  1.
</event>
<event>
11    1  0.8299058E-009  0.1432718E+03  0.7561462E-02  0.1103959E+00
         22   -1    0    0    0    0  0.00000000000E+00  0.00000000000E+00  0.22887197293E+03  0.22887197293E+03  0.00000000000E+00 0. -1.
         22   -1    0    0    0    0 -0.00000000000E+00 -0.00000000000E+00 -0.10392799227E+04  0.10392799227E+04  0.00000000000E+00 0.  1.
         24    2    1    2    0    0  0.12216848729E+02 -0.67093972917E+02 -0.86768751455E+03  0.87407105857E+03  0.80422260141E+02 0.  0.
         25    2    1    2    0    0 -0.69489591973E+02  0.22270528308E+02 -0.11725551865E+03  0.18633577744E+03  0.12508950986E+03 0.  0.
        -24    2    1    2    0    0  0.57272743243E+02  0.44823444609E+02  0.17453508343E+03  0.20774505962E+03  0.86059317595E+02 0.  0.
        -11    1    3    3    0    0  0.19270853559E+02 -0.80709545032E+02 -0.81453834397E+03  0.81875399862E+03  0.00000000000E+00 0.  1.
         12    1    3    3    0    0 -0.70540048300E+01  0.13615572115E+02 -0.53149170579E+02  0.55317059949E+02  0.00000000000E+00 0. -1.
         11    1    5    5    0    0  0.37999612663E+02  0.24790797063E+01  0.15076587116E+03  0.15550068908E+03  0.00000000000E+00 0. -1.
        -12    1    5    5    0    0  0.19273130581E+02  0.42344364903E+02  0.23769212273E+02  0.52244370544E+02  0.00000000000E+00 0.  1.
          5    1    4    4  501    0 -0.37836887192E+02  0.73673024525E+01 -0.13941898333E+03  0.14471016720E+03  0.41800000000E+01 0. -1.
         -5    1    4    4    0  501 -0.31652704781E+02  0.14903225855E+02  0.22163464683E+02  0.41625610237E+02  0.41800000000E+01 0. -1.
</event>
<event>
11    1  0.8299058E-009  0.1863890E+03  0.7561462E-02  0.1064589E+00
         22   -1    0    0    0    0  0.00000000000E+00  0.00000000000E+00  0.42432325746E+03  0.42432325746E+03  0.00000000000E+00 0.  1.
         22   -1    0    0    0    0 -0.00000000000E+00 -0.00000000000E+00 -0.11375694154E+04  0.11375694154E+04  0.00000000000E+00 0. -1.
         24    2    1    2    0    0 -0.44478401485E+02 -0.14016246493E+02 -0.10436828074E+04  0.10477293878E+04  0.79298701929E+02 0.  0.
         25    2    1    2    0    0 -0.80835564168E+01  0.14232353272E+03  0.58371340361E+02  0.19843758970E+03  0.12509569049E+03 0.  0.
        -24    2    1    2    0    0  0.52561957902E+02 -0.12830728623E+03  0.27206530906E+03  0.31572569545E+03  0.80235050031E+02 0.  0.
        -11    1    3    3    0    0 -0.33999846604E+02  0.30699334553E+02 -0.56047602205E+03  0.56234492084E+03  0.00000000000E+00 0.  1.
         12    1    3    3    0    0 -0.10478554881E+02 -0.44715581047E+02 -0.48320678536E+03  0.48538446691E+03  0.00000000000E+00 0. -1.
         11    1    5    5    0    0  0.36395847028E+02 -0.17729631234E+02  0.34510392142E+02  0.53197412253E+02  0.00000000000E+00 0. -1.
        -12    1    5    5    0    0  0.16166110874E+02 -0.11057765499E+03  0.23755491692E+03  0.26252828320E+03  0.00000000000E+00 0.  1.
          5    1    4    4  501    0  0.54965605750E+02  0.76687723238E+02  0.91577757808E+01  0.94887101169E+02  0.41800000000E+01 0. -1.
         -5    1    4    4    0  501 -0.63049162167E+02  0.65635809480E+02  0.49213564580E+02  0.10355048853E+03  0.41800000000E+01 0. -1.
</event>
<event>
11    1  0.8299058E-009  0.1292792E+03  0.7561462E-02  0.1120158E+00
         22   -1    0    0    0    0  0.00000000000E+00  0.00000000000E+00  0.81281620371E+03  0.81281620371E+03  0.00000000000E+00 0. -1.
         22   -1    0    0    0    0 -0.00000000000E+00 -0.00000000000E+00 -0.61585227919E+03  0.61585227919E+03  0.00000000000E+00 0. -1.
         24    2    1    2    0    0 -0.19421718751E+02  0.57619496810E+01 -0.50552106645E+03  0.51214815120E+03  0.79585029497E+02 0.  0.
         25    2    1    2    0    0 -0.85198914253E+01  0.12022034407E+02 -0.66561838994E+02  0.14245608708E+03  0.12508453331E+03 0.  0.
        -24    2    1    2    0    0  0.27941610176E+02 -0.17783984088E+02  0.76904682997E+03  0.77406424462E+03  0.81519472763E+02 0.  0.
        -11    1    3    3    0    0 -0.91995358701E+00 -0.34980644672E+02 -0.16279832469E+03  0.16651662481E+03  0.00000000000E+00 0.  1.
         12    1    3    3    0    0 -0.18501765164E+02  0.40742594353E+02 -0.34272274176E+03  0.34563152638E+03  0.00000000000E+00 0. -1.
         13    1    5    5    0    0 -0.76991364044E+01 -0.20142610102E+02  0.63421395867E+03  0.63458044944E+03  0.00000000000E+00 0. -1.
        -14    1    5    5    0    0  0.35640746580E+02  0.23586260140E+01  0.13483287130E+03  0.13948379518E+03  0.00000000000E+00 0.  1.
          5    1    4    4  501    0 -0.23229676091E+01  0.47737620914E+01  0.37384162405E+02  0.37989906314E+02  0.41800000000E+01 0.  1.
         -5    1    4    4    0  501 -0.61969238162E+01  0.72482723155E+01 -0.10394600140E+03  0.10446618076E+03  0.41800000000E+01 0.  1.
</event>
<event>
11    1  0.8299058E-009  0.1478578E+03  0.7561462E-02  0.1099088E+00
         22   -1    0    0    0    0  0.00000000000E+00  0.00000000000E+00  0.14980231661E+03  0.14980231661E+03  0.00000000000E+00 0.  1.
         22   -1    0    0    0    0 -0.00000000000E+00 -0.00000000000E+00 -0.13087886775E+04  0.13087886775E+04  0.00000000000E+00 0. -1.
         24    2    1    2    0    0 -0.56709801945E+02 -0.22421184843E+01 -0.81253097853E+03  0.81857413727E+03  0.81461637646E+02 0.  0.
         25    2    1    2    0    0  0.93179916305E+02 -0.66252410917E+02 -0.45399867716E+03  0.48459633980E+03  0.12508770894E+03 0.  0.
        -24    2    1    2    0    0 -0.36470114360E+02  0.68494529401E+02  0.10754329483E+03  0.15542051702E+03  0.81045709629E+02 0.  0.
        -11    1    3    3    0    0 -0.50080402809E+02  0.68028921447E+01 -0.21209778291E+03  0.21803622544E+03  0.00000000000E+00 0.  1.
         12    1    3    3    0    0 -0.66293991360E+01 -0.90450106290E+01 -0.60043319561E+03  0.60053791183E+03  0.00000000000E+00 0. -1.
         13    1    5    5    0    0 -0.36890388100E+02  0.16663434201E+02  0.53466444876E+01  0.40830838601E+02  0.00000000000E+00 0. -1.
        -14    1    5    5    0    0  0.42027374046E+00  0.51831095200E+02  0.10219665034E+03  0.11458967842E+03  0.00000000000E+00 0.  1.
          5    1    4    4  501    0  0.24347570320E+02  0.36634380172E+02 -0.14881545153E+03  0.15523657109E+03  0.41800000000E+01 0.  1.
         -5    1    4    4    0  501  0.68832345985E+02 -0.10288679109E+03 -0.30518322563E+03  0.32935976870E+03  0.41800000000E+01 0.  1.
</event>
<event>
11    1  0.8299058E-009  0.1480755E+03  0.7561462E-02  0.1098862E+00
         22   -1    0    0    0    0  0.00000000000E+00  0.00000000000E+00  0.71515656371E+02  0.71515656371E+02  0.00000000000E+00 0.  1.
         22   -1    0    0    0    0 -0.00000000000E+00 -0.00000000000E+00 -0.23522500563E+04  0.23522500563E+04  0.00000000000E+00 0. -1.
        -24    2    1    2    0    0  0.66532091613E+02 -0.38801034915E+02 -0.19166222852E+04  0.19198369501E+04  0.80005568977E+02 0.  0.
         25    2    1    2    0    0 -0.86654505999E+02  0.53026015590E+02 -0.38457140125E+03  0.41696998287E+03  0.12509213491E+03 0.  0.
         24    2    1    2    0    0  0.20122414387E+02 -0.14224980675E+02  0.20459286515E+02  0.86958779772E+02  0.80845441051E+02 0.  0.
        -11    1    5    5    0    0  0.45942964433E+02 -0.22006897994E+02  0.29066418762E+02  0.58650799141E+02  0.00000000000E+00 0.  1.
         12    1    5    5    0    0 -0.25820550046E+02  0.77819173198E+01 -0.86071322466E+01  0.28307980631E+02  0.00000000000E+00 0. -1.
         13    1    3    3    0    0  0.59737944493E+02 -0.61783511562E+02 -0.16017821548E+04  0.16040860001E+04  0.00000000000E+00 0. -1.
        -14    1    3    3    0    0  0.67941471200E+01  0.22982476647E+02 -0.31484013043E+03  0.31575094996E+03  0.00000000000E+00 0.  1.
          5    1    4    4  501    0 -0.63854940370E+02 -0.28002447146E+02 -0.23643659354E+03  0.24653868990E+03  0.41800000000E+01 0.  1.
         -5    1    4    4    0  501 -0.22799565629E+02  0.81028462736E+02 -0.14813480771E+03  0.17043129297E+03  0.41800000000E+01 0.  1.
</event>
<event>
11    1  0.8299058E-009  0.1785010E+03  0.7561462E-02  0.1070862E+00
         22   -1    0    0    0    0  0.00000000000E+00  0.00000000000E+00  0.11292878305E+03  0.11292878305E+03  0.00000000000E+00 0.  1.
         22   -1    0    0    0    0 -0.00000000000E+00 -0.00000000000E+00 -0.23501820140E+04  0.23501820140E+04  0.00000000000E+00 0.  1.
        -24    2    1    2    0    0 -0.35449847776E+02 -0.25438019098E+02 -0.18629558122E+04  0.18651604016E+04  0.79468112317E+02 0.  0.
         25    2    1    2    0    0  0.15819668637E+03  0.18164734198E+02 -0.39995810602E+03  0.44829892004E+03  0.12509710625E+03 0.  0.
         24    2    1    2    0    0 -0.12274683859E+03  0.72732848998E+01  0.25660687291E+02  0.14965147541E+03  0.81347441024E+02 0.  0.
        -13    1    5    5    0    0 -0.32364771945E+02 -0.56611533236E+01  0.45592903372E+02  0.56198220238E+02  0.00000000000E+00 0.  1.
         14    1    5    5    0    0 -0.90382066648E+02  0.12934438223E+02 -0.19932216081E+02  0.93453255169E+02  0.00000000000E+00 0. -1.
         11    1    3    3    0    0  0.30441556984E+01 -0.46605135279E+02 -0.93845357161E+03  0.93961503372E+03  0.00000000000E+00 0. -1.
        -12    1    3    3    0    0 -0.38494003475E+02  0.21167116181E+02 -0.92450224062E+03  0.92554536789E+03  0.00000000000E+00 0.  1.
          5    1    4    4  501    0  0.94794578268E+02  0.55760343983E+01 -0.35966903036E+03  0.37201665020E+03  0.41800000000E+01 0.  1.
         -5    1    4    4    0  501  0.63402108101E+02  0.12588699800E+02 -0.40289075663E+02  0.76282269841E+02  0.41800000000E+01 0.  1.
</event>
<event>
11    1  0.8299058E-009  0.1557933E+03  0.7561462E-02  0.1091102E+00
         22   -1    0    0    0    0  0.00000000000E+00  0.00000000000E+00  0.17850862873E+04  0.17850862873E+04  0.00000000000E+00 0. -1.
         22   -1    0    0    0    0 -0.00000000000E+00 -0.00000000000E+00 -0.91756160529E+03  0.91756160529E+03  0.00000000000E+00 0.  1.
        -24    2    1    2    0    0  0.51840190586E+02  0.77434929169E+02 -0.89043565956E+03  0.89886014724E+03  0.79939520064E+02 0.  0.
         25    2    1    2    0    0 -0.49216744280E+02 -0.56387174565E+02  0.22215001584E+03  0.26570702773E+03  0.12509114147E+03 0.  0.
         24    2    1    2    0    0 -0.26234463061E+01 -0.21047754603E+02  0.15358103257E+04  0.15380807176E+04  0.80802517494E+02 0.  0.
        -11    1    5    5    0    0 -0.10578544734E+02 -0.16623743854E+01  0.25918478825E+02  0.28043477707E+02  0.00000000000E+00 0.  1.
         12    1    5    5    0    0  0.79550984279E+01 -0.19385380218E+02  0.15098918469E+04  0.15100372399E+04  0.00000000000E+00 0. -1.
         11    1    3    3    0    0 -0.10017389513E+02  0.72955804050E+01 -0.36206577123E+03  0.36227778883E+03  0.00000000000E+00 0. -1.
        -12    1    3    3    0    0  0.61857580099E+02  0.70139348764E+02 -0.52836988833E+03  0.53658235841E+03  0.00000000000E+00 0.  1.
          5    1    4    4  501    0 -0.17477255010E+01  0.37343203607E+02  0.84470315348E+02  0.92467702334E+02  0.41800000000E+01 0.  1.
         -5    1    4    4    0  501 -0.47469018779E+02 -0.93730378172E+02  0.13767970050E+03  0.17323932540E+03  0.41800000000E+01 0.  1.
</event>
<event>
11    1  0.8299058E-009  0.1295471E+03  0.7561462E-02  0.1119827E+00
         22   -1    0    0    0    0  0.00000000000E+00  0.00000000000E+00  0.18345564188E+03  0.18345564188E+03  0.00000000000E+00 0.  1.
         22   -1    0    0    0    0 -0.00000000000E+00 -0.00000000000E+00 -0.53240141484E+03  0.53240141484E+03  0.00000000000E+00 0. -1.
         24    2    1    2    0    0  0.27692824435E+02 -0.20966131275E+02 -0.45741125674E+03  0.46577681863E+03  0.80724939118E+02 0.  0.
         25    2    1    2    0    0 -0.13827142307E+02  0.75380919215E+01  0.17515042621E+02  0.12728846419E+03  0.12509022226E+03 0.  0.
        -24    2    1    2    0    0 -0.13865682129E+02  0.13428039354E+02  0.90950441167E+02  0.12279177390E+03  0.80207653042E+02 0.  0.
        -11    1    3    3    0    0 -0.10748563363E+02  0.46575103848E+01 -0.84476381395E+01  0.14442527739E+02  0.00000000000E+00 0.  1.
         12    1    3    3    0    0  0.38441387799E+02 -0.25623641660E+02 -0.44896361860E+03  0.45133429089E+03  0.00000000000E+00 0. -1.
         11    1    5    5    0    0 -0.60630755575E+01 -0.30035171086E+02  0.13171912114E+02  0.33352236149E+02  0.00000000000E+00 0. -1.
        -12    1    5    5    0    0 -0.78026065712E+01  0.43463210440E+02  0.77778529053E+02  0.89439537749E+02  0.00000000000E+00 0.  1.
          5    1    4    4  501    0  0.49230750240E+02  0.23278687460E+02  0.27913015726E+02  0.61336554403E+02  0.41800000000E+01 0.  1.
         -5    1    4    4    0  501 -0.63057892546E+02 -0.15740595539E+02 -0.10397973106E+02  0.65951909791E+02  0.41800000000E+01 0.  1.
</event>
<event>
11    1  0.8299058E-009  0.1823138E+03  0.7561462E-02  0.1067786E+00
         22   -1    0    0    0    0  0.00000000000E+00  0.00000000000E+00  0.17564558721E+04  0.17564558721E+04  0.00000000000E+00 0. -1.
         22   -1    0    0    0    0 -0.00000000000E+00 -0.00000000000E+00 -0.22393823285E+03  0.22393823285E+03  0.00000000000E+00 0. -1.
         24    2    1    2    0    0  0.74993861910E+01  0.13345122953E+03 -0.17188750953E+03  0.23205542730E+03  0.80242968258E+02 0.  0.
         25    2    1    2    0    0 -0.45527908076E+02 -0.11669546597E+03  0.35936702346E+03  0.40060588152E+03  0.12509913094E+03 0.  0.
        -24    2    1    2    0    0  0.38028521885E+02 -0.16755763559E+02  0.13450381253E+04  0.13477327962E+04  0.74358638719E+02 0.  0.
        -11    1    3    3    0    0 -0.15279623719E+02 -0.66420515061E+00 -0.36934055360E+01  0.15733699944E+02  0.00000000000E+00 0.  1.
         12    1    3    3    0    0  0.22779009910E+02  0.13411543468E+03 -0.16819410399E+03  0.21632172736E+03  0.00000000000E+00 0. -1.
         11    1    5    5    0    0  0.36245992359E+02 -0.12520279252E+02  0.13411926820E+04  0.13417407871E+04  0.00000000000E+00 0. -1.
        -12    1    5    5    0    0  0.17825295260E+01 -0.42354843070E+01  0.38454433265E+01  0.59920091124E+01  0.00000000000E+00 0.  1.
          5    1    4    4  501    0 -0.14961713364E+02 -0.89970518167E+02  0.90136312023E+02  0.12829876909E+03  0.41800000000E+01 0. -1.
         -5    1    4    4    0  501 -0.30566194712E+02 -0.26724947801E+02  0.26923071144E+03  0.27230711242E+03  0.41800000000E+01 0. -1.
</event>
<event>
11    1  0.8299058E-009  0.1624221E+03  0.7561462E-02  0.1084821E+00
         22   -1    0    0    0    0  0.00000000000E+00  0.00000000000E+00  0.18394634481E+03  0.18394634481E+03  0.00000000000E+00 0. -1.
         22   -1    0    0    0    0 -0.00000000000E+00 -0.00000000000E+00 -0.22532360447E+04  0.22532360447E+04  0.00000000000E+00 0. -1.
        -24    2    1    2    0    0  0.70660725425E+02  0.74445230895E+02 -0.20675012849E+04  0.20715903456E+04  0.79937266175E+02 0.  0.
         25    2    1    2    0    0 -0.29464964801E+02  0.39460555805E+02 -0.11853566303E+03  0.17923120280E+03  0.12509117088E+03 0.  0.
         24    2    1    2    0    0 -0.41195760624E+02 -0.11390578670E+03  0.11674724802E+03  0.18636084109E+03  0.80179949065E+02 0.  0.
        -11    1    5    5    0    0 -0.53952664242E+02 -0.35991589594E+02  0.39683974498E+02  0.76033560565E+02  0.00000000000E+00 0.  1.
         12    1    5    5    0    0  0.12756903618E+02 -0.77914197107E+02  0.77063273526E+02  0.11032728052E+03  0.00000000000E+00 0. -1.
         11    1    3    3    0    0 -0.20844948403E+01  0.16440478484E+02 -0.97316178227E+03  0.97330287625E+03  0.00000000000E+00 0. -1.
        -12    1    3    3    0    0  0.72745220265E+02  0.58004752412E+02 -0.10943395026E+04  0.10982874693E+04  0.00000000000E+00 0.  1.
          5    1    4    4  501    0 -0.29242489386E+02 -0.18429812841E+02 -0.11602380629E+03  0.12113536730E+03  0.41800000000E+01 0. -1.
         -5    1    4    4    0  501 -0.22247541555E+00  0.57890368646E+02 -0.25118567388E+01  0.58095835493E+02  0.41800000000E+01 0. -1.
</event>
<event>
11    1  0.8299058E-009  0.1334595E+03  0.7561462E-02  0.1115090E+00
         22   -1    0    0    0    0  0.00000000000E+00  0.00000000000E+00  0.85743747309E+03  0.85743747309E+03  0.00000000000E+00 0.  1.
         22   -1    0    0    0    0 -0.00000000000E+00 -0.00000000000E+00 -0.69217269209E+03  0.69217269209E+03  0.00000000000E+00 0.  1.
        -24    2    1    2    0    0 -0.23979522307E+02 -0.34815587944E+02 -0.65357454512E+03  0.66007213394E+03  0.82148605112E+02 0.  0.
         25    2    1    2    0    0 -0.93870095817E+01 -0.26993329821E+01  0.89855558037E+02  0.15432838776E+03  0.12509127712E+03 0.  0.
         24    2    1    2    0    0  0.33366531889E+02  0.37514920926E+02  0.72898376808E+03  0.73520964348E+03  0.81210781269E+02 0.  0.
        -11    1    5    5    0    0  0.46986725967E+02  0.54738470440E+02  0.60627062813E+03  0.61054739955E+03  0.00000000000E+00 0.  1.
         12    1    5    5    0    0 -0.13620194078E+02 -0.17223549514E+02  0.12271313996E+03  0.12466224394E+03  0.00000000000E+00 0. -1.
         13    1    3    3    0    0  0.58867039356E+00  0.80655263144E+01 -0.46679455168E+03  0.46686459785E+03  0.00000000000E+00 0. -1.
        -14    1    3    3    0    0 -0.24568192701E+02 -0.42881114259E+02 -0.18677999344E+03  0.19320753609E+03  0.00000000000E+00 0.  1.
          5    1    4    4  501    0 -0.33011295379E+02  0.12244090606E+02 -0.20128055522E+02  0.40770999454E+02  0.41800000000E+01 0.  1.
         -5    1    4    4    0  501  0.23624285797E+02 -0.14943423588E+02  0.10998361356E+03  0.11355738831E+03  0.41800000000E+01 0.  1.
</event>
<event>
11    1  0.8299058E-009  0.1383426E+03  0.7561462E-02  0.1109423E+00
         22   -1    0    0    0    0  0.00000000000E+00  0.00000000000E+00  0.14206700226E+03  0.14206700226E+03  0.00000000000E+00 0. -1.
         22   -1    0    0    0    0 -0.00000000000E+00 -0.00000000000E+00 -0.99501980189E+03  0.99501980189E+03  0.00000000000E+00 0. -1.
        -24    2    1    2    0    0  0.27149541558E+02  0.51943300316E+02 -0.83971692270E+03  0.84582951506E+03  0.82872517831E+02 0.  0.
         25    2    1    2    0    0 -0.22687971129E+02 -0.60723907472E+02 -0.96954835159E+02  0.17103863432E+03  0.12510730353E+03 0.  0.
         24    2    1    2    0    0 -0.44615704290E+01  0.87806071559E+01  0.83718958227E+02  0.12021865477E+03  0.85712638018E+02 0.  0.
        -13    1    5    5    0    0  0.37314574471E+02  0.19428135809E+02  0.31811833841E+02  0.52742987224E+02  0.00000000000E+00 0.  1.
         14    1    5    5    0    0 -0.41776144900E+02 -0.10647528653E+02  0.51907124386E+02  0.67475667549E+02  0.00000000000E+00 0. -1.
         13    1    3    3    0    0  0.10396476877E+01  0.67267365405E+02 -0.45810012341E+03  0.46301371727E+03  0.00000000000E+00 0. -1.
        -14    1    3    3    0    0  0.26109893870E+02 -0.15324065088E+02 -0.38161679930E+03  0.38281579779E+03  0.00000000000E+00 0.  1.
          5    1    4    4  501    0 -0.33130036340E+02  0.32621704102E+02 -0.36514022294E+02  0.59266526054E+02  0.41800000000E+01 0. -1.
         -5    1    4    4    0  501  0.10442065211E+02 -0.93345611574E+02 -0.60440812865E+02  0.11177210826E+03  0.41800000000E+01 0. -1.
</event>
<event>
11    1  0.8299058E-009  0.1514600E+03  0.7561462E-02  0.1095396E+00
         22   -1    0    0    0    0  0.00000000000E+00  0.00000000000E+00  0.14526400803E+03  0.14526400803E+03  0.00000000000E+00 0.  1.
         22   -1    0    0    0    0 -0.00000000000E+00 -0.00000000000E+00 -0.15965853236E+04  0.15965853236E+04  0.00000000000E+00 0.  1.
         24    2    1    2    0    0  0.56608340604E+02 -0.66772198290E+02 -0.10306613277E+04  0.10385990000E+04  0.93605981933E+02 0.  0.
         25    2    1    2    0    0 -0.47990724569E+02  0.64134797817E+02 -0.53911366159E+03  0.55920175142E+03  0.12508667694E+03 0.  0.
        -24    2    1    2    0    0 -0.86176160346E+01  0.26374004731E+01  0.11845367367E+03  0.14404858017E+03  0.81470862616E+02 0.  0.
        -11    1    3    3    0    0  0.26866132246E+02 -0.23273898687E+02 -0.84107708693E+03  0.84182785033E+03  0.00000000000E+00 0.  1.
         12    1    3    3    0    0  0.29742208358E+02 -0.43498299603E+02 -0.18958424073E+03  0.19677114971E+03  0.00000000000E+00 0. -1.
         13    1    5    5    0    0 -0.32924552246E+02 -0.27737332786E+02  0.60906864643E+02  0.74585735441E+02  0.00000000000E+00 0. -1.
        -14    1    5    5    0    0  0.24306936211E+02  0.30374733259E+02  0.57546809028E+02  0.69462844728E+02  0.00000000000E+00 0.  1.
          5    1    4    4  501    0  0.16801528130E+02  0.21369159238E+02 -0.39061798462E+03  0.39158500306E+03  0.41800000000E+01 0.  1.
         -5    1    4    4    0  501 -0.64792252699E+02  0.42765638579E+02 -0.14849567696E+03  0.16761674836E+03  0.41800000000E+01 0.  1.
</event>
<event>
11    1  0.8299058E-009  0.1627486E+03  0.7561462E-02  0.1084520E+00
         22   -1    0    0    0    0  0.00000000000E+00  0.00000000000E+00  0.21812291336E+04  0.21812291336E+04  0.00000000000E+00 0. -1.
         22   -1    0    0    0    0 -0.00000000000E+00 -0.00000000000E+00 -0.27505168695E+03  0.27505168695E+03  0.00000000000E+00 0. -1.
         24    2    1    2    0    0 -0.14004822950E+02  0.48513129314E+01 -0.25616705294E+03  0.26969520375E+03  0.83031762681E+02 0.  0.
         25    2    1    2    0    0  0.62643248759E+02 -0.93801147045E+02  0.76735023714E+03  0.78561882579E+03  0.12509085174E+03 0.  0.
        -24    2    1    2    0    0 -0.48638425810E+02  0.88949834114E+02  0.13949942625E+04  0.14009667910E+04  0.80132314470E+02 0.  0.
        -11    1    3    3    0    0 -0.73114255589E+01 -0.32121041406E+02 -0.48331434671E+02  0.58490561820E+02  0.00000000000E+00 0.  1.
         12    1    3    3    0    0 -0.66933973906E+01  0.36972354337E+02 -0.20783561827E+03  0.21120464193E+03  0.00000000000E+00 0. -1.
         11    1    5    5    0    0 -0.49209361849E+02  0.24241696178E+02  0.91321539380E+03  0.91486150679E+03  0.00000000000E+00 0. -1.
        -12    1    5    5    0    0  0.57093603885E+00  0.64708137936E+02  0.48177886867E+03  0.48610528425E+03  0.00000000000E+00 0.  1.
          5    1    4    4  501    0  0.10554412997E+02  0.31057917920E+02  0.14656421035E+03  0.15024822812E+03  0.41800000000E+01 0.  1.
         -5    1    4    4    0  501  0.52088835762E+02 -0.12485906497E+03  0.62078602680E+03  0.63537059767E+03  0.41800000000E+01 0.  1.
</event>
<event>
11    1  0.8299058E-009  0.1672323E+03  0.7561462E-02  0.1080466E+00
         22   -1    0    0    0    0  0.00000000000E+00  0.00000000000E+00  0.20526339475E+04  0.20526339475E+04  0.00000000000E+00 0.  1.
         22   -1    0    0    0    0 -0.00000000000E+00 -0.00000000000E+00 -0.11999558271E+03  0.11999558271E+03  0.00000000000E+00 0.  1.
        -24    2    1    2    0    0 -0.10878348362E+03 -0.17286097492E+02 -0.59769933416E+02  0.15036968769E+03  0.83102000936E+02 0.  0.
         25    2    1    2    0    0  0.10922958418E+03  0.10847706781E+03  0.83369099958E+03  0.85696338679E+03  0.12508871734E+03 0.  0.
         24    2    1    2    0    0 -0.44610056105E+00 -0.91190970321E+02  0.11587172986E+04  0.11652964557E+04  0.83510834905E+02 0.  0.
        -11    1    5    5    0    0  0.24279722121E+02 -0.27163627757E+02  0.74775715291E+03  0.74864419273E+03  0.00000000000E+00 0.  1.
         12    1    5    5    0    0 -0.24725822682E+02 -0.64027342564E+02  0.41096014568E+03  0.41665226297E+03  0.00000000000E+00 0. -1.
         11    1    3    3    0    0 -0.94839828460E+02 -0.29699325708E+02 -0.13271389167E+02  0.10026351670E+03  0.00000000000E+00 0. -1.
        -12    1    3    3    0    0 -0.13943655158E+02  0.12413228216E+02 -0.46498544249E+02  0.50106170989E+02  0.00000000000E+00 0.  1.
          5    1    4    4  501    0 -0.18651942558E+02  0.24288444105E+01  0.23032671696E+03  0.23113126831E+03  0.41800000000E+01 0. -1.
         -5    1    4    4    0  501  0.12788152674E+03  0.10604822340E+03  0.60336428262E+03  0.62583211847E+03  0.41800000000E+01 0. -1.
</event>
<event>
11    1  0.8299058E-009  0.3658397E+03  0.7561462E-02  0.9756300E-01
         22   -1    0    0    0    0  0.00000000000E+00  0.00000000000E+00  0.30328261813E+03  0.30328261813E+03  0.00000000000E+00 0. -1.
         22   -1    0    0    0    0 -0.00000000000E+00 -0.00000000000E+00 -0.28694446453E+04  0.28694446453E+04  0.00000000000E+00 0. -1.
        -24    2    1    2    0    0  0.65876565899E+02  0.35058650194E+03 -0.25769878774E+04  0.26028231784E+04  0.81063925493E+02 0.  0.
         25    2    1    2    0    0 -0.80301378670E+02 -0.25102153137E+03 -0.17768086909E+03  0.34158187265E+03  0.12509022289E+03 0.  0.
         24    2    1    2    0    0  0.14424812771E+02 -0.99564970570E+02  0.18850671932E+03  0.22832221246E+03  0.80467328066E+02 0.  0.
        -13    1    5    5    0    0 -0.18995348250E+02 -0.37617963061E+01  0.74013419021E+01  0.20730514430E+02  0.00000000000E+00 0.  1.
         14    1    5    5    0    0  0.33420161021E+02 -0.95803174264E+02  0.18110537742E+03  0.20759169803E+03  0.00000000000E+00 0. -1.
         13    1    3    3    0    0  0.42449065581E+02  0.10593867844E+03 -0.61471646138E+03  0.62522096466E+03  0.00000000000E+00 0. -1.
        -14    1    3    3    0    0  0.23427500319E+02  0.24464782349E+03 -0.19622714161E+04  0.19776022137E+04  0.00000000000E+00 0.  1.
          5    1    4    4  501    0  0.12424669056E+02 -0.40741571686E+02  0.11016062855E+02  0.44193598014E+02  0.41800000000E+01 0. -1.
         -5    1    4    4    0  501 -0.92726047726E+02 -0.21027995968E+03 -0.18869693194E+03  0.29738827464E+03  0.41800000000E+01 0. -1.
</event>
<event>
11    1  0.8299058E-009  0.1445613E+03  0.7561462E-02  0.1102569E+00
         22   -1    0    0    0    0  0.00000000000E+00  0.00000000000E+00  0.17032433118E+04  0.17032433118E+04  0.00000000000E+00 0.  1.
         22   -1    0    0    0    0 -0.00000000000E+00 -0.00000000000E+00 -0.12329641739E+03  0.12329641739E+03  0.00000000000E+00 0. -1.
        -24    2    1    2    0    0  0.41060284529E+02  0.23108182187E+02 -0.89512857161E+02  0.12827076598E+03  0.78872699699E+02 0.  0.
         25    2    1    2    0    0 -0.76854916780E+02  0.39335226630E+02  0.46879860456E+03  0.49282192603E+03  0.12508949138E+03 0.  0.
         24    2    1    2    0    0  0.35794632251E+02 -0.62443408817E+02  0.12006611470E+04  0.12054470372E+04  0.79592301829E+02 0.  0.
        -13    1    5    5    0    0 -0.42970628439E+01 -0.54422266552E+02  0.39568083401E+03  0.39942905534E+03  0.00000000000E+00 0.  1.
         14    1    5    5    0    0  0.40091695095E+02 -0.80211422657E+01  0.80498031297E+03  0.80601798182E+03  0.00000000000E+00 0. -1.
         11    1    3    3    0    0  0.13075395634E+02 -0.17206563911E+02 -0.73557558336E+02  0.76666460731E+02  0.00000000000E+00 0. -1.
        -12    1    3    3    0    0  0.27984888895E+02  0.40314746098E+02 -0.15955298824E+02  0.51604305247E+02  0.00000000000E+00 0.  1.
          5    1    4    4  501    0 -0.77136653034E+02  0.11656932745E+02  0.45491510379E+03  0.46157466501E+03  0.41800000000E+01 0.  1.
         -5    1    4    4    0  501  0.28173625324E+00  0.27678293885E+02  0.13883500765E+02  0.31247261019E+02  0.41800000000E+01 0.  1.
</event>
<event>
11    1  0.8299058E-009  0.1608999E+03  0.7561462E-02  0.1086234E+00
         22   -1    0    0    0    0  0.00000000000E+00  0.00000000000E+00  0.67183142434E+03  0.67183142434E+03  0.00000000000E+00 0.  1.
         22   -1    0    0    0    0 -0.00000000000E+00 -0.00000000000E+00 -0.16018392640E+04  0.16018392640E+04  0.00000000000E+00 0. -1.
         24    2    1    2    0    0 -0.28627338111E+02 -0.99140574202E+02 -0.15400560654E+04  0.15455818855E+04  0.80014388153E+02 0.  0.
         25    2    1    2    0    0 -0.23798865356E+02  0.49230582059E+02  0.30378084892E+02  0.13983436755E+03  0.12506312848E+03 0.  0.
        -24    2    1    2    0    0  0.52426203466E+02  0.49909992143E+02  0.57967014087E+03  0.58825443526E+03  0.69183048876E+02 0.  0.
        -13    1    3    3    0    0 -0.11330426618E+02 -0.15605806541E+00 -0.28218695897E+02  0.30408842786E+02  0.00000000000E+00 0.  1.
         14    1    3    3    0    0 -0.17296911493E+02 -0.98984516136E+02 -0.15118373695E+04  0.15151730427E+04  0.00000000000E+00 0. -1.
         13    1    5    5    0    0  0.36120401016E+02 -0.32530707651E+01  0.35320973614E+03  0.35506673111E+03  0.00000000000E+00 0. -1.
        -14    1    5    5    0    0  0.16305802451E+02  0.53163062908E+02  0.22646040474E+03  0.23318770415E+03  0.00000000000E+00 0.  1.
          5    1    4    4  501    0 -0.15010641225E+02 -0.41889080446E+02  0.13185275468E+02  0.46597621181E+02  0.41800000000E+01 0.  1.
         -5    1    4    4    0  501 -0.87882241311E+01  0.91119662504E+02  0.17192809424E+02  0.93236746373E+02  0.41800000000E+01 0.  1.
</event>
<event>
11    1  0.8299058E-009  0.1459188E+03  0.7561462E-02  0.1101123E+00
         22   -1    0    0    0    0  0.00000000000E+00  0.00000000000E+00  0.22165020154E+03  0.22165020154E+03  0.00000000000E+00 0. -1.
         22   -1    0    0    0    0 -0.00000000000E+00 -0.00000000000E+00 -0.30905330874E+03  0.30905330874E+03  0.00000000000E+00 0.  1.
         24    2    1    2    0    0  0.44355554181E+01  0.63139494240E+01 -0.20429173311E+03  0.21949079431E+03  0.79884644696E+02 0.  0.
         25    2    1    2    0    0  0.69214523588E+02  0.14115938677E+02 -0.77435020472E+01  0.14386760473E+03  0.12509202959E+03 0.  0.
        -24    2    1    2    0    0 -0.73650079006E+02 -0.20429888101E+02  0.12463212796E+03  0.16734511125E+03  0.81421769029E+02 0.  0.
        -13    1    3    3    0    0 -0.20501580770E+02  0.24800473915E+02 -0.17088439192E+03  0.17388747431E+03  0.00000000000E+00 0.  1.
         14    1    3    3    0    0  0.24937136188E+02 -0.18486524491E+02 -0.33407341189E+02  0.45603319993E+02  0.00000000000E+00 0. -1.
         11    1    5    5    0    0 -0.83805232933E+02 -0.14592114144E+02  0.12926893300E+03  0.15474722583E+03  0.00000000000E+00 0. -1.
        -12    1    5    5    0    0  0.10155153927E+02 -0.58377739567E+01 -0.46368050375E+01  0.12597885418E+02  0.00000000000E+00 0.  1.
          5    1    4    4  501    0  0.18474173810E+00  0.38963102017E+02 -0.46482898609E+02  0.60797119269E+02  0.41800000000E+01 0.  1.
         -5    1    4    4    0  501  0.69029781850E+02 -0.24847163340E+02  0.38739396561E+02  0.83070485458E+02  0.41800000000E+01 0.  1.
</event>
<event>
11    1  0.8299058E-009  0.1364423E+03  0.7561462E-02  0.1111597E+00
         22   -1    0    0    0    0  0.00000000000E+00  0.00000000000E+00  0.15163665335E+03  0.15163665335E+03  0.00000000000E+00 0. -1.
         22   -1    0    0    0    0 -0.00000000000E+00 -0.00000000000E+00 -0.28604386519E+04  0.28604386519E+04  0.00000000000E+00 0.  1.
        -24    2    1    2    0    0 -0.71802366219E+01  0.55061964110E+02 -0.27441317701E+04  0.27459144664E+04  0.81876185898E+02 0.  0.
         25    2    1    2    0    0 -0.13027609797E+02 -0.64228527153E+01 -0.50942200512E+02  0.13584603358E+03  0.12509222755E+03 0.  0.
         24    2    1    2    0    0  0.20207846419E+02 -0.48639111394E+02  0.86271972010E+02  0.13031480525E+03  0.82249468685E+02 0.  0.
        -11    1    5    5    0    0  0.30836599628E+02  0.12477983964E+02  0.17109021541E+02  0.37407413417E+02  0.00000000000E+00 0.  1.
         12    1    5    5    0    0 -0.10628753209E+02 -0.61117095359E+02  0.69162950468E+02  0.92907391834E+02  0.00000000000E+00 0. -1.
         13    1    3    3    0    0 -0.30392215360E+01 -0.94576799033E+01 -0.48471216732E+02  0.49478716921E+02  0.00000000000E+00 0. -1.
        -14    1    3    3    0    0 -0.41410150859E+01  0.64519644013E+02 -0.26956605533E+04  0.26964357495E+04  0.00000000000E+00 0.  1.
          5    1    4    4  501    0  0.81772470614E+01 -0.18229979061E+02 -0.88560829758E+02  0.90882850271E+02  0.41800000000E+01 0. -1.
         -5    1    4    4    0  501 -0.21204856858E+02  0.11807126346E+02  0.37618629245E+02  0.44963183308E+02  0.41800000000E+01 0. -1.
</event>
<event>
11    1  0.8299058E-009  0.1511054E+03  0.7561462E-02  0.1095755E+00
         22   -1    0    0    0    0  0.00000000000E+00  0.00000000000E+00  0.17936994039E+03  0.17936994039E+03  0.00000000000E+00 0.  1.
         22   -1    0    0    0    0 -0.00000000000E+00 -0.00000000000E+00 -0.15693330754E+04  0.15693330754E+04  0.00000000000E+00 0. -1.
         24    2    1    2    0    0  0.32248907451E+02 -0.53806173791E+02 -0.14192120408E+04  0.14228792730E+04  0.80545096354E+02 0.  0.
         25    2    1    2    0    0 -0.10954587593E+03  0.28232497240E+02 -0.62264120692E+02  0.17981937488E+03  0.12514317409E+03 0.  0.
        -24    2    1    2    0    0  0.77296968480E+02  0.25573676551E+02  0.91513026488E+02  0.14600436786E+03  0.79459468584E+02 0.  0.
        -11    1    3    3    0    0  0.34432629825E+02 -0.31418650187E+02 -0.31424148339E+03  0.31767978761E+03  0.00000000000E+00 0.  1.
         12    1    3    3    0    0 -0.21837223738E+01 -0.22387523604E+02 -0.11049705574E+04  0.11051994854E+04  0.00000000000E+00 0. -1.
         11    1    5    5    0    0  0.37334825297E+02  0.33838963935E+02  0.92334102009E+02  0.10518816974E+03  0.00000000000E+00 0. -1.
        -12    1    5    5    0    0  0.39962143184E+02 -0.82652873841E+01 -0.82107552141E+00  0.40816198113E+02  0.00000000000E+00 0.  1.
          5    1    4    4  501    0 -0.38413407714E+02  0.48788393101E+00  0.37683789810E+02  0.53975627253E+02  0.41800000000E+01 0.  1.
         -5    1    4    4    0  501 -0.71132468218E+02  0.27744613309E+02 -0.99947910502E+02  0.12584374762E+03  0.41800000000E+01 0.  1.
</event>
<event>
11    1  0.8299058E-009  0.2364163E+03  0.7561462E-02  0.1031395E+00
         22   -1    0    0    0    0  0.00000000000E+00  0.00000000000E+00  0.20798341418E+04  0.20798341418E+04  0.00000000000E+00 0.  1.
         22   -1    0    0    0    0 -0.00000000000E+00 -0.00000000000E+00 -0.86194226681E+03  0.86194226681E+03  0.00000000000E+00 0.  1.
        -24    2    1    2    0    0  0.74211518527E+02 -0.18608470495E+03 -0.83011487113E+03  0.85784893786E+03  0.81726580833E+02 0.  0.
         25    2    1    2    0    0 -0.91875164380E+02  0.20017145179E+03  0.96297061887E+03  0.99572586126E+03  0.12509165447E+03 0.  0.
         24    2    1    2    0    0  0.17663645853E+02 -0.14086746848E+02  0.10850361273E+04  0.10882016095E+04  0.79805417502E+02 0.  0.
        -13    1    5    5    0    0 -0.11694367740E+02  0.11393258957E+02  0.83518052505E+03  0.83534009482E+03  0.00000000000E+00 0.  1.
         14    1    5    5    0    0  0.29358013592E+02 -0.25480005805E+02  0.24985560224E+03  0.25286151472E+03  0.00000000000E+00 0. -1.
         13    1    3    3    0    0 -0.11608544226E+02 -0.55343757437E+02 -0.15910969816E+03  0.16885966314E+03  0.00000000000E+00 0. -1.
        -14    1    3    3    0    0  0.85820062753E+02 -0.13074094751E+03 -0.67100517297E+03  0.68898927472E+03  0.00000000000E+00 0.  1.
          5    1    4    4  501    0 -0.12069065511E+03  0.17223179228E+03  0.74869725875E+03  0.77768572197E+03  0.41800000000E+01 0.  1.
         -5    1    4    4    0  501  0.28815490730E+02  0.27939659516E+02  0.21427336013E+03  0.21804013929E+03  0.41800000000E+01 0.  1.
</event>
<event>
11    1  0.8299058E-009  0.1604246E+03  0.7561462E-02  0.1086679E+00
         22   -1    0    0    0    0  0.00000000000E+00  0.00000000000E+00  0.14549257910E+04  0.14549257910E+04  0.00000000000E+00 0.  1.
         22   -1    0    0    0    0 -0.00000000000E+00 -0.00000000000E+00 -0.11551181539E+03  0.11551181539E+03  0.00000000000E+00 0.  1.
        -24    2    1    2    0    0 -0.63459236676E+02 -0.27384277298E+02 -0.31996197431E+02  0.11463546201E+03  0.85677063080E+02 0.  0.
         25    2    1    2    0    0 -0.21478456413E+02 -0.35844388253E+02  0.73384030550E+02  0.15092839536E+03  0.12509204742E+03 0.  0.
         24    2    1    2    0    0  0.84937693089E+02  0.63228665551E+02  0.12980261425E+04  0.13048737490E+04  0.81310260201E+02 0.  0.
        -13    1    5    5    0    0  0.64543508892E+02  0.75145303700E+02  0.11983434751E+04  0.12024307737E+04  0.00000000000E+00 0.  1.
         14    1    5    5    0    0  0.20394184197E+02 -0.11916638149E+02  0.99682667370E+02  0.10244297530E+03  0.00000000000E+00 0. -1.
         13    1    3    3    0    0 -0.28251013752E+02  0.28067631778E+02 -0.28283815370E+02  0.48845531459E+02  0.00000000000E+00 0. -1.
        -14    1    3    3    0    0 -0.35208222924E+02 -0.55451909076E+02 -0.37123820616E+01  0.65789930553E+02  0.00000000000E+00 0.  1.
          5    1    4    4  501    0  0.30314834617E+02 -0.64544378424E+02  0.30359840916E+02  0.77615451583E+02  0.41800000000E+01 0. -1.
         -5    1    4    4    0  501 -0.51793291030E+02  0.28699990172E+02  0.43024189634E+02  0.73312943777E+02  0.41800000000E+01 0. -1.
</event>
<event>
11    1  0.8299058E-009  0.1541702E+03  0.7561462E-02  0.1092692E+00
         22   -1    0    0    0    0  0.00000000000E+00  0.00000000000E+00  0.11631243214E+04  0.11631243214E+04  0.00000000000E+00 0.  1.
         22   -1    0    0    0    0 -0.00000000000E+00 -0.00000000000E+00 -0.94948090433E+03  0.94948090433E+03  0.00000000000E+00 0. -1.
         24    2    1    2    0    0 -0.21199973387E+02  0.92101335187E+02 -0.91168334929E+03  0.92020822765E+03  0.81759146594E+02 0.  0.
         25    2    1    2    0    0  0.36824836589E+02  0.72107299102E+01  0.11496947179E+03  0.17399405326E+03  0.12509151814E+03 0.  0.
        -24    2    1    2    0    0 -0.15624863202E+02 -0.99312065097E+02  0.10103572946E+04  0.10184029448E+04  0.78839537751E+02 0.  0.
        -11    1    3    3    0    0 -0.28458471059E+02  0.35187781497E+01 -0.11246836674E+03  0.11606635987E+03  0.00000000000E+00 0.  1.
         12    1    3    3    0    0  0.72584976717E+01  0.88582557037E+02 -0.79921498255E+03  0.80414186779E+03  0.00000000000E+00 0. -1.
         13    1    5    5    0    0  0.15922685867E+02  0.56857902766E+01  0.19027422621E+03  0.19102392860E+03  0.00000000000E+00 0. -1.
        -14    1    5    5    0    0 -0.31547549070E+02 -0.10499785537E+03  0.82008306836E+03  0.82737901623E+03  0.00000000000E+00 0.  1.
          5    1    4    4  501    0  0.70497810294E+02  0.18441573738E+02  0.24946193126E+02  0.77135062388E+02  0.41800000000E+01 0.  1.
         -5    1    4    4    0  501 -0.33672973705E+02 -0.11230843828E+02  0.90023278660E+02  0.96858990867E+02  0.41800000000E+01 0.  1.
</event>
<event>
11    1  0.8299058E-009  0.1632216E+03  0.7561462E-02  0.1084086E+00
         22   -1    0    0    0    0  0.00000000000E+00  0.00000000000E+00  0.66625820814E+03  0.66625820814E+03  0.00000000000E+00 0.  1.
         22   -1    0    0    0    0 -0.00000000000E+00 -0.00000000000E+00 -0.16200824412E+04  0.16200824412E+04  0.00000000000E+00 0.  1.
         24    2    1    2    0    0  0.90809994476E+02 -0.33643996332E+02 -0.11660402893E+04  0.11728369135E+04  0.80734724447E+02 0.  0.
         25    2    1    2    0    0 -0.15957008290E+03  0.28659703212E+02 -0.42390501402E+03  0.47077272565E+03  0.12509000103E+03 0.  0.
        -24    2    1    2    0    0  0.68760088426E+02  0.49842931203E+01  0.63612107029E+03  0.64273101020E+03  0.60830440323E+02 0.  0.
        -11    1    3    3    0    0  0.62349805373E+02  0.17190262537E+02 -0.74196945257E+03  0.74478296967E+03  0.00000000000E+00 0.  1.
         12    1    3    3    0    0  0.28460189104E+02 -0.50834258869E+02 -0.42407083674E+03  0.42805394381E+03  0.00000000000E+00 0. -1.
         11    1    5    5    0    0  0.69915625801E+01 -0.97616731438E+01  0.32362475087E+03  0.32384742023E+03  0.00000000000E+00 0. -1.
        -12    1    5    5    0    0  0.61768525846E+02  0.14745966264E+02  0.31249631941E+03  0.31888358997E+03  0.00000000000E+00 0.  1.
          5    1    4    4  501    0 -0.10620844699E+03  0.22946531550E+02 -0.39495868426E+03  0.40965425934E+03  0.41800000000E+01 0.  1.
         -5    1    4    4    0  501 -0.53361635910E+02  0.57131716614E+01 -0.28946329763E+02  0.61118466310E+02  0.41800000000E+01 0.  1.
</event>
<event>
11    1  0.8299058E-009  0.1422528E+03  0.7561462E-02  0.1105069E+00
         22   -1    0    0    0    0  0.00000000000E+00  0.00000000000E+00  0.42936029463E+03  0.42936029463E+03  0.00000000000E+00 0. -1.
         22   -1    0    0    0    0 -0.00000000000E+00 -0.00000000000E+00 -0.37343672786E+03  0.37343672786E+03  0.00000000000E+00 0. -1.
        -24    2    1    2    0    0 -0.26762791446E+01 -0.23521698304E+02 -0.24708566973E+03  0.26074782867E+03  0.79860310586E+02 0.  0.
         25    2    1    2    0    0 -0.62032764665E+02  0.42607630215E+02 -0.64627484867E+02  0.15965057660E+03  0.12509244887E+03 0.  0.
         24    2    1    2    0    0  0.64709043810E+02 -0.19085931910E+02  0.36763672137E+03  0.38239861722E+03  0.80749058267E+02 0.  0.
        -11    1    5    5    0    0  0.57179778866E+02 -0.56246380371E+01  0.10824327079E+03  0.12254700868E+03  0.00000000000E+00 0.  1.
         12    1    5    5    0    0  0.75292649438E+01 -0.13461293873E+02  0.25939345058E+03  0.25985160855E+03  0.00000000000E+00 0. -1.
         13    1    3    3    0    0  0.20347973864E+02 -0.33536394074E+02 -0.58104777244E+02  0.70106311459E+02  0.00000000000E+00 0. -1.
        -14    1    3    3    0    0 -0.23024253009E+02  0.10014695769E+02 -0.18898089249E+03  0.19064151721E+03  0.00000000000E+00 0.  1.
          5    1    4    4  501    0  0.93166102625E+01  0.58904357441E+02  0.30774622198E+01  0.59862055812E+02  0.41800000000E+01 0.  1.
         -5    1    4    4    0  501 -0.71349374928E+02 -0.16296727226E+02 -0.67704947087E+02  0.99788520787E+02  0.41800000000E+01 0.  1.
</event>
<event>
11    1  0.8299058E-009  0.1442905E+03  0.7561462E-02  0.1102860E+00
         22   -1    0    0    0    0  0.00000000000E+00  0.00000000000E+00  0.83732288828E+03  0.83732288828E+03  0.00000000000E+00 0.  1.
         22   -1    0    0    0    0 -0.00000000000E+00 -0.00000000000E+00 -0.75136919085E+03  0.75136919085E+03  0.00000000000E+00 0.  1.
         24    2    1    2    0    0 -0.59948818426E+02 -0.40505995503E+02 -0.62997110192E+03  0.64023041894E+03  0.88299510681E+02 0.  0.
         25    2    1    2    0    0  0.93783510369E+02 -0.24234064615E+02 -0.56765946931E+02  0.16808451562E+03  0.12508954775E+03 0.  0.
        -24    2    1    2    0    0 -0.33834691943E+02  0.64740060118E+02  0.77269074627E+03  0.78037714456E+03  0.81249225345E+02 0.  0.
        -13    1    3    3    0    0  0.83220778889E+01 -0.19791567235E+02 -0.37073519512E+03  0.37135636256E+03  0.00000000000E+00 0.  1.
         14    1    3    3    0    0 -0.68270896315E+02 -0.20714428268E+02 -0.25923590680E+03  0.26887405638E+03  0.00000000000E+00 0. -1.
         13    1    5    5    0    0 -0.13515134550E+02  0.57709798598E+02  0.23852641867E+03  0.24578025169E+03  0.00000000000E+00 0. -1.
        -14    1    5    5    0    0 -0.20319557393E+02  0.70302615202E+01  0.53416432760E+03  0.53459689287E+03  0.00000000000E+00 0.  1.
          5    1    4    4  501    0 -0.28170076889E+02 -0.22279996808E+02 -0.12196483411E+02  0.38159901694E+02  0.41800000000E+01 0.  1.
         -5    1    4    4    0  501  0.12195358726E+03 -0.19540678077E+01 -0.44569463520E+02  0.12992461393E+03  0.41800000000E+01 0.  1.
</event>
<event>
11    1  0.8299058E-009  0.2373692E+03  0.7561462E-02  0.1030852E+00
         22   -1    0    0    0    0  0.00000000000E+00  0.00000000000E+00  0.60642471433E+03  0.60642471433E+03  0.00000000000E+00 0.  1.
         22   -1    0    0    0    0 -0.00000000000E+00 -0.00000000000E+00 -0.12888340578E+04  0.12888340578E+04  0.00000000000E+00 0. -1.
         24    2    1    2    0    0  0.36814999939E+01 -0.64989355446E+02 -0.10699418419E+04  0.10746431448E+04  0.76453737125E+02 0.  0.
         25    2    1    2    0    0  0.19118504597E+03  0.11182511277E+03 -0.11066914549E+03  0.27740308136E+03  0.12509289401E+03 0.  0.
        -24    2    1    2    0    0 -0.19486654597E+03 -0.46835757325E+02  0.49820164388E+03  0.54321254599E+03  0.81905025802E+02 0.  0.
        -11    1    3    3    0    0  0.37159058435E+02 -0.18562559536E+02 -0.35729207992E+03  0.35969847736E+03  0.00000000000E+00 0.  1.
         12    1    3    3    0    0 -0.33477558441E+02 -0.46426795910E+02 -0.71264976193E+03  0.71494466742E+03  0.00000000000E+00 0. -1.
         11    1    5    5    0    0 -0.73675861263E+02 -0.44695656453E+02  0.13350233616E+03  0.15889842038E+03  0.00000000000E+00 0. -1.
        -12    1    5    5    0    0 -0.12119068470E+03 -0.21401008717E+01  0.36469930772E+03  0.38431412561E+03  0.00000000000E+00 0.  1.
          5    1    4    4  501    0 -0.10683329854E+02 -0.83640198550E+01 -0.22144504353E+02  0.26304787358E+02  0.41800000000E+01 0. -1.
         -5    1    4    4    0  501  0.20186837583E+03  0.12018913263E+03 -0.88524641140E+02  0.25109829400E+03  0.41800000000E+01 0. -1.
</event>
<event>
11    1  0.8299058E-009  0.1411538E+03  0.7561462E-02  0.1106277E+00
         22   -1    0    0    0    0  0.00000000000E+00  0.00000000000E+00  0.16850048459E+04  0.16850048459E+04  0.00000000000E+00 0. -1.
         22   -1    0    0    0    0 -0.00000000000E+00 -0.00000000000E+00 -0.81452169423E+03  0.81452169423E+03  0.00000000000E+00 0.  1.
        -24    2    1    2    0    0  0.57926192290E+01  0.59805819708E+01 -0.75712795862E+03  0.76148615697E+03  0.80926508211E+02 0.  0.
         25    2    1    2    0    0 -0.16556976466E+02 -0.70269135189E+02  0.44032835316E+02  0.15099042353E+03  0.12508929844E+03 0.  0.
         24    2    1    2    0    0  0.10764357237E+02  0.64288553218E+02  0.15835782750E+04  0.15870499597E+04  0.82210290992E+02 0.  0.
        -13    1    5    5    0    0 -0.33392739502E+02  0.10090122408E+02  0.49155594906E+03  0.49279218406E+03  0.00000000000E+00 0.  1.
         14    1    5    5    0    0  0.44157096739E+02  0.54198430810E+02  0.10920223260E+04  0.10942577756E+04  0.00000000000E+00 0. -1.
         13    1    3    3    0    0  0.26921451269E+02  0.29046406986E+02 -0.22644692022E+03  0.22988402723E+03  0.00000000000E+00 0. -1.
        -14    1    3    3    0    0 -0.21128832040E+02 -0.23065825015E+02 -0.53068103840E+03  0.53160212974E+03  0.00000000000E+00 0.  1.
          5    1    4    4  501    0  0.29512869499E+02 -0.75344213111E+02 -0.77180900281E+01  0.81392881931E+02  0.41800000000E+01 0. -1.
         -5    1    4    4    0  501 -0.46069845965E+02  0.50750779224E+01  0.51750925344E+02  0.69597541603E+02  0.41800000000E+01 0. -1.
</event>
<event>
11    1  0.8299058E-009  0.4338494E+03  0.7561462E-02  0.9554846E-01
         22   -1    0    0    0    0  0.00000000000E+00  0.00000000000E+00  0.38576872690E+03  0.38576872690E+03  0.00000000000E+00 0.  1.
         22   -1    0    0    0    0 -0.00000000000E+00 -0.00000000000E+00 -0.25139840939E+04  0.25139840939E+04  0.00000000000E+00 0.  1.
         24    2    1    2    0    0  0.10938163041E+03 -0.40789571752E+03 -0.23248402911E+04  0.23641282312E+04  0.76659354281E+02 0.  0.
         25    2    1    2    0    0 -0.66133490082E+02  0.33097856264E+03  0.79848933049E+02  0.36870470754E+03  0.12508741669E+03 0.  0.
        -24    2    1    2    0    0 -0.43248140326E+02  0.76917154880E+02  0.11677599113E+03  0.16691988205E+03  0.80243158977E+02 0.  0.
        -11    1    3    3    0    0  0.29677255443E+02 -0.67512851100E+02 -0.27630503509E+03  0.28597761621E+03  0.00000000000E+00 0.  1.
         12    1    3    3    0    0  0.79704374965E+02 -0.34038286642E+03 -0.20485352561E+04  0.20781506150E+04  0.00000000000E+00 0. -1.
         13    1    5    5    0    0  0.75282678784E+00  0.62180186210E+02  0.99642494185E+02  0.11745453994E+03  0.00000000000E+00 0. -1.
        -14    1    5    5    0    0 -0.44000967114E+02  0.14736968670E+02  0.17133496948E+02  0.49465342112E+02  0.00000000000E+00 0.  1.
          5    1    4    4  501    0  0.36518198886E+02  0.11550606971E+03  0.24661835562E+02  0.12369684524E+03  0.41800000000E+01 0. -1.
         -5    1    4    4    0  501 -0.10265168897E+03  0.21547249293E+03  0.55187097487E+02  0.24500786230E+03  0.41800000000E+01 0. -1.
</event>
<event>
11    1  0.8299058E-009  0.1493796E+03  0.7561462E-02  0.1097514E+00
         22   -1    0    0    0    0  0.00000000000E+00  0.00000000000E+00  0.10766174434E+04  0.10766174434E+04  0.00000000000E+00 0. -1.
         22   -1    0    0    0    0 -0.00000000000E+00 -0.00000000000E+00 -0.29176921895E+03  0.29176921895E+03  0.00000000000E+00 0.  1.
         24    2    1    2    0    0 -0.68716456822E+02 -0.34744011099E+02 -0.22279958458E+03  0.24806748343E+03  0.77257515491E+02 0.  0.
         25    2    1    2    0    0  0.13380646605E+03  0.57809002013E+02  0.12052531337E+03  0.22676022697E+03  0.12509115997E+03 0.  0.
        -24    2    1    2    0    0 -0.65090009233E+02 -0.23064990914E+02  0.88712249569E+03  0.89355895198E+03  0.81808160959E+02 0.  0.
        -11    1    3    3    0    0 -0.63157446653E+02 -0.31604729114E+02 -0.22871100542E+03  0.23936676037E+03  0.00000000000E+00 0.  1.
         12    1    3    3    0    0 -0.55590101687E+01 -0.31392819849E+01  0.59114208377E+01  0.87007230594E+01  0.00000000000E+00 0. -1.
         11    1    5    5    0    0 -0.37519253548E+01 -0.40907416888E+02  0.43693446605E+03  0.43886127799E+03  0.00000000000E+00 0. -1.
        -12    1    5    5    0    0 -0.61338083878E+02  0.17842425974E+02  0.45018802965E+03  0.45469767399E+03  0.00000000000E+00 0.  1.
          5    1    4    4  501    0  0.10668126844E+03  0.14359254362E+02  0.14187163827E+02  0.10865463284E+03  0.41800000000E+01 0. -1.
         -5    1    4    4    0  501  0.27125197618E+02  0.43449747651E+02  0.10633814954E+03  0.11810559413E+03  0.41800000000E+01 0. -1.
</event>
<event>
11    1  0.8299058E-009  0.1632805E+03  0.7561462E-02  0.1084032E+00
         22   -1    0    0    0    0  0.00000000000E+00  0.00000000000E+00  0.15639426580E+04  0.15639426580E+04  0.00000000000E+00 0.  1.
         22   -1    0    0    0    0 -0.00000000000E+00 -0.00000000000E+00 -0.56465584024E+03  0.56465584024E+03  0.00000000000E+00 0.  1.
        -24    2    1    2    0    0 -0.36514636741E+02 -0.98865497977E+02 -0.53222316571E+03  0.54863363677E+03  0.81422748040E+02 0.  0.
         25    2    1    2    0    0  0.94853076738E+02  0.56636555290E+02  0.29648828916E+03  0.34023876338E+03  0.12510917206E+03 0.  0.
         24    2    1    2    0    0 -0.58338439998E+02  0.42228942687E+02  0.12350216943E+04  0.12397260981E+04  0.80346472720E+02 0.  0.
        -13    1    5    5    0    0 -0.43975495543E+02  0.13654552783E+01  0.98486284607E+03  0.98584508633E+03  0.00000000000E+00 0.  1.
         14    1    5    5    0    0 -0.14362944455E+02  0.40863487409E+02  0.25015884825E+03  0.25388101176E+03  0.00000000000E+00 0. -1.
         11    1    3    3    0    0  0.19602083790E+02 -0.32661461589E+02 -0.86142077080E+02  0.94188482341E+02  0.00000000000E+00 0. -1.
        -12    1    3    3    0    0 -0.56116720531E+02 -0.66204036388E+02 -0.44608108863E+03  0.45444515443E+03  0.00000000000E+00 0.  1.
          5    1    4    4  501    0  0.36764904888E+02  0.71222687021E+02  0.25481358729E+03  0.26715494764E+03  0.41800000000E+01 0. -1.
         -5    1    4    4    0  501  0.58088171850E+02 -0.14586131731E+02  0.41674701872E+02  0.73083815746E+02  0.41800000000E+01 0. -1.
</event>
<event>
11    1  0.8299058E-009  0.1475742E+03  0.7561462E-02  0.1099384E+00
         22   -1    0    0    0    0  0.00000000000E+00  0.00000000000E+00  0.30954908709E+04  0.30954908709E+04  0.00000000000E+00 0.  1.
         22   -1    0    0    0    0 -0.00000000000E+00 -0.00000000000E+00 -0.14164378067E+03  0.14164378067E+03  0.00000000000E+00 0. -1.
         24    2    1    2    0    0 -0.71695930594E+02 -0.81876173010E+01 -0.91154740118E+02  0.14184427390E+03  0.81260493798E+02 0.  0.
         25    2    1    2    0    0 -0.58725202093E+01  0.32019612570E+02  0.14955760561E+03  0.19767296270E+03  0.12508949078E+03 0.  0.
        -24    2    1    2    0    0  0.77568450804E+02 -0.23831995269E+02  0.28954442248E+04  0.28976174150E+04  0.77489331123E+02 0.  0.
        -13    1    3    3    0    0 -0.19431400707E+02  0.81039749796E+01  0.12597546776E+02  0.24534708653E+02  0.00000000000E+00 0.  1.
         14    1    3    3    0    0 -0.52264529887E+02 -0.16291592281E+02 -0.10375228689E+03  0.11730956525E+03  0.00000000000E+00 0. -1.
         13    1    5    5    0    0  0.17667176837E+02 -0.36991465885E+01  0.11114770959E+03  0.11260384616E+03  0.00000000000E+00 0. -1.
        -14    1    5    5    0    0  0.59901273967E+02 -0.20132848681E+02  0.27842965152E+04  0.27850135688E+04  0.00000000000E+00 0.  1.
          5    1    4    4  501    0 -0.18391686097E+01 -0.39812313044E+02  0.10634276471E+03  0.11364268044E+03  0.41800000000E+01 0. -1.
         -5    1    4    4    0  501 -0.40333515996E+01  0.71831925615E+02  0.43214840900E+02  0.84030282260E+02  0.41800000000E+01 0. -1.
</event>
<event>
11    1  0.8299058E-009  0.1436327E+03  0.7561462E-02  0.1103568E+00
         22   -1    0    0    0    0  0.00000000000E+00  0.00000000000E+00  0.80516847937E+02  0.80516847937E+02  0.00000000000E+00 0.  1.
         22   -1    0    0    0    0 -0.00000000000E+00 -0.00000000000E+00 -0.21566365352E+04  0.21566365352E+04  0.00000000000E+00 0. -1.
        -24    2    1    2    0    0 -0.18406607329E+01  0.10845828942E+02 -0.13321788462E+04  0.13346453927E+04  0.80354377093E+02 0.  0.
         25    2    1    2    0    0  0.34771061983E+02 -0.72710137214E+02 -0.77665840585E+03  0.79078589120E+03  0.12509298756E+03 0.  0.
         24    2    1    2    0    0 -0.32930401250E+02  0.61864308272E+02  0.32717564850E+02  0.11172209919E+03  0.80621240583E+02 0.  0.
        -11    1    5    5    0    0 -0.54570480609E+02  0.39483748835E+02  0.41824755142E+02  0.79285647621E+02  0.00000000000E+00 0.  1.
         12    1    5    5    0    0  0.21640079358E+02  0.22380559437E+02 -0.91071902920E+01  0.32436451569E+02  0.00000000000E+00 0. -1.
         11    1    3    3    0    0  0.30343187728E+02  0.18023667982E+02 -0.10422594998E+04  0.10428568581E+04  0.00000000000E+00 0. -1.
        -12    1    3    3    0    0 -0.32183848461E+02 -0.71778390399E+01 -0.28991934648E+03  0.29178853462E+03  0.00000000000E+00 0.  1.
          5    1    4    4  501    0  0.75745630301E+01  0.19770771401E+02 -0.44118442768E+03  0.44171192992E+03  0.41800000000E+01 0. -1.
         -5    1    4    4    0  501  0.27196498953E+02 -0.92480908615E+02 -0.33547397817E+03  0.34907396128E+03  0.41800000000E+01 0. -1.
</event>
<event>
11    1  0.8299058E-009  0.1394962E+03  0.7561462E-02  0.1108122E+00
         22   -1    0    0    0    0  0.00000000000E+00  0.00000000000E+00  0.10085568603E+03  0.10085568603E+03  0.00000000000E+00 0.  1.
         22   -1    0    0    0    0 -0.00000000000E+00 -0.00000000000E+00 -0.15410652966E+04  0.15410652966E+04  0.00000000000E+00 0.  1.
         24    2    1    2    0    0 -0.36389944072E+02  0.74270209711E+01 -0.13627049630E+04  0.13657172101E+04  0.82700019268E+02 0.  0.
         25    2    1    2    0    0  0.21992541193E+00  0.49118074873E+02 -0.10542102330E+03  0.17080471224E+03  0.12509206179E+03 0.  0.
        -24    2    1    2    0    0  0.36170018661E+02 -0.56545095844E+02  0.27916375706E+02  0.10539906029E+03  0.76315265594E+02 0.  0.
        -11    1    3    3    0    0 -0.38982001746E+02 -0.12085743430E+02 -0.12818904922E+04  0.12825400172E+04  0.00000000000E+00 0.  1.
         12    1    3    3    0    0  0.25920576730E+01  0.19512764401E+02 -0.80814470807E+02  0.83177192964E+02  0.00000000000E+00 0. -1.
         13    1    5    5    0    0  0.17293359717E+02  0.17407504269E+02  0.12484748318E+02  0.27530899654E+02  0.00000000000E+00 0. -1.
        -14    1    5    5    0    0  0.18876658943E+02 -0.73952600113E+02  0.15431627388E+02  0.77868160632E+02  0.00000000000E+00 0.  1.
          5    1    4    4  501    0 -0.48881902239E+02  0.65715159738E+02 -0.70720759873E+02  0.10829044678E+03  0.41800000000E+01 0. -1.
         -5    1    4    4    0  501  0.49101827651E+02 -0.16597084865E+02 -0.34700263430E+02  0.62514265466E+02  0.41800000000E+01 0. -1.
</event>
<event>
11    1  0.8299058E-009  0.1298144E+03  0.7561462E-02  0.1119497E+00
         22   -1    0    0    0    0  0.00000000000E+00  0.00000000000E+00  0.57594977229E+03  0.57594977229E+03  0.00000000000E+00 0. -1.
         22   -1    0    0    0    0 -0.00000000000E+00 -0.00000000000E+00 -0.95804250592E+02  0.95804250592E+02  0.00000000000E+00 0.  1.
         24    2    1    2    0    0 -0.14814391182E+02 -0.31733690703E+02 -0.10871763139E+02  0.92665696032E+02  0.85101367061E+02 0.  0.
         25    2    1    2    0    0  0.26447129999E+02  0.24143194526E+02  0.65559104676E+02  0.14570125181E+03  0.12509402083E+03 0.  0.
        -24    2    1    2    0    0 -0.11632738817E+02  0.75904961769E+01  0.42545818016E+03  0.43338707503E+03  0.81343453934E+02 0.  0.
        -11    1    3    3    0    0 -0.84572182140E+01 -0.61235480933E+02 -0.61923574793E+01  0.62126113319E+02  0.00000000000E+00 0.  1.
         12    1    3    3    0    0 -0.63571729682E+01  0.29501790230E+02 -0.46794056595E+01  0.30539582713E+02  0.00000000000E+00 0. -1.
         13    1    5    5    0    0 -0.29372813471E+02  0.37565848578E+02  0.24392710608E+03  0.24854453973E+03  0.00000000000E+00 0. -1.
        -14    1    5    5    0    0  0.17740074654E+02 -0.29975352401E+02  0.18153107408E+03  0.18484253530E+03  0.00000000000E+00 0.  1.
          5    1    4    4  501    0 -0.42528992337E+02  0.44316867156E+01 -0.70589220061E+01  0.43539129714E+02  0.41800000000E+01 0.  1.
         -5    1    4    4    0  501  0.68976122336E+02  0.19711507811E+02  0.72618026682E+02  0.10216212210E+03  0.41800000000E+01 0.  1.
</event>
<event>
11    1  0.8299058E-009  0.1415649E+03  0.7561462E-02  0.1105823E+00
         22   -1    0    0    0    0  0.00000000000E+00  0.00000000000E+00  0.98681050290E+03  0.98681050290E+03  0.00000000000E+00 0.  1.
         22   -1    0    0    0    0 -0.00000000000E+00 -0.00000000000E+00 -0.10261339435E+03  0.10261339435E+03  0.00000000000E+00 0.  1.
         24    2    1    2    0    0 -0.30660217375E+02  0.20205536634E+01 -0.41210343102E+02  0.97639960103E+02  0.83012877698E+02 0.  0.
         25    2    1    2    0    0 -0.38840457273E+02 -0.12537922822E+02  0.12179243499E+03  0.17929345086E+03  0.12508782383E+03 0.  0.
        -24    2    1    2    0    0  0.69500674648E+02  0.10517369158E+02  0.80361501667E+03  0.81249048628E+03  0.96967708279E+02 0.  0.
        -13    1    3    3    0    0 -0.53367713970E+02 -0.16154352840E+02 -0.13286952908E+02  0.57320320373E+02  0.00000000000E+00 0.  1.
         14    1    3    3    0    0  0.22707496594E+02  0.18174906504E+02 -0.27923390195E+02  0.40319639730E+02  0.00000000000E+00 0. -1.
         11    1    5    5    0    0  0.43697932674E+02  0.12087421877E+02  0.11833804765E+03  0.12672611652E+03  0.00000000000E+00 0. -1.
        -12    1    5    5    0    0  0.25802741975E+02 -0.15700527187E+01  0.68527696902E+03  0.68576436976E+03  0.00000000000E+00 0.  1.
          5    1    4    4  501    0 -0.48689726571E+02 -0.62996589474E+02  0.79485611897E+02  0.11258194641E+03  0.41800000000E+01 0.  1.
         -5    1    4    4    0  501  0.98492692985E+01  0.50458666652E+02  0.42306823089E+02  0.66711504450E+02  0.41800000000E+01 0.  1.
</event>
<event>
11    1  0.8299058E-009  0.1535299E+03  0.7561462E-02  0.1093326E+00
         22   -1    0    0    0    0  0.00000000000E+00  0.00000000000E+00  0.43982719397E+03  0.43982719397E+03  0.00000000000E+00 0. -1.
         22   -1    0    0    0    0 -0.00000000000E+00 -0.00000000000E+00 -0.32522323134E+03  0.32522323134E+03  0.00000000000E+00 0.  1.
         24    2    1    2    0    0  0.11990077286E+02  0.42876824160E+00 -0.21614526651E+03  0.23125459037E+03  0.81338573476E+02 0.  0.
         25    2    1    2    0    0 -0.66062654296E+02 -0.70237845773E+02 -0.24434057973E+02  0.15981908734E+03  0.12508992052E+03 0.  0.
        -24    2    1    2    0    0  0.54072577009E+02  0.69809077531E+02  0.35518328711E+03  0.37397674761E+03  0.76852387232E+02 0.  0.
        -11    1    3    3    0    0  0.45893388935E+02 -0.82583843784E+01 -0.13693585468E+03  0.14465763843E+03  0.00000000000E+00 0.  1.
         12    1    3    3    0    0 -0.33903311649E+02  0.86871526200E+01 -0.79209411830E+02  0.86596951932E+02  0.00000000000E+00 0. -1.
         13    1    5    5    0    0  0.34022046403E+02  0.16112531462E+02  0.26116536689E+03  0.26386447691E+03  0.00000000000E+00 0. -1.
        -14    1    5    5    0    0  0.20050530606E+02  0.53696546069E+02  0.94017920220E+02  0.11011227070E+03  0.00000000000E+00 0.  1.
          5    1    4    4  501    0 -0.91247409476E+02 -0.81577892238E+02 -0.38719861518E+02  0.12844353746E+03  0.41800000000E+01 0.  1.
         -5    1    4    4    0  501  0.25184755180E+02  0.11340046466E+02  0.14285803545E+02  0.31375549880E+02  0.41800000000E+01 0.  1.
</event>
<event>
11    1  0.8299058E-009  0.1632833E+03  0.7561462E-02  0.1084029E+00
         22   -1    0    0    0    0  0.00000000000E+00  0.00000000000E+00  0.13698035902E+03  0.13698035902E+03  0.00000000000E+00 0.  1.
         22   -1    0    0    0    0 -0.00000000000E+00 -0.00000000000E+00 -0.13394890818E+04  0.13394890818E+04  0.00000000000E+00 0. -1.
         24    2    1    2    0    0  0.19726221973E+02 -0.10796007473E+03 -0.11831461403E+04  0.11909796706E+04  0.80952362060E+02 0.  0.
         25    2    1    2    0    0  0.29661387809E+01  0.60175255973E+02 -0.90115734789E+02  0.16552357248E+03  0.12508935998E+03 0.  0.
        -24    2    1    2    0    0 -0.22692360754E+02  0.47784818754E+02  0.70753152285E+02  0.11996619774E+03  0.81163710506E+02 0.  0.
        -11    1    3    3    0    0 -0.18679133046E+02  0.44255048059E+00 -0.26520387225E+03  0.26586124147E+03  0.00000000000E+00 0.  1.
         12    1    3    3    0    0  0.38405355019E+02 -0.10840262521E+03 -0.91794226801E+03  0.92511842909E+03  0.00000000000E+00 0. -1.
         13    1    5    5    0    0 -0.64438251552E+01 -0.17437990577E+01 -0.16796186037E+02  0.18074168949E+02  0.00000000000E+00 0. -1.
        -14    1    5    5    0    0 -0.16248535599E+02  0.49528617811E+02  0.87549338322E+02  0.10189202880E+03  0.00000000000E+00 0.  1.
          5    1    4    4  501    0  0.14477174229E+02  0.26059262525E+02  0.28524032906E+02  0.41470068606E+02  0.41800000000E+01 0.  1.
         -5    1    4    4    0  501 -0.11511035448E+02  0.34115993448E+02 -0.11863976769E+03  0.12405350388E+03  0.41800000000E+01 0.  1.
</event>
<event>
11    1  0.8299058E-009  0.1503402E+03  0.7561462E-02  0.1096532E+00
         22   -1    0    0    0    0  0.00000000000E+00  0.00000000000E+00  0.70788035087E+03  0.70788035087E+03  0.00000000000E+00 0.  1.
         22   -1    0    0    0    0 -0.00000000000E+00 -0.00000000000E+00 -0.63235416034E+03  0.63235416034E+03  0.00000000000E+00 0. -1.
        -24    2    1    2    0    0  0.35576961780E+02  0.39247701771E+02 -0.43992965534E+03  0.45039129454E+03  0.80672884183E+02 0.  0.
         25    2    1    2    0    0  0.45546438249E+02 -0.61167621617E+02 -0.15269446578E+03  0.21161122218E+03  0.12509098090E+03 0.  0.
         24    2    1    2    0    0 -0.81123400029E+02  0.21919919846E+02  0.66815031166E+03  0.67823199449E+03  0.80698887588E+02 0.  0.
        -11    1    5    5    0    0 -0.72689685118E+02 -0.13563587814E+02  0.33344979921E+03  0.34155018640E+03  0.00000000000E+00 0.  1.
         12    1    5    5    0    0 -0.84337149106E+01  0.35483507660E+02  0.33470051245E+03  0.33668180809E+03  0.00000000000E+00 0. -1.
         13    1    3    3    0    0  0.26304036728E+02  0.13361590640E+01 -0.36461106391E+03  0.36556109694E+03  0.00000000000E+00 0. -1.
        -14    1    3    3    0    0  0.92729250525E+01  0.37911542707E+02 -0.75318591432E+02  0.84830197600E+02  0.00000000000E+00 0.  1.
          5    1    4    4  501    0 -0.13914987199E+02 -0.39054969246E+02  0.46295261860E+01  0.41926392693E+02  0.41800000000E+01 0. -1.
         -5    1    4    4    0  501  0.59461425448E+02 -0.22112652372E+02 -0.15732399197E+03  0.16968482949E+03  0.41800000000E+01 0. -1.
</event>
<event>
11    1  0.8299058E-009  0.1266245E+03  0.7561462E-02  0.1123487E+00
         22   -1    0    0    0    0  0.00000000000E+00  0.00000000000E+00  0.69397806974E+03  0.69397806974E+03  0.00000000000E+00 0. -1.
         22   -1    0    0    0    0 -0.00000000000E+00 -0.00000000000E+00 -0.74951085450E+03  0.74951085450E+03  0.00000000000E+00 0. -1.
         24    2    1    2    0    0  0.16378382802E+02  0.22691726839E+02 -0.67315384052E+03  0.67811228263E+03  0.76922096689E+02 0.  0.
         25    2    1    2    0    0 -0.21010051143E+02 -0.40724559547E+02 -0.83666312607E+01  0.13348028306E+03  0.12508826263E+03 0.  0.
        -24    2    1    2    0    0  0.46316683407E+01  0.18032832708E+02  0.62598768702E+03  0.63189635855E+03  0.84177124198E+02 0.  0.
        -11    1    3    3    0    0  0.29460118700E+02 -0.20622809226E+02 -0.25643703293E+03  0.25894623131E+03  0.00000000000E+00 0.  1.
         12    1    3    3    0    0 -0.13081735898E+02  0.43314536065E+02 -0.41671680759E+03  0.41916605132E+03  0.00000000000E+00 0. -1.
         11    1    5    5    0    0  0.45167147669E-01 -0.10660292786E+02  0.55618544873E+03  0.55628760301E+03  0.00000000000E+00 0. -1.
        -12    1    5    5    0    0  0.45865011930E+01  0.28693125494E+02  0.69802238286E+02  0.75608755535E+02  0.00000000000E+00 0.  1.
          5    1    4    4  501    0 -0.17437229120E+02 -0.56300025741E+02 -0.57011942727E+02  0.82107148722E+02  0.41800000000E+01 0. -1.
         -5    1    4    4    0  501 -0.35728220228E+01  0.15575466194E+02  0.48645311466E+02  0.51373134341E+02  0.41800000000E+01 0. -1.
</event>
<event>
11    1  0.8299058E-009  0.1733042E+03  0.7561462E-02  0.1075191E+00
         22   -1    0    0    0    0  0.00000000000E+00  0.00000000000E+00  0.22923351083E+04  0.22923351083E+04  0.00000000000E+00 0.  1.
         22   -1    0    0    0    0 -0.00000000000E+00 -0.00000000000E+00 -0.23156389854E+03  0.23156389854E+03  0.00000000000E+00 0. -1.
         24    2    1    2    0    0  0.31517937514E+02 -0.27793851654E+02 -0.17432369680E+03  0.19902346179E+03  0.86346444637E+02 0.  0.
         25    2    1    2    0    0  0.59234024931E+02  0.10664478506E+03  0.13756482244E+03  0.22238555385E+03  0.12509785888E+03 0.  0.
        -24    2    1    2    0    0 -0.90751962445E+02 -0.78850933410E+02  0.20975300841E+04  0.21024899912E+04  0.79864390709E+02 0.  0.
        -11    1    3    3    0    0  0.83861551416E+01  0.15032932526E+02 -0.13596639284E+03  0.13705172980E+03  0.00000000000E+00 0.  1.
         12    1    3    3    0    0  0.23131782372E+02 -0.42826784180E+02 -0.38357303958E+02  0.61971731990E+02  0.00000000000E+00 0. -1.
         13    1    5    5    0    0 -0.53823714319E+02 -0.21298559889E+01  0.55378321795E+03  0.55639678377E+03  0.00000000000E+00 0. -1.
        -14    1    5    5    0    0 -0.36928248125E+02 -0.76721077421E+02  0.15437468661E+04  0.15460932074E+04  0.00000000000E+00 0.  1.
          5    1    4    4  501    0  0.86780635358E+02  0.10863413615E+03  0.85438203688E+02  0.16324648008E+03  0.41800000000E+01 0. -1.
         -5    1    4    4    0  501 -0.27546610427E+02 -0.19893510828E+01  0.52126618750E+02  0.59139073767E+02  0.41800000000E+01 0. -1.
</event>
<event>
11    1  0.8299058E-009  0.1667289E+03  0.7561462E-02  0.1080914E+00
         22   -1    0    0    0    0  0.00000000000E+00  0.00000000000E+00  0.20991798877E+04  0.20991798877E+04  0.00000000000E+00 0.  1.
         22   -1    0    0    0    0 -0.00000000000E+00 -0.00000000000E+00 -0.14849661922E+03  0.14849661922E+03  0.00000000000E+00 0. -1.
         24    2    1    2    0    0  0.21582024586E+02  0.10716157091E+03 -0.10239322985E+03  0.17069298049E+03  0.81867783671E+02 0.  0.
         25    2    1    2    0    0 -0.22625670948E+02 -0.12951370788E+03  0.77614181150E+03  0.79707522909E+03  0.12508831985E+03 0.  0.
        -24    2    1    2    0    0  0.10436463627E+01  0.22352136972E+02  0.12769346868E+04  0.12799082973E+04  0.84275428963E+02 0.  0.
        -11    1    3    3    0    0  0.20381159756E+02  0.13947136919E+02  0.82268869528E+01  0.26030673641E+02  0.00000000000E+00 0.  1.
         12    1    3    3    0    0  0.12008648292E+01  0.93214433993E+02 -0.11062011680E+03  0.14466230685E+03  0.00000000000E+00 0. -1.
         13    1    5    5    0    0 -0.34799593805E+01 -0.31910086680E+02  0.55116182252E+03  0.55209575107E+03  0.00000000000E+00 0. -1.
        -14    1    5    5    0    0  0.45236057432E+01  0.54262223652E+02  0.72577286430E+03  0.72781254625E+03  0.00000000000E+00 0.  1.
          5    1    4    4  501    0  0.28890031410E+02 -0.28748498984E+02  0.64038132988E+02  0.76022792538E+02  0.41800000000E+01 0.  1.
         -5    1    4    4    0  501 -0.51515702359E+02 -0.10076520890E+03  0.71210367851E+03  0.72105243655E+03  0.41800000000E+01 0.  1.
</event>
<event>
11    1  0.8299058E-009  0.2707199E+03  0.7561462E-02  0.1013406E+00
         22   -1    0    0    0    0  0.00000000000E+00  0.00000000000E+00  0.10074221299E+04  0.10074221299E+04  0.00000000000E+00 0.  1.
         22   -1    0    0    0    0 -0.00000000000E+00 -0.00000000000E+00 -0.90934212504E+03  0.90934212504E+03  0.00000000000E+00 0.  1.
        -24    2    1    2    0    0 -0.55913246521E+02 -0.20622116892E+02 -0.46209551893E+03  0.47342762269E+03  0.83963578233E+02 0.  0.
         25    2    1    2    0    0  0.13593648270E+03  0.24542958795E+03 -0.36931953572E+03  0.48037796425E+03  0.12510659097E+03 0.  0.
         24    2    1    2    0    0 -0.80023236182E+02 -0.22480747106E+03  0.92949505949E+03  0.96295866797E+03  0.79913786239E+02 0.  0.
        -11    1    5    5    0    0 -0.84799734237E+02 -0.12502175381E+03  0.59371074803E+03  0.61262866908E+03  0.00000000000E+00 0.  1.
         12    1    5    5    0    0  0.47764980554E+01 -0.99785717242E+02  0.33578431146E+03  0.35032999889E+03  0.00000000000E+00 0. -1.
         13    1    3    3    0    0 -0.38696007723E+01  0.23175888431E+02 -0.44440333934E+02  0.50269661774E+02  0.00000000000E+00 0. -1.
        -14    1    3    3    0    0 -0.52043645749E+02 -0.43798005323E+02 -0.41765518500E+03  0.42315796092E+03  0.00000000000E+00 0.  1.
          5    1    4    4  501    0  0.13522294768E+03  0.21152434876E+03 -0.36885500064E+03  0.44620542309E+03  0.41800000000E+01 0.  1.
         -5    1    4    4    0  501  0.71353502609E+00  0.33905239190E+02 -0.46453508013E+00  0.34172541164E+02  0.41800000000E+01 0.  1.
</event>
<event>
11    1  0.8299058E-009  0.1681254E+03  0.7561462E-02  0.1079675E+00
         22   -1    0    0    0    0  0.00000000000E+00  0.00000000000E+00  0.20767340319E+04  0.20767340319E+04  0.00000000000E+00 0.  1.
         22   -1    0    0    0    0 -0.00000000000E+00 -0.00000000000E+00 -0.11829284722E+03  0.11829284722E+03  0.00000000000E+00 0.  1.
        -24    2    1    2    0    0 -0.14658984631E+00  0.56712413412E+02 -0.70192177572E+02  0.12080625992E+03  0.80317440942E+02 0.  0.
         25    2    1    2    0    0 -0.26044907121E+01  0.62841881284E+02  0.22669402421E+03  0.26644738757E+03  0.12509254300E+03 0.  0.
         24    2    1    2    0    0  0.27510805584E+01 -0.11955429470E+03  0.18019393380E+04  0.18077732316E+04  0.82206332991E+02 0.  0.
        -13    1    5    5    0    0  0.20207491367E+02 -0.94816112767E+02  0.87764207240E+03  0.88298020657E+03  0.00000000000E+00 0.  1.
         14    1    5    5    0    0 -0.17456410809E+02 -0.24738181930E+02  0.92429726562E+03  0.92479302504E+03  0.00000000000E+00 0. -1.
         13    1    3    3    0    0  0.32640408226E+02  0.36299029958E+02 -0.10858033448E+02  0.50009126321E+02  0.00000000000E+00 0. -1.
        -14    1    3    3    0    0 -0.32786998072E+02  0.20413383454E+02 -0.59334144124E+02  0.70797133597E+02  0.00000000000E+00 0.  1.
          5    1    4    4  501    0 -0.48592711942E+02  0.75147869663E+02  0.17110969006E+03  0.19314360564E+03  0.41800000000E+01 0.  1.
         -5    1    4    4    0  501  0.45988221230E+02 -0.12305988379E+02  0.55584334156E+02  0.73303781932E+02  0.41800000000E+01 0.  1.
</event>
<event>
11    1  0.8299058E-009  0.1299860E+03  0.7561462E-02  0.1119286E+00
         22   -1    0    0    0    0  0.00000000000E+00  0.00000000000E+00  0.60409864592E+02  0.60409864592E+02  0.00000000000E+00 0.  1.
         22   -1    0    0    0    0 -0.00000000000E+00 -0.00000000000E+00 -0.65431982836E+03  0.65431982836E+03  0.00000000000E+00 0. -1.
         24    2    1    2    0    0  0.38705057868E+02  0.84392267058E+01 -0.38571706045E+03  0.39653882867E+03  0.83042699077E+02 0.  0.
         25    2    1    2    0    0 -0.20844178719E+02 -0.50636014407E+00 -0.19604075821E+03  0.23348364076E+03  0.12509154821E+03 0.  0.
        -24    2    1    2    0    0 -0.17860879148E+02 -0.79328665618E+01 -0.12152145105E+02  0.84707223523E+02  0.81521148854E+02 0.  0.
        -13    1    3    3    0    0  0.22887425383E+02 -0.16772396703E+02 -0.37366417879E+02  0.46919044289E+02  0.00000000000E+00 0.  1.
         14    1    3    3    0    0  0.15817632484E+02  0.25211623409E+02 -0.34835064257E+03  0.34961978438E+03  0.00000000000E+00 0. -1.
         11    1    5    5    0    0  0.28872074517E+02 -0.17078472434E+02 -0.15535258605E+02  0.36967758486E+02  0.00000000000E+00 0. -1.
        -12    1    5    5    0    0 -0.46732953666E+02  0.91456058718E+01  0.33831134993E+01  0.47739465037E+02  0.00000000000E+00 0.  1.
          5    1    4    4  501    0 -0.54798984548E+02 -0.83027363154E+00 -0.19118377220E+03  0.19892793975E+03  0.41800000000E+01 0.  1.
         -5    1    4    4    0  501  0.33954805828E+02  0.32391348746E+00 -0.48569860115E+01  0.34555701004E+02  0.41800000000E+01 0.  1.
</event>
<event>
11    1  0.8299058E-009  0.2264579E+03  0.7561462E-02  0.1037246E+00
         22   -1    0    0    0    0  0.00000000000E+00  0.00000000000E+00  0.12891974832E+04  0.12891974832E+04  0.00000000000E+00 0.  1.
         22   -1    0    0    0    0 -0.00000000000E+00 -0.00000000000E+00 -0.50216943268E+03  0.50216943268E+03  0.00000000000E+00 0.  1.
        -24    2    1    2    0    0  0.54294407500E+02 -0.24662611615E+02 -0.37463502780E+03  0.38673586297E+03  0.75213672627E+02 0.  0.
         25    2    1    2    0    0 -0.23344339181E+03  0.68401912283E+02  0.53916031522E+02  0.27879918966E+03  0.12508961156E+03 0.  0.
         24    2    1    2    0    0  0.17914898431E+03 -0.43739300668E+02  0.11077470468E+04  0.11258318632E+04  0.79914827353E+02 0.  0.
        -11    1    5    5    0    0  0.16862786049E+03 -0.29563615633E+02  0.82721658218E+03  0.84474649247E+03  0.00000000000E+00 0.  1.
         12    1    5    5    0    0  0.10521123818E+02 -0.14175685035E+02  0.28053046459E+03  0.28108537076E+03  0.00000000000E+00 0. -1.
         11    1    3    3    0    0 -0.68097270187E+01 -0.17773668190E+02 -0.23422498289E+02  0.30180939168E+02  0.00000000000E+00 0. -1.
        -12    1    3    3    0    0  0.61104134519E+02 -0.68889434253E+01 -0.35121252951E+03  0.35655492380E+03  0.00000000000E+00 0.  1.
          5    1    4    4  501    0 -0.17288615425E+03 -0.83870077676E+01  0.52430457117E+02  0.18090436552E+03  0.41800000000E+01 0.  1.
         -5    1    4    4    0  501 -0.60557237554E+02  0.76788920051E+02  0.14855744051E+01  0.97894824143E+02  0.41800000000E+01 0.  1.
</event>
<event>
11    1  0.8299058E-009  0.1263308E+03  0.7561462E-02  0.1123861E+00
         22   -1    0    0    0    0  0.00000000000E+00  0.00000000000E+00  0.37237032004E+03  0.37237032004E+03  0.00000000000E+00 0.  1.
         22   -1    0    0    0    0 -0.00000000000E+00 -0.00000000000E+00 -0.59666281778E+03  0.59666281778E+03  0.00000000000E+00 0.  1.
        -24    2    1    2    0    0  0.19796110639E+02 -0.22414196887E+02 -0.55611632219E+03  0.56170355384E+03  0.73152145424E+02 0.  0.
         25    2    1    2    0    0 -0.33498532386E+02  0.20712028410E+02  0.11017764614E+03  0.17128227570E+03  0.12508942588E+03 0.  0.
         24    2    1    2    0    0  0.13702421747E+02  0.17021684763E+01  0.22164617831E+03  0.23604730827E+03  0.80004060172E+02 0.  0.
        -13    1    5    5    0    0  0.29444735943E+02 -0.32214858050E+02  0.12650578474E+03  0.13382265551E+03  0.00000000000E+00 0.  1.
         14    1    5    5    0    0 -0.15742314196E+02  0.33917026526E+02  0.95140393568E+02  0.10222465276E+03  0.00000000000E+00 0. -1.
         13    1    3    3    0    0  0.41040046894E+02 -0.12564991712E+02 -0.18773659402E+03  0.19258035518E+03  0.00000000000E+00 0. -1.
        -14    1    3    3    0    0 -0.21243936255E+02 -0.98492051746E+01 -0.36837972816E+03  0.36912319866E+03  0.00000000000E+00 0.  1.
          5    1    4    4  501    0  0.15078426578E+02 -0.33876236694E+02  0.86745309983E+02  0.94430818935E+02  0.41800000000E+01 0. -1.
         -5    1    4    4    0  501 -0.48576958964E+02  0.54588265105E+02  0.23432336157E+02  0.76851456766E+02  0.41800000000E+01 0. -1.
</event>
<event>
11    1  0.8299058E-009  0.1503462E+03  0.7561462E-02  0.1096526E+00
         22   -1    0    0    0    0  0.00000000000E+00  0.00000000000E+00  0.73269473136E+02  0.73269473136E+02  0.00000000000E+00 0. -1.
         22   -1    0    0    0    0 -0.00000000000E+00 -0.00000000000E+00 -0.13719991392E+04  0.13719991392E+04  0.00000000000E+00 0.  1.
         24    2    1    2    0    0 -0.62258210887E+02  0.56947650682E+02 -0.11864233378E+04  0.11921858519E+04  0.81164334978E+02 0.  0.
         25    2    1    2    0    0  0.55397349396E+02 -0.39037016182E+02 -0.56579556181E+02  0.15310371466E+03  0.12508695501E+03 0.  0.
        -24    2    1    2    0    0  0.68608614906E+01 -0.17910634500E+02 -0.55726772066E+02  0.99979045749E+02  0.80761836380E+02 0.  0.
        -13    1    3    3    0    0 -0.67414832999E+02  0.88933582836E+01 -0.62596874998E+03  0.62965127450E+03  0.00000000000E+00 0.  1.
         14    1    3    3    0    0  0.51566221122E+01  0.48054292399E+02 -0.56045458785E+03  0.56253457744E+03  0.00000000000E+00 0. -1.
         11    1    5    5    0    0  0.72968680511E+01  0.24791287574E+02 -0.50794966783E+02  0.56991059592E+02  0.00000000000E+00 0. -1.
        -12    1    5    5    0    0 -0.43600656054E+00 -0.42701922074E+02 -0.49318052832E+01  0.42987986157E+02  0.00000000000E+00 0.  1.
          5    1    4    4  501    0 -0.11478388873E+01 -0.70703725817E+02 -0.65770635664E+01  0.71141159280E+02  0.41800000000E+01 0. -1.
         -5    1    4    4    0  501  0.56545188283E+02  0.31666709635E+02 -0.50002492615E+02  0.81962555382E+02  0.41800000000E+01 0. -1.
</event>
<event>
11    1  0.8299058E-009  0.2738455E+03  0.7561462E-02  0.1011911E+00
         22   -1    0    0    0    0  0.00000000000E+00  0.00000000000E+00  0.77345241146E+03  0.77345241146E+03  0.00000000000E+00 0. -1.
         22   -1    0    0    0    0 -0.00000000000E+00 -0.00000000000E+00 -0.13764628177E+04  0.13764628177E+04  0.00000000000E+00 0. -1.
        -24    2    1    2    0    0  0.99822762660E+02 -0.11672553829E+03 -0.95009353734E+03  0.96595802770E+03  0.82509068266E+02 0.  0.
         25    2    1    2    0    0 -0.26125665059E+03  0.28757508208E+03 -0.28969502254E+03  0.50052470855E+03  0.12508921808E+03 0.  0.
         24    2    1    2    0    0  0.16143388793E+03 -0.17084954378E+03  0.63677815361E+03  0.68343249294E+03  0.79643510131E+02 0.  0.
        -13    1    5    5    0    0  0.21822711038E+02 -0.76586716514E+02  0.19583088332E+03  0.21140362042E+03  0.00000000000E+00 0.  1.
         14    1    5    5    0    0  0.13961117689E+03 -0.94262827270E+02  0.44094727029E+03  0.47202887252E+03  0.00000000000E+00 0. -1.
         13    1    3    3    0    0  0.10076048588E+03 -0.12788201988E+03 -0.87235916584E+03  0.88742154624E+03  0.00000000000E+00 0. -1.
        -14    1    3    3    0    0 -0.93772321462E+00  0.11156481582E+02 -0.77734371503E+02  0.78536481454E+02  0.00000000000E+00 0.  1.
          5    1    4    4  501    0 -0.43963624502E+02  0.13116446044E+03 -0.12266013940E+03  0.18493214474E+03  0.41800000000E+01 0. -1.
         -5    1    4    4    0  501 -0.21729302609E+03  0.15641062164E+03 -0.16703488314E+03  0.31559256381E+03  0.41800000000E+01 0. -1.
</event>
<event>
11    1  0.8299058E-009  0.1855757E+03  0.7561462E-02  0.1065220E+00
         22   -1    0    0    0    0  0.00000000000E+00  0.00000000000E+00  0.14930193440E+03  0.14930193440E+03  0.00000000000E+00 0. -1.
         22   -1    0    0    0    0 -0.00000000000E+00 -0.00000000000E+00 -0.56058790068E+03  0.56058790068E+03  0.00000000000E+00 0.  1.
        -24    2    1    2    0    0 -0.13714222979E+03  0.33173388321E+02 -0.40178145381E+03  0.43354111028E+03  0.81370097640E+02 0.  0.
         25    2    1    2    0    0  0.11821313361E+03 -0.25164581149E+02 -0.52848886189E+02  0.18178324674E+03  0.12507814726E+03 0.  0.
         24    2    1    2    0    0  0.18929096172E+02 -0.80088071720E+01  0.43344373726E+02  0.94565478066E+02  0.81495050364E+02 0.  0.
        -13    1    5    5    0    0  0.22073858646E+02  0.23815702138E+01 -0.20250844003E+02  0.30050354325E+02  0.00000000000E+00 0.  1.
         14    1    5    5    0    0 -0.31447624739E+01 -0.10390377386E+02  0.63595217729E+02  0.64515123741E+02  0.00000000000E+00 0. -1.
         13    1    3    3    0    0 -0.74231087976E+01 -0.39537553486E+01 -0.12840580749E+03  0.12868094701E+03  0.00000000000E+00 0. -1.
        -14    1    3    3    0    0 -0.12971912099E+03  0.37127143669E+02 -0.27337564632E+03  0.30486016327E+03  0.00000000000E+00 0.  1.
          5    1    4    4  501    0  0.12416054966E+02  0.18704197909E+02  0.31909332355E+02  0.39238798806E+02  0.41800000000E+01 0. -1.
         -5    1    4    4    0  501  0.10579707865E+03 -0.43868779057E+02 -0.84758218545E+02  0.14254444794E+03  0.41800000000E+01 0. -1.
</event>
<event>
11    1  0.8299058E-009  0.1292791E+03  0.7561462E-02  0.1120158E+00
         22   -1    0    0    0    0  0.00000000000E+00  0.00000000000E+00  0.18269839643E+04  0.18269839643E+04  0.00000000000E+00 0.  1.
         22   -1    0    0    0    0 -0.00000000000E+00 -0.00000000000E+00 -0.35662559492E+03  0.35662559492E+03  0.00000000000E+00 0.  1.
        -24    2    1    2    0    0 -0.64671082896E+00 -0.83927712692E+01 -0.33337781430E+03  0.34308567088E+03  0.80598719918E+02 0.  0.
         25    2    1    2    0    0  0.14973581364E+02 -0.21606528089E+02  0.21970548797E+03  0.25416495063E+03  0.12505307069E+03 0.  0.
         24    2    1    2    0    0 -0.14326870535E+02  0.29999299358E+02  0.15840306957E+04  0.15863589377E+04  0.79222579600E+02 0.  0.
        -11    1    5    5    0    0 -0.30554746152E+02  0.46944072164E+02  0.13484473056E+04  0.13496101194E+04  0.00000000000E+00 0.  1.
         12    1    5    5    0    0  0.16227875618E+02 -0.16944772806E+02  0.23558339020E+03  0.23674881839E+03  0.00000000000E+00 0. -1.
         13    1    3    3    0    0  0.20356814577E+02 -0.20714202398E+02 -0.44221044387E+02  0.52905376356E+02  0.00000000000E+00 0. -1.
        -14    1    3    3    0    0 -0.21003525406E+02  0.12321431128E+02 -0.28915676991E+03  0.29018029453E+03  0.00000000000E+00 0.  1.
          5    1    4    4  501    0 -0.16222650446E+02 -0.47249814654E+02  0.20491154200E+03  0.21095480989E+03  0.41800000000E+01 0. -1.
         -5    1    4    4    0  501  0.31196231810E+02  0.25643286565E+02  0.14793945969E+02  0.43210140735E+02  0.41800000000E+01 0. -1.
</event>
<event>
11    1  0.8299058E-009  0.2027150E+03  0.7561462E-02  0.1052620E+00
         22   -1    0    0    0    0  0.00000000000E+00  0.00000000000E+00  0.11457898464E+04  0.11457898464E+04  0.00000000000E+00 0. -1.
         22   -1    0    0    0    0 -0.00000000000E+00 -0.00000000000E+00 -0.52679302284E+03  0.52679302284E+03  0.00000000000E+00 0.  1.
         24    2    1    2    0    0  0.79730133089E+01  0.78960395291E+01 -0.37299641993E+03  0.38178054272E+03  0.80648230852E+02 0.  0.
         25    2    1    2    0    0  0.12062778580E+03  0.87452247109E+02 -0.74881759726E+02  0.20845612383E+03  0.12509084455E+03 0.  0.
        -24    2    1    2    0    0 -0.12860079911E+03 -0.95348286639E+02  0.10668750032E+04  0.10823462027E+04  0.87301596260E+02 0.  0.
        -13    1    3    3    0    0  0.30928891082E+02  0.68091977619E+01 -0.34055178140E+03  0.34202116497E+03  0.00000000000E+00 0.  1.
         14    1    3    3    0    0 -0.22955877773E+02  0.10868417672E+01 -0.32444638530E+02  0.39759377745E+02  0.00000000000E+00 0. -1.
         13    1    5    5    0    0 -0.10428772541E+03 -0.95719221796E+02  0.10175952655E+04  0.10273938988E+04  0.00000000000E+00 0. -1.
        -14    1    5    5    0    0 -0.24313073701E+02  0.37093515780E+00  0.49279737759E+02  0.54952303858E+02  0.00000000000E+00 0.  1.
          5    1    4    4  501    0 -0.16767671872E+02  0.38456517781E+02 -0.40648056798E+02  0.58564455955E+02  0.41800000000E+01 0.  1.
         -5    1    4    4    0  501  0.13739545767E+03  0.48995729329E+02 -0.34233702928E+02  0.14989166787E+03  0.41800000000E+01 0.  1.
</event>
<event>
11    1  0.8299058E-009  0.1524711E+03  0.7561462E-02  0.1094380E+00
         22   -1    0    0    0    0  0.00000000000E+00  0.00000000000E+00  0.16362764125E+03  0.16362764125E+03  0.00000000000E+00 0.  1.
         22   -1    0    0    0    0 -0.00000000000E+00 -0.00000000000E+00 -0.74800989387E+03  0.74800989387E+03  0.00000000000E+00 0.  1.
         24    2    1    2    0    0  0.86891120650E+02 -0.17182882380E+02 -0.60795504520E+03  0.61953661943E+03  0.79818340885E+02 0.  0.
         25    2    1    2    0    0 -0.75403932479E+02  0.11630538514E+02 -0.72346483891E+02  0.16340699915E+03  0.12508721429E+03 0.  0.
        -24    2    1    2    0    0 -0.11487188171E+02  0.55523438655E+01  0.95919276474E+02  0.12869391655E+03  0.84845934151E+02 0.  0.
        -13    1    3    3    0    0  0.68031490128E+02  0.21793094607E+02 -0.29112471569E+03  0.29976127619E+03  0.00000000000E+00 0.  1.
         14    1    3    3    0    0  0.18859630522E+02 -0.38975976986E+02 -0.31683032951E+03  0.31977534324E+03  0.00000000000E+00 0. -1.
         11    1    5    5    0    0  0.16199460276E+02  0.12472810182E+02 -0.72175984321E+01  0.21681495202E+02  0.00000000000E+00 0. -1.
        -12    1    5    5    0    0 -0.27686648446E+02 -0.69204663170E+01  0.10313687491E+03  0.10701242134E+03  0.00000000000E+00 0.  1.
          5    1    4    4  501    0 -0.76741442576E+02 -0.99018985909E+01 -0.10099693151E+03  0.12729944689E+03  0.41800000000E+01 0.  1.
         -5    1    4    4    0  501  0.13375100964E+01  0.21532437105E+02  0.28650447621E+02  0.36107552254E+02  0.41800000000E+01 0.  1.
</event>
<event>
11    1  0.8299058E-009  0.2225338E+03  0.7561462E-02  0.1039642E+00
         22   -1    0    0    0    0  0.00000000000E+00  0.00000000000E+00  0.48569952491E+03  0.48569952491E+03  0.00000000000E+00 0.  1.
         22   -1    0    0    0    0 -0.00000000000E+00 -0.00000000000E+00 -0.56717298938E+03  0.56717298938E+03  0.00000000000E+00 0.  1.
         24    2    1    2    0    0 -0.17496642919E+03  0.65688292848E+02 -0.39420445344E+03  0.44368406213E+03  0.80809607801E+02 0.  0.
         25    2    1    2    0    0  0.17573286856E+03 -0.26087413232E+02 -0.60480622269E+02  0.22553976680E+03  0.12509071315E+03 0.  0.
        -24    2    1    2    0    0 -0.76643936932E+00 -0.39600879616E+02  0.37321161123E+03  0.38364868536E+03  0.79565004393E+02 0.  0.
        -11    1    3    3    0    0 -0.17757887582E+03  0.74051966473E+02 -0.35790610895E+03  0.40634312312E+03  0.00000000000E+00 0.  1.
         12    1    3    3    0    0  0.26124466294E+01 -0.83636736255E+01 -0.36298344488E+02  0.37340939014E+02  0.00000000000E+00 0. -1.
         13    1    5    5    0    0  0.72684450242E+01 -0.42974541135E+02  0.87023764140E+02  0.97328192236E+02  0.00000000000E+00 0. -1.
        -14    1    5    5    0    0 -0.80348843935E+01  0.33736615190E+01  0.28618784710E+03  0.28632049313E+03  0.00000000000E+00 0.  1.
          5    1    4    4  501    0  0.18726891745E+03 -0.10685789973E+01 -0.41606413250E+02  0.19188370261E+03  0.41800000000E+01 0.  1.
         -5    1    4    4    0  501 -0.11536048890E+02 -0.25018834235E+02 -0.18874209019E+02  0.33656064187E+02  0.41800000000E+01 0.  1.
</event>
<event>
11    1  0.8299058E-009  0.1600070E+03  0.7561462E-02  0.1087071E+00
         22   -1    0    0    0    0  0.00000000000E+00  0.00000000000E+00  0.14861079912E+04  0.14861079912E+04  0.00000000000E+00 0.  1.
         22   -1    0    0    0    0 -0.00000000000E+00 -0.00000000000E+00 -0.26541234022E+03  0.26541234022E+03  0.00000000000E+00 0.  1.
         24    2    1    2    0    0 -0.95914426169E+01 -0.52934096548E+02 -0.19125781635E+03  0.21071565046E+03  0.70196286832E+02 0.  0.
         25    2    1    2    0    0  0.80763873662E+02 -0.18977814181E+02  0.30257533506E+02  0.15312643626E+03  0.12509686818E+03 0.  0.
        -24    2    1    2    0    0 -0.71172431045E+02  0.71911910729E+02  0.13816959338E+04  0.13876782447E+04  0.79563932956E+02 0.  0.
        -13    1    3    3    0    0 -0.34250610227E+02 -0.41993471768E+02 -0.82825775431E+02  0.98978103880E+02  0.00000000000E+00 0.  1.
         14    1    3    3    0    0  0.24659167610E+02 -0.10940624780E+02 -0.10843204091E+03  0.11173754658E+03  0.00000000000E+00 0. -1.
         11    1    5    5    0    0 -0.87287410599E+01  0.34091160238E+02  0.16099313176E+03  0.16479437672E+03  0.00000000000E+00 0. -1.
        -12    1    5    5    0    0 -0.62443689985E+02  0.37820750491E+02  0.12207028021E+04  0.12228838680E+04  0.00000000000E+00 0.  1.
          5    1    4    4  501    0  0.25056706459E+02 -0.56741089034E+02  0.53278674936E+02  0.81874778328E+02  0.41800000000E+01 0.  1.
         -5    1    4    4    0  501  0.55707167203E+02  0.37763274852E+02 -0.23021141430E+02  0.71251657932E+02  0.41800000000E+01 0.  1.
</event>
<event>
11    1  0.8299058E-009  0.2381528E+03  0.7561462E-02  0.1030407E+00
         22   -1    0    0    0    0  0.00000000000E+00  0.00000000000E+00  0.43472129718E+03  0.43472129718E+03  0.00000000000E+00 0.  1.
         22   -1    0    0    0    0 -0.00000000000E+00 -0.00000000000E+00 -0.21384257102E+04  0.21384257102E+04  0.00000000000E+00 0. -1.
        -24    2    1    2    0    0 -0.79966191892E+02  0.17310750393E+03 -0.16148296268E+04  0.16280471863E+04  0.80635707429E+02 0.  0.
         25    2    1    2    0    0  0.24521740186E+03 -0.24486989555E+03 -0.42015630158E+03  0.55881294117E+03  0.12509094907E+03 0.  0.
         24    2    1    2    0    0 -0.16525120997E+03  0.71762391612E+02  0.33128151535E+03  0.38628687997E+03  0.83739524592E+02 0.  0.
        -11    1    5    5    0    0 -0.13453462548E+03  0.39802756718E+02  0.30245423432E+03  0.33341024093E+03  0.00000000000E+00 0.  1.
         12    1    5    5    0    0 -0.30716584483E+02  0.31959634894E+02  0.28827281027E+02  0.52876639041E+02  0.00000000000E+00 0. -1.
         13    1    3    3    0    0 -0.88490345383E+02  0.11271161646E+03 -0.12452787420E+04  0.12534965476E+04  0.00000000000E+00 0. -1.
        -14    1    3    3    0    0  0.85241534902E+01  0.60395887476E+02 -0.36955088483E+03  0.37455063862E+03  0.00000000000E+00 0.  1.
          5    1    4    4  501    0  0.57620247618E+02 -0.11378159146E+03 -0.86400819406E+02  0.15410683789E+03  0.41800000000E+01 0. -1.
         -5    1    4    4    0  501  0.18759715424E+03 -0.13108830409E+03 -0.33375548218E+03  0.40470610328E+03  0.41800000000E+01 0. -1.
</event>
<event>
11    1  0.8299058E-009  0.1363167E+03  0.7561462E-02  0.1111743E+00
         22   -1    0    0    0    0  0.00000000000E+00  0.00000000000E+00  0.42139360348E+03  0.42139360348E+03  0.00000000000E+00 0. -1.
         22   -1    0    0    0    0 -0.00000000000E+00 -0.00000000000E+00 -0.12421472890E+04  0.12421472890E+04  0.00000000000E+00 0. -1.
        -24    2    1    2    0    0  0.24653584001E+02 -0.15387479664E+02 -0.10909287300E+04  0.10943594944E+04  0.81563689797E+02 0.  0.
         25    2    1    2    0    0 -0.56321315573E+02 -0.28431207689E+02 -0.10918354520E+03  0.17762513898E+03  0.12509683969E+03 0.  0.
         24    2    1    2    0    0  0.31667731572E+02  0.43818687353E+02  0.37935858963E+03  0.39155625906E+03  0.80501191900E+02 0.  0.
        -13    1    5    5    0    0  0.16276949045E+02  0.16396851156E+02  0.19236635266E+02  0.30063997312E+02  0.00000000000E+00 0.  1.
         14    1    5    5    0    0  0.15390782527E+02  0.27421836197E+02  0.36012195437E+03  0.36149226175E+03  0.00000000000E+00 0. -1.
         13    1    3    3    0    0  0.31308937890E+02 -0.49175030337E+01 -0.10664090453E+04  0.10668798823E+04  0.00000000000E+00 0. -1.
        -14    1    3    3    0    0 -0.66553538892E+01 -0.10469976630E+02 -0.24519684666E+02  0.27479612118E+02  0.00000000000E+00 0.  1.
          5    1    4    4  501    0 -0.91900147408E+02 -0.20137218197E+02 -0.10431103146E+03  0.14053258816E+03  0.41800000000E+01 0. -1.
         -5    1    4    4    0  501  0.35578831835E+02 -0.82939894921E+01 -0.48725137305E+01  0.37092550822E+02  0.41800000000E+01 0. -1.
</event>
<event>
11    1  0.1335480E-008  0.1610229E+03  0.7561462E-02  0.1086119E+00
         22   -1    0    0    0    0  0.00000000000E+00  0.00000000000E+00  0.10605192641E+04  0.10605192641E+04  0.00000000000E+00 0.  1.
         22   -1    0    0    0    0 -0.00000000000E+00 -0.00000000000E+00 -0.10968314131E+04  0.10968314131E+04  0.00000000000E+00 0. -1.
        -24    2    1    2    0    0  0.28604269641E+02  0.26724976106E+02 -0.10032623990E+04  0.10073409322E+04  0.81657110412E+02 0.  0.
         25    2    1    2    0    0 -0.47162132599E+02 -0.12488630268E+03  0.86364066153E+01  0.18315606678E+03  0.12510276548E+03 0.  0.
         24    2    1    2    0    0  0.18557862958E+02  0.98161326575E+02  0.95831384344E+03  0.96685367823E+03  0.80377685073E+02 0.  0.
        -11    1    5    5    0    0  0.70563437733E+01  0.51119524513E+02  0.79075348896E+03  0.79243553560E+03  0.00000000000E+00 0.  1.
         12    1    5    5    0    0  0.11501519184E+02  0.47041802062E+02  0.16756035448E+03  0.17441814263E+03  0.00000000000E+00 0. -1.
         11    1    3    3    0    0  0.26283777826E+01  0.24224763400E+02 -0.91443488401E+03  0.91475947911E+03  0.00000000000E+00 0. -1.
        -12    1    3    3    0    0  0.25975891859E+02  0.25002127063E+01 -0.88827515041E+02  0.92581453055E+02  0.00000000000E+00 0.  1.
          5    1    4    4  501    0  0.42436605701E+01 -0.83897293599E+02  0.56849421791E+02  0.10151893265E+03  0.41800000000E+01 0.  1.
         -5    1    4    4    0  501 -0.51405793169E+02 -0.40989009082E+02 -0.48213015176E+02  0.81637134132E+02  0.41800000000E+01 0.  1.
</event>
<event>
11    1  0.8299058E-009  0.1461400E+03  0.7561462E-02  0.1100889E+00
         22   -1    0    0    0    0  0.00000000000E+00  0.00000000000E+00  0.10371122158E+03  0.10371122158E+03  0.00000000000E+00 0. -1.
         22   -1    0    0    0    0 -0.00000000000E+00 -0.00000000000E+00 -0.29542317455E+03  0.29542317455E+03  0.00000000000E+00 0. -1.
        -24    2    1    2    0    0  0.68891494031E+01 -0.19938911230E+02 -0.90185045138E+02  0.12149785826E+03  0.78634385835E+02 0.  0.
         25    2    1    2    0    0 -0.62351554363E+02  0.60599327280E+02 -0.67324326210E+02  0.16655529661E+03  0.12509239437E+03 0.  0.
         24    2    1    2    0    0  0.55462404960E+02 -0.40660416050E+02 -0.34202581627E+02  0.11108124125E+03  0.80248849034E+02 0.  0.
        -13    1    5    5    0    0 -0.19936422221E+01  0.13526643517E+02 -0.28846017860E+02  0.31922365835E+02  0.00000000000E+00 0.  1.
         14    1    5    5    0    0  0.57456047182E+02 -0.54187059566E+02 -0.53565637670E+01  0.79158875419E+02  0.00000000000E+00 0. -1.
         13    1    3    3    0    0  0.29449065190E+02 -0.35923706187E+02 -0.79056303302E+02  0.91693288732E+02  0.00000000000E+00 0. -1.
        -14    1    3    3    0    0 -0.22559915787E+02  0.15984794957E+02 -0.11128741836E+02  0.29804569532E+02  0.00000000000E+00 0.  1.
          5    1    4    4  501    0 -0.45637670626E+02  0.83238931358E+02 -0.89461202337E+02  0.13050783807E+03  0.41800000000E+01 0.  1.
         -5    1    4    4    0  501 -0.16713883738E+02 -0.22639604078E+02  0.22136876127E+02  0.36047458538E+02  0.41800000000E+01 0.  1.
</event>
<event>
11    1  0.8299058E-009  0.1442950E+03  0.7561462E-02  0.1102855E+00
         22   -1    0    0    0    0  0.00000000000E+00  0.00000000000E+00  0.32820677658E+02  0.32820677658E+02  0.00000000000E+00 0. -1.
         22   -1    0    0    0    0 -0.00000000000E+00 -0.00000000000E+00 -0.20616913371E+04  0.20616913371E+04  0.00000000000E+00 0. -1.
        -24    2    1    2    0    0  0.64742420354E+02  0.34716886389E+02 -0.12159060956E+04  0.12203679852E+04  0.73983395308E+02 0.  0.
         25    2    1    2    0    0 -0.79762266866E+02  0.16778246341E+02 -0.73600863172E+03  0.75099871886E+03  0.12508733349E+03 0.  0.
         24    2    1    2    0    0  0.15019846511E+02 -0.51495132730E+02 -0.76955932199E+02  0.12314531078E+03  0.79782251044E+02 0.  0.
        -11    1    5    5    0    0  0.26559941787E+02  0.48973116515E+01 -0.55487058842E+02  0.61710840766E+02  0.00000000000E+00 0.  1.
         12    1    5    5    0    0 -0.11540095276E+02 -0.56392444381E+02 -0.21468873357E+02  0.61434470011E+02  0.00000000000E+00 0. -1.
         13    1    3    3    0    0  0.71856139042E+02  0.29708177175E+02 -0.11973666289E+04  0.11998886301E+04  0.00000000000E+00 0. -1.
        -14    1    3    3    0    0 -0.71137186875E+01  0.50087092140E+01 -0.18539466614E+02  0.20479355065E+02  0.00000000000E+00 0.  1.
          5    1    4    4  501    0 -0.65403208156E+02  0.62656561415E+02 -0.33341140834E+03  0.34551999065E+03  0.41800000000E+01 0. -1.
         -5    1    4    4    0  501 -0.14359058710E+02 -0.45878315074E+02 -0.40259722338E+03  0.40547872821E+03  0.41800000000E+01 0. -1.
</event>
<event>
11    1  0.8299058E-009  0.1482590E+03  0.7561462E-02  0.1098671E+00
         22   -1    0    0    0    0  0.00000000000E+00  0.00000000000E+00  0.89671433978E+02  0.89671433978E+02  0.00000000000E+00 0.  1.
         22   -1    0    0    0    0 -0.00000000000E+00 -0.00000000000E+00 -0.19809046233E+04  0.19809046233E+04  0.00000000000E+00 0.  1.
         24    2    1    2    0    0  0.58376742349E+02 -0.42478394301E+02 -0.71755509897E+03  0.72541498498E+03  0.78289988800E+02 0.  0.
         25    2    1    2    0    0 -0.49551612022E+02  0.77460043226E+02 -0.12299797690E+04  0.12397374155E+04  0.12507280529E+03 0.  0.
        -24    2    1    2    0    0 -0.88251303269E+01 -0.34981648925E+02  0.56301678617E+02  0.10542365686E+03  0.81502574946E+02 0.  0.
        -11    1    3    3    0    0  0.71019580325E+02 -0.50577335181E+02 -0.66709105785E+03  0.67276468924E+03  0.00000000000E+00 0.  1.
         12    1    3    3    0    0 -0.12642837976E+02  0.80989408795E+01 -0.50464041121E+02  0.52650295742E+02  0.00000000000E+00 0. -1.
         11    1    5    5    0    0  0.19537397912E+02 -0.16649787527E+02 -0.12671361725E+02  0.28626713919E+02  0.00000000000E+00 0. -1.
        -12    1    5    5    0    0 -0.28362528238E+02 -0.18331861398E+02  0.68973040342E+02  0.76796942937E+02  0.00000000000E+00 0.  1.
          5    1    4    4  501    0  0.32712250656E+02 -0.57373476963E+01 -0.42118917138E+03  0.42251721739E+03  0.41800000000E+01 0. -1.
         -5    1    4    4    0  501 -0.82263862678E+02  0.83197390922E+02 -0.80879059762E+03  0.81722019808E+03  0.41800000000E+01 0. -1.
</event>
<event>
11    1  0.8299058E-009  0.7532411E+03  0.7561462E-02  0.8957326E-01
         22   -1    0    0    0    0  0.00000000000E+00  0.00000000000E+00  0.24168803989E+03  0.24168803989E+03  0.00000000000E+00 0. -1.
         22   -1    0    0    0    0 -0.00000000000E+00 -0.00000000000E+00 -0.29794456981E+04  0.29794456981E+04  0.00000000000E+00 0. -1.
        -24    2    1    2    0    0  0.93947058301E+02  0.50716468044E+02 -0.22411572325E+03  0.26121946775E+03  0.81299096111E+02 0.  0.
         25    2    1    2    0    0 -0.10149207273E+03 -0.75832607399E+03 -0.85271672273E+03  0.11524463237E+04  0.12509054504E+03 0.  0.
         24    2    1    2    0    0  0.75450144333E+01  0.70760960594E+03 -0.16609252123E+04  0.18074679466E+04  0.86599858677E+02 0.  0.
        -11    1    5    5    0    0  0.30591242495E+02  0.52339599464E+03 -0.11505142613E+04  0.12643426184E+04  0.00000000000E+00 0.  1.
         12    1    5    5    0    0 -0.23046228062E+02  0.18421361130E+03 -0.51041095097E+03  0.54312532816E+03  0.00000000000E+00 0. -1.
         13    1    3    3    0    0  0.27970834645E+02  0.49257405230E+02 -0.15781880320E+03  0.16767657619E+03  0.00000000000E+00 0. -1.
        -14    1    3    3    0    0  0.65976223656E+02  0.14590628142E+01 -0.66296920051E+02  0.93542891555E+02  0.00000000000E+00 0.  1.
          5    1    4    4  501    0 -0.82946839378E+01 -0.32997206742E+03 -0.44243953390E+03  0.55201501847E+03  0.41800000000E+01 0. -1.
         -5    1    4    4    0  501 -0.93197388796E+02 -0.42835400657E+03 -0.41027718883E+03  0.60043130522E+03  0.41800000000E+01 0. -1.
</event>
<event>
11    1  0.8299058E-009  0.2153289E+03  0.7561462E-02  0.1044184E+00
         22   -1    0    0    0    0  0.00000000000E+00  0.00000000000E+00  0.85894812082E+02  0.85894812082E+02  0.00000000000E+00 0.  1.
         22   -1    0    0    0    0 -0.00000000000E+00 -0.00000000000E+00 -0.84982747710E+03  0.84982747710E+03  0.00000000000E+00 0.  1.
         24    2    1    2    0    0 -0.52879358075E+02  0.33437646007E+02 -0.22971283386E+03  0.25098455196E+03  0.79441529455E+02 0.  0.
         25    2    1    2    0    0  0.24812603876E+02  0.15297547260E+03 -0.37641405010E+03  0.42585496687E+03  0.12509098756E+03 0.  0.
        -24    2    1    2    0    0  0.28066754199E+02 -0.18641311860E+03 -0.15780578106E+03  0.25888277035E+03  0.81117388833E+02 0.  0.
        -11    1    3    3    0    0 -0.28985716478E+02  0.58957529521E+02 -0.16103714660E+03  0.17392275478E+03  0.00000000000E+00 0.  1.
         12    1    3    3    0    0 -0.23893641597E+02 -0.25519883514E+02 -0.68675687259E+02  0.77061797175E+02  0.00000000000E+00 0. -1.
         13    1    5    5    0    0 -0.28119595273E+02 -0.47619117560E+02 -0.37703762824E+02  0.66931799069E+02  0.00000000000E+00 0. -1.
        -14    1    5    5    0    0  0.56186349472E+02 -0.13879400104E+03 -0.12010201823E+03  0.19195097128E+03  0.00000000000E+00 0.  1.
          5    1    4    4  501    0 -0.67241686853E+01  0.14238530453E+03 -0.36252216723E+03  0.38956204066E+03  0.41800000000E+01 0.  1.
         -5    1    4    4    0  501  0.31536772561E+02  0.10590168069E+02 -0.13891882874E+02  0.36292926213E+02  0.41800000000E+01 0.  1.
</event>
<event>
11    1  0.8299058E-009  0.1523913E+03  0.7561462E-02  0.1094460E+00
         22   -1    0    0    0    0  0.00000000000E+00  0.00000000000E+00  0.53413836208E+03  0.53413836208E+03  0.00000000000E+00 0.  1.
         22   -1    0    0    0    0 -0.00000000000E+00 -0.00000000000E+00 -0.33922535413E+03  0.33922535413E+03  0.00000000000E+00 0. -1.
         24    2    1    2    0    0  0.20157123077E+01 -0.82976014068E+02 -0.24474256694E+03  0.26937472309E+03  0.75991679563E+02 0.  0.
         25    2    1    2    0    0  0.40843735582E+02  0.12131825487E+03  0.28477436649E+02  0.18122948078E+03  0.12508729194E+03 0.  0.
        -24    2    1    2    0    0 -0.42859447889E+02 -0.38342240801E+02  0.41117813823E+03  0.42275951234E+03  0.79693689934E+02 0.  0.
        -11    1    3    3    0    0 -0.12330601729E+02 -0.39934612677E+02 -0.34214183311E+02  0.54013214756E+02  0.00000000000E+00 0.  1.
         12    1    3    3    0    0  0.14346314036E+02 -0.43041401391E+02 -0.21052838363E+03  0.21536150833E+03  0.00000000000E+00 0. -1.
         13    1    5    5    0    0 -0.51394439785E+01 -0.41980516267E+02  0.91019324854E+02  0.10036580656E+03  0.00000000000E+00 0. -1.
        -14    1    5    5    0    0 -0.37720003911E+02  0.36382754661E+01  0.32015881338E+03  0.32239370578E+03  0.00000000000E+00 0.  1.
          5    1    4    4  501    0  0.22444292253E+01  0.90263102366E+01  0.57928694484E+02  0.58819365719E+02  0.41800000000E+01 0.  1.
         -5    1    4    4    0  501  0.38599306356E+02  0.11229194463E+03 -0.29451257834E+02  0.12241011506E+03  0.41800000000E+01 0.  1.
</event>
<event>
11    1  0.8299058E-009  0.6749232E+03  0.7561462E-02  0.9070097E-01
         22   -1    0    0    0    0  0.00000000000E+00  0.00000000000E+00  0.84409360287E+03  0.84409360287E+03  0.00000000000E+00 0.  1.
         22   -1    0    0    0    0 -0.00000000000E+00 -0.00000000000E+00 -0.13027014362E+04  0.13027014362E+04  0.00000000000E+00 0. -1.
        -24    2    1    2    0    0  0.12127217604E+03  0.33262730875E+03 -0.51848684273E+03  0.63416789172E+03  0.89400456415E+02 0.  0.
         25    2    1    2    0    0  0.57469467639E+03 -0.29746664582E+03 -0.30048908874E+03  0.72436433325E+03  0.12509843480E+03 0.  0.
         24    2    1    2    0    0 -0.69596685243E+03 -0.35160662928E+02  0.36036809816E+03  0.78826281407E+03  0.76726566292E+02 0.  0.
        -13    1    5    5    0    0 -0.39630651128E+03 -0.25475344643E+02  0.24732231370E+03  0.46784203629E+03  0.00000000000E+00 0.  1.
         14    1    5    5    0    0 -0.29966034115E+03 -0.96853182850E+01  0.11304578447E+03  0.32042077778E+03  0.00000000000E+00 0. -1.
         13    1    3    3    0    0  0.93215371301E+02  0.17045128080E+03 -0.33840035376E+03  0.39020192720E+03  0.00000000000E+00 0. -1.
        -14    1    3    3    0    0  0.28056804740E+02  0.16217602795E+03 -0.18008648897E+03  0.24396596452E+03  0.00000000000E+00 0.  1.
          5    1    4    4  501    0  0.23315604815E+03 -0.53637939446E+02 -0.11657384477E+03  0.26616856505E+03  0.41800000000E+01 0.  1.
         -5    1    4    4    0  501  0.34153862824E+03 -0.24382870637E+03 -0.18391524397E+03  0.45819576820E+03  0.41800000000E+01 0.  1.
</event>
<event>
11    1  0.8299058E-009  0.3927388E+03  0.7561462E-02  0.9671429E-01
         22   -1    0    0    0    0  0.00000000000E+00  0.00000000000E+00  0.10689707389E+04  0.10689707389E+04  0.00000000000E+00 0. -1.
         22   -1    0    0    0    0 -0.00000000000E+00 -0.00000000000E+00 -0.22010503337E+03  0.22010503337E+03  0.00000000000E+00 0. -1.
         24    2    1    2    0    0  0.25660551589E+01 -0.52175651553E+01 -0.39442464095E+02  0.89543492174E+02  0.80178060537E+02 0.  0.
         25    2    1    2    0    0 -0.16554018666E+03  0.33762194578E+03  0.29193094076E+03  0.49220659983E+03  0.12510607927E+03 0.  0.
        -24    2    1    2    0    0  0.16297413150E+03 -0.33240438062E+03  0.59637722882E+03  0.70732568022E+03  0.87123929279E+02 0.  0.
        -11    1    3    3    0    0 -0.21734786053E+02  0.12069987420E+02  0.13861154457E+02  0.28464313165E+02  0.00000000000E+00 0.  1.
         12    1    3    3    0    0  0.24300841212E+02 -0.17287552575E+02 -0.53303618552E+02  0.61079179008E+02  0.00000000000E+00 0. -1.
         11    1    5    5    0    0  0.16527082709E+03 -0.32950129618E+03  0.59860653825E+03  0.70300450788E+03  0.00000000000E+00 0. -1.
        -12    1    5    5    0    0 -0.22966955897E+01 -0.29030844390E+01 -0.22293094244E+01  0.43211723411E+01  0.00000000000E+00 0.  1.
          5    1    4    4  501    0 -0.11792194694E+03  0.18898073426E+03  0.24044996007E+03  0.32780018180E+03  0.41800000000E+01 0.  1.
         -5    1    4    4    0  501 -0.47618239714E+02  0.14864121152E+03  0.51480980691E+02  0.16440641802E+03  0.41800000000E+01 0.  1.
</event>
<event>
11    1  0.8299058E-009  0.1257205E+03  0.7561462E-02  0.1124642E+00
         22   -1    0    0    0    0  0.00000000000E+00  0.00000000000E+00  0.13026847793E+03  0.13026847793E+03  0.00000000000E+00 0. -1.
         22   -1    0    0    0    0 -0.00000000000E+00 -0.00000000000E+00 -0.89979590858E+03  0.89979590858E+03  0.00000000000E+00 0.  1.
         24    2    1    2    0    0  0.11637017807E+02 -0.13557932647E+02 -0.56647177714E+03  0.57298774435E+03  0.84293790690E+02 0.  0.
         25    2    1    2    0    0  0.46700954690E+01 -0.60527169458E+01 -0.30232793089E+03  0.32727336603E+03  0.12508890095E+03 0.  0.
        -24    2    1    2    0    0 -0.16307113276E+02  0.19610649593E+02  0.99272277389E+02  0.12980327614E+03  0.79645501548E+02 0.  0.
        -11    1    3    3    0    0 -0.31439044703E+02 -0.11599223744E+02 -0.38532564410E+03  0.38678005057E+03  0.00000000000E+00 0.  1.
         12    1    3    3    0    0  0.43076062510E+02 -0.19587089033E+01 -0.18114613305E+03  0.18620769377E+03  0.00000000000E+00 0. -1.
         11    1    5    5    0    0 -0.41235092619E+02  0.17264858881E+02  0.94182175496E+02  0.10425301145E+03  0.00000000000E+00 0. -1.
        -12    1    5    5    0    0  0.24927979343E+02  0.23457907121E+01  0.50901018928E+01  0.25550264685E+02  0.00000000000E+00 0.  1.
          5    1    4    4  501    0  0.51235233582E+02 -0.34202454994E+02 -0.22000246778E+03  0.22850254991E+03  0.41800000000E+01 0. -1.
         -5    1    4    4    0  501 -0.46565138113E+02  0.28149738048E+02 -0.82325463111E+02  0.98770816115E+02  0.41800000000E+01 0. -1.
</event>
<event>
11    1  0.8299058E-009  0.1090212E+04  0.7561462E-02  0.8597647E-01
         22   -1    0    0    0    0  0.00000000000E+00  0.00000000000E+00  0.21233535736E+04  0.21233535736E+04  0.00000000000E+00 0. -1.
         22   -1    0    0    0    0 -0.00000000000E+00 -0.00000000000E+00 -0.10096470686E+04  0.10096470686E+04  0.00000000000E+00 0. -1.
        -24    2    1    2    0    0 -0.37352543563E+03 -0.40086900344E+02 -0.29264235203E+03  0.48350759115E+03  0.83736693636E+02 0.  0.
         25    2    1    2    0    0 -0.71644919387E+03 -0.51777081687E+03  0.17221412504E+03  0.90922551933E+03  0.12508906402E+03 0.  0.
         24    2    1    2    0    0  0.10899746295E+04  0.55785771721E+03  0.12341347320E+04  0.17402675317E+04  0.78693198587E+02 0.  0.
        -11    1    5    5    0    0  0.36822271314E+03  0.23072721421E+03  0.43650262438E+03  0.61592008812E+03  0.00000000000E+00 0.  1.
         12    1    5    5    0    0  0.72175191636E+03  0.32713050300E+03  0.79763210764E+03  0.11243474436E+04  0.00000000000E+00 0. -1.
         11    1    3    3    0    0 -0.27662724611E+03 -0.10816031071E+02 -0.17155801015E+03  0.32568661420E+03  0.00000000000E+00 0. -1.
        -12    1    3    3    0    0 -0.96898189515E+02 -0.29270869273E+02 -0.12108434188E+03  0.15782097695E+03  0.00000000000E+00 0.  1.
          5    1    4    4  501    0  0.39094347607E+01 -0.92921942336E+01  0.36464327377E+01  0.11506408020E+02  0.41800000000E+01 0. -1.
         -5    1    4    4    0  501 -0.72035862864E+03 -0.50847862263E+03  0.16856769230E+03  0.89771911131E+03  0.41800000000E+01 0. -1.
</event>
<event>
11    1  0.8299058E-009  0.1371406E+03  0.7561462E-02  0.1110794E+00
         22   -1    0    0    0    0  0.00000000000E+00  0.00000000000E+00  0.90314948264E+03  0.90314948264E+03  0.00000000000E+00 0. -1.
         22   -1    0    0    0    0 -0.00000000000E+00 -0.00000000000E+00 -0.71770631338E+02  0.71770631338E+02  0.00000000000E+00 0. -1.
         24    2    1    2    0    0  0.38806796814E+02  0.33045679152E+02  0.69056271255E+01  0.88313718383E+02  0.71788862500E+02 0.  0.
         25    2    1    2    0    0 -0.59756466281E+02 -0.48976846630E+02  0.16250592398E+03  0.21914553609E+03  0.12508806454E+03 0.  0.
        -24    2    1    2    0    0  0.20949669468E+02  0.15931167478E+02  0.66196730019E+03  0.66746085950E+03  0.81305606821E+02 0.  0.
        -11    1    3    3    0    0  0.75269751208E+01  0.21776295423E+02  0.36921699550E+02  0.43520963851E+02  0.00000000000E+00 0.  1.
         12    1    3    3    0    0  0.31279821693E+02  0.11269383729E+02 -0.30016072425E+02  0.44792754532E+02  0.00000000000E+00 0. -1.
         13    1    5    5    0    0 -0.69593217990E+01  0.22003015544E+02  0.58351366873E+03  0.58396983351E+03  0.00000000000E+00 0. -1.
        -14    1    5    5    0    0  0.27908991267E+02 -0.60718480660E+01  0.78453631455E+02  0.83491025991E+02  0.00000000000E+00 0.  1.
          5    1    4    4  501    0 -0.19353724516E+01 -0.75138558007E+02  0.51500126766E+02  0.91210109214E+02  0.41800000000E+01 0.  1.
         -5    1    4    4    0  501 -0.57821093830E+02  0.26161711377E+02  0.11100579722E+03  0.12793542687E+03  0.41800000000E+01 0.  1.
</event>
<event>
11    1  0.8299058E-009  0.2024470E+03  0.7561462E-02  0.1052807E+00
         22   -1    0    0    0    0  0.00000000000E+00  0.00000000000E+00  0.70648067767E+03  0.70648067767E+03  0.00000000000E+00 0. -1.
         22   -1    0    0    0    0 -0.00000000000E+00 -0.00000000000E+00 -0.32920796264E+04  0.32920796264E+04  0.00000000000E+00 0. -1.
         24    2    1    2    0    0  0.85039033734E+01  0.16578608211E+03 -0.30420906317E+04  0.30476452191E+04  0.79174673972E+02 0.  0.
         25    2    1    2    0    0  0.10561593742E+03 -0.77030372446E+02 -0.20250301762E+03  0.27155658445E+03  0.12508837636E+03 0.  0.
        -24    2    1    2    0    0 -0.11411984079E+03 -0.88755709665E+02  0.65899470056E+03  0.67935850048E+03  0.79705976904E+02 0.  0.
        -11    1    3    3    0    0 -0.23248602832E+02  0.39965406708E+02 -0.46593495353E+03  0.46822335715E+03  0.00000000000E+00 0.  1.
         12    1    3    3    0    0  0.31752506205E+02  0.12582067540E+03 -0.25761556781E+04  0.25794218620E+04  0.00000000000E+00 0. -1.
         13    1    5    5    0    0 -0.62620242831E+02 -0.61676333215E+02  0.53762700985E+03  0.54476423030E+03  0.00000000000E+00 0. -1.
        -14    1    5    5    0    0 -0.51499597961E+02 -0.27079376450E+02  0.12136769071E+03  0.13459427019E+03  0.00000000000E+00 0.  1.
          5    1    4    4  501    0 -0.19546673730E+02 -0.22254137667E+02 -0.88981998523E+02  0.93875383133E+02  0.41800000000E+01 0.  1.
         -5    1    4    4    0  501  0.12516261115E+03 -0.54776234779E+02 -0.11352101909E+03  0.17768120132E+03  0.41800000000E+01 0.  1.
</event>
<event>
11    1  0.8299058E-009  0.1708027E+03  0.7561462E-02  0.1077335E+00
         22   -1    0    0    0    0  0.00000000000E+00  0.00000000000E+00  0.90764298532E+03  0.90764298532E+03  0.00000000000E+00 0. -1.
         22   -1    0    0    0    0 -0.00000000000E+00 -0.00000000000E+00 -0.85707625510E+03  0.85707625510E+03  0.00000000000E+00 0. -1.
         24    2    1    2    0    0  0.93806895142E+02 -0.71001938974E+02 -0.36445873871E+03  0.39135362094E+03  0.80538658369E+02 0.  0.
         25    2    1    2    0    0 -0.72242495088E+02  0.91789618822E+02 -0.46181247175E+03  0.49250665555E+03  0.12509090483E+03 0.  0.
        -24    2    1    2    0    0 -0.21564400054E+02 -0.20787679849E+02  0.87683794068E+03  0.88085896393E+03  0.78553097565E+02 0.  0.
        -11    1    3    3    0    0  0.24817681646E+02  0.11022452112E+02 -0.31602342066E+02  0.41666770896E+02  0.00000000000E+00 0.  1.
         12    1    3    3    0    0  0.68989213496E+02 -0.82024391086E+02 -0.33285639664E+03  0.34968685005E+03  0.00000000000E+00 0. -1.
         13    1    5    5    0    0 -0.20643047899E+02 -0.32046058417E+01  0.83749875335E+03  0.83775925348E+03  0.00000000000E+00 0. -1.
        -14    1    5    5    0    0 -0.92135215535E+00 -0.17583074007E+02  0.39339187335E+02  0.43099710458E+02  0.00000000000E+00 0.  1.
          5    1    4    4  501    0 -0.70906354931E+02  0.17742927366E+02 -0.35495814002E+03  0.36242968450E+03  0.41800000000E+01 0.  1.
         -5    1    4    4    0  501 -0.13361401569E+01  0.74046691457E+02 -0.10685433173E+03  0.13007697104E+03  0.41800000000E+01 0.  1.
</event>
<event>
11    1  0.8299058E-009  0.5486409E+03  0.7561462E-02  0.9290952E-01
         22   -1    0    0    0    0  0.00000000000E+00  0.00000000000E+00  0.47894303916E+03  0.47894303916E+03  0.00000000000E+00 0.  1.
         22   -1    0    0    0    0 -0.00000000000E+00 -0.00000000000E+00 -0.82551554583E+03  0.82551554583E+03  0.00000000000E+00 0. -1.
        -24    2    1    2    0    0  0.34105406661E+03 -0.34644573272E+03 -0.53252932113E+03  0.72516011242E+03  0.76988237494E+02 0.  0.
         25    2    1    2    0    0 -0.22842101433E+03  0.26414932935E+03  0.61689325998E+02  0.37603221860E+03  0.12507449180E+03 0.  0.
         24    2    1    2    0    0 -0.11263305228E+03  0.82296403369E+02  0.12426748847E+03  0.20326625396E+03  0.80099056402E+02 0.  0.
        -11    1    5    5    0    0 -0.11744817707E+03  0.50405068275E+02  0.90736894753E+02  0.15674160033E+03  0.00000000000E+00 0.  1.
         12    1    5    5    0    0  0.48151247887E+01  0.31891335094E+02  0.33530593714E+02  0.46524653633E+02  0.00000000000E+00 0. -1.
         11    1    3    3    0    0  0.31068476662E+03 -0.31383338415E+03 -0.51187965511E+03  0.67604526367E+03  0.00000000000E+00 0. -1.
        -12    1    3    3    0    0  0.30369299991E+02 -0.32612348567E+02 -0.20649666023E+02  0.49114848751E+02  0.00000000000E+00 0.  1.
          5    1    4    4  501    0 -0.98261787817E+02  0.63343620503E+02  0.70407110630E+02  0.13653727268E+03  0.41800000000E+01 0. -1.
         -5    1    4    4    0  501 -0.13015922652E+03  0.20080570885E+03 -0.87177846327E+01  0.23949494592E+03  0.41800000000E+01 0. -1.
</event>
<event>
11    1  0.8299058E-009  0.1286432E+03  0.7561462E-02  0.1120947E+00
         22   -1    0    0    0    0  0.00000000000E+00  0.00000000000E+00  0.27683191070E+03  0.27683191070E+03  0.00000000000E+00 0.  1.
         22   -1    0    0    0    0 -0.00000000000E+00 -0.00000000000E+00 -0.17397658781E+04  0.17397658781E+04  0.00000000000E+00 0.  1.
         24    2    1    2    0    0 -0.72329311617E+01  0.10794916885E+03 -0.15258558136E+04  0.15317609955E+04  0.79689680048E+02 0.  0.
         25    2    1    2    0    0  0.22985933881E+02 -0.11265730271E+02 -0.17367263226E+03  0.21555893875E+03  0.12509277775E+03 0.  0.
        -24    2    1    2    0    0 -0.15753002719E+02 -0.96683438578E+02  0.23659447846E+03  0.26927785455E+03  0.83293284990E+02 0.  0.
        -13    1    3    3    0    0 -0.40721647155E+02  0.59009738405E+02 -0.10013790914E+04  0.10039424717E+04  0.00000000000E+00 0.  1.
         14    1    3    3    0    0  0.33488715993E+02  0.48939430444E+02 -0.52447672223E+03  0.52781852385E+03  0.00000000000E+00 0. -1.
         13    1    5    5    0    0 -0.20391109686E+02  0.77296639812E+01  0.62785023976E+02  0.66464308431E+02  0.00000000000E+00 0. -1.
        -14    1    5    5    0    0  0.46381069672E+01 -0.10441310256E+03  0.17380945448E+03  0.20281354612E+03  0.00000000000E+00 0.  1.
          5    1    4    4  501    0  0.30150093149E+02  0.31423491112E+02 -0.82551397770E+01  0.44520597966E+02  0.41800000000E+01 0. -1.
         -5    1    4    4    0  501 -0.71641592686E+01 -0.42689221383E+02 -0.16541749248E+03  0.17103834079E+03  0.41800000000E+01 0. -1.
</event>
<event>
11    1  0.8299058E-009  0.1261659E+03  0.7561462E-02  0.1124072E+00
         22   -1    0    0    0    0  0.00000000000E+00  0.00000000000E+00  0.15003907216E+04  0.15003907216E+04  0.00000000000E+00 0. -1.
         22   -1    0    0    0    0 -0.00000000000E+00 -0.00000000000E+00 -0.51903460604E+02  0.51903460604E+02  0.00000000000E+00 0. -1.
         24    2    1    2    0    0 -0.19811019695E+02 -0.89035485977E+01 -0.17716978149E+01  0.82576300049E+02  0.79648959426E+02 0.  0.
         25    2    1    2    0    0  0.59652963589E+00  0.12627100305E+02  0.48959093282E+03  0.50547562461E+03  0.12508607464E+03 0.  0.
        -24    2    1    2    0    0  0.19214490059E+02 -0.37235517076E+01  0.96066802603E+03  0.96424225758E+03  0.80604054499E+02 0.  0.
        -11    1    3    3    0    0 -0.17786937409E+02  0.22108469610E+02  0.27766313971E+02  0.39700475595E+02  0.00000000000E+00 0.  1.
         12    1    3    3    0    0 -0.20240822860E+01 -0.31012018207E+02 -0.29538011786E+02  0.42875824455E+02  0.00000000000E+00 0. -1.
         11    1    5    5    0    0 -0.57695523399E+01 -0.14318315265E+02  0.85518467160E+03  0.85532398798E+03  0.00000000000E+00 0. -1.
        -12    1    5    5    0    0  0.24984042399E+02  0.10594763557E+02  0.10548335443E+03  0.10891826960E+03  0.00000000000E+00 0.  1.
          5    1    4    4  501    0  0.55378862021E+02  0.15074793816E+02  0.13660506867E+03  0.14823118752E+03  0.41800000000E+01 0.  1.
         -5    1    4    4    0  501 -0.54782332385E+02 -0.24476935106E+01  0.35298586415E+03  0.35724443709E+03  0.41800000000E+01 0.  1.
</event>
<event>
11    1  0.8299058E-009  0.1503586E+03  0.7561462E-02  0.1096513E+00
         22   -1    0    0    0    0  0.00000000000E+00  0.00000000000E+00  0.58839505697E+03  0.58839505697E+03  0.00000000000E+00 0. -1.
         22   -1    0    0    0    0 -0.00000000000E+00 -0.00000000000E+00 -0.28885546035E+03  0.28885546035E+03  0.00000000000E+00 0.  1.
         24    2    1    2    0    0  0.38010274790E+02  0.43879304876E+02 -0.22097120825E+03  0.24475463827E+03  0.87786010797E+02 0.  0.
         25    2    1    2    0    0 -0.76267500712E+02 -0.10910043275E+03  0.12421478760E+03  0.22090053671E+03  0.12509235616E+03 0.  0.
        -24    2    1    2    0    0  0.38257225922E+02  0.65221127877E+02  0.39629601728E+03  0.41159534234E+03  0.81503261712E+02 0.  0.
        -13    1    3    3    0    0  0.57093827049E+01  0.24557324343E+02 -0.20016745553E+03  0.20174902598E+03  0.00000000000E+00 0.  1.
         14    1    3    3    0    0  0.32300892085E+02  0.19321980533E+02 -0.20803752723E+02  0.43005612291E+02  0.00000000000E+00 0. -1.
         13    1    5    5    0    0 -0.25757721395E+01  0.26249821781E+02  0.29039762783E+03  0.29159298688E+03  0.00000000000E+00 0. -1.
        -14    1    5    5    0    0  0.40832998061E+02  0.38971306096E+02  0.10589838944E+03  0.12000235546E+03  0.00000000000E+00 0.  1.
          5    1    4    4  501    0 -0.71195474412E+02 -0.21689264958E+01  0.27171209848E+02  0.76349504671E+02  0.41800000000E+01 0.  1.
         -5    1    4    4    0  501 -0.50720263002E+01 -0.10693150626E+03  0.97043577748E+02  0.14455103204E+03  0.41800000000E+01 0.  1.
</event>
<event>
11    1  0.8299058E-009  0.1316912E+03  0.7561462E-02  0.1117208E+00
         22   -1    0    0    0    0  0.00000000000E+00  0.00000000000E+00  0.70062721711E+03  0.70062721711E+03  0.00000000000E+00 0.  1.
         22   -1    0    0    0    0 -0.00000000000E+00 -0.00000000000E+00 -0.23359297574E+03  0.23359297574E+03  0.00000000000E+00 0.  1.
        -24    2    1    2    0    0 -0.16789829064E+00  0.40699867408E+02 -0.20099209413E+03  0.22024919195E+03  0.80345362386E+02 0.  0.
         25    2    1    2    0    0 -0.10063387818E+02 -0.52773368320E+02  0.22183770969E+03  0.26028127856E+03  0.12509226335E+03 0.  0.
         24    2    1    2    0    0  0.10231286108E+02  0.12073500912E+02  0.44618862582E+03  0.45368972234E+03  0.80620256218E+02 0.  0.
        -13    1    5    5    0    0  0.35598162897E+02  0.35171553478E+01  0.38791578825E+03  0.38956162331E+03  0.00000000000E+00 0.  1.
         14    1    5    5    0    0 -0.25366876789E+02  0.85563455641E+01  0.58272837563E+02  0.64128099029E+02  0.00000000000E+00 0. -1.
         13    1    3    3    0    0 -0.52579907279E+00  0.54392833071E+02 -0.70526532293E+02  0.89066539798E+02  0.00000000000E+00 0. -1.
        -14    1    3    3    0    0  0.35790078215E+00 -0.13692965663E+02 -0.13046556183E+03  0.13118265215E+03  0.00000000000E+00 0.  1.
          5    1    4    4  501    0  0.10875341798E+02 -0.44965935405E+02  0.10369096466E+02  0.47594106437E+02  0.41800000000E+01 0.  1.
         -5    1    4    4    0  501 -0.20938729616E+02 -0.78074329156E+01  0.21146861322E+03  0.21268717212E+03  0.41800000000E+01 0.  1.
</event>
<event>
11    1  0.8299058E-009  0.2006042E+03  0.7561462E-02  0.1054097E+00
         22   -1    0    0    0    0  0.00000000000E+00  0.00000000000E+00  0.13781197549E+04  0.13781197549E+04  0.00000000000E+00 0.  1.
         22   -1    0    0    0    0 -0.00000000000E+00 -0.00000000000E+00 -0.12803680363E+04  0.12803680363E+04  0.00000000000E+00 0.  1.
        -24    2    1    2    0    0  0.15839381273E+03  0.28609947263E+02 -0.11706050728E+04  0.11842876493E+04  0.79459869531E+02 0.  0.
         25    2    1    2    0    0 -0.89926453026E+02 -0.95938070505E+02 -0.17626567273E+02  0.18234652051E+03  0.12509467352E+03 0.  0.
         24    2    1    2    0    0 -0.68467359703E+02  0.67328123242E+02  0.12859833586E+04  0.12918536214E+04  0.76887742405E+02 0.  0.
        -13    1    5    5    0    0 -0.32334566906E+02  0.78730627359E+02  0.89859688758E+03  0.90261863612E+03  0.00000000000E+00 0.  1.
         14    1    5    5    0    0 -0.36132792798E+02 -0.11402504117E+02  0.38738647106E+03  0.38923498530E+03  0.00000000000E+00 0. -1.
         13    1    3    3    0    0  0.16585701220E+02  0.29468078172E+02 -0.14300023455E+03  0.14694393556E+03  0.00000000000E+00 0. -1.
        -14    1    3    3    0    0  0.14180811151E+03 -0.85813090917E+00 -0.10276048383E+04  0.10373437138E+04  0.00000000000E+00 0.  1.
          5    1    4    4  501    0 -0.89452385174E+02 -0.87843071625E+02 -0.59964245584E+02  0.13903710870E+03  0.41800000000E+01 0. -1.
         -5    1    4    4    0  501 -0.47406785243E+00 -0.80949988797E+01  0.42337678311E+02  0.43309411818E+02  0.41800000000E+01 0. -1.
</event>
<event>
11    1  0.8299058E-009  0.1439023E+03  0.7561462E-02  0.1103277E+00
         22   -1    0    0    0    0  0.00000000000E+00  0.00000000000E+00  0.23479288604E+04  0.23479288604E+04  0.00000000000E+00 0. -1.
         22   -1    0    0    0    0 -0.00000000000E+00 -0.00000000000E+00 -0.31060837608E+03  0.31060837608E+03  0.00000000000E+00 0.  1.
         24    2    1    2    0    0 -0.27724754377E+01  0.35747178765E+02 -0.16945103561E+03  0.19200133971E+03  0.82857187828E+02 0.  0.
         25    2    1    2    0    0 -0.68170655877E+02 -0.39661446598E+02 -0.86055088888E+02  0.17113264460E+03  0.12514245904E+03 0.  0.
        -24    2    1    2    0    0  0.70943131315E+02  0.39142678324E+01  0.22928266088E+04  0.22954032522E+04  0.82304207411E+02 0.  0.
        -11    1    3    3    0    0 -0.21972245244E+02 -0.17385214615E+02 -0.91751600592E+02  0.95934255923E+02  0.00000000000E+00 0.  1.
         12    1    3    3    0    0  0.19199769806E+02  0.53132393380E+02 -0.77699435013E+02  0.96067083792E+02  0.00000000000E+00 0. -1.
         11    1    5    5    0    0  0.39665184286E+02  0.18676050928E+02  0.20088281702E+04  0.20093065319E+04  0.00000000000E+00 0. -1.
        -12    1    5    5    0    0  0.31277947029E+02 -0.14761783096E+02  0.28399843861E+03  0.28609672026E+03  0.00000000000E+00 0.  1.
          5    1    4    4  501    0 -0.79175337329E+02 -0.37382297136E+02 -0.35156777331E+01  0.87726863447E+02  0.41800000000E+01 0. -1.
         -5    1    4    4    0  501  0.11004681452E+02 -0.22791494619E+01 -0.82539411154E+02  0.83405781154E+02  0.41800000000E+01 0. -1.
</event>
<event>
11    1  0.8299058E-009  0.1463551E+03  0.7561462E-02  0.1100662E+00
         22   -1    0    0    0    0  0.00000000000E+00  0.00000000000E+00  0.13100744317E+04  0.13100744317E+04  0.00000000000E+00 0. -1.
         22   -1    0    0    0    0 -0.00000000000E+00 -0.00000000000E+00 -0.51662365751E+03  0.51662365751E+03  0.00000000000E+00 0. -1.
         24    2    1    2    0    0 -0.80714873745E+02  0.26778303877E+02 -0.49335138542E+03  0.50699099220E+03  0.80076889764E+02 0.  0.
         25    2    1    2    0    0 -0.43088752064E+01 -0.58982150733E+02  0.37149068849E+03  0.39641196369E+03  0.12505859751E+03 0.  0.
        -24    2    1    2    0    0  0.85023748951E+02  0.32203846857E+02  0.91531147108E+03  0.92329513329E+03  0.80079263428E+02 0.  0.
        -13    1    3    3    0    0 -0.31038124314E+02 -0.39439524230E+01 -0.44749364148E+02  0.54602431386E+02  0.00000000000E+00 0.  1.
         14    1    3    3    0    0 -0.49676749431E+02  0.30722256300E+02 -0.44860202127E+03  0.45238856081E+03  0.00000000000E+00 0. -1.
         13    1    5    5    0    0  0.83611780630E+02  0.52321716849E+02  0.81731574663E+03  0.82324572370E+03  0.00000000000E+00 0. -1.
        -14    1    5    5    0    0  0.14119683213E+01 -0.20117869992E+02  0.97995724456E+02  0.10004940959E+03  0.00000000000E+00 0.  1.
          5    1    4    4  501    0  0.17424877062E+02  0.33334910710E+02  0.61512445032E+02  0.72222544310E+02  0.41800000000E+01 0. -1.
         -5    1    4    4    0  501 -0.21733752268E+02 -0.92317061444E+02  0.30997824346E+03  0.32418941938E+03  0.41800000000E+01 0. -1.
</event>
<event>
11    1  0.8299058E-009  0.2932013E+03  0.7561462E-02  0.1003110E+00
         22   -1    0    0    0    0  0.00000000000E+00  0.00000000000E+00  0.23514756725E+04  0.23514756725E+04  0.00000000000E+00 0.  1.
         22   -1    0    0    0    0 -0.00000000000E+00 -0.00000000000E+00 -0.84525296333E+03  0.84525296333E+03  0.00000000000E+00 0. -1.
        -24    2    1    2    0    0  0.74616997334E+02 -0.25421075708E+03 -0.76526436963E+03  0.81435232641E+03  0.85728354627E+02 0.  0.
         25    2    1    2    0    0 -0.50352501201E+02  0.26568733497E+03  0.35260860049E+03  0.46163401892E+03  0.12509199791E+03 0.  0.
         24    2    1    2    0    0 -0.24264496132E+02 -0.11476577894E+02  0.19188784783E+04  0.19207422905E+04  0.80223777168E+02 0.  0.
        -13    1    5    5    0    0 -0.30853755673E+02  0.11877519687E+02  0.17294407599E+04  0.17297567377E+04  0.00000000000E+00 0.  1.
         14    1    5    5    0    0  0.65892595406E+01 -0.23354097581E+02  0.18943771836E+03  0.19098555273E+03  0.00000000000E+00 0. -1.
         11    1    3    3    0    0  0.92559944026E+02 -0.19221017356E+03 -0.60886167941E+03  0.64515474013E+03  0.00000000000E+00 0. -1.
        -12    1    3    3    0    0 -0.17942946693E+02 -0.62000583515E+02 -0.15640269023E+03  0.16919758628E+03  0.00000000000E+00 0.  1.
          5    1    4    4  501    0 -0.44046041456E+02  0.19310258743E+03  0.15674533739E+03  0.25261677742E+03  0.41800000000E+01 0. -1.
         -5    1    4    4    0  501 -0.63064597453E+01  0.72584747539E+02  0.19586326311E+03  0.20901724150E+03  0.41800000000E+01 0. -1.
</event>
<event>
11    1  0.8299058E-009  0.9863184E+03  0.7561462E-02  0.8692137E-01
         22   -1    0    0    0    0  0.00000000000E+00  0.00000000000E+00  0.68343100466E+03  0.68343100466E+03  0.00000000000E+00 0.  1.
         22   -1    0    0    0    0 -0.00000000000E+00 -0.00000000000E+00 -0.17607540223E+04  0.17607540223E+04  0.00000000000E+00 0.  1.
         24    2    1    2    0    0 -0.24290559437E+02  0.28729272392E+01 -0.10038594185E+03  0.13725122728E+03  0.90345321298E+02 0.  0.
         25    2    1    2    0    0 -0.90916906760E+03 -0.31936215596E+03 -0.88386431820E+03  0.13135617267E+04  0.12509075342E+03 0.  0.
        -24    2    1    2    0    0  0.93345962704E+03  0.31648922872E+03 -0.93072757578E+02  0.99337207302E+03  0.81321768615E+02 0.  0.
        -11    1    3    3    0    0 -0.56320236457E+00 -0.11052759043E+01  0.17192214277E+02  0.17236909917E+02  0.00000000000E+00 0.  1.
         12    1    3    3    0    0 -0.23727357072E+02  0.39782031435E+01 -0.11757815613E+03  0.12001431737E+03  0.00000000000E+00 0. -1.
         13    1    5    5    0    0  0.63264128800E+03  0.22966424827E+03 -0.28229472797E+02  0.67363014284E+03  0.00000000000E+00 0. -1.
        -14    1    5    5    0    0  0.30081833904E+03  0.86824980451E+02 -0.64843284781E+02  0.31974193018E+03  0.00000000000E+00 0.  1.
          5    1    4    4  501    0 -0.80820349642E+03 -0.26626430291E+03 -0.82462543235E+03  0.11849532255E+04  0.41800000000E+01 0. -1.
         -5    1    4    4    0  501 -0.10096557118E+03 -0.53097853049E+02 -0.59238885853E+02  0.12860850112E+03  0.41800000000E+01 0. -1.
</event>
<event>
11    1  0.8299058E-009  0.1446228E+03  0.7561462E-02  0.1102503E+00
         22   -1    0    0    0    0  0.00000000000E+00  0.00000000000E+00  0.24203717335E+04  0.24203717335E+04  0.00000000000E+00 0.  1.
         22   -1    0    0    0    0 -0.00000000000E+00 -0.00000000000E+00 -0.42702973480E+03  0.42702973480E+03  0.00000000000E+00 0. -1.
         24    2    1    2    0    0 -0.20771474804E+02  0.75789462705E+01 -0.29867324693E+03  0.31015229231E+03  0.80621593891E+02 0.  0.
         25    2    1    2    0    0  0.20751654586E+02  0.65084424840E+02 -0.79526247873E+02  0.16321153463E+03  0.12508783878E+03 0.  0.
        -24    2    1    2    0    0  0.19820218496E-01 -0.72663371110E+02  0.23715414935E+04  0.23740376414E+04  0.81029015538E+02 0.  0.
        -11    1    3    3    0    0 -0.23003179652E+01  0.32644017174E+02 -0.51446748102E+02  0.60972872740E+02  0.00000000000E+00 0.  1.
         12    1    3    3    0    0 -0.18471156839E+02 -0.25065070903E+02 -0.24722649882E+03  0.24917941957E+03  0.00000000000E+00 0. -1.
         11    1    5    5    0    0 -0.27232182971E+02 -0.62695959623E+02  0.10747366968E+04  0.10769082332E+04  0.00000000000E+00 0. -1.
        -12    1    5    5    0    0  0.27252003190E+02 -0.99674114876E+01  0.12968047967E+04  0.12971294082E+04  0.00000000000E+00 0.  1.
          5    1    4    4  501    0  0.43708240759E+02  0.47321395921E+02  0.13259676595E+02  0.65901564819E+02  0.41800000000E+01 0. -1.
         -5    1    4    4    0  501 -0.22956586174E+02  0.17763028919E+02 -0.92785924469E+02  0.97309969811E+02  0.41800000000E+01 0. -1.
</event>
<event>
11    1  0.8299058E-009  0.1392882E+03  0.7561462E-02  0.1108356E+00
         22   -1    0    0    0    0  0.00000000000E+00  0.00000000000E+00  0.83163012078E+03  0.83163012078E+03  0.00000000000E+00 0.  1.
         22   -1    0    0    0    0 -0.00000000000E+00 -0.00000000000E+00 -0.14132672648E+03  0.14132672648E+03  0.00000000000E+00 0.  1.
        -24    2    1    2    0    0 -0.46981632640E+02  0.16827359717E+02 -0.86245032124E+02  0.12768791888E+03  0.79847136591E+02 0.  0.
         25    2    1    2    0    0  0.37457666742E+02  0.46409636328E+02  0.12942275503E+03  0.18961914994E+03  0.12509293091E+03 0.  0.
         24    2    1    2    0    0  0.95239658972E+01 -0.63236996045E+02  0.64712567139E+03  0.65564977844E+03  0.83757828262E+02 0.  0.
        -13    1    5    5    0    0 -0.12228500347E+02 -0.78081144652E+02  0.48973922724E+03  0.49607530887E+03  0.00000000000E+00 0.  1.
         14    1    5    5    0    0  0.21752466244E+02  0.14844148607E+02  0.15738644415E+03  0.15957446957E+03  0.00000000000E+00 0. -1.
         11    1    3    3    0    0  0.18089395353E+02 -0.97796946908E-01 -0.45755405319E+02  0.49201553882E+02  0.00000000000E+00 0. -1.
        -12    1    3    3    0    0 -0.65071027993E+02  0.16925156664E+02 -0.40489626805E+02  0.78486365000E+02  0.00000000000E+00 0.  1.
          5    1    4    4  501    0 -0.22809627035E+02  0.32105916781E+02  0.12057087535E+03  0.12690893334E+03  0.41800000000E+01 0.  1.
         -5    1    4    4    0  501  0.60267293778E+02  0.14303719547E+02  0.88518796721E+01  0.62710216599E+02  0.41800000000E+01 0.  1.
</event>
<event>
11    1  0.8299058E-009  0.1264084E+03  0.7561462E-02  0.1123762E+00
         22   -1    0    0    0    0  0.00000000000E+00  0.00000000000E+00  0.34009023240E+04  0.34009023240E+04  0.00000000000E+00 0.  1.
         22   -1    0    0    0    0 -0.00000000000E+00 -0.00000000000E+00 -0.93556303206E+02  0.93556303206E+02  0.00000000000E+00 0. -1.
        -24    2    1    2    0    0  0.37329893356E+00 -0.31667027434E+01 -0.65463320051E+02  0.10415994248E+03  0.80954802122E+02 0.  0.
         25    2    1    2    0    0  0.17827877711E+02  0.48374352715E+01  0.48164314431E+03  0.49796237165E+03  0.12508065840E+03 0.  0.
         24    2    1    2    0    0 -0.18201176645E+02 -0.16707325281E+01  0.28911661965E+04  0.28923363131E+04  0.80207841500E+02 0.  0.
        -11    1    5    5    0    0 -0.32813053264E+01  0.25466921760E+02  0.24280799121E+04  0.24282156804E+04  0.00000000000E+00 0.  1.
         12    1    5    5    0    0 -0.14919871318E+02 -0.27137654289E+02  0.46308628439E+03  0.46412063263E+03  0.00000000000E+00 0. -1.
         13    1    3    3    0    0  0.21523633313E+02  0.15440678583E+02 -0.70706672626E+02  0.75505727597E+02  0.00000000000E+00 0. -1.
        -14    1    3    3    0    0 -0.21150334380E+02 -0.18607381326E+02  0.52433525757E+01  0.28654214881E+02  0.00000000000E+00 0.  1.
          5    1    4    4  501    0 -0.22898589125E+02  0.53321192083E+02  0.29904507302E+03  0.30465213442E+03  0.41800000000E+01 0.  1.
         -5    1    4    4    0  501  0.40726466836E+02 -0.48483756812E+02  0.18259807129E+03  0.19331023722E+03  0.41800000000E+01 0.  1.
</event>
<event>
11    1  0.9558187E-009  0.2428590E+03  0.7561462E-02  0.1027774E+00
         22   -1    0    0    0    0  0.00000000000E+00  0.00000000000E+00  0.11443027730E+04  0.11443027730E+04  0.00000000000E+00 0.  1.
         22   -1    0    0    0    0 -0.00000000000E+00 -0.00000000000E+00 -0.68119154695E+03  0.68119154695E+03  0.00000000000E+00 0. -1.
         24    2    1    2    0    0 -0.19241529109E+03  0.20965292370E+02 -0.46360822101E+03  0.50892282701E+03  0.81281446441E+02 0.  0.
         25    2    1    2    0    0  0.29499417915E+03 -0.18124722357E+02 -0.55456186529E+02  0.32568974134E+03  0.12509335594E+03 0.  0.
        -24    2    1    2    0    0 -0.10257888806E+03 -0.28405700127E+01  0.98217563358E+03  0.99088175158E+03  0.81530198633E+02 0.  0.
        -11    1    3    3    0    0 -0.55681813655E+02 -0.29677305896E+02 -0.11787828284E+03  0.13370301575E+03  0.00000000000E+00 0.  1.
         12    1    3    3    0    0 -0.13673347744E+03  0.50642598266E+02 -0.34572993818E+03  0.37521981126E+03  0.00000000000E+00 0. -1.
         11    1    5    5    0    0 -0.19814976090E+02 -0.26776922607E+02  0.12414412101E+03  0.12853559679E+03  0.00000000000E+00 0. -1.
        -12    1    5    5    0    0 -0.82763911968E+02  0.23936352594E+02  0.85803151257E+03  0.86234615478E+03  0.00000000000E+00 0.  1.
          5    1    4    4  501    0  0.17049895633E+03 -0.65219369096E+02 -0.60688483764E+02  0.19241627965E+03  0.41800000000E+01 0. -1.
         -5    1    4    4    0  501  0.12449522282E+03  0.47094646739E+02  0.52322972349E+01  0.13327346169E+03  0.41800000000E+01 0. -1.
</event>
<event>
11    1  0.8299058E-009  0.3514643E+03  0.7561462E-02  0.9804928E-01
         22   -1    0    0    0    0  0.00000000000E+00  0.00000000000E+00  0.22370011518E+03  0.22370011518E+03  0.00000000000E+00 0.  1.
         22   -1    0    0    0    0 -0.00000000000E+00 -0.00000000000E+00 -0.23391166562E+04  0.23391166562E+04  0.00000000000E+00 0. -1.
        -24    2    1    2    0    0 -0.69384745603E+01  0.82565483693E+02 -0.36118510183E+03  0.37920032466E+03  0.80454999300E+02 0.  0.
         25    2    1    2    0    0 -0.18676329808E+03 -0.34210226450E+03 -0.18010036935E+04  0.18469384804E+04  0.12511178035E+03 0.  0.
         24    2    1    2    0    0  0.19370177264E+03  0.25953678081E+03  0.46772254354E+02  0.33667796624E+03  0.79276048476E+02 0.  0.
        -11    1    5    5    0    0  0.63811816661E+02  0.15083267729E+03  0.29670171145E+02  0.16644147182E+03  0.00000000000E+00 0.  1.
         12    1    5    5    0    0  0.12988995598E+03  0.10870410351E+03  0.17102083210E+02  0.17023649443E+03  0.00000000000E+00 0. -1.
         13    1    3    3    0    0  0.32158507286E+02  0.50415159839E+02 -0.13890917942E+03  0.15123365386E+03  0.00000000000E+00 0. -1.
        -14    1    3    3    0    0 -0.39096981846E+02  0.32150323854E+02 -0.22227592240E+03  0.22796667080E+03  0.00000000000E+00 0.  1.
          5    1    4    4  501    0 -0.10239373745E+03 -0.28135395139E+03 -0.14610440250E+04  0.14914126320E+04  0.41800000000E+01 0. -1.
         -5    1    4    4    0  501 -0.84369560631E+02 -0.60748313110E+02 -0.33995966849E+03  0.35552584843E+03  0.41800000000E+01 0. -1.
</event>
<event>
11    1  0.8299058E-009  0.1375662E+03  0.7561462E-02  0.1110307E+00
         22   -1    0    0    0    0  0.00000000000E+00  0.00000000000E+00  0.27450043301E+03  0.27450043301E+03  0.00000000000E+00 0. -1.
         22   -1    0    0    0    0 -0.00000000000E+00 -0.00000000000E+00 -0.37441583173E+03  0.37441583173E+03  0.00000000000E+00 0. -1.
         24    2    1    2    0    0 -0.33419978480E+02 -0.30193621446E+02 -0.26126860178E+03  0.27680855304E+03  0.79581046886E+02 0.  0.
         25    2    1    2    0    0  0.49637901988E+02  0.80472256970E+02 -0.27914202643E+02  0.15926764126E+03  0.12508906182E+03 0.  0.
        -24    2    1    2    0    0 -0.16217923508E+02 -0.50278635524E+02  0.18926740569E+03  0.21284007044E+03  0.81778863366E+02 0.  0.
        -11    1    3    3    0    0 -0.31398333245E+02 -0.53557581244E+02 -0.13789656964E+03  0.15122742396E+03  0.00000000000E+00 0.  1.
         12    1    3    3    0    0 -0.20216452347E+01  0.23363959799E+02 -0.12337203214E+03  0.12558112908E+03  0.00000000000E+00 0. -1.
         11    1    5    5    0    0 -0.60015523731E+01 -0.44244140663E+02  0.19472593178E+03  0.19977925598E+03  0.00000000000E+00 0. -1.
        -12    1    5    5    0    0 -0.10216371135E+02 -0.60344948611E+01 -0.54585260808E+01  0.13060814460E+02  0.00000000000E+00 0.  1.
          5    1    4    4  501    0 -0.61532273968E+01  0.92686895207E+02  0.51767596727E+01  0.93128910609E+02  0.41800000000E+01 0.  1.
         -5    1    4    4    0  501  0.55791129385E+02 -0.12214638237E+02 -0.33090962316E+02  0.66138730652E+02  0.41800000000E+01 0.  1.
</event>
<event>
11    1  0.8299058E-009  0.1304104E+03  0.7561462E-02  0.1118766E+00
         22   -1    0    0    0    0  0.00000000000E+00  0.00000000000E+00  0.24677314342E+03  0.24677314342E+03  0.00000000000E+00 0. -1.
         22   -1    0    0    0    0 -0.00000000000E+00 -0.00000000000E+00 -0.10492716873E+04  0.10492716873E+04  0.00000000000E+00 0.  1.
         24    2    1    2    0    0  0.35753110227E+02  0.69267065096E+01 -0.98425990686E+03  0.98866448097E+03  0.85811581572E+02 0.  0.
         25    2    1    2    0    0 -0.62024435839E+02  0.18631154291E+02  0.53269826316E+02  0.15059740917E+03  0.12509098570E+03 0.  0.
        -24    2    1    2    0    0  0.26271325612E+02 -0.25557860801E+02  0.12849153663E+03  0.15678294061E+03  0.82020903940E+02 0.  0.
        -11    1    3    3    0    0  0.39407944363E+01 -0.28078113912E+02 -0.69373859784E+03  0.69431776045E+03  0.00000000000E+00 0.  1.
         12    1    3    3    0    0  0.31812315791E+02  0.35004820422E+02 -0.29052130902E+03  0.29434672052E+03  0.00000000000E+00 0. -1.
         11    1    5    5    0    0  0.40666583499E+02 -0.26254011420E+02  0.13311879677E+03  0.14164624310E+03  0.00000000000E+00 0. -1.
        -12    1    5    5    0    0 -0.14395257887E+02  0.69615061935E+00 -0.46272601406E+01  0.15136697517E+02  0.00000000000E+00 0.  1.
          5    1    4    4  501    0 -0.18487207946E+02 -0.14559715086E+02 -0.37526345509E+02  0.44491135839E+02  0.41800000000E+01 0. -1.
         -5    1    4    4    0  501 -0.43537227893E+02  0.33190869378E+02  0.90796171825E+02  0.10610627333E+03  0.41800000000E+01 0. -1.
</event>
<event>
11    1  0.8299058E-009  0.2110272E+03  0.7561462E-02  0.1046989E+00
         22   -1    0    0    0    0  0.00000000000E+00  0.00000000000E+00  0.77132498310E+03  0.77132498310E+03  0.00000000000E+00 0.  1.
         22   -1    0    0    0    0 -0.00000000000E+00 -0.00000000000E+00 -0.31577266690E+03  0.31577266690E+03  0.00000000000E+00 0. -1.
        -24    2    1    2    0    0 -0.21831975445E+02 -0.84826330053E+02 -0.74123759844E+02  0.14176486970E+03  0.83251456959E+02 0.  0.
         25    2    1    2    0    0  0.18354043306E+03  0.12726886081E+03 -0.11051443541E+03  0.27882937360E+03  0.12509166899E+03 0.  0.
         24    2    1    2    0    0 -0.16170845762E+03 -0.42442530753E+02  0.64019051145E+03  0.66650340670E+03  0.80199167723E+02 0.  0.
        -11    1    5    5    0    0 -0.15936768810E+03 -0.24282697824E+02  0.61209880617E+03  0.63297129314E+03  0.00000000000E+00 0.  1.
         12    1    5    5    0    0 -0.23407695155E+01 -0.18159832929E+02  0.28091705282E+02  0.33532113557E+02  0.00000000000E+00 0. -1.
         11    1    3    3    0    0 -0.35077785380E+02 -0.95657787752E+02 -0.71459576936E+02  0.12444811980E+03  0.00000000000E+00 0. -1.
        -12    1    3    3    0    0  0.13245809935E+02  0.10831457698E+02 -0.26641829080E+01  0.17316749905E+02  0.00000000000E+00 0.  1.
          5    1    4    4  501    0  0.11892586799E+03  0.13795160093E+03 -0.11074507011E+03  0.21320400847E+03  0.41800000000E+01 0.  1.
         -5    1    4    4    0  501  0.64614565074E+02 -0.10682740119E+02  0.23063470672E+00  0.65625365131E+02  0.41800000000E+01 0.  1.
</event>
<event>
11    1  0.8299058E-009  0.1359490E+03  0.7561462E-02  0.1112168E+00
         22   -1    0    0    0    0  0.00000000000E+00  0.00000000000E+00  0.27497817992E+03  0.27497817992E+03  0.00000000000E+00 0. -1.
         22   -1    0    0    0    0 -0.00000000000E+00 -0.00000000000E+00 -0.10070174798E+04  0.10070174798E+04  0.00000000000E+00 0. -1.
        -24    2    1    2    0    0  0.26941549070E+01  0.27453336090E+02 -0.95493468252E+03  0.95883218755E+03  0.81841137999E+02 0.  0.
         25    2    1    2    0    0 -0.53733719460E+02 -0.56776155495E+01  0.12333407327E+03  0.18379152438E+03  0.12509389625E+03 0.  0.
         24    2    1    2    0    0  0.51039564553E+02 -0.21775720540E+02  0.99561309408E+02  0.13937194775E+03  0.80205151547E+02 0.  0.
        -11    1    5    5    0    0  0.32134476061E+02 -0.49167412100E+02  0.39747417935E+02  0.70921902095E+02  0.00000000000E+00 0.  1.
         12    1    5    5    0    0  0.18905088492E+02  0.27391691560E+02  0.59813891474E+02  0.68450045658E+02  0.00000000000E+00 0. -1.
         11    1    3    3    0    0  0.21232650541E+02  0.40163177809E+02 -0.86280663580E+03  0.86400185016E+03  0.00000000000E+00 0. -1.
        -12    1    3    3    0    0 -0.18538495634E+02 -0.12709841719E+02 -0.92128046718E+02  0.94830337387E+02  0.00000000000E+00 0.  1.
          5    1    4    4  501    0 -0.27312975388E+02 -0.85471139118E+01  0.14586212264E+03  0.14870199394E+03  0.41800000000E+01 0.  1.
         -5    1    4    4    0  501 -0.26420744072E+02  0.28694983623E+01 -0.22528049368E+02  0.35089530439E+02  0.41800000000E+01 0.  1.
</event>
<event>
11    1  0.8299058E-009  0.1274790E+03  0.7561462E-02  0.1122406E+00
         22   -1    0    0    0    0  0.00000000000E+00  0.00000000000E+00  0.21293561613E+03  0.21293561613E+03  0.00000000000E+00 0. -1.
         22   -1    0    0    0    0 -0.00000000000E+00 -0.00000000000E+00 -0.30012201117E+03  0.30012201117E+03  0.00000000000E+00 0.  1.
         24    2    1    2    0    0  0.15112614283E+02  0.23190748816E+02 -0.21674062494E+03  0.23251599137E+03  0.79504627544E+02 0.  0.
         25    2    1    2    0    0 -0.35925729661E+02 -0.12002881595E+02  0.58884823048E+01  0.13084412537E+03  0.12510309230E+03 0.  0.
        -24    2    1    2    0    0  0.20813115378E+02 -0.11187867221E+02  0.12366574760E+03  0.14969751055E+03  0.80980080207E+02 0.  0.
        -13    1    3    3    0    0  0.32808303359E+01  0.52472349721E+02 -0.13833629688E+03  0.14799000766E+03  0.00000000000E+00 0.  1.
         14    1    3    3    0    0  0.11831783947E+02 -0.29281600906E+02 -0.78404328067E+02  0.84525983712E+02  0.00000000000E+00 0. -1.
         13    1    5    5    0    0  0.50407801712E+02 -0.15972272403E+01  0.56862183981E+02  0.76005299653E+02  0.00000000000E+00 0. -1.
        -14    1    5    5    0    0 -0.29594686334E+02 -0.95906399803E+01  0.66803563621E+02  0.73692210897E+02  0.00000000000E+00 0.  1.
          5    1    4    4  501    0 -0.75796387552E+02 -0.24082565487E+02 -0.19348710073E+02  0.81956740467E+02  0.41800000000E+01 0.  1.
         -5    1    4    4    0  501  0.39870657892E+02  0.12079683892E+02  0.25237192378E+02  0.48887384904E+02  0.41800000000E+01 0.  1.
</event>
<event>
11    1  0.8299058E-009  0.2378752E+03  0.7561462E-02  0.1030564E+00
         22   -1    0    0    0    0  0.00000000000E+00  0.00000000000E+00  0.18196649725E+04  0.18196649725E+04  0.00000000000E+00 0.  1.
         22   -1    0    0    0    0 -0.00000000000E+00 -0.00000000000E+00 -0.15321097038E+04  0.15321097038E+04  0.00000000000E+00 0. -1.
         24    2    1    2    0    0 -0.39007911650E+02  0.19390380162E+03 -0.11357968897E+04  0.11553130618E+04  0.74789001358E+02 0.  0.
         25    2    1    2    0    0  0.27025481579E+01 -0.22549677657E+03 -0.34211935014E+03  0.42842751180E+03  0.12509349750E+03 0.  0.
        -24    2    1    2    0    0  0.36305363492E+02  0.31592974958E+02  0.17654715085E+04  0.17680341027E+04  0.82089862442E+02 0.  0.
        -13    1    3    3    0    0 -0.39709844615E+02  0.49068555148E+02 -0.44854631886E+03  0.45296621841E+03  0.00000000000E+00 0.  1.
         14    1    3    3    0    0  0.70193296491E+00  0.14483524647E+03 -0.68725057085E+03  0.70234684342E+03  0.00000000000E+00 0. -1.
         11    1    5    5    0    0  0.38635199752E+02  0.16830571204E+02  0.35633001777E+03  0.35881336145E+03  0.00000000000E+00 0. -1.
        -12    1    5    5    0    0 -0.23298362598E+01  0.14762403755E+02  0.14091414907E+04  0.14092207412E+04  0.00000000000E+00 0.  1.
          5    1    4    4  501    0  0.20460768681E+02 -0.10963684756E+02  0.70780999123E+00  0.23597008994E+02  0.41800000000E+01 0.  1.
         -5    1    4    4    0  501 -0.17758220524E+02 -0.21453309182E+03 -0.34282716013E+03  0.40483050281E+03  0.41800000000E+01 0.  1.
</event>
<event>
11    1  0.8299058E-009  0.1545859E+03  0.7561462E-02  0.1092283E+00
         22   -1    0    0    0    0  0.00000000000E+00  0.00000000000E+00  0.40336728889E+03  0.40336728889E+03  0.00000000000E+00 0. -1.
         22   -1    0    0    0    0 -0.00000000000E+00 -0.00000000000E+00 -0.46760240610E+03  0.46760240610E+03  0.00000000000E+00 0. -1.
         24    2    1    2    0    0 -0.19893095707E+02  0.48074009831E+02 -0.28272017323E+03  0.30174964278E+03  0.91734970931E+02 0.  0.
         25    2    1    2    0    0 -0.68778189343E+02 -0.69900042957E+02 -0.12370106437E+03  0.20141052771E+03  0.12509113483E+03 0.  0.
        -24    2    1    2    0    0  0.88671285050E+02  0.21826033126E+02  0.34218612038E+03  0.36780952449E+03  0.99264962648E+02 0.  0.
        -11    1    3    3    0    0 -0.43351839238E+02  0.51432666086E+02 -0.12220603601E+03  0.13949557822E+03  0.00000000000E+00 0.  1.
         12    1    3    3    0    0  0.23458743531E+02 -0.33586562544E+01 -0.16051413722E+03  0.16225406456E+03  0.00000000000E+00 0. -1.
         11    1    5    5    0    0  0.35006452049E+02 -0.11708693432E+02  0.26698988372E+03  0.26952948484E+03  0.00000000000E+00 0. -1.
        -12    1    5    5    0    0  0.53664833001E+02  0.33534726557E+02  0.75196236658E+02  0.98280039651E+02  0.00000000000E+00 0.  1.
          5    1    4    4  501    0 -0.33337821505E+02 -0.94374908445E+01  0.20891264300E+02  0.40674241237E+02  0.41800000000E+01 0. -1.
         -5    1    4    4    0  501 -0.35440367838E+02 -0.60462552112E+02 -0.14459232867E+03  0.16073628647E+03  0.41800000000E+01 0. -1.
</event>
<event>
11    1  0.8299058E-009  0.1655533E+03  0.7561462E-02  0.1081967E+00
         22   -1    0    0    0    0  0.00000000000E+00  0.00000000000E+00  0.28040373437E+03  0.28040373437E+03  0.00000000000E+00 0. -1.
         22   -1    0    0    0    0 -0.00000000000E+00 -0.00000000000E+00 -0.84109623583E+03  0.84109623583E+03  0.00000000000E+00 0. -1.
         24    2    1    2    0    0  0.14907612141E+01 -0.59169020021E+02 -0.69729291905E+03  0.70440466463E+03  0.80407221686E+02 0.  0.
         25    2    1    2    0    0  0.52861581655E+02  0.14424189352E+03 -0.36842914929E+02  0.20151066807E+03  0.12509627614E+03 0.  0.
        -24    2    1    2    0    0 -0.54352342869E+02 -0.85072873499E+02  0.17344333251E+03  0.21558463749E+03  0.78756430530E+02 0.  0.
        -11    1    3    3    0    0 -0.11530147002E+02  0.94874015233E+00 -0.13202046480E+02  0.17553872195E+02  0.00000000000E+00 0.  1.
         12    1    3    3    0    0  0.13020908216E+02 -0.60117760174E+02 -0.68409087257E+03  0.68685079244E+03  0.00000000000E+00 0. -1.
         11    1    5    5    0    0 -0.55461519681E+02 -0.97446247752E+02  0.16809654079E+03  0.20205988813E+03  0.00000000000E+00 0. -1.
        -12    1    5    5    0    0  0.11091768126E+01  0.12373374254E+02  0.53467917257E+01  0.13524749365E+02  0.00000000000E+00 0.  1.
          5    1    4    4  501    0  0.40717211435E+02  0.32666110787E+02 -0.67173565255E+02  0.85174681508E+02  0.41800000000E+01 0.  1.
         -5    1    4    4    0  501  0.12144370219E+02  0.11157578273E+03  0.30330650326E+02  0.11633598656E+03  0.41800000000E+01 0.  1.
</event>
<event>
11    1  0.8299058E-009  0.1634191E+03  0.7561462E-02  0.1083905E+00
         22   -1    0    0    0    0  0.00000000000E+00  0.00000000000E+00  0.49385235579E+03  0.49385235579E+03  0.00000000000E+00 0. -1.
         22   -1    0    0    0    0 -0.00000000000E+00 -0.00000000000E+00 -0.10776965640E+04  0.10776965640E+04  0.00000000000E+00 0. -1.
        -24    2    1    2    0    0 -0.33504192975E+02 -0.23090878493E+02 -0.80949040605E+03  0.81441209245E+03  0.79602884541E+02 0.  0.
         25    2    1    2    0    0  0.71637470303E+02 -0.75260544747E+02 -0.23039203537E+03  0.28200085998E+03  0.12509163968E+03 0.  0.
         24    2    1    2    0    0 -0.38133277328E+02  0.98351423240E+02  0.45603823318E+03  0.47513596740E+03  0.81585342415E+02 0.  0.
        -11    1    5    5    0    0  0.11046657091E+02  0.70956675464E+02  0.18796629224E+03  0.20121681203E+03  0.00000000000E+00 0.  1.
         12    1    5    5    0    0 -0.49179934418E+02  0.27394747775E+02  0.26807194095E+03  0.27391915537E+03  0.00000000000E+00 0. -1.
         13    1    3    3    0    0 -0.49086131878E+02 -0.91011931577E+01 -0.74360499877E+03  0.74527892380E+03  0.00000000000E+00 0. -1.
        -14    1    3    3    0    0  0.15581938903E+02 -0.13989685335E+02 -0.65885407278E+02  0.69133168653E+02  0.00000000000E+00 0.  1.
          5    1    4    4  501    0  0.10621464626E+03 -0.65872224529E+02 -0.16170419355E+03  0.20441726849E+03  0.41800000000E+01 0.  1.
         -5    1    4    4    0  501 -0.34577175962E+02 -0.93883202178E+01 -0.68687841820E+02  0.77583591486E+02  0.41800000000E+01 0.  1.
</event>
<event>
11    1  0.8299058E-009  0.1588639E+03  0.7561462E-02  0.1088151E+00
         22   -1    0    0    0    0  0.00000000000E+00  0.00000000000E+00  0.59208289822E+03  0.59208289822E+03  0.00000000000E+00 0.  1.
         22   -1    0    0    0    0 -0.00000000000E+00 -0.00000000000E+00 -0.11646249144E+04  0.11646249144E+04  0.00000000000E+00 0. -1.
        -24    2    1    2    0    0 -0.60563659175E+02 -0.23217825677E+02 -0.10694872314E+04  0.10745813799E+04  0.81946200010E+02 0.  0.
         25    2    1    2    0    0  0.51217640927E+00  0.10232600525E+03 -0.77437751144E+01  0.16179727944E+03  0.12509004719E+03 0.  0.
         24    2    1    2    0    0  0.60051482765E+02 -0.79108179573E+02  0.50468899034E+03  0.52032915326E+03  0.78531306515E+02 0.  0.
        -13    1    5    5    0    0  0.77456819923E+02 -0.73347883904E+02  0.45577307793E+03  0.46809034341E+03  0.00000000000E+00 0.  1.
         14    1    5    5    0    0 -0.17405337157E+02 -0.57602956690E+01  0.48915912408E+02  0.52238809849E+02  0.00000000000E+00 0. -1.
         11    1    3    3    0    0 -0.59024880222E+02 -0.46303443730E+02 -0.94420962754E+03  0.94718518048E+03  0.00000000000E+00 0. -1.
        -12    1    3    3    0    0 -0.15387789528E+01  0.23085618053E+02 -0.12527760385E+03  0.12739619943E+03  0.00000000000E+00 0.  1.
          5    1    4    4  501    0  0.86378110823E+01 -0.16152665507E+02  0.31480157673E+02  0.36660511595E+02  0.41800000000E+01 0. -1.
         -5    1    4    4    0  501 -0.81256346730E+01  0.11847867076E+03 -0.39223932787E+02  0.12513676784E+03  0.41800000000E+01 0. -1.
</event>
<event>
11    1  0.8299058E-009  0.1356598E+03  0.7561462E-02  0.1112504E+00
         22   -1    0    0    0    0  0.00000000000E+00  0.00000000000E+00  0.52604756376E+03  0.52604756376E+03  0.00000000000E+00 0. -1.
         22   -1    0    0    0    0 -0.00000000000E+00 -0.00000000000E+00 -0.74756165358E+03  0.74756165358E+03  0.00000000000E+00 0. -1.
         24    2    1    2    0    0 -0.27720483352E+02  0.44088559706E+02 -0.66745303250E+03  0.67425868530E+03  0.80118648284E+02 0.  0.
         25    2    1    2    0    0 -0.33729978686E+01 -0.74057078292E+02  0.14848127139E+01  0.14541336040E+03  0.12508802002E+03 0.  0.
        -24    2    1    2    0    0  0.31093481221E+02  0.29968518586E+02  0.44445412997E+03  0.45393717165E+03  0.81575520083E+02 0.  0.
        -11    1    3    3    0    0 -0.32987237541E+02 -0.14991590459E+02 -0.24864806628E+03  0.25127428537E+03  0.00000000000E+00 0.  1.
         12    1    3    3    0    0  0.52667541895E+01  0.59080150165E+02 -0.41880496622E+03  0.42298439992E+03  0.00000000000E+00 0. -1.
         11    1    5    5    0    0  0.45722510841E+02  0.47522962320E+02  0.37681966152E+03  0.38254677786E+03  0.00000000000E+00 0. -1.
        -12    1    5    5    0    0 -0.14629029620E+02 -0.17554443734E+02  0.67634468450E+02  0.71390393786E+02  0.00000000000E+00 0.  1.
          5    1    4    4  501    0 -0.31629766994E+02 -0.46194133626E+02 -0.53449853274E+02  0.77515800690E+02  0.41800000000E+01 0.  1.
         -5    1    4    4    0  501  0.28256769126E+02 -0.27862944666E+02  0.54934665988E+02  0.67897559707E+02  0.41800000000E+01 0.  1.
</event>
<event>
11    1  0.8299058E-009  0.1575459E+03  0.7561462E-02  0.1089408E+00
         22   -1    0    0    0    0  0.00000000000E+00  0.00000000000E+00  0.16767637878E+04  0.16767637878E+04  0.00000000000E+00 0. -1.
         22   -1    0    0    0    0 -0.00000000000E+00 -0.00000000000E+00 -0.14301610092E+04  0.14301610092E+04  0.00000000000E+00 0.  1.
         24    2    1    2    0    0  0.95628816322E+02  0.39387427429E+01 -0.14073190584E+04  0.14126567885E+04  0.76758619236E+02 0.  0.
         25    2    1    2    0    0 -0.10748989239E+03  0.34086745535E+02  0.36284880239E+03  0.40002725306E+03  0.12508623667E+03 0.  0.
        -24    2    1    2    0    0  0.11861076064E+02 -0.38025488278E+02  0.12910730346E+04  0.12942407555E+04  0.81258411916E+02 0.  0.
        -13    1    3    3    0    0  0.80371834907E+02  0.25038699020E+02 -0.12764312047E+04  0.12792041232E+04  0.00000000000E+00 0.  1.
         14    1    3    3    0    0  0.15256981416E+02 -0.21099956277E+02 -0.13088785370E+03  0.13345266532E+03  0.00000000000E+00 0. -1.
         11    1    5    5    0    0  0.45702034776E+02 -0.19237647921E+02  0.58034265961E+03  0.58245717924E+03  0.00000000000E+00 0. -1.
        -12    1    5    5    0    0 -0.33840958712E+02 -0.18787840357E+02  0.71073037502E+03  0.71178357625E+03  0.00000000000E+00 0.  1.
          5    1    4    4  501    0 -0.13075950296E+03  0.49953686945E+01  0.28314599771E+03  0.31194892169E+03  0.41800000000E+01 0.  1.
         -5    1    4    4    0  501  0.23269610572E+02  0.29091376840E+02  0.79702804681E+02  0.88078331369E+02  0.41800000000E+01 0.  1.
</event>
<event>
11    1  0.8299058E-009  0.1646993E+03  0.7561462E-02  0.1082739E+00
         22   -1    0    0    0    0  0.00000000000E+00  0.00000000000E+00  0.26325165857E+04  0.26325165857E+04  0.00000000000E+00 0.  1.
         22   -1    0    0    0    0 -0.00000000000E+00 -0.00000000000E+00 -0.42005032652E+03  0.42005032652E+03  0.00000000000E+00 0.  1.
        -24    2    1    2    0    0 -0.65900533344E+01  0.10620872131E+03 -0.37604389166E+03  0.39919233412E+03  0.81374380961E+02 0.  0.
         25    2    1    2    0    0  0.81005318346E+01 -0.12187203183E+03  0.20939574863E+03  0.27278800595E+03  0.12509318881E+03 0.  0.
         24    2    1    2    0    0 -0.15104785002E+01  0.15663310513E+02  0.23791144022E+04  0.23805865722E+04  0.82215982869E+02 0.  0.
        -11    1    5    5    0    0 -0.34820714889E+01  0.36139086177E+02  0.21992563822E+04  0.21995560445E+04  0.00000000000E+00 0.  1.
         12    1    5    5    0    0  0.19715929887E+01 -0.20475775663E+02  0.17985802001E+03  0.18103052762E+03  0.00000000000E+00 0. -1.
         11    1    3    3    0    0 -0.79092991641E+01  0.48502017772E+02 -0.58303633158E+02  0.76251664773E+02  0.00000000000E+00 0. -1.
        -12    1    3    3    0    0  0.13192458297E+01  0.57706703541E+02 -0.31774025851E+03  0.32294066935E+03  0.00000000000E+00 0.  1.
          5    1    4    4  501    0  0.80966525008E+01  0.19249890532E+02  0.13238975282E+01  0.21338677838E+02  0.41800000000E+01 0. -1.
         -5    1    4    4    0  501  0.38793338369E-02 -0.14112192236E+03  0.20807185110E+03  0.25144932811E+03  0.41800000000E+01 0. -1.
</event>
<event>
11    1  0.8299058E-009  0.8842426E+03  0.7561462E-02  0.8797652E-01
         22   -1    0    0    0    0  0.00000000000E+00  0.00000000000E+00  0.22065734723E+04  0.22065734723E+04  0.00000000000E+00 0.  1.
         22   -1    0    0    0    0 -0.00000000000E+00 -0.00000000000E+00 -0.76563225869E+03  0.76563225869E+03  0.00000000000E+00 0.  1.
        -24    2    1    2    0    0  0.16849709731E+03 -0.68921932729E+03 -0.36972081355E+03  0.80353418496E+03  0.74559731156E+02 0.  0.
         25    2    1    2    0    0 -0.24433913794E+03  0.87477115819E+03  0.16926964523E+04  0.19250446160E+04  0.12509716431E+03 0.  0.
         24    2    1    2    0    0  0.75842040625E+02 -0.18555183090E+03  0.11796557488E+03  0.24362693002E+03  0.72503152342E+02 0.  0.
        -11    1    5    5    0    0  0.89539144342E+02 -0.15786498395E+03  0.93120362119E+02  0.20398532636E+03  0.00000000000E+00 0.  1.
         12    1    5    5    0    0 -0.13697103717E+02 -0.27686846947E+02  0.24845212760E+02  0.39641603665E+02  0.00000000000E+00 0. -1.
         11    1    3    3    0    0  0.13838939882E+03 -0.44513461219E+03 -0.26521456885E+03  0.53631633968E+03  0.00000000000E+00 0. -1.
        -12    1    3    3    0    0  0.30107698489E+02 -0.24408471511E+03 -0.10450624470E+03  0.26721784528E+03  0.00000000000E+00 0.  1.
          5    1    4    4  501    0 -0.16587139504E+03  0.39242973812E+03  0.72427220797E+03  0.84029882940E+03  0.41800000000E+01 0.  1.
         -5    1    4    4    0  501 -0.78467742900E+02  0.48234142008E+03  0.96842424430E+03  0.10847457866E+04  0.41800000000E+01 0.  1.
</event>
<event>
11    1  0.8299058E-009  0.1480009E+03  0.7561462E-02  0.1098939E+00
         22   -1    0    0    0    0  0.00000000000E+00  0.00000000000E+00  0.60898293583E+03  0.60898293583E+03  0.00000000000E+00 0. -1.
         22   -1    0    0    0    0 -0.00000000000E+00 -0.00000000000E+00 -0.68877494694E+03  0.68877494694E+03  0.00000000000E+00 0. -1.
         24    2    1    2    0    0  0.39351459597E+02 -0.63624726187E+02 -0.54238356102E+03  0.55357214023E+03  0.81642783031E+02 0.  0.
         25    2    1    2    0    0 -0.44690570833E+02  0.11657681145E+03 -0.79520602820E+02  0.19379798369E+03  0.12508689827E+03 0.  0.
        -24    2    1    2    0    0  0.53391112366E+01 -0.52952085264E+02  0.54211215273E+03  0.55038775885E+03  0.78795110941E+02 0.  0.
        -11    1    3    3    0    0 -0.50244151999E+01 -0.38143899518E+02 -0.84599000040E+02  0.92936497816E+02  0.00000000000E+00 0.  1.
         12    1    3    3    0    0  0.44375874797E+02 -0.25480826668E+02 -0.45778456098E+03  0.46063564242E+03  0.00000000000E+00 0. -1.
         11    1    5    5    0    0 -0.51528473879E+01 -0.60912151849E+02  0.52617126231E+03  0.52971033533E+03  0.00000000000E+00 0. -1.
        -12    1    5    5    0    0  0.10491958624E+02  0.79600665852E+01  0.15940890429E+02  0.20677423522E+02  0.00000000000E+00 0.  1.
          5    1    4    4  501    0 -0.81004340811E+02  0.95888369759E+02 -0.84688718647E+02  0.15147915418E+03  0.41800000000E+01 0.  1.
         -5    1    4    4    0  501  0.36313769977E+02  0.20688441693E+02  0.51681158278E+01  0.42318829507E+02  0.41800000000E+01 0.  1.
</event>
<event>
11    1  0.8299058E-009  0.2323451E+03  0.7561462E-02  0.1033748E+00
         22   -1    0    0    0    0  0.00000000000E+00  0.00000000000E+00  0.60333608310E+03  0.60333608310E+03  0.00000000000E+00 0.  1.
         22   -1    0    0    0    0 -0.00000000000E+00 -0.00000000000E+00 -0.20334616114E+03  0.20334616114E+03  0.00000000000E+00 0.  1.
        -24    2    1    2    0    0  0.40344082599E+02 -0.32312551301E+02 -0.81652418976E+02  0.12602357234E+03  0.80889290317E+02 0.  0.
         25    2    1    2    0    0  0.16352879678E+03 -0.16996794273E+02  0.83586857642E+02  0.22284780846E+03  0.12507527563E+03 0.  0.
         24    2    1    2    0    0 -0.20387287938E+03  0.49309345574E+02  0.39805548330E+03  0.45781086344E+03  0.84540264938E+02 0.  0.
        -13    1    5    5    0    0 -0.14458459418E+03 -0.61352467877E+01  0.24437936453E+03  0.28401341506E+03  0.00000000000E+00 0.  1.
         14    1    5    5    0    0 -0.59288285195E+02  0.55444592362E+02  0.15367611876E+03  0.17379744837E+03  0.00000000000E+00 0. -1.
         11    1    3    3    0    0 -0.66997094922E+01  0.20100843413E+02 -0.46924087766E+01  0.21701352799E+02  0.00000000000E+00 0. -1.
        -12    1    3    3    0    0  0.47043792091E+02 -0.52413394713E+02 -0.76960010199E+02  0.10432221954E+03  0.00000000000E+00 0.  1.
          5    1    4    4  501    0 -0.11149708012E+01  0.33226445490E+02  0.21500885003E+02  0.39812062188E+02  0.41800000000E+01 0.  1.
         -5    1    4    4    0  501  0.16464376758E+03 -0.50223239763E+02  0.62085972639E+02  0.18303574627E+03  0.41800000000E+01 0.  1.
</event>
<event>
11    1  0.8299058E-009  0.1422731E+03  0.7561462E-02  0.1105046E+00
         22   -1    0    0    0    0  0.00000000000E+00  0.00000000000E+00  0.27154484265E+03  0.27154484265E+03  0.00000000000E+00 0.  1.
         22   -1    0    0    0    0 -0.00000000000E+00 -0.00000000000E+00 -0.14443526657E+04  0.14443526657E+04  0.00000000000E+00 0. -1.
         24    2    1    2    0    0 -0.19514701336E+02 -0.49496662216E+02 -0.13324421752E+04  0.13359254317E+04  0.80398170393E+02 0.  0.
         25    2    1    2    0    0 -0.14061526109E+02 -0.16571737062E+02 -0.55466722967E+02  0.13854831990E+03  0.12508689222E+03 0.  0.
        -24    2    1    2    0    0  0.33576227445E+02  0.66068399278E+02  0.21510107508E+03  0.24142375673E+03  0.80774757090E+02 0.  0.
        -11    1    3    3    0    0  0.25826694450E+02 -0.76518836608E+01 -0.20027822527E+03  0.20208151075E+03  0.00000000000E+00 0.  1.
         12    1    3    3    0    0 -0.45341395786E+02 -0.41844778555E+02 -0.11321639499E+04  0.11338439210E+04  0.00000000000E+00 0. -1.
         11    1    5    5    0    0  0.34140680684E+01 -0.19022653426E+02  0.36348561251E+02  0.41167160568E+02  0.00000000000E+00 0. -1.
        -12    1    5    5    0    0  0.30162159377E+02  0.85091052704E+02  0.17875251383E+03  0.20025659617E+03  0.00000000000E+00 0.  1.
          5    1    4    4  501    0 -0.31108784183E+02 -0.51249304962E+02  0.11435308023E+02  0.61175864375E+02  0.41800000000E+01 0. -1.
         -5    1    4    4    0  501  0.17047258074E+02  0.34677567900E+02 -0.66902030989E+02  0.77372455524E+02  0.41800000000E+01 0. -1.
</event>
<event>
11    1  0.8299058E-009  0.2227114E+03  0.7561462E-02  0.1039532E+00
         22   -1    0    0    0    0  0.00000000000E+00  0.00000000000E+00  0.62338123508E+03  0.62338123508E+03  0.00000000000E+00 0. -1.
         22   -1    0    0    0    0 -0.00000000000E+00 -0.00000000000E+00 -0.74818795756E+03  0.74818795756E+03  0.00000000000E+00 0. -1.
         24    2    1    2    0    0 -0.21919775682E+02 -0.90643631218E+01 -0.54347934752E+03  0.54962466981E+03  0.78452770776E+02 0.  0.
         25    2    1    2    0    0  0.14550511569E+03 -0.12660702376E+03 -0.11127715644E+03  0.25540346839E+03  0.12508896420E+03 0.  0.
        -24    2    1    2    0    0 -0.12358534000E+03  0.13567138688E+03  0.52994978147E+03  0.56654105443E+03  0.80261659544E+02 0.  0.
        -11    1    3    3    0    0 -0.23481459549E+02 -0.59816090896E+01 -0.44799395972E+02  0.50932744569E+02  0.00000000000E+00 0.  1.
         12    1    3    3    0    0  0.15616838663E+01 -0.30827540322E+01 -0.49867995155E+03  0.49869192524E+03  0.00000000000E+00 0. -1.
         13    1    5    5    0    0 -0.10281421534E+03  0.94307911085E+02  0.47303961237E+03  0.49318477251E+03  0.00000000000E+00 0. -1.
        -14    1    5    5    0    0 -0.20771124659E+02  0.41363475795E+02  0.56910169106E+02  0.73356281920E+02  0.00000000000E+00 0.  1.
          5    1    4    4  501    0  0.12851336184E+03 -0.98947608426E+02 -0.13811937981E+03  0.21307451481E+03  0.41800000000E+01 0. -1.
         -5    1    4    4    0  501  0.16991753849E+02 -0.27659415332E+02  0.26842223370E+02  0.42328953576E+02  0.41800000000E+01 0. -1.
</event>
<event>
11    1  0.1104829E-008  0.1722295E+03  0.7561462E-02  0.1076108E+00
         22   -1    0    0    0    0  0.00000000000E+00  0.00000000000E+00  0.19033418305E+03  0.19033418305E+03  0.00000000000E+00 0. -1.
         22   -1    0    0    0    0 -0.00000000000E+00 -0.00000000000E+00 -0.17065340123E+04  0.17065340123E+04  0.00000000000E+00 0.  1.
        -24    2    1    2    0    0 -0.84479190983E+02 -0.41359162364E+02 -0.11392674815E+04  0.11459869683E+04  0.80674799028E+02 0.  0.
         25    2    1    2    0    0  0.19486288694E+03  0.67943160044E+02 -0.50692199911E+03  0.56143181672E+03  0.12509178203E+03 0.  0.
         24    2    1    2    0    0 -0.11038369596E+03 -0.26583997680E+02  0.12998965135E+03  0.18944941031E+03  0.78118501923E+02 0.  0.
        -11    1    5    5    0    0 -0.54624640936E+02  0.26379891442E+02  0.51653720031E+02  0.79673438880E+02  0.00000000000E+00 0.  1.
         12    1    5    5    0    0 -0.55759055024E+02 -0.52963889122E+02  0.78335931315E+02  0.10977597143E+03  0.00000000000E+00 0. -1.
         13    1    3    3    0    0 -0.14185262104E+02  0.21186372285E+02 -0.14028630004E+03  0.14258446623E+03  0.00000000000E+00 0. -1.
        -14    1    3    3    0    0 -0.70293928878E+02 -0.62545534649E+02 -0.99898118142E+03  0.10034025021E+04  0.00000000000E+00 0.  1.
          5    1    4    4  501    0  0.18830878416E+03  0.85603556205E+02 -0.37660486251E+03  0.42969391652E+03  0.41800000000E+01 0. -1.
         -5    1    4    4    0  501  0.65541027781E+01 -0.17660396162E+02 -0.13031713660E+03  0.13173790019E+03  0.41800000000E+01 0. -1.
</event>
<event>
11    1  0.8299058E-009  0.1461001E+03  0.7561462E-02  0.1100932E+00
         22   -1    0    0    0    0  0.00000000000E+00  0.00000000000E+00  0.59445508108E+02  0.59445508108E+02  0.00000000000E+00 0. -1.
         22   -1    0    0    0    0 -0.00000000000E+00 -0.00000000000E+00 -0.15007711286E+04  0.15007711286E+04  0.00000000000E+00 0. -1.
         24    2    1    2    0    0  0.58021912363E+02 -0.36198024827E+02 -0.89940543356E+03  0.90531876135E+03  0.77427943403E+02 0.  0.
         25    2    1    2    0    0 -0.83217491229E+02  0.63096591548E+02 -0.54407068781E+03  0.56795007059E+03  0.12509212061E+03 0.  0.
        -24    2    1    2    0    0  0.25195578866E+02 -0.26898566721E+02  0.21505008384E+01  0.86947804806E+02  0.78720683563E+02 0.  0.
        -13    1    3    3    0    0 -0.31526637291E+01 -0.41737535536E+02 -0.37405904159E+03  0.37639358091E+03  0.00000000000E+00 0.  1.
         14    1    3    3    0    0  0.61174576092E+02  0.55395107096E+01 -0.52534639197E+03  0.52892518043E+03  0.00000000000E+00 0. -1.
         11    1    5    5    0    0  0.49399725119E+02 -0.34173961960E+02  0.90570056939E+01  0.60747196396E+02  0.00000000000E+00 0. -1.
        -12    1    5    5    0    0 -0.24204146253E+02  0.72753952384E+01 -0.69065048555E+01  0.26200608410E+02  0.00000000000E+00 0.  1.
          5    1    4    4  501    0  0.12352838776E+02  0.65766216057E+02 -0.21009526613E+03  0.22053408139E+03  0.41800000000E+01 0.  1.
         -5    1    4    4    0  501 -0.95570330005E+02 -0.26696245091E+01 -0.33397542167E+03  0.34741598920E+03  0.41800000000E+01 0.  1.
</event>
<event>
11    1  0.8299058E-009  0.1746269E+03  0.7561462E-02  0.1074074E+00
         22   -1    0    0    0    0  0.00000000000E+00  0.00000000000E+00  0.97533280111E+03  0.97533280111E+03  0.00000000000E+00 0. -1.
         22   -1    0    0    0    0 -0.00000000000E+00 -0.00000000000E+00 -0.21756821917E+04  0.21756821917E+04  0.00000000000E+00 0.  1.
         24    2    1    2    0    0  0.70109777842E+02 -0.40337035579E+02 -0.19829270231E+04  0.19860460483E+04  0.76399406913E+02 0.  0.
         25    2    1    2    0    0 -0.13885824659E+03  0.13821174518E+03 -0.11256517050E+03  0.25827946067E+03  0.12511300109E+03 0.  0.
        -24    2    1    2    0    0  0.68748468745E+02 -0.97874709605E+02  0.89514280304E+03  0.90668948389E+03  0.80618680485E+02 0.  0.
        -11    1    3    3    0    0  0.84849926837E+02 -0.24604173547E+02 -0.14556170545E+04  0.14582955410E+04  0.00000000000E+00 0.  1.
         12    1    3    3    0    0 -0.14740148995E+02 -0.15732862032E+02 -0.52730996859E+03  0.52775050727E+03  0.00000000000E+00 0. -1.
         13    1    5    5    0    0  0.67072244486E+02 -0.93355065789E+02  0.56820355242E+03  0.57971469816E+03  0.00000000000E+00 0. -1.
        -14    1    5    5    0    0  0.16762242590E+01 -0.45196438168E+01  0.32693925062E+03  0.32697478573E+03  0.00000000000E+00 0.  1.
          5    1    4    4  501    0 -0.10010800732E+03  0.94003108832E+02 -0.72316176959E+01  0.13757894568E+03  0.41800000000E+01 0.  1.
         -5    1    4    4    0  501 -0.38750239263E+02  0.44208636352E+02 -0.10533355281E+03  0.12070051499E+03  0.41800000000E+01 0.  1.
</event>
<event>
11    1  0.8299058E-009  0.2268476E+03  0.7561462E-02  0.1037011E+00
         22   -1    0    0    0    0  0.00000000000E+00  0.00000000000E+00  0.77418469355E+03  0.77418469355E+03  0.00000000000E+00 0. -1.
         22   -1    0    0    0    0 -0.00000000000E+00 -0.00000000000E+00 -0.52044647181E+03  0.52044647181E+03  0.00000000000E+00 0.  1.
        -24    2    1    2    0    0  0.17838441404E+03 -0.71452371085E+02 -0.34921613296E+03  0.40692279263E+03  0.81901227920E+02 0.  0.
         25    2    1    2    0    0 -0.16411193078E+03  0.75530027039E+02 -0.52967766580E+02  0.22603158891E+03  0.12508870485E+03 0.  0.
         24    2    1    2    0    0 -0.14272483264E+02 -0.40776559546E+01  0.65592212128E+03  0.66167678382E+03  0.85802132918E+02 0.  0.
        -13    1    5    5    0    0 -0.57607251421E+01 -0.12618458150E+02  0.14232883936E+02  0.19874265405E+02  0.00000000000E+00 0.  1.
         14    1    5    5    0    0 -0.85117581224E+01  0.85408021958E+01  0.64168923734E+03  0.64180251842E+03  0.00000000000E+00 0. -1.
         11    1    3    3    0    0  0.90793986620E+02 -0.79689627309E+02 -0.20842567051E+03  0.24090505357E+03  0.00000000000E+00 0. -1.
        -12    1    3    3    0    0  0.87590427422E+02  0.82372562242E+01 -0.14079046244E+03  0.16601773906E+03  0.00000000000E+00 0.  1.
          5    1    4    4  501    0 -0.18394705511E+03  0.68622792359E+02 -0.38300442322E+02  0.20007499343E+03  0.41800000000E+01 0.  1.
         -5    1    4    4    0  501  0.19835124330E+02  0.69072346799E+01 -0.14667324258E+02  0.25956595481E+02  0.41800000000E+01 0.  1.
</event>
<event>
11    1  0.8299058E-009  0.2175978E+03  0.7561462E-02  0.1042733E+00
         22   -1    0    0    0    0  0.00000000000E+00  0.00000000000E+00  0.49756673222E+03  0.49756673222E+03  0.00000000000E+00 0.  1.
         22   -1    0    0    0    0 -0.00000000000E+00 -0.00000000000E+00 -0.16942754283E+03  0.16942754283E+03  0.00000000000E+00 0. -1.
        -24    2    1    2    0    0  0.65008091846E+02 -0.15982890951E+03 -0.24374772409E+02  0.19163870378E+03  0.79749175138E+02 0.  0.
         25    2    1    2    0    0 -0.74419497222E+02  0.18458736130E+03  0.27561376187E+03  0.36224648663E+03  0.12509522703E+03 0.  0.
         24    2    1    2    0    0  0.94114053753E+01 -0.24758451794E+02  0.76900199932E+02  0.11310908464E+03  0.78603236529E+02 0.  0.
        -13    1    5    5    0    0 -0.50343201777E+01  0.18446423279E+02 -0.46670104010E+01  0.19682375302E+02  0.00000000000E+00 0.  1.
         14    1    5    5    0    0  0.14445725553E+02 -0.43204875073E+02  0.81567210333E+02  0.93426709342E+02  0.00000000000E+00 0. -1.
         11    1    3    3    0    0  0.77734250285E+02 -0.15423432754E+03 -0.12177712427E+02  0.17314484728E+03  0.00000000000E+00 0. -1.
        -12    1    3    3    0    0 -0.12726158439E+02 -0.55945819692E+01 -0.12197059982E+02  0.18493856500E+02  0.00000000000E+00 0.  1.
          5    1    4    4  501    0 -0.78007701504E+02  0.20009753425E+03  0.26962631376E+03  0.34473184677E+03  0.41800000000E+01 0.  1.
         -5    1    4    4    0  501  0.35882042822E+01 -0.15510172943E+02  0.59874481154E+01  0.17514639866E+02  0.41800000000E+01 0.  1.
</event>
<event>
11    1  0.8299058E-009  0.1523117E+03  0.7561462E-02  0.1094540E+00
         22   -1    0    0    0    0  0.00000000000E+00  0.00000000000E+00  0.11259203809E+04  0.11259203809E+04  0.00000000000E+00 0.  1.
         22   -1    0    0    0    0 -0.00000000000E+00 -0.00000000000E+00 -0.64665025614E+03  0.64665025614E+03  0.00000000000E+00 0. -1.
        -24    2    1    2    0    0  0.27141321519E+02  0.82092513267E+02 -0.54567882793E+03  0.55822423185E+03  0.79831558283E+02 0.  0.
         25    2    1    2    0    0  0.15978771833E+01 -0.96339151751E+02 -0.25913149076E+02  0.16001285081E+03  0.12509530669E+03 0.  0.
         24    2    1    2    0    0 -0.28739198702E+02  0.14246638484E+02  0.10508621017E+04  0.10543335544E+04  0.79241269112E+02 0.  0.
        -11    1    5    5    0    0 -0.33200736184E+02  0.44093024939E+02  0.70505487048E+03  0.70721202911E+03  0.00000000000E+00 0.  1.
         12    1    5    5    0    0  0.44615374822E+01 -0.29846386455E+02  0.34580723127E+03  0.34712152526E+03  0.00000000000E+00 0. -1.
         11    1    3    3    0    0  0.22452785679E+02  0.86222370404E+02 -0.54465305793E+03  0.55189254231E+03  0.00000000000E+00 0. -1.
        -12    1    3    3    0    0  0.46885358399E+01 -0.41298571364E+01 -0.10257700009E+01  0.63316895362E+01  0.00000000000E+00 0.  1.
          5    1    4    4  501    0 -0.33211721568E+02 -0.99201492168E+02  0.15322156817E+02  0.10581207581E+03  0.41800000000E+01 0. -1.
         -5    1    4    4    0  501  0.34809598751E+02  0.28623404165E+01 -0.41235305893E+02  0.54200774994E+02  0.41800000000E+01 0. -1.
</event>
<event>
11    1  0.8299058E-009  0.1567474E+03  0.7561462E-02  0.1090177E+00
         22   -1    0    0    0    0  0.00000000000E+00  0.00000000000E+00  0.75442576809E+03  0.75442576809E+03  0.00000000000E+00 0. -1.
         22   -1    0    0    0    0 -0.00000000000E+00 -0.00000000000E+00 -0.46099292344E+03  0.46099292344E+03  0.00000000000E+00 0. -1.
         24    2    1    2    0    0  0.58924027374E+02 -0.76365103688E+02 -0.23571902627E+03  0.26667939329E+03  0.79061807452E+02 0.  0.
         25    2    1    2    0    0 -0.29205238671E+02  0.89637904776E+02 -0.17759704357E+03  0.23680433392E+03  0.12509069805E+03 0.  0.
        -24    2    1    2    0    0 -0.29718788703E+02 -0.13272801088E+02  0.70674891450E+03  0.71193496432E+03  0.79359886802E+02 0.  0.
        -13    1    3    3    0    0 -0.39078867403E+01 -0.59312435395E+02 -0.10553056119E+03  0.12111951088E+03  0.00000000000E+00 0.  1.
         14    1    3    3    0    0  0.62831914114E+02 -0.17052668293E+02 -0.13018846508E+03  0.14555988241E+03  0.00000000000E+00 0. -1.
         13    1    5    5    0    0 -0.27981226415E+02  0.12248072479E+01  0.68595506487E+03  0.68652662018E+03  0.00000000000E+00 0. -1.
        -14    1    5    5    0    0 -0.17375622876E+01 -0.14497608335E+02  0.20793849622E+02  0.25408344146E+02  0.00000000000E+00 0.  1.
          5    1    4    4  501    0 -0.57212247521E+02  0.90872962289E+02 -0.76770119842E+02  0.13206914947E+03  0.41800000000E+01 0. -1.
         -5    1    4    4    0  501  0.28007008850E+02 -0.12350575130E+01 -0.10082692373E+03  0.10473518445E+03  0.41800000000E+01 0. -1.
</event>
<event>
11    1  0.8299058E-009  0.1378491E+03  0.7561462E-02  0.1109984E+00
         22   -1    0    0    0    0  0.00000000000E+00  0.00000000000E+00  0.26248761587E+03  0.26248761587E+03  0.00000000000E+00 0. -1.
         22   -1    0    0    0    0 -0.00000000000E+00 -0.00000000000E+00 -0.58336638070E+03  0.58336638070E+03  0.00000000000E+00 0. -1.
        -24    2    1    2    0    0  0.10121552327E+02 -0.94312583216E+00 -0.38121458958E+03  0.38946307331E+03  0.79079623509E+02 0.  0.
         25    2    1    2    0    0  0.14421487572E+02 -0.51810822268E+02 -0.16306113897E+03  0.21243585753E+03  0.12509083865E+03 0.  0.
         24    2    1    2    0    0 -0.24543039900E+02  0.52753948100E+02  0.22339696371E+03  0.24395506574E+03  0.78883020062E+02 0.  0.
        -13    1    5    5    0    0 -0.20605687987E+01 -0.20595174439E+02  0.37157050311E+02  0.42532970055E+02  0.00000000000E+00 0.  1.
         14    1    5    5    0    0 -0.22482471101E+02  0.73349122539E+02  0.18623991340E+03  0.20142209568E+03  0.00000000000E+00 0. -1.
         13    1    3    3    0    0 -0.92331587586E+01  0.35925254263E+02 -0.14921437317E+03  0.15375566421E+03  0.00000000000E+00 0. -1.
        -14    1    3    3    0    0  0.19354711086E+02 -0.36868380096E+02 -0.23200021640E+03  0.23570740910E+03  0.00000000000E+00 0.  1.
          5    1    4    4  501    0 -0.69529553882E+01  0.26628613827E+02  0.24939828368E+01  0.27948506461E+02  0.41800000000E+01 0. -1.
         -5    1    4    4    0  501  0.21374442961E+02 -0.78439436095E+02 -0.16555512181E+03  0.18448735107E+03  0.41800000000E+01 0. -1.
</event>
<event>
11    1  0.8299058E-009  0.1347923E+03  0.7561462E-02  0.1113517E+00
         22   -1    0    0    0    0  0.00000000000E+00  0.00000000000E+00  0.92162021141E+03  0.92162021141E+03  0.00000000000E+00 0.  1.
         22   -1    0    0    0    0 -0.00000000000E+00 -0.00000000000E+00 -0.34060686526E+03  0.34060686526E+03  0.00000000000E+00 0.  1.
         24    2    1    2    0    0 -0.20756992657E+02 -0.12127462172E+02 -0.30765523466E+03  0.31921144151E+03  0.81647246722E+02 0.  0.
         25    2    1    2    0    0 -0.87391607158E+01 -0.31353896235E+02  0.14821420113E+03  0.19666167044E+03  0.12509565726E+03 0.  0.
        -24    2    1    2    0    0  0.29496153373E+02  0.43481358407E+02  0.74045437968E+03  0.74635396472E+03  0.77529998569E+02 0.  0.
        -11    1    3    3    0    0 -0.46088432727E+01  0.28411118469E+02 -0.21355474159E+03  0.21548563930E+03  0.00000000000E+00 0.  1.
         12    1    3    3    0    0 -0.16148149384E+02 -0.40538580641E+02 -0.94100493063E+02  0.10372580221E+03  0.00000000000E+00 0. -1.
         13    1    5    5    0    0 -0.29454762733E+01 -0.26888490413E+01  0.24378174877E+00  0.39956437760E+01  0.00000000000E+00 0. -1.
        -14    1    5    5    0    0  0.32441629646E+02  0.46170207448E+02  0.74021059793E+03  0.74235832094E+03  0.00000000000E+00 0.  1.
          5    1    4    4  501    0  0.32878727977E+02 -0.25857970378E+01 -0.64632857547E+01  0.33866555220E+02  0.41800000000E+01 0.  1.
         -5    1    4    4    0  501 -0.41617888693E+02 -0.28768099197E+02  0.15467748689E+03  0.16279511522E+03  0.41800000000E+01 0.  1.
</event>
<event>
11    1  0.8299058E-009  0.1360758E+03  0.7561462E-02  0.1112021E+00
         22   -1    0    0    0    0  0.00000000000E+00  0.00000000000E+00  0.22142357900E+04  0.22142357900E+04  0.00000000000E+00 0.  1.
         22   -1    0    0    0    0 -0.00000000000E+00 -0.00000000000E+00 -0.45337721402E+03  0.45337721402E+03  0.00000000000E+00 0.  1.
         24    2    1    2    0    0  0.48862646846E+02  0.26257295878E+01 -0.38564536790E+03  0.39688421311E+03  0.80001725746E+02 0.  0.
         25    2    1    2    0    0 -0.10101987599E+03  0.48288879087E+01  0.45024811764E+02  0.16705081506E+03  0.12510158925E+03 0.  0.
        -24    2    1    2    0    0  0.52157229141E+02 -0.74546174965E+01  0.21014791321E+04  0.21036779759E+04  0.80439639017E+02 0.  0.
        -11    1    3    3    0    0  0.56219797738E+02 -0.23731639195E+01 -0.38366790093E+03  0.38777229887E+03  0.00000000000E+00 0.  1.
         12    1    3    3    0    0 -0.73571508914E+01  0.49988935073E+01 -0.19774669657E+01  0.91119142411E+01  0.00000000000E+00 0. -1.
         13    1    5    5    0    0  0.55579459887E+02 -0.13939990802E+02  0.75235870913E+03  0.75453762458E+03  0.00000000000E+00 0. -1.
        -14    1    5    5    0    0 -0.34222307466E+01  0.64853733055E+01  0.13491204230E+04  0.13491403513E+04  0.00000000000E+00 0.  1.
          5    1    4    4  501    0 -0.26079170347E+02  0.21212387150E+02 -0.40027969196E+02  0.52438527940E+02  0.41800000000E+01 0.  1.
         -5    1    4    4    0  501 -0.74940705640E+02 -0.16383499241E+02  0.85052780959E+02  0.11461228712E+03  0.41800000000E+01 0.  1.
</event>
<event>
11    1  0.8299058E-009  0.1724127E+03  0.7561462E-02  0.1075951E+00
         22   -1    0    0    0    0  0.00000000000E+00  0.00000000000E+00  0.26106959514E+03  0.26106959514E+03  0.00000000000E+00 0. -1.
         22   -1    0    0    0    0 -0.00000000000E+00 -0.00000000000E+00 -0.11699737567E+04  0.11699737567E+04  0.00000000000E+00 0.  1.
         24    2    1    2    0    0  0.19814260570E+02  0.32517522081E+02 -0.91484843599E+03  0.91924653851E+03  0.81342138972E+02 0.  0.
         25    2    1    2    0    0  0.97253869932E+02 -0.26018038719E+01 -0.20538466707E+03  0.25942043642E+03  0.12510402379E+03 0.  0.
        -24    2    1    2    0    0 -0.11706813050E+03 -0.29915718209E+02  0.21132894150E+03  0.25237637690E+03  0.66588412879E+02 0.  0.
        -11    1    3    3    0    0 -0.18066804788E+02  0.33029574394E+02 -0.70509078469E+03  0.70609516134E+03  0.00000000000E+00 0.  1.
         12    1    3    3    0    0  0.37881065358E+02 -0.51205231287E+00 -0.20975765130E+03  0.21315137717E+03  0.00000000000E+00 0. -1.
         13    1    5    5    0    0 -0.23279024454E+02 -0.30789886983E+02  0.97630722870E+02  0.10498422819E+03  0.00000000000E+00 0. -1.
        -14    1    5    5    0    0 -0.93789106049E+02  0.87416877410E+00  0.11369821863E+03  0.14739214872E+03  0.00000000000E+00 0.  1.
          5    1    4    4  501    0  0.91741604302E+02 -0.53977670133E+02 -0.14275938844E+03  0.17812306482E+03  0.41800000000E+01 0.  1.
         -5    1    4    4    0  501  0.55122656298E+01  0.51375866261E+02 -0.62625278624E+02  0.81297371601E+02  0.41800000000E+01 0.  1.
</event>
<event>
11    1  0.8299058E-009  0.1319033E+03  0.7561462E-02  0.1116952E+00
         22   -1    0    0    0    0  0.00000000000E+00  0.00000000000E+00  0.32082850133E+03  0.32082850133E+03  0.00000000000E+00 0. -1.
         22   -1    0    0    0    0 -0.00000000000E+00 -0.00000000000E+00 -0.17266546039E+04  0.17266546039E+04  0.00000000000E+00 0.  1.
         24    2    1    2    0    0  0.37718751584E+02 -0.10394866302E+01 -0.16475859401E+04  0.16499157482E+04  0.79112333746E+02 0.  0.
         25    2    1    2    0    0 -0.60125994778E+02  0.33449181059E+02  0.32701140523E+01  0.14279879542E+03  0.12508724701E+03 0.  0.
        -24    2    1    2    0    0  0.22407243194E+02 -0.32409694429E+02  0.23848972353E+03  0.25476856158E+03  0.80481046842E+02 0.  0.
        -11    1    3    3    0    0  0.33807823677E+02  0.35403998523E+02 -0.11120800069E+04  0.11131569313E+04  0.00000000000E+00 0.  1.
         12    1    3    3    0    0  0.39109279066E+01 -0.36443485153E+02 -0.53550593322E+03  0.53675881686E+03  0.00000000000E+00 0. -1.
         13    1    5    5    0    0  0.22374617167E+01  0.72197418390E+01  0.18523889528E+03  0.18539303986E+03  0.00000000000E+00 0. -1.
        -14    1    5    5    0    0  0.20169781477E+02 -0.39629436268E+02  0.53250828250E+02  0.69375521714E+02  0.00000000000E+00 0.  1.
          5    1    4    4  501    0 -0.15095543918E+02 -0.31116264212E+02  0.42331945619E+02  0.54823018565E+02  0.41800000000E+01 0. -1.
         -5    1    4    4    0  501 -0.45030450859E+02  0.64565445271E+02 -0.39061831567E+02  0.87975776854E+02  0.41800000000E+01 0. -1.
</event>
<event>
11    1  0.8299058E-009  0.1378179E+03  0.7561462E-02  0.1110020E+00
         22   -1    0    0    0    0  0.00000000000E+00  0.00000000000E+00  0.55321086811E+03  0.55321086811E+03  0.00000000000E+00 0.  1.
         22   -1    0    0    0    0 -0.00000000000E+00 -0.00000000000E+00 -0.18477726245E+03  0.18477726245E+03  0.00000000000E+00 0. -1.
        -24    2    1    2    0    0  0.31089556530E+02  0.57126086580E+02 -0.10312190628E+03  0.14709334051E+03  0.82294428573E+02 0.  0.
         25    2    1    2    0    0 -0.28812721328E+02 -0.21296043660E+02  0.20625741226E+02  0.13174512837E+03  0.12509062020E+03 0.  0.
         24    2    1    2    0    0 -0.22768352017E+01 -0.35830042920E+02  0.45092977071E+03  0.45914966169E+03  0.78687850180E+02 0.  0.
        -13    1    5    5    0    0 -0.10717683209E+02 -0.55201331122E+02  0.40113226353E+03  0.40505450070E+03  0.00000000000E+00 0.  1.
         14    1    5    5    0    0  0.84408480071E+01  0.19371288202E+02  0.49797507174E+02  0.54095160989E+02  0.00000000000E+00 0. -1.
         13    1    3    3    0    0  0.50691300591E+02  0.23949359061E+02 -0.90658242815E+02  0.10659313648E+03  0.00000000000E+00 0. -1.
        -14    1    3    3    0    0 -0.19601744061E+02  0.33176727519E+02 -0.12463663462E+02  0.40500204024E+02  0.00000000000E+00 0.  1.
          5    1    4    4  501    0 -0.10441614228E+02 -0.67556257346E+02 -0.15353909794E+02  0.70186110879E+02  0.41800000000E+01 0. -1.
         -5    1    4    4    0  501 -0.18371107100E+02  0.46260213687E+02  0.35979651020E+02  0.61559017487E+02  0.41800000000E+01 0. -1.
</event>
<event>
11    1  0.8299058E-009  0.1804524E+03  0.7561462E-02  0.1069277E+00
         22   -1    0    0    0    0  0.00000000000E+00  0.00000000000E+00  0.34804315067E+04  0.34804315067E+04  0.00000000000E+00 0. -1.
         22   -1    0    0    0    0 -0.00000000000E+00 -0.00000000000E+00 -0.13578922874E+04  0.13578922874E+04  0.00000000000E+00 0.  1.
        -24    2    1    2    0    0  0.10022908697E+03 -0.64413720826E+02 -0.13023703323E+04  0.13102834615E+04  0.80493911491E+02 0.  0.
         25    2    1    2    0    0 -0.21777372147E+03  0.10974677954E+03  0.32759746635E+03  0.42712627199E+03  0.12508798058E+03 0.  0.
         24    2    1    2    0    0  0.11754463450E+03 -0.45333058715E+02  0.30973120852E+04  0.31009140606E+04  0.80336982749E+02 0.  0.
        -11    1    5    5    0    0  0.26887759057E+02 -0.48436193853E+02  0.15061112526E+04  0.15071297627E+04  0.00000000000E+00 0.  1.
         12    1    5    5    0    0  0.90656875445E+02  0.31031351377E+01  0.15912008326E+04  0.15937842979E+04  0.00000000000E+00 0. -1.
         13    1    3    3    0    0 -0.13022990109E+02  0.40667295043E+00 -0.14317109863E+03  0.14376274600E+03  0.00000000000E+00 0. -1.
        -14    1    3    3    0    0  0.11325207708E+03 -0.64820393777E+02 -0.11591992336E+04  0.11665207155E+04  0.00000000000E+00 0.  1.
          5    1    4    4  501    0 -0.19052716289E+03  0.78287652421E+02  0.17955791285E+03  0.27329118681E+03  0.41800000000E+01 0. -1.
         -5    1    4    4    0  501 -0.27246558582E+02  0.31459127120E+02  0.14803955350E+03  0.15383508518E+03  0.41800000000E+01 0. -1.
</event>
<event>
11    1  0.8299058E-009  0.1816192E+03  0.7561462E-02  0.1068341E+00
         22   -1    0    0    0    0  0.00000000000E+00  0.00000000000E+00  0.36530311783E+03  0.36530311783E+03  0.00000000000E+00 0.  1.
         22   -1    0    0    0    0 -0.00000000000E+00 -0.00000000000E+00 -0.11373753973E+04  0.11373753973E+04  0.00000000000E+00 0.  1.
        -24    2    1    2    0    0 -0.29787306543E+01  0.40613772911E+02 -0.10132586043E+04  0.10173292792E+04  0.81286602730E+02 0.  0.
         25    2    1    2    0    0 -0.73059167413E+02  0.74142073840E+02 -0.35989076910E+02  0.16666853840E+03  0.12509396061E+03 0.  0.
         24    2    1    2    0    0  0.76037898067E+02 -0.11475584675E+03  0.27717540174E+03  0.31868069750E+03  0.76029713409E+02 0.  0.
        -13    1    5    5    0    0  0.70514109040E+02 -0.71891489350E+02  0.24473050212E+03  0.26463870557E+03  0.00000000000E+00 0.  1.
         14    1    5    5    0    0  0.55237890267E+01 -0.42864357401E+02  0.32444899620E+02  0.54041991932E+02  0.00000000000E+00 0. -1.
         11    1    3    3    0    0  0.22401092221E+02  0.22394940777E+02 -0.14111867823E+03  0.14462995420E+03  0.00000000000E+00 0. -1.
        -12    1    3    3    0    0 -0.25379822875E+02  0.18218832135E+02 -0.87213992603E+03  0.87269932498E+03  0.00000000000E+00 0.  1.
          5    1    4    4  501    0 -0.30536510404E+02  0.71135861143E+02 -0.75630707781E+02  0.10830635054E+03  0.41800000000E+01 0. -1.
         -5    1    4    4    0  501 -0.42522657009E+02  0.30062126968E+01  0.39641630871E+02  0.58362187861E+02  0.41800000000E+01 0. -1.
</event>
<event>
11    1  0.8299058E-009  0.1599593E+03  0.7561462E-02  0.1087116E+00
         22   -1    0    0    0    0  0.00000000000E+00  0.00000000000E+00  0.13208049733E+03  0.13208049733E+03  0.00000000000E+00 0. -1.
         22   -1    0    0    0    0 -0.00000000000E+00 -0.00000000000E+00 -0.54012218686E+03  0.54012218686E+03  0.00000000000E+00 0. -1.
         24    2    1    2    0    0 -0.95334316559E+02 -0.18157303791E+01 -0.32018805836E+03  0.33981188665E+03  0.62127262962E+02 0.  0.
         25    2    1    2    0    0 -0.27525855152E+01 -0.68196038091E+02 -0.11795965532E+03  0.18498594187E+03  0.12508813719E+03 0.  0.
        -24    2    1    2    0    0  0.98086902074E+02  0.70011768470E+02  0.30106024147E+02  0.14740485567E+03  0.79367063085E+02 0.  0.
        -11    1    3    3    0    0 -0.24884737548E+00 -0.10471623971E+02 -0.90003438463E+02  0.90610903145E+02  0.00000000000E+00 0.  1.
         12    1    3    3    0    0 -0.95085469184E+02  0.86558935923E+01 -0.23018461990E+03  0.24920098351E+03  0.00000000000E+00 0. -1.
         13    1    5    5    0    0  0.10264119771E+03  0.38637601952E+02  0.10604640758E+02  0.11018411028E+03  0.00000000000E+00 0. -1.
        -14    1    5    5    0    0 -0.45542956379E+01  0.31374166519E+02  0.19501383389E+02  0.37220745392E+02  0.00000000000E+00 0.  1.
          5    1    4    4  501    0 -0.28859924995E+02 -0.93531456007E+02 -0.55545361908E+02  0.11262232533E+03  0.41800000000E+01 0.  1.
         -5    1    4    4    0  501  0.26107339480E+02  0.25335417916E+02 -0.62414293417E+02  0.72363616537E+02  0.41800000000E+01 0.  1.
</event>
<event>
11    1  0.8299058E-009  0.1341585E+03  0.7561462E-02  0.1114263E+00
         22   -1    0    0    0    0  0.00000000000E+00  0.00000000000E+00  0.17524918420E+04  0.17524918420E+04  0.00000000000E+00 0.  1.
         22   -1    0    0    0    0 -0.00000000000E+00 -0.00000000000E+00 -0.10620901530E+03  0.10620901530E+03  0.00000000000E+00 0. -1.
         24    2    1    2    0    0 -0.38221789030E+02  0.27922627667E+02 -0.67770759139E+02  0.11635669809E+03  0.81886672323E+02 0.  0.
         25    2    1    2    0    0  0.66083310803E+02 -0.23825439696E+02  0.38940540189E+03  0.41499191413E+03  0.12508823379E+03 0.  0.
        -24    2    1    2    0    0 -0.27861521774E+02 -0.40971879706E+01  0.13246481840E+04  0.13273522451E+04  0.79863132371E+02 0.  0.
        -11    1    3    3    0    0 -0.22335452420E+02 -0.15911297918E+01  0.15070812796E+02  0.26991360232E+02  0.00000000000E+00 0.  1.
         12    1    3    3    0    0 -0.15886336610E+02  0.29513757459E+02 -0.82841571935E+02  0.89365337861E+02  0.00000000000E+00 0. -1.
         13    1    5    5    0    0  0.37091614778E+01  0.27975609008E+02  0.22206410945E+03  0.22385008663E+03  0.00000000000E+00 0. -1.
        -14    1    5    5    0    0 -0.31570683252E+02 -0.32072796978E+02  0.11025840746E+04  0.11035021585E+04  0.00000000000E+00 0.  1.
          5    1    4    4  501    0  0.87510574638E+02  0.15956982743E+02  0.31926609970E+03  0.33145292394E+03  0.41800000000E+01 0.  1.
         -5    1    4    4    0  501 -0.21427263835E+02 -0.39782422440E+02  0.70139302190E+02  0.83538990192E+02  0.41800000000E+01 0.  1.
</event>
<event>
11    1  0.8299058E-009  0.1541494E+03  0.7561462E-02  0.1092713E+00
         22   -1    0    0    0    0  0.00000000000E+00  0.00000000000E+00  0.18852104182E+04  0.18852104182E+04  0.00000000000E+00 0.  1.
         22   -1    0    0    0    0 -0.00000000000E+00 -0.00000000000E+00 -0.12319886566E+04  0.12319886566E+04  0.00000000000E+00 0. -1.
        -24    2    1    2    0    0  0.19096491535E+02 -0.88013660784E+02 -0.11867465119E+04  0.11929648739E+04  0.81773017328E+02 0.  0.
         25    2    1    2    0    0  0.26137934581E+02  0.98472731302E+02  0.11841877116E+03  0.20012762209E+03  0.12509192350E+03 0.  0.
         24    2    1    2    0    0 -0.45234426115E+02 -0.10459070518E+02  0.17215495023E+04  0.17241065788E+04  0.81579781912E+02 0.  0.
        -11    1    5    5    0    0 -0.55781071163E+02 -0.69572959829E+01  0.63061537025E+03  0.63311584806E+03  0.00000000000E+00 0.  1.
         12    1    5    5    0    0  0.10546645048E+02 -0.35017745355E+01  0.10909341321E+04  0.10909907308E+04  0.00000000000E+00 0. -1.
         11    1    3    3    0    0  0.12254786049E+02 -0.98720957758E+02 -0.82207307609E+03  0.82807013575E+03  0.00000000000E+00 0. -1.
        -12    1    3    3    0    0  0.68417054859E+01  0.10707296975E+02 -0.36467343576E+03  0.36489473810E+03  0.00000000000E+00 0.  1.
          5    1    4    4  501    0 -0.30063843896E+02  0.10014384175E+03  0.70993646426E+02  0.12645233878E+03  0.41800000000E+01 0.  1.
         -5    1    4    4    0  501  0.56201778476E+02 -0.16711104508E+01  0.47425124738E+02  0.73675283308E+02  0.41800000000E+01 0.  1.
</event>
<event>
11    1  0.8299058E-009  0.1582041E+03  0.7561462E-02  0.1088779E+00
         22   -1    0    0    0    0  0.00000000000E+00  0.00000000000E+00  0.53645525377E+03  0.53645525377E+03  0.00000000000E+00 0.  1.
         22   -1    0    0    0    0 -0.00000000000E+00 -0.00000000000E+00 -0.96004813218E+03  0.96004813218E+03  0.00000000000E+00 0. -1.
         24    2    1    2    0    0 -0.33864189515E+01 -0.95808378935E+02 -0.79693767052E+03  0.80668124281E+03  0.80213860941E+02 0.  0.
         25    2    1    2    0    0 -0.27117670642E+02  0.10653042331E+03 -0.10918439207E+03  0.19912944561E+03  0.12508879041E+03 0.  0.
        -24    2    1    2    0    0  0.30504089593E+02 -0.10722044379E+02  0.48252918419E+03  0.49069269753E+03  0.83062916530E+02 0.  0.
        -13    1    3    3    0    0 -0.76099828915E+01 -0.79990745891E+02 -0.33679681394E+03  0.34624922404E+03  0.00000000000E+00 0.  1.
         14    1    3    3    0    0  0.42235639400E+01 -0.15817633044E+02 -0.46014085658E+03  0.46043201877E+03  0.00000000000E+00 0. -1.
         11    1    5    5    0    0 -0.27989725052E+02 -0.82941033410E+01  0.12220430487E+03  0.12564278326E+03  0.00000000000E+00 0. -1.
        -12    1    5    5    0    0  0.58493814646E+02 -0.24279410383E+01  0.36032487932E+03  0.36504991427E+03  0.00000000000E+00 0.  1.
          5    1    4    4  501    0 -0.55586854549E+02  0.89842360680E+02 -0.25049527278E+02  0.10865771665E+03  0.41800000000E+01 0.  1.
         -5    1    4    4    0  501  0.28469183908E+02  0.16688062634E+02 -0.84134864797E+02  0.90471728962E+02  0.41800000000E+01 0.  1.
</event>
<event>
11    1  0.8299058E-009  0.1577405E+03  0.7561462E-02  0.1089222E+00
         22   -1    0    0    0    0  0.00000000000E+00  0.00000000000E+00  0.50547602560E+03  0.50547602560E+03  0.00000000000E+00 0.  1.
         22   -1    0    0    0    0 -0.00000000000E+00 -0.00000000000E+00 -0.53989254754E+03  0.53989254754E+03  0.00000000000E+00 0.  1.
        -24    2    1    2    0    0 -0.59343620533E+02  0.21332470678E+02 -0.37217884928E+03  0.38626747781E+03  0.81906830960E+02 0.  0.
         25    2    1    2    0    0 -0.22538608959E+02  0.35048344575E+02 -0.12332137227E+03  0.18053010487E+03  0.12508630043E+03 0.  0.
         24    2    1    2    0    0  0.81882229492E+02 -0.56380815252E+02  0.46108369961E+03  0.47857099046E+03  0.80922920301E+02 0.  0.
        -13    1    5    5    0    0  0.59949868301E+02 -0.69315022415E+02  0.25592915451E+03  0.27184240135E+03  0.00000000000E+00 0.  1.
         14    1    5    5    0    0  0.21932361191E+02  0.12934207162E+02  0.20515454509E+03  0.20672858911E+03  0.00000000000E+00 0. -1.
         13    1    3    3    0    0 -0.28292862605E+02  0.36645551154E+02 -0.32195617705E+03  0.32526783184E+03  0.00000000000E+00 0. -1.
        -14    1    3    3    0    0 -0.31050757927E+02 -0.15313080476E+02 -0.50222672233E+02  0.60999645964E+02  0.00000000000E+00 0.  1.
          5    1    4    4  501    0  0.38389863550E+02  0.95426893635E+01 -0.10435951862E+03  0.11168359803E+03  0.41800000000E+01 0.  1.
         -5    1    4    4    0  501 -0.60928472509E+02  0.25505655211E+02 -0.18961853654E+02  0.68846506839E+02  0.41800000000E+01 0.  1.
</event>
<event>
11    1  0.8299058E-009  0.1524545E+03  0.7561462E-02  0.1094397E+00
         22   -1    0    0    0    0  0.00000000000E+00  0.00000000000E+00  0.10768431114E+03  0.10768431114E+03  0.00000000000E+00 0. -1.
         22   -1    0    0    0    0 -0.00000000000E+00 -0.00000000000E+00 -0.17541581570E+04  0.17541581570E+04  0.00000000000E+00 0. -1.
        -24    2    1    2    0    0 -0.42821371308E+02  0.80495285487E+02 -0.14823330477E+04  0.14876534409E+04  0.86535167798E+02 0.  0.
         25    2    1    2    0    0  0.21369405199E+02 -0.54271245431E+02 -0.22762394236E+03  0.26619809565E+03  0.12508695948E+03 0.  0.
         24    2    1    2    0    0  0.21451966109E+02 -0.26224040056E+02  0.63483144163E+02  0.10799093157E+03  0.80523565381E+02 0.  0.
        -13    1    5    5    0    0  0.48131346077E+01 -0.75138537701E+00 -0.19241501086E+02  0.19848582034E+02  0.00000000000E+00 0.  1.
         14    1    5    5    0    0  0.16638831501E+02 -0.25472654679E+02  0.82724645249E+02  0.88142349536E+02  0.00000000000E+00 0. -1.
         13    1    3    3    0    0 -0.63280532605E+01  0.88155357718E+02 -0.10267173036E+04  0.10305143536E+04  0.00000000000E+00 0. -1.
        -14    1    3    3    0    0 -0.36493318048E+02 -0.76600722307E+01 -0.45561574407E+03  0.45713908738E+03  0.00000000000E+00 0.  1.
          5    1    4    4  501    0  0.68772634347E+02 -0.53493011447E+02 -0.17301665633E+03  0.19376122749E+03  0.41800000000E+01 0. -1.
         -5    1    4    4    0  501 -0.47403229148E+02 -0.77823398400E+00 -0.54607286025E+02  0.72436868160E+02  0.41800000000E+01 0. -1.
</event>
<event>
11    1  0.8299058E-009  0.1307082E+03  0.7561462E-02  0.1118402E+00
         22   -1    0    0    0    0  0.00000000000E+00  0.00000000000E+00  0.64858283312E+03  0.64858283312E+03  0.00000000000E+00 0.  1.
         22   -1    0    0    0    0 -0.00000000000E+00 -0.00000000000E+00 -0.22382260269E+03  0.22382260269E+03  0.00000000000E+00 0.  1.
         24    2    1    2    0    0  0.22904331366E+02  0.46046996991E+02 -0.10403423404E+03  0.14159251629E+03  0.81119569092E+02 0.  0.
         25    2    1    2    0    0 -0.32037235088E+01 -0.83604884666E+01 -0.57309825378E+02  0.13788353703E+03  0.12508913656E+03 0.  0.
        -24    2    1    2    0    0 -0.19700607857E+02 -0.37686508525E+02  0.58610428985E+03  0.59292938249E+03  0.78984980670E+02 0.  0.
        -13    1    3    3    0    0  0.43694836324E+02  0.15163787651E+02 -0.91121286115E+02  0.10218741586E+03  0.00000000000E+00 0.  1.
         14    1    3    3    0    0 -0.20790504958E+02  0.30883209340E+02 -0.12912947924E+02  0.39405100427E+02  0.00000000000E+00 0. -1.
         11    1    5    5    0    0 -0.74208353927E+01 -0.26221900534E+02  0.53322260350E+02  0.59882554341E+02  0.00000000000E+00 0. -1.
        -12    1    5    5    0    0 -0.12279772464E+02 -0.11464607991E+02  0.53278202950E+03  0.53304682815E+03  0.00000000000E+00 0.  1.
          5    1    4    4  501    0 -0.37729123303E+02  0.37374562798E+02 -0.60161687810E+02  0.80356989551E+02  0.41800000000E+01 0. -1.
         -5    1    4    4    0  501  0.34525399795E+02 -0.45735051265E+02  0.28518624320E+01  0.57526547476E+02  0.41800000000E+01 0. -1.
</event>
<event>
11    1  0.8299058E-009  0.2087997E+03  0.7561462E-02  0.1048470E+00
         22   -1    0    0    0    0  0.00000000000E+00  0.00000000000E+00  0.63094210205E+03  0.63094210205E+03  0.00000000000E+00 0.  1.
         22   -1    0    0    0    0 -0.00000000000E+00 -0.00000000000E+00 -0.29827410661E+03  0.29827410661E+03  0.00000000000E+00 0. -1.
        -24    2    1    2    0    0  0.87909462922E+02 -0.13449396114E+03 -0.19062322898E+03  0.26330047960E+03  0.84694910574E+02 0.  0.
         25    2    1    2    0    0 -0.10830064608E+03  0.17699446619E+03  0.15940948978E+03  0.29002523421E+03  0.12508868872E+03 0.  0.
         24    2    1    2    0    0  0.20391183160E+02 -0.42500505048E+02  0.36388173464E+03  0.37589049484E+03  0.81618956304E+02 0.  0.
        -11    1    5    5    0    0  0.18364485502E+01  0.21642505628E+02  0.15711814818E+03  0.15861236736E+03  0.00000000000E+00 0.  1.
         12    1    5    5    0    0  0.18554734610E+02 -0.64143010676E+02  0.20676358647E+03  0.21727812749E+03  0.00000000000E+00 0. -1.
         11    1    3    3    0    0  0.36775513944E+02 -0.11099559492E+03 -0.16302377990E+03  0.20062206591E+03  0.00000000000E+00 0. -1.
        -12    1    3    3    0    0  0.51133948978E+02 -0.23498366217E+02 -0.27599449079E+02  0.62678413688E+02  0.00000000000E+00 0.  1.
          5    1    4    4  501    0 -0.38761952119E+02  0.20664258393E+02 -0.14086264036E+02  0.46318416872E+02  0.41800000000E+01 0.  1.
         -5    1    4    4    0  501 -0.69538693963E+02  0.15633020780E+03  0.17349575381E+03  0.24370681734E+03  0.41800000000E+01 0.  1.
</event>
<event>
11    1  0.8299058E-009  0.1805380E+03  0.7561462E-02  0.1069208E+00
         22   -1    0    0    0    0  0.00000000000E+00  0.00000000000E+00  0.33733491912E+04  0.33733491912E+04  0.00000000000E+00 0. -1.
         22   -1    0    0    0    0 -0.00000000000E+00 -0.00000000000E+00 -0.10907054683E+03  0.10907054683E+03  0.00000000000E+00 0.  1.
        -24    2    1    2    0    0  0.12255905786E+03 -0.11723544792E+02 -0.10083619645E+02  0.14500626228E+03  0.75940585651E+02 0.  0.
         25    2    1    2    0    0 -0.17849891595E+03 -0.65003748920E+02  0.39789645753E+03  0.45831864588E+03  0.12508812843E+03 0.  0.
         24    2    1    2    0    0  0.55939858087E+02  0.76727293712E+02  0.28764658065E+04  0.28790948299E+04  0.78199477049E+02 0.  0.
        -11    1    5    5    0    0  0.10500237532E+02  0.43072873577E+02  0.50146057859E+03  0.50341656638E+03  0.00000000000E+00 0.  1.
         12    1    5    5    0    0  0.45439620555E+02  0.33654420136E+02  0.23750052279E+04  0.23756782635E+04  0.00000000000E+00 0. -1.
         11    1    3    3    0    0  0.62790219940E+02 -0.74849628325E+01  0.32883606805E+02  0.71273894136E+02  0.00000000000E+00 0. -1.
        -12    1    3    3    0    0  0.59768837921E+02 -0.42385819597E+01 -0.42967226450E+02  0.73732368145E+02  0.00000000000E+00 0.  1.
          5    1    4    4  501    0 -0.93379969892E+02 -0.97876198248E+02  0.25578476039E+03  0.28938362948E+03  0.41800000000E+01 0. -1.
         -5    1    4    4    0  501 -0.85118946056E+02  0.32872449328E+02  0.14211169714E+03  0.16893501640E+03  0.41800000000E+01 0. -1.
</event>
<event>
11    1  0.8299058E-009  0.1559827E+03  0.7561462E-02  0.1090918E+00
         22   -1    0    0    0    0  0.00000000000E+00  0.00000000000E+00  0.91636260567E+02  0.91636260567E+02  0.00000000000E+00 0.  1.
         22   -1    0    0    0    0 -0.00000000000E+00 -0.00000000000E+00 -0.83520741986E+03  0.83520741986E+03  0.00000000000E+00 0. -1.
        -24    2    1    2    0    0  0.63550713908E+02 -0.64092688907E+02 -0.54880475683E+03  0.56199688848E+03  0.80667685835E+02 0.  0.
         25    2    1    2    0    0 -0.79303512969E+02  0.69463589086E+02 -0.21933648146E+03  0.27362414443E+03  0.12508973954E+03 0.  0.
         24    2    1    2    0    0  0.15752799061E+02 -0.53709001792E+01  0.24570079003E+02  0.91222647506E+02  0.86260566824E+02 0.  0.
        -13    1    5    5    0    0  0.39556793525E+01  0.28531671189E+02  0.42308057158E+02  0.51182764291E+02  0.00000000000E+00 0.  1.
         14    1    5    5    0    0  0.11797119708E+02 -0.33902571369E+02 -0.17737978155E+02  0.40039883214E+02  0.00000000000E+00 0. -1.
         13    1    3    3    0    0  0.41468654643E+02 -0.80821970334E+02 -0.46311991719E+03  0.47194480387E+03  0.00000000000E+00 0. -1.
        -14    1    3    3    0    0  0.22082059265E+02  0.16729281427E+02 -0.85684839639E+02  0.90052084609E+02  0.00000000000E+00 0.  1.
          5    1    4    4  501    0 -0.64789450891E+02  0.96228088854E+02 -0.10953281443E+03  0.15960083918E+03  0.41800000000E+01 0. -1.
         -5    1    4    4    0  501 -0.14514062077E+02 -0.26764499768E+02 -0.10980366704E+03  0.11402330525E+03  0.41800000000E+01 0. -1.
</event>
<event>
11    1  0.8299058E-009  0.1420507E+03  0.7561462E-02  0.1105290E+00
         22   -1    0    0    0    0  0.00000000000E+00  0.00000000000E+00  0.54394185180E+03  0.54394185180E+03  0.00000000000E+00 0.  1.
         22   -1    0    0    0    0 -0.00000000000E+00 -0.00000000000E+00 -0.23832686675E+03  0.23832686675E+03  0.00000000000E+00 0.  1.
         24    2    1    2    0    0 -0.34131056200E+02 -0.53369193310E+02 -0.79437456690E+02  0.13086252123E+03  0.82471147345E+02 0.  0.
         25    2    1    2    0    0  0.94022145074E+02  0.78298920263E+02 -0.66704891466E+02  0.18726428505E+03  0.12508990859E+03 0.  0.
        -24    2    1    2    0    0 -0.59891088874E+02 -0.24929726953E+02  0.45175733320E+03  0.46414191227E+03  0.84466518900E+02 0.  0.
        -13    1    3    3    0    0 -0.29813237652E+02  0.13016417354E+02 -0.46177785594E+02  0.56485787083E+02  0.00000000000E+00 0.  1.
         14    1    3    3    0    0 -0.43178185472E+01 -0.66385610665E+02 -0.33259671096E+02  0.74376734143E+02  0.00000000000E+00 0. -1.
         13    1    5    5    0    0 -0.48073186249E+02  0.20520142843E+02  0.15218539416E+03  0.16091147160E+03  0.00000000000E+00 0. -1.
        -14    1    5    5    0    0 -0.11817902625E+02 -0.45449869796E+02  0.29957193904E+03  0.30323044067E+03  0.00000000000E+00 0.  1.
          5    1    4    4  501    0  0.30800931123E+02  0.10213386417E+03 -0.33692173383E+02  0.11194935692E+03  0.41800000000E+01 0. -1.
         -5    1    4    4    0  501  0.63221213951E+02 -0.23834943903E+02 -0.33012718083E+02  0.75314928132E+02  0.41800000000E+01 0. -1.
</event>
<event>
11    1  0.8299058E-009  0.1734931E+03  0.7561462E-02  0.1075031E+00
         22   -1    0    0    0    0  0.00000000000E+00  0.00000000000E+00  0.25614006423E+03  0.25614006423E+03  0.00000000000E+00 0.  1.
         22   -1    0    0    0    0 -0.00000000000E+00 -0.00000000000E+00 -0.56002493070E+03  0.56002493070E+03  0.00000000000E+00 0.  1.
        -24    2    1    2    0    0  0.60729853119E+01  0.10953172335E+03 -0.33225691104E+03  0.35920053666E+03  0.81217553722E+02 0.  0.
         25    2    1    2    0    0 -0.86657979904E+02 -0.16108712075E+03 -0.12892611081E+03  0.25637052498E+03  0.12508092611E+03 0.  0.
         24    2    1    2    0    0  0.80584994592E+02  0.51555397401E+02  0.15729815538E+03  0.20059393328E+03  0.79644937245E+02 0.  0.
        -13    1    5    5    0    0  0.76828604852E+02  0.40860163889E+02  0.16524043801E+03  0.18675275064E+03  0.00000000000E+00 0.  1.
         14    1    5    5    0    0  0.37563897401E+01  0.10695233512E+02 -0.79422826271E+01  0.13841182647E+02  0.00000000000E+00 0. -1.
         13    1    3    3    0    0  0.54347044970E+01 -0.12014768786E+02 -0.18466747362E+02  0.22691660144E+02  0.00000000000E+00 0. -1.
        -14    1    3    3    0    0  0.63828081492E+00  0.12154649214E+03 -0.31379016368E+03  0.33650887652E+03  0.00000000000E+00 0.  1.
          5    1    4    4  501    0 -0.66298125225E+02 -0.11632275904E+03 -0.18254695966E+02  0.13519294361E+03  0.41800000000E+01 0. -1.
         -5    1    4    4    0  501 -0.20359854679E+02 -0.44764361717E+02 -0.11067141485E+03  0.12117758137E+03  0.41800000000E+01 0. -1.
</event>
<event>
11    1  0.8299058E-009  0.1508695E+03  0.7561462E-02  0.1095994E+00
         22   -1    0    0    0    0  0.00000000000E+00  0.00000000000E+00  0.71892832537E+03  0.71892832537E+03  0.00000000000E+00 0.  1.
         22   -1    0    0    0    0 -0.00000000000E+00 -0.00000000000E+00 -0.16243676460E+04  0.16243676460E+04  0.00000000000E+00 0. -1.
        -24    2    1    2    0    0 -0.41857666228E+02 -0.37969026106E+02 -0.12417717232E+04  0.12454957617E+04  0.77903585662E+02 0.  0.
         25    2    1    2    0    0  0.12136243695E+03  0.10872448323E+02 -0.35561411466E+03  0.39617656274E+03  0.12508964421E+03 0.  0.
         24    2    1    2    0    0 -0.79504770718E+02  0.27096577784E+02  0.69194651723E+03  0.70162364694E+03  0.80190561480E+02 0.  0.
        -13    1    5    5    0    0 -0.43062147289E+02  0.27569911486E+02  0.60750099250E+03  0.60964900101E+03  0.00000000000E+00 0.  1.
         14    1    5    5    0    0 -0.36442623429E+02 -0.47333370239E+00  0.84445524729E+02  0.91974645930E+02  0.00000000000E+00 0. -1.
         11    1    3    3    0    0 -0.59312851084E+01  0.51491268624E+01 -0.81636810512E+03  0.81640588968E+03  0.00000000000E+00 0. -1.
        -12    1    3    3    0    0 -0.35926381120E+02 -0.43118152969E+02 -0.42540361807E+03  0.42908987199E+03  0.00000000000E+00 0.  1.
          5    1    4    4  501    0 -0.26059307745E+02  0.25972161729E+01 -0.45112856107E+02  0.52330442747E+02  0.41800000000E+01 0.  1.
         -5    1    4    4    0  501  0.14742174469E+03  0.82752321500E+01 -0.31050125855E+03  0.34384612000E+03  0.41800000000E+01 0.  1.
</event>
<event>
11    1  0.8299058E-009  0.2019796E+03  0.7561462E-02  0.1053133E+00
         22   -1    0    0    0    0  0.00000000000E+00  0.00000000000E+00  0.63584059315E+03  0.63584059315E+03  0.00000000000E+00 0. -1.
         22   -1    0    0    0    0 -0.00000000000E+00 -0.00000000000E+00 -0.35962128195E+04  0.35962128195E+04  0.00000000000E+00 0.  1.
        -24    2    1    2    0    0 -0.12290898531E+02  0.15517840379E+02 -0.33246165620E+04  0.33254088990E+04  0.69836892778E+02 0.  0.
         25    2    1    2    0    0  0.62824607710E+02  0.13535363070E+03 -0.22115661119E+03  0.29466142838E+03  0.12509026350E+03 0.  0.
         24    2    1    2    0    0 -0.50533709178E+02 -0.15087147108E+03  0.58540094687E+03  0.61198308526E+03  0.80704222284E+02 0.  0.
        -13    1    5    5    0    0  0.14390034159E+02 -0.46015951176E+02  0.97952939672E+02  0.10917563481E+03  0.00000000000E+00 0.  1.
         14    1    5    5    0    0 -0.64923743338E+02 -0.10485551990E+03  0.48744800720E+03  0.50280745045E+03  0.00000000000E+00 0. -1.
         13    1    3    3    0    0 -0.53619460065E+01  0.90580140927E+01 -0.70767670531E+02  0.71546217766E+02  0.00000000000E+00 0. -1.
        -14    1    3    3    0    0 -0.69289525249E+01  0.64598262859E+01 -0.32538488915E+04  0.32538626812E+04  0.00000000000E+00 0.  1.
          5    1    4    4  501    0 -0.27665595622E+01 -0.57509807887E+01 -0.92221748336E+02  0.92536754309E+02  0.41800000000E+01 0.  1.
         -5    1    4    4    0  501  0.65591167272E+02  0.14110461149E+03 -0.12893486285E+03  0.20212467407E+03  0.41800000000E+01 0.  1.
</event>
<event>
11    1  0.8299058E-009  0.1451760E+03  0.7561462E-02  0.1101912E+00
         22   -1    0    0    0    0  0.00000000000E+00  0.00000000000E+00  0.23567806979E+03  0.23567806979E+03  0.00000000000E+00 0.  1.
         22   -1    0    0    0    0 -0.00000000000E+00 -0.00000000000E+00 -0.26920208092E+03  0.26920208092E+03  0.00000000000E+00 0.  1.
         24    2    1    2    0    0 -0.21245946818E+02 -0.25999903115E+01 -0.17036227175E+03  0.19101968343E+03  0.83708217144E+02 0.  0.
         25    2    1    2    0    0  0.85956290836E+02  0.26086578346E+02  0.19081949526E+02  0.15518309985E+03  0.12509468484E+03 0.  0.
        -24    2    1    2    0    0 -0.64710344018E+02 -0.23486588034E+02  0.11775631109E+03  0.15867736744E+03  0.81073483293E+02 0.  0.
        -13    1    3    3    0    0 -0.42957339846E+01 -0.40991865030E+02 -0.11029067356E+03  0.11774047309E+03  0.00000000000E+00 0.  1.
         14    1    3    3    0    0 -0.16950212834E+02  0.38391874718E+02 -0.60071598189E+02  0.73279210343E+02  0.00000000000E+00 0. -1.
         13    1    5    5    0    0 -0.17301640716E+01  0.25856940111E+02  0.35226428205E+02  0.43731865541E+02  0.00000000000E+00 0. -1.
        -14    1    5    5    0    0 -0.62980179947E+02 -0.49343528146E+02  0.82529882890E+02  0.11494550189E+03  0.00000000000E+00 0.  1.
          5    1    4    4  501    0  0.28489309404E+01  0.53345058332E+02  0.37884162333E+02  0.65623881412E+02  0.41800000000E+01 0.  1.
         -5    1    4    4    0  501  0.83107359896E+02 -0.27258479986E+02 -0.18802212807E+02  0.89559218434E+02  0.41800000000E+01 0.  1.
</event>
<event>
11    1  0.8299058E-009  0.1490747E+03  0.7561462E-02  0.1097828E+00
         22   -1    0    0    0    0  0.00000000000E+00  0.00000000000E+00  0.87546608971E+03  0.87546608971E+03  0.00000000000E+00 0. -1.
         22   -1    0    0    0    0 -0.00000000000E+00 -0.00000000000E+00 -0.91861810787E+03  0.91861810787E+03  0.00000000000E+00 0.  1.
         24    2    1    2    0    0 -0.33652846562E+02 -0.73029703033E+02 -0.86900546758E+03  0.87642062490E+03  0.80478304336E+02 0.  0.
         25    2    1    2    0    0  0.76675442852E+02  0.88701597797E+02  0.12910358734E+03  0.21462016167E+03  0.12508789127E+03 0.  0.
        -24    2    1    2    0    0 -0.43022596290E+02 -0.15671894764E+02  0.69674986208E+03  0.70304341101E+03  0.81933603548E+02 0.  0.
        -11    1    3    3    0    0 -0.29601193078E+02 -0.67645463854E+02 -0.36620200717E+03  0.37357201376E+03  0.00000000000E+00 0.  1.
         12    1    3    3    0    0 -0.40516534834E+01 -0.53842391791E+01 -0.50280346041E+03  0.50284861114E+03  0.00000000000E+00 0. -1.
         11    1    5    5    0    0 -0.33322163129E+02  0.47707525100E+01  0.65227832254E+03  0.65314633635E+03  0.00000000000E+00 0. -1.
        -12    1    5    5    0    0 -0.97004331614E+01 -0.20442647274E+02  0.44471539536E+02  0.49897074662E+02  0.00000000000E+00 0.  1.
          5    1    4    4  501    0 -0.26197978404E+02  0.53275202457E+02  0.65589962832E+02  0.88566906311E+02  0.41800000000E+01 0.  1.
         -5    1    4    4    0  501  0.10287342126E+03  0.35426395340E+02  0.63513624513E+02  0.12605325536E+03  0.41800000000E+01 0.  1.
</event>
<event>
11    1  0.8299058E-009  0.2231466E+03  0.7561462E-02  0.1039264E+00
         22   -1    0    0    0    0  0.00000000000E+00  0.00000000000E+00  0.11432605176E+04  0.11432605176E+04  0.00000000000E+00 0. -1.
         22   -1    0    0    0    0 -0.00000000000E+00 -0.00000000000E+00 -0.21877046666E+04  0.21877046666E+04  0.00000000000E+00 0. -1.
        -24    2    1    2    0    0 -0.10222945355E+03  0.16713259903E+03 -0.20174188444E+04  0.20285340905E+04  0.81164005797E+02 0.  0.
         25    2    1    2    0    0  0.51965906136E+02 -0.89104089346E+02 -0.12038724374E+03  0.20194167712E+03  0.12508940149E+03 0.  0.
         24    2    1    2    0    0  0.50263547418E+02 -0.78028509689E+02  0.10933619391E+04  0.11004894165E+04  0.83795903603E+02 0.  0.
        -11    1    5    5    0    0  0.12449775689E+02  0.17266132761E+02  0.25373787978E+03  0.25462919685E+03  0.00000000000E+00 0.  1.
         12    1    5    5    0    0  0.37813771729E+02 -0.95294642450E+02  0.83962405932E+03  0.84586021966E+03  0.00000000000E+00 0. -1.
         11    1    3    3    0    0 -0.52572915977E+02  0.30607880906E+02 -0.83730924275E+03  0.83951624277E+03  0.00000000000E+00 0. -1.
        -12    1    3    3    0    0 -0.49656537577E+02  0.13652471813E+03 -0.11801096016E+04  0.11890178477E+04  0.00000000000E+00 0.  1.
          5    1    4    4  501    0 -0.32383271669E+02 -0.49359338405E+02 -0.81749206512E+02  0.10092287024E+03  0.41800000000E+01 0.  1.
         -5    1    4    4    0  501  0.84349177805E+02 -0.39744750940E+02 -0.38638037228E+02  0.10101880689E+03  0.41800000000E+01 0.  1.
</event>
<event>
11    1  0.8299058E-009  0.1352607E+03  0.7561462E-02  0.1112969E+00
         22   -1    0    0    0    0  0.00000000000E+00  0.00000000000E+00  0.56356389507E+03  0.56356389507E+03  0.00000000000E+00 0.  1.
         22   -1    0    0    0    0 -0.00000000000E+00 -0.00000000000E+00 -0.36195619988E+03  0.36195619988E+03  0.00000000000E+00 0.  1.
         24    2    1    2    0    0 -0.14747827628E+02 -0.41358179672E+02 -0.27333341749E+03  0.28217341845E+03  0.54613949868E+02 0.  0.
         25    2    1    2    0    0  0.64163138539E+02  0.50408461184E+02 -0.95868096778E+01  0.14965195915E+03  0.12508349473E+03 0.  0.
        -24    2    1    2    0    0 -0.49415310911E+02 -0.90502815118E+01  0.48452792236E+03  0.49369471735E+03  0.80270703522E+02 0.  0.
        -13    1    3    3    0    0 -0.34224850116E+02 -0.18296150544E+02 -0.12871747314E+03  0.13444060913E+03  0.00000000000E+00 0.  1.
         14    1    3    3    0    0  0.19477022488E+02 -0.23062029128E+02 -0.14461594434E+03  0.14773280933E+03  0.00000000000E+00 0. -1.
         11    1    5    5    0    0  0.73524888100E+01  0.89874897934E+01  0.96570692291E+01  0.15102749769E+02  0.00000000000E+00 0. -1.
        -12    1    5    5    0    0 -0.56767799721E+02 -0.18037771305E+02  0.47487085313E+03  0.47859196758E+03  0.00000000000E+00 0.  1.
          5    1    4    4  501    0  0.96103091650E+02  0.48836134252E+02  0.15240400626E+02  0.10895189050E+03  0.41800000000E+01 0. -1.
         -5    1    4    4    0  501 -0.31939953111E+02  0.15723269323E+01 -0.24827210303E+02  0.40700068650E+02  0.41800000000E+01 0. -1.
</event>
<event>
11    1  0.8299058E-009  0.1851160E+03  0.7561462E-02  0.1065578E+00
         22   -1    0    0    0    0  0.00000000000E+00  0.00000000000E+00  0.52379496554E+02  0.52379496554E+02  0.00000000000E+00 0. -1.
         22   -1    0    0    0    0 -0.00000000000E+00 -0.00000000000E+00 -0.24683199672E+04  0.24683199672E+04  0.00000000000E+00 0.  1.
         24    2    1    2    0    0  0.12012702907E+03  0.64973739633E+02 -0.20316283620E+04  0.20377985719E+04  0.80356260232E+02 0.  0.
         25    2    1    2    0    0 -0.95162931364E+02 -0.10689264091E+03 -0.32876782786E+03  0.37976025289E+03  0.12509014690E+03 0.  0.
        -24    2    1    2    0    0 -0.24964097710E+02  0.41918901278E+02 -0.55544280810E+02  0.10314063895E+03  0.71919564886E+02 0.  0.
        -11    1    3    3    0    0  0.56297297266E+02  0.25499236292E+01 -0.12145968307E+04  0.12159035113E+04  0.00000000000E+00 0.  1.
         12    1    3    3    0    0  0.63829731808E+02  0.62423816003E+02 -0.81703153135E+03  0.82189506063E+03  0.00000000000E+00 0. -1.
         11    1    5    5    0    0  0.22650491438E+02  0.27438534302E+02 -0.13724332580E+02  0.38134960756E+02  0.00000000000E+00 0. -1.
        -12    1    5    5    0    0 -0.47614589148E+02  0.14480366975E+02 -0.41819948230E+02  0.65005678194E+02  0.00000000000E+00 0.  1.
          5    1    4    4  501    0  0.10823187519E+02 -0.78970098072E+02 -0.15324362028E+03  0.17278454020E+03  0.41800000000E+01 0. -1.
         -5    1    4    4    0  501 -0.10598611888E+03 -0.27922542839E+02 -0.17552420759E+03  0.20697571269E+03  0.41800000000E+01 0. -1.
</event>
<event>
11    1  0.8299058E-009  0.4279033E+03  0.7561462E-02  0.9570836E-01
         22   -1    0    0    0    0  0.00000000000E+00  0.00000000000E+00  0.40074943976E+03  0.40074943976E+03  0.00000000000E+00 0.  1.
         22   -1    0    0    0    0 -0.00000000000E+00 -0.00000000000E+00 -0.74076893048E+03  0.74076893048E+03  0.00000000000E+00 0.  1.
         24    2    1    2    0    0 -0.10962967534E+03  0.21228715920E+01 -0.23011548547E+03  0.26725537589E+03  0.80306456694E+02 0.  0.
         25    2    1    2    0    0  0.41773287979E+03 -0.21020769641E+03 -0.97589952094E+02  0.49382137964E+03  0.12509085400E+03 0.  0.
        -24    2    1    2    0    0 -0.30810320444E+03  0.20808482482E+03 -0.12314053159E+02  0.38044161472E+03  0.79732724766E+02 0.  0.
        -11    1    3    3    0    0 -0.93209452665E+02 -0.28885854690E+02 -0.14093719929E+03  0.17142254464E+03  0.00000000000E+00 0.  1.
         12    1    3    3    0    0 -0.16420222679E+02  0.31008726282E+02 -0.89178286179E+02  0.95832831245E+02  0.00000000000E+00 0. -1.
         11    1    5    5    0    0 -0.11481769740E+03  0.10760768581E+03  0.25283582179E+02  0.15937935001E+03  0.00000000000E+00 0. -1.
        -12    1    5    5    0    0 -0.19328550705E+03  0.10047713901E+03 -0.37597635339E+02  0.22106226471E+03  0.00000000000E+00 0.  1.
          5    1    4    4  501    0  0.10117318667E+03 -0.11550386601E+03 -0.33454685843E+02  0.15720637764E+03  0.41800000000E+01 0. -1.
         -5    1    4    4    0  501  0.31655969311E+03 -0.94703830404E+02 -0.64135266251E+02  0.33661500200E+03  0.41800000000E+01 0. -1.
</event>
<event>
11    1  0.8299058E-009  0.6581267E+03  0.7561462E-02  0.9096393E-01
         22   -1    0    0    0    0  0.00000000000E+00  0.00000000000E+00  0.30898625435E+03  0.30898625435E+03  0.00000000000E+00 0. -1.
         22   -1    0    0    0    0 -0.00000000000E+00 -0.00000000000E+00 -0.32900687892E+04  0.32900687892E+04  0.00000000000E+00 0. -1.
        -24    2    1    2    0    0 -0.95265961112E+01  0.32494217817E+02 -0.46090789869E+03  0.46821211306E+03  0.75099011410E+02 0.  0.
         25    2    1    2    0    0  0.56317614615E+03 -0.35861508509E+03 -0.23706992994E+04  0.24660977159E+04  0.12510245779E+03 0.  0.
         24    2    1    2    0    0 -0.55364955004E+03  0.32612086727E+03 -0.14947533674E+03  0.66474521465E+03  0.81612987795E+02 0.  0.
        -11    1    5    5    0    0 -0.81140764698E+01  0.41081406086E+01 -0.14383567136E+02  0.17017698428E+02  0.00000000000E+00 0.  1.
         12    1    5    5    0    0 -0.54553547357E+03  0.32201272666E+03 -0.13509176960E+03  0.64772751622E+03  0.00000000000E+00 0. -1.
         13    1    3    3    0    0 -0.32365165911E+02 -0.75167192747E+01 -0.25854135752E+03  0.26066767844E+03  0.00000000000E+00 0. -1.
        -14    1    3    3    0    0  0.22838569800E+02  0.40010937091E+02 -0.20236654117E+03  0.20754443462E+03  0.00000000000E+00 0.  1.
          5    1    4    4  501    0  0.10349109172E+03 -0.10634701200E+03 -0.67687440299E+03  0.69296213666E+03  0.41800000000E+01 0.  1.
         -5    1    4    4    0  501  0.45968505443E+03 -0.25226807309E+03 -0.16938248965E+04  0.17731355792E+04  0.41800000000E+01 0.  1.
</event>
<event>
11    1  0.8299058E-009  0.1430156E+03  0.7561462E-02  0.1104237E+00
         22   -1    0    0    0    0  0.00000000000E+00  0.00000000000E+00  0.11569791412E+04  0.11569791412E+04  0.00000000000E+00 0.  1.
         22   -1    0    0    0    0 -0.00000000000E+00 -0.00000000000E+00 -0.60315844988E+03  0.60315844988E+03  0.00000000000E+00 0. -1.
         24    2    1    2    0    0 -0.44228087211E+02 -0.16702577877E+02 -0.49166635321E+03  0.50074349535E+03  0.82299121825E+02 0.  0.
         25    2    1    2    0    0  0.11236013189E+03  0.12594640259E+02 -0.36171189794E+02  0.17245157374E+03  0.12509103131E+03 0.  0.
        -24    2    1    2    0    0 -0.68132044679E+02  0.41079376179E+01  0.10816582343E+04  0.10869425220E+04  0.82466111424E+02 0.  0.
        -11    1    3    3    0    0 -0.56905153366E+02  0.16383482100E+02 -0.32531848788E+03  0.33066407957E+03  0.00000000000E+00 0.  1.
         12    1    3    3    0    0  0.12677066155E+02 -0.33086059977E+02 -0.16634786533E+03  0.17007941578E+03  0.00000000000E+00 0. -1.
         13    1    5    5    0    0 -0.55844435715E+01 -0.24821789022E+02  0.11267224827E+03  0.11550905917E+03  0.00000000000E+00 0. -1.
        -14    1    5    5    0    0 -0.62547601108E+02  0.28929726640E+02  0.96898598604E+03  0.97143346279E+03  0.00000000000E+00 0.  1.
          5    1    4    4  501    0  0.98074402297E+02 -0.18794574758E+02 -0.71512084157E+02  0.12289538236E+03  0.41800000000E+01 0. -1.
         -5    1    4    4    0  501  0.14285729594E+02  0.31389215017E+02  0.35340894363E+02  0.49556191377E+02  0.41800000000E+01 0. -1.
</event>
<event>
11    1  0.8299058E-009  0.1349892E+03  0.7561462E-02  0.1113286E+00
         22   -1    0    0    0    0  0.00000000000E+00  0.00000000000E+00  0.85830215227E+02  0.85830215227E+02  0.00000000000E+00 0.  1.
         22   -1    0    0    0    0 -0.00000000000E+00 -0.00000000000E+00 -0.15237621606E+04  0.15237621606E+04  0.00000000000E+00 0. -1.
        -24    2    1    2    0    0  0.44208564083E+02 -0.24192955560E+02 -0.13183945036E+04  0.13218080211E+04  0.80452975463E+02 0.  0.
         25    2    1    2    0    0 -0.48414156713E+02  0.28890651631E+02 -0.14942811287E+03  0.20286360070E+03  0.12508508804E+03 0.  0.
         24    2    1    2    0    0  0.42055926302E+01 -0.46976960706E+01  0.29890671107E+02  0.84920754026E+02  0.79235893933E+02 0.  0.
        -11    1    5    5    0    0  0.23783303470E+02  0.29951609146E+02  0.22710555630E+02  0.44480487311E+02  0.00000000000E+00 0.  1.
         12    1    5    5    0    0 -0.19577710840E+02 -0.34649305217E+02  0.71801154770E+01  0.40440266715E+02  0.00000000000E+00 0. -1.
         13    1    3    3    0    0  0.67256151504E+02 -0.22140658722E+02 -0.90450478572E+03  0.90727201328E+03  0.00000000000E+00 0. -1.
        -14    1    3    3    0    0 -0.23047587421E+02 -0.20522968380E+01 -0.41388971790E+03  0.41453600783E+03  0.00000000000E+00 0.  1.
          5    1    4    4  501    0 -0.41880705079E+02  0.47055000952E+02 -0.16567055020E+03  0.17729176567E+03  0.41800000000E+01 0.  1.
         -5    1    4    4    0  501 -0.65334516337E+01 -0.18164349321E+02  0.16242437325E+02  0.25571835029E+02  0.41800000000E+01 0.  1.
</event>
<event>
11    1  0.8299058E-009  0.1292226E+03  0.7561462E-02  0.1120228E+00
         22   -1    0    0    0    0  0.00000000000E+00  0.00000000000E+00  0.50038175343E+03  0.50038175343E+03  0.00000000000E+00 0. -1.
         22   -1    0    0    0    0 -0.00000000000E+00 -0.00000000000E+00 -0.11941055895E+03  0.11941055895E+03  0.00000000000E+00 0.  1.
         24    2    1    2    0    0 -0.49725139619E+01 -0.35348510042E+02 -0.77695517825E+02  0.11084371574E+03  0.70537172981E+02 0.  0.
         25    2    1    2    0    0 -0.15933155937E+02  0.49920863661E+02  0.25395302243E+03  0.28789844092E+03  0.12508963425E+03 0.  0.
        -24    2    1    2    0    0  0.20905669899E+02 -0.14572353619E+02  0.20471368987E+03  0.22105015571E+03  0.79410805272E+02 0.  0.
        -11    1    3    3    0    0  0.76168818130E+01 -0.49079368596E+02 -0.26351247942E+02  0.56224457120E+02  0.00000000000E+00 0.  1.
         12    1    3    3    0    0 -0.12589395775E+02  0.13730858554E+02 -0.51344269883E+02  0.54619258622E+02  0.00000000000E+00 0. -1.
         13    1    5    5    0    0 -0.22055887712E+02 -0.31692006543E+01  0.14449797858E+03  0.14620592269E+03  0.00000000000E+00 0. -1.
        -14    1    5    5    0    0  0.42961557611E+02 -0.11403152965E+02  0.60215711290E+02  0.74844233018E+02  0.00000000000E+00 0.  1.
          5    1    4    4  501    0  0.32116970056E+02  0.55394180598E+02  0.59604057168E+02  0.87579284312E+02  0.41800000000E+01 0. -1.
         -5    1    4    4    0  501 -0.48050125993E+02 -0.54733169372E+01  0.19434896527E+03  0.20031915661E+03  0.41800000000E+01 0. -1.
</event>
<event>
11    1  0.8299058E-009  0.2154523E+03  0.7561462E-02  0.1044104E+00
         22   -1    0    0    0    0  0.00000000000E+00  0.00000000000E+00  0.49970941607E+03  0.49970941607E+03  0.00000000000E+00 0. -1.
         22   -1    0    0    0    0 -0.00000000000E+00 -0.00000000000E+00 -0.61825748188E+03  0.61825748188E+03  0.00000000000E+00 0. -1.
        -24    2    1    2    0    0 -0.79816217512E+02 -0.14235133874E+03 -0.42146459302E+03  0.45912635553E+03  0.80808879153E+02 0.  0.
         25    2    1    2    0    0  0.10287837943E+03  0.23204966254E+03 -0.48085687287E+02  0.28703866571E+03  0.12509178809E+03 0.  0.
         24    2    1    2    0    0 -0.23062161922E+02 -0.89698323799E+02  0.35100221451E+03  0.37180187671E+03  0.80351903101E+02 0.  0.
        -11    1    5    5    0    0  0.23647661929E+02 -0.11612235507E+02  0.13280348280E+03  0.13539136225E+03  0.00000000000E+00 0.  1.
         12    1    5    5    0    0 -0.46709823852E+02 -0.78086088293E+02  0.21819873171E+03  0.23641051446E+03  0.00000000000E+00 0. -1.
         13    1    3    3    0    0 -0.72484858383E+02 -0.13572740306E+03 -0.42205449835E+03  0.44922820728E+03  0.00000000000E+00 0. -1.
        -14    1    3    3    0    0 -0.73313591289E+01 -0.66239356801E+01  0.58990532375E+00  0.98981482543E+01  0.00000000000E+00 0.  1.
          5    1    4    4  501    0  0.12881959795E+03  0.15760414980E+03 -0.41803057281E+02  0.20784254822E+03  0.41800000000E+01 0.  1.
         -5    1    4    4    0  501 -0.25941218520E+02  0.74445512742E+02 -0.62826300064E+01  0.79196117490E+02  0.41800000000E+01 0.  1.
</event>
<event>
11    1  0.8299058E-009  0.1527982E+03  0.7561462E-02  0.1094053E+00
         22   -1    0    0    0    0  0.00000000000E+00  0.00000000000E+00  0.43474106925E+04  0.43474106925E+04  0.00000000000E+00 0.  1.
         22   -1    0    0    0    0 -0.00000000000E+00 -0.00000000000E+00 -0.52217715736E+02  0.52217715736E+02  0.00000000000E+00 0.  1.
         24    2    1    2    0    0  0.80637078499E+02  0.33106573990E+02  0.24767324673E+02  0.12065338018E+03  0.79658233136E+02 0.  0.
         25    2    1    2    0    0 -0.10885808676E+03 -0.77656100958E+01  0.20258807885E+04  0.20326709386E+04  0.12509111648E+03 0.  0.
        -24    2    1    2    0    0  0.28221008258E+02 -0.25340963894E+02  0.22445448635E+04  0.22463040894E+04  0.80385497157E+02 0.  0.
        -13    1    3    3    0    0  0.46223899536E+02  0.25197440306E+02 -0.26077345602E+02  0.58750215658E+02  0.00000000000E+00 0.  1.
         14    1    3    3    0    0  0.34413178963E+02  0.79091336846E+01  0.50844670275E+02  0.61903164518E+02  0.00000000000E+00 0. -1.
         13    1    5    5    0    0  0.60529469143E+01  0.27679209480E+02  0.10442180480E+04  0.10446023687E+04  0.00000000000E+00 0. -1.
        -14    1    5    5    0    0  0.22168061344E+02 -0.53020173375E+02  0.12003268155E+04  0.12017017208E+04  0.00000000000E+00 0.  1.
          5    1    4    4  501    0  0.12142333044E+02 -0.37161877847E+02  0.63740802615E+03  0.63861953119E+03  0.41800000000E+01 0. -1.
         -5    1    4    4    0  501 -0.12100041980E+03  0.29396267751E+02  0.13884727624E+04  0.13940514074E+04  0.41800000000E+01 0. -1.
</event>
<event>
11    1  0.8299058E-009  0.1302781E+03  0.7561462E-02  0.1118928E+00
         22   -1    0    0    0    0  0.00000000000E+00  0.00000000000E+00  0.22747173598E+03  0.22747173598E+03  0.00000000000E+00 0.  1.
         22   -1    0    0    0    0 -0.00000000000E+00 -0.00000000000E+00 -0.35107253686E+03  0.35107253686E+03  0.00000000000E+00 0.  1.
        -24    2    1    2    0    0  0.26559445028E+02 -0.21534907756E+02 -0.26437224374E+03  0.27853892195E+03  0.80759466399E+02 0.  0.
         25    2    1    2    0    0 -0.40621710500E+02  0.42213149135E+02  0.29641373245E+01  0.13816473822E+03  0.12509450609E+03 0.  0.
         24    2    1    2    0    0  0.14062265472E+02 -0.20678241379E+02  0.13780730553E+03  0.16184061267E+03  0.81093732648E+02 0.  0.
        -13    1    5    5    0    0 -0.30692337828E+02 -0.14774393461E+02  0.31707769621E+02  0.46536920373E+02  0.00000000000E+00 0.  1.
         14    1    5    5    0    0  0.44754603300E+02 -0.59038479176E+01  0.10609953591E+03  0.11530369230E+03  0.00000000000E+00 0. -1.
         13    1    3    3    0    0  0.16632823900E+02  0.21191333447E+02 -0.30954429175E+02  0.41035352194E+02  0.00000000000E+00 0. -1.
        -14    1    3    3    0    0  0.99266211284E+01 -0.42726241203E+02 -0.23341781456E+03  0.23750356976E+03  0.00000000000E+00 0.  1.
          5    1    4    4  501    0 -0.40816526234E+02 -0.38001396937E+02 -0.99700333184E+01  0.56806416427E+02  0.41800000000E+01 0.  1.
         -5    1    4    4    0  501  0.19481573394E+00  0.80214546072E+02  0.12934170643E+02  0.81358321793E+02  0.41800000000E+01 0.  1.
</event>
<event>
11    1  0.1699399E-008  0.2419392E+03  0.7561462E-02  0.1028283E+00
         22   -1    0    0    0    0  0.00000000000E+00  0.00000000000E+00  0.10117771211E+04  0.10117771211E+04  0.00000000000E+00 0. -1.
         22   -1    0    0    0    0 -0.00000000000E+00 -0.00000000000E+00 -0.92909379413E+03  0.92909379413E+03  0.00000000000E+00 0. -1.
        -24    2    1    2    0    0  0.32212857922E+02  0.50551413548E+02 -0.44770958240E+03  0.45885609034E+03  0.80696516905E+02 0.  0.
         25    2    1    2    0    0  0.13426266575E+02 -0.25138994390E+03 -0.42040510454E+03  0.50573269917E+03  0.12509173659E+03 0.  0.
         24    2    1    2    0    0 -0.45639124497E+02  0.20083853035E+03  0.95079801395E+03  0.97628212576E+03  0.81797804363E+02 0.  0.
        -11    1    5    5    0    0 -0.40618126203E+01  0.65554765778E+02  0.48588839251E+03  0.49030751128E+03  0.00000000000E+00 0.  1.
         12    1    5    5    0    0 -0.41577311877E+02  0.13528376457E+03  0.46490962144E+03  0.48597461448E+03  0.00000000000E+00 0. -1.
         11    1    3    3    0    0  0.21370188082E+02  0.47360732753E+02 -0.44389758534E+03  0.44692817121E+03  0.00000000000E+00 0. -1.
        -12    1    3    3    0    0  0.10842669841E+02  0.31906807953E+01 -0.38119970555E+01  0.11927919129E+02  0.00000000000E+00 0.  1.
          5    1    4    4  501    0 -0.22226717399E+02 -0.91649066028E+01 -0.97344882454E+02  0.10035696797E+03  0.41800000000E+01 0.  1.
         -5    1    4    4    0  501  0.35652983973E+02 -0.24222503730E+03 -0.32306022209E+03  0.40537573121E+03  0.41800000000E+01 0.  1.
</event>
<event>
11    1  0.8299058E-009  0.1608134E+03  0.7561462E-02  0.1086315E+00
         22   -1    0    0    0    0  0.00000000000E+00  0.00000000000E+00  0.56623591555E+03  0.56623591555E+03  0.00000000000E+00 0.  1.
         22   -1    0    0    0    0 -0.00000000000E+00 -0.00000000000E+00 -0.68169265579E+03  0.68169265579E+03  0.00000000000E+00 0.  1.
         24    2    1    2    0    0 -0.16548946785E+02 -0.38608225843E+01 -0.61773829524E+03  0.62288262213E+03  0.78060143186E+02 0.  0.
         25    2    1    2    0    0  0.61515996502E+02  0.92513412674E+02  0.82915562951E+02  0.18669395304E+03  0.12504675994E+03 0.  0.
        -24    2    1    2    0    0 -0.44967049716E+02 -0.88652590090E+02  0.41936599205E+03  0.43835199617E+03  0.80020747113E+02 0.  0.
        -13    1    3    3    0    0  0.19929592454E+02  0.11706583477E+02 -0.44704566009E+03  0.44764277606E+03  0.00000000000E+00 0.  1.
         14    1    3    3    0    0 -0.36478539239E+02 -0.15567406061E+02 -0.17069263515E+03  0.17523984607E+03  0.00000000000E+00 0. -1.
         11    1    5    5    0    0 -0.19709149145E+02 -0.15939570879E+02  0.21891628668E+02  0.33492743775E+02  0.00000000000E+00 0. -1.
        -12    1    5    5    0    0 -0.25257900571E+02 -0.72713019210E+02  0.39747436338E+03  0.40485925240E+03  0.00000000000E+00 0.  1.
          5    1    4    4  501    0  0.69866818632E+02  0.15486272103E+02  0.82244240678E+02  0.10909988311E+03  0.41800000000E+01 0. -1.
         -5    1    4    4    0  501 -0.83508221304E+01  0.77027140571E+02  0.67132227292E+00  0.77594069931E+02  0.41800000000E+01 0. -1.
</event>
<event>
11    1  0.8299058E-009  0.1339931E+03  0.7561462E-02  0.1114458E+00
         22   -1    0    0    0    0  0.00000000000E+00  0.00000000000E+00  0.99207332782E+03  0.99207332782E+03  0.00000000000E+00 0.  1.
         22   -1    0    0    0    0 -0.00000000000E+00 -0.00000000000E+00 -0.63956652893E+02  0.63956652893E+02  0.00000000000E+00 0.  1.
         24    2    1    2    0    0 -0.25674581047E+02 -0.34934702957E+02 -0.25170455709E+01  0.90659253779E+02  0.79581073094E+02 0.  0.
         25    2    1    2    0    0 -0.13462935021E+02  0.61740144699E+02  0.34562248306E+03  0.37295528414E+03  0.12509055554E+03 0.  0.
        -24    2    1    2    0    0  0.39137516067E+02 -0.26805441742E+02  0.58501123744E+03  0.59241544280E+03  0.80421589531E+02 0.  0.
        -13    1    3    3    0    0 -0.35286609729E+02 -0.41969994614E+02 -0.28703325030E+02  0.61891082895E+02  0.00000000000E+00 0.  1.
         14    1    3    3    0    0  0.96120286829E+01  0.70352916565E+01  0.26186279460E+02  0.28768170884E+02  0.00000000000E+00 0. -1.
         13    1    5    5    0    0 -0.84544723309E+01  0.22670096034E+02  0.12645231064E+03  0.12874625518E+03  0.00000000000E+00 0. -1.
        -14    1    5    5    0    0  0.47591988398E+02 -0.49475537776E+02  0.45855892681E+03  0.46366918762E+03  0.00000000000E+00 0.  1.
          5    1    4    4  501    0 -0.16296514394E+02 -0.29014321372E+02  0.18829130150E+03  0.19125504921E+03  0.41800000000E+01 0.  1.
         -5    1    4    4    0  501  0.28335793738E+01  0.90754466071E+02  0.15733118156E+03  0.18170023493E+03  0.41800000000E+01 0.  1.
</event>
<event>
11    1  0.8299058E-009  0.1812068E+03  0.7561462E-02  0.1068671E+00
         22   -1    0    0    0    0  0.00000000000E+00  0.00000000000E+00  0.23689225958E+04  0.23689225958E+04  0.00000000000E+00 0. -1.
         22   -1    0    0    0    0 -0.00000000000E+00 -0.00000000000E+00 -0.10454486799E+03  0.10454486799E+03  0.00000000000E+00 0. -1.
         24    2    1    2    0    0 -0.25166613738E+02 -0.19071024273E+02 -0.29681355045E+02  0.89179587880E+02  0.77941988962E+02 0.  0.
         25    2    1    2    0    0  0.11999316259E+03 -0.70973906188E+02  0.16531238262E+03  0.24982136330E+03  0.12508747054E+03 0.  0.
        -24    2    1    2    0    0 -0.94826548848E+02  0.90044930461E+02  0.21287467002E+04  0.21344665126E+04  0.85349961040E+02 0.  0.
        -11    1    3    3    0    0  0.22119989283E+02  0.96469099117E+01  0.39238179046E+01  0.24448990648E+02  0.00000000000E+00 0.  1.
         12    1    3    3    0    0 -0.47286603021E+02 -0.28717934185E+02 -0.33605172950E+02  0.64730597233E+02  0.00000000000E+00 0. -1.
         13    1    5    5    0    0 -0.98903375020E+02  0.46853680567E+02  0.13062833088E+04  0.13108597285E+04  0.00000000000E+00 0. -1.
        -14    1    5    5    0    0  0.40768261719E+01  0.43191249894E+02  0.82246339139E+03  0.82360678406E+03  0.00000000000E+00 0.  1.
          5    1    4    4  501    0 -0.13547485388E+02 -0.33289138549E+02  0.30952565073E+01  0.36314654322E+02  0.41800000000E+01 0.  1.
         -5    1    4    4    0  501  0.13354064797E+03 -0.37684767639E+02  0.16221712612E+03  0.21350670898E+03  0.41800000000E+01 0.  1.
</event>
<event>
11    1  0.8299058E-009  0.1624577E+03  0.7561462E-02  0.1084788E+00
         22   -1    0    0    0    0  0.00000000000E+00  0.00000000000E+00  0.18464692730E+03  0.18464692730E+03  0.00000000000E+00 0. -1.
         22   -1    0    0    0    0 -0.00000000000E+00 -0.00000000000E+00 -0.15045955752E+04  0.15045955752E+04  0.00000000000E+00 0. -1.
        -24    2    1    2    0    0 -0.15731723423E+02 -0.26670512476E+02 -0.96738052520E+03  0.97121829268E+03  0.80505205735E+02 0.  0.
         25    2    1    2    0    0 -0.87965667744E+02  0.13289923948E+02 -0.49818422758E+03  0.52129652488E+03  0.12509181211E+03 0.  0.
         24    2    1    2    0    0  0.10369739117E+03  0.13380588528E+02  0.14561610486E+03  0.19672768496E+03  0.81028038069E+02 0.  0.
        -11    1    5    5    0    0  0.29749246195E+02 -0.28864188885E+02  0.22902209578E+02  0.47356839555E+02  0.00000000000E+00 0.  1.
         12    1    5    5    0    0  0.73948144972E+02  0.42244777413E+02  0.12271389528E+03  0.14937084541E+03  0.00000000000E+00 0. -1.
         13    1    3    3    0    0 -0.30922499945E+02 -0.45363964881E+02 -0.82414009752E+03  0.82596670069E+03  0.00000000000E+00 0. -1.
        -14    1    3    3    0    0  0.15190776521E+02  0.18693452405E+02 -0.14324042768E+03  0.14525159199E+03  0.00000000000E+00 0.  1.
          5    1    4    4  501    0 -0.19735137637E+02  0.64416623979E+02 -0.24378077841E+03  0.25295358749E+03  0.41800000000E+01 0. -1.
         -5    1    4    4    0  501 -0.68230530107E+02 -0.51126700031E+02 -0.25440344917E+03  0.26834293738E+03  0.41800000000E+01 0. -1.
</event>
<event>
11    1  0.8299058E-009  0.1513443E+03  0.7561462E-02  0.1095513E+00
         22   -1    0    0    0    0  0.00000000000E+00  0.00000000000E+00  0.57828523543E+03  0.57828523543E+03  0.00000000000E+00 0. -1.
         22   -1    0    0    0    0 -0.00000000000E+00 -0.00000000000E+00 -0.55089928150E+03  0.55089928150E+03  0.00000000000E+00 0. -1.
        -24    2    1    2    0    0  0.30574623009E+02  0.77249251816E+02 -0.41739979570E+03  0.43425326318E+03  0.86319480152E+02 0.  0.
         25    2    1    2    0    0 -0.10109529659E+03 -0.64878559049E+02 -0.56385911601E+02  0.18236510309E+03  0.12509265918E+03 0.  0.
         24    2    1    2    0    0  0.70520673581E+02 -0.12370692767E+02  0.50117166123E+03  0.51256615067E+03  0.80155008234E+02 0.  0.
        -11    1    5    5    0    0 -0.15195252933E+02 -0.15325123899E+02  0.11112127103E+03  0.11319757952E+03  0.00000000000E+00 0.  1.
         12    1    5    5    0    0  0.85715926514E+02  0.29544311324E+01  0.39005039020E+03  0.39936857115E+03  0.00000000000E+00 0. -1.
         13    1    3    3    0    0  0.28033182745E+02  0.89851555811E+02 -0.40692943715E+03  0.41767299199E+03  0.00000000000E+00 0. -1.
        -14    1    3    3    0    0  0.25414402636E+01 -0.12602303996E+02 -0.10470358547E+02  0.16580271189E+02  0.00000000000E+00 0.  1.
          5    1    4    4  501    0 -0.11298299655E+03 -0.45529432209E+02 -0.48651568900E+00  0.12188435422E+03  0.41800000000E+01 0.  1.
         -5    1    4    4    0  501  0.11887699962E+02 -0.19349126840E+02 -0.55899395912E+02  0.60480748864E+02  0.41800000000E+01 0.  1.
</event>
<event>
11    1  0.8299058E-009  0.1658161E+03  0.7561462E-02  0.1081731E+00
         22   -1    0    0    0    0  0.00000000000E+00  0.00000000000E+00  0.44389132497E+03  0.44389132497E+03  0.00000000000E+00 0.  1.
         22   -1    0    0    0    0 -0.00000000000E+00 -0.00000000000E+00 -0.62129904205E+03  0.62129904205E+03  0.00000000000E+00 0.  1.
        -24    2    1    2    0    0  0.58161319580E+02 -0.92525197856E+02 -0.52794164400E+03  0.54498261572E+03  0.79624246541E+02 0.  0.
         25    2    1    2    0    0 -0.97780139354E+02  0.60284330739E+02  0.13945442078E+02  0.17040294751E+03  0.12509009945E+03 0.  0.
         24    2    1    2    0    0  0.39618819774E+02  0.32240867117E+02  0.33658848483E+03  0.34980480379E+03  0.80389478428E+02 0.  0.
        -11    1    5    5    0    0  0.74972901574E+01  0.36194619622E+02  0.29400061515E+03  0.29631507144E+03  0.00000000000E+00 0.  1.
         12    1    5    5    0    0  0.32121529617E+02 -0.39537525050E+01  0.42587869677E+02  0.53489732355E+02  0.00000000000E+00 0. -1.
         11    1    3    3    0    0  0.35708970607E+02 -0.20916493403E+02 -0.73185627012E+02  0.84075955417E+02  0.00000000000E+00 0. -1.
        -12    1    3    3    0    0  0.22452348973E+02 -0.71608704453E+02 -0.45475601698E+03  0.46090666030E+03  0.00000000000E+00 0.  1.
          5    1    4    4  501    0 -0.35445555080E+02 -0.18009566737E+02  0.49936971800E+02  0.63968003108E+02  0.41800000000E+01 0. -1.
         -5    1    4    4    0  501 -0.62334584274E+02  0.78293897476E+02 -0.35991529722E+02  0.10643494440E+03  0.41800000000E+01 0. -1.
</event>
<event>
11    1  0.8299058E-009  0.1662862E+03  0.7561462E-02  0.1081309E+00
         22   -1    0    0    0    0  0.00000000000E+00  0.00000000000E+00  0.15020073888E+03  0.15020073888E+03  0.00000000000E+00 0. -1.
         22   -1    0    0    0    0 -0.00000000000E+00 -0.00000000000E+00 -0.10429539886E+04  0.10429539886E+04  0.00000000000E+00 0.  1.
         24    2    1    2    0    0 -0.28035036683E+02 -0.37821434017E+02 -0.71865962782E+03  0.72472130535E+03  0.80826268102E+02 0.  0.
         25    2    1    2    0    0  0.11325069490E+02  0.14191428008E+03 -0.24979178758E+03  0.31354714918E+03  0.12509179639E+03 0.  0.
        -24    2    1    2    0    0  0.16709967193E+02 -0.10409284607E+03  0.75698165664E+02  0.15488627296E+03  0.84528111664E+02 0.  0.
        -11    1    3    3    0    0  0.10356816014E+02 -0.19540501771E+02 -0.56077172138E+03  0.56120764281E+03  0.00000000000E+00 0.  1.
         12    1    3    3    0    0 -0.38391852698E+02 -0.18280932246E+02 -0.15788790645E+03  0.16351366255E+03  0.00000000000E+00 0. -1.
         11    1    5    5    0    0 -0.16419508173E+02 -0.80052170101E+02  0.79203871414E+02  0.11380335423E+03  0.00000000000E+00 0. -1.
        -12    1    5    5    0    0  0.33129475366E+02 -0.24040675964E+02 -0.35057057501E+01  0.41082918734E+02  0.00000000000E+00 0.  1.
          5    1    4    4  501    0  0.47814945167E+02  0.35241970470E+02 -0.15550763445E+03  0.16651835405E+03  0.41800000000E+01 0. -1.
         -5    1    4    4    0  501 -0.36489875676E+02  0.10667230961E+03 -0.94284153131E+02  0.14702879513E+03  0.41800000000E+01 0. -1.
</event>
<event>
11    1  0.8299058E-009  0.1391244E+03  0.7561462E-02  0.1108540E+00
         22   -1    0    0    0    0  0.00000000000E+00  0.00000000000E+00  0.18364179157E+03  0.18364179157E+03  0.00000000000E+00 0.  1.
         22   -1    0    0    0    0 -0.00000000000E+00 -0.00000000000E+00 -0.15435298663E+04  0.15435298663E+04  0.00000000000E+00 0.  1.
        -24    2    1    2    0    0 -0.63164581200E+02 -0.20087202176E+02 -0.12386975069E+04  0.12430632180E+04  0.80258273005E+02 0.  0.
         25    2    1    2    0    0  0.24314226625E+02  0.10224779457E+02 -0.27740760095E+03  0.30544794593E+03  0.12509093843E+03 0.  0.
         24    2    1    2    0    0  0.38850354576E+02  0.98624227194E+01  0.15621703309E+03  0.17866049394E+03  0.76871277045E+02 0.  0.
        -13    1    5    5    0    0  0.56483454937E+02 -0.10878838412E+02  0.87146824813E+02  0.10441886267E+03  0.00000000000E+00 0.  1.
         14    1    5    5    0    0 -0.17633100361E+02  0.20741261132E+02  0.69070208280E+02  0.74241631270E+02  0.00000000000E+00 0. -1.
         11    1    3    3    0    0  0.17390773583E+02  0.13241657507E+00 -0.11583328098E+03  0.11713157355E+03  0.00000000000E+00 0. -1.
        -12    1    3    3    0    0 -0.80555354783E+02 -0.20219618751E+02 -0.11228642259E+04  0.11259316445E+04  0.00000000000E+00 0.  1.
          5    1    4    4  501    0 -0.26919517091E+02 -0.41218475372E+02 -0.70158925374E+02  0.85810082869E+02  0.41800000000E+01 0. -1.
         -5    1    4    4    0  501  0.51233743716E+02  0.51443254829E+02 -0.20724867557E+03  0.21963786306E+03  0.41800000000E+01 0. -1.
</event>
<event>
11    1  0.8299058E-009  0.1581876E+03  0.7561462E-02  0.1088794E+00
         22   -1    0    0    0    0  0.00000000000E+00  0.00000000000E+00  0.17721570468E+04  0.17721570468E+04  0.00000000000E+00 0. -1.
         22   -1    0    0    0    0 -0.00000000000E+00 -0.00000000000E+00 -0.18977911701E+03  0.18977911701E+03  0.00000000000E+00 0. -1.
         24    2    1    2    0    0  0.50486355684E+02 -0.73921301599E+02 -0.85471344384E+02  0.14732646577E+03  0.79915617160E+02 0.  0.
         25    2    1    2    0    0 -0.65162482380E+00  0.14586269274E+03  0.58545934126E+02  0.20087616581E+03  0.12508899968E+03 0.  0.
        -24    2    1    2    0    0 -0.49834730860E+02 -0.71941391141E+02  0.16093033401E+04  0.16137335322E+04  0.81360976778E+02 0.  0.
        -11    1    3    3    0    0 -0.48026461823E+01  0.15458411700E+01 -0.45188623510E+02  0.45469404329E+02  0.00000000000E+00 0.  1.
         12    1    3    3    0    0  0.55289001866E+02 -0.75467142769E+02 -0.40282720874E+02  0.10185706144E+03  0.00000000000E+00 0. -1.
         13    1    5    5    0    0 -0.64734998650E+02 -0.61896127422E+02  0.15202038132E+04  0.15228399076E+04  0.00000000000E+00 0. -1.
        -14    1    5    5    0    0  0.14900267790E+02 -0.10045263719E+02  0.89099526905E+02  0.90893624628E+02  0.00000000000E+00 0.  1.
          5    1    4    4  501    0 -0.41279105904E+02  0.14352523426E+03  0.34183869268E+02  0.15326273772E+03  0.41800000000E+01 0. -1.
         -5    1    4    4    0  501  0.40627481081E+02  0.23374584776E+01  0.24362064857E+02  0.47613428098E+02  0.41800000000E+01 0. -1.
</event>
<event>
11    1  0.8299058E-009  0.6124435E+03  0.7561462E-02  0.9172318E-01
         22   -1    0    0    0    0  0.00000000000E+00  0.00000000000E+00  0.13612057500E+04  0.13612057500E+04  0.00000000000E+00 0.  1.
         22   -1    0    0    0    0 -0.00000000000E+00 -0.00000000000E+00 -0.57901946923E+03  0.57901946923E+03  0.00000000000E+00 0. -1.
         24    2    1    2    0    0 -0.82460109875E+02 -0.73634312322E+01 -0.29489188906E+02  0.11967617828E+03  0.81233524756E+02 0.  0.
         25    2    1    2    0    0 -0.24528071169E+03 -0.50456026111E+03 -0.22429285804E+03  0.61700816831E+03  0.12509240175E+03 0.  0.
        -24    2    1    2    0    0  0.32774082157E+03  0.51192369234E+03  0.10359683277E+04  0.12035408726E+04  0.76159984192E+02 0.  0.
        -13    1    3    3    0    0 -0.49004563605E+02 -0.43840835515E+02 -0.10130461624E+02  0.66528883694E+02  0.00000000000E+00 0.  1.
         14    1    3    3    0    0 -0.33455546269E+02  0.36477404283E+02 -0.19358727283E+02  0.53147294582E+02  0.00000000000E+00 0. -1.
         11    1    5    5    0    0  0.10592420168E+03  0.20323334615E+03  0.45149050978E+03  0.50632737425E+03  0.00000000000E+00 0. -1.
        -12    1    5    5    0    0  0.22181661988E+03  0.30869034619E+03  0.58447781791E+03  0.69721349838E+03  0.00000000000E+00 0.  1.
          5    1    4    4  501    0 -0.21472654785E+02 -0.72436267150E+01 -0.30502167696E+02  0.38228257423E+02  0.41800000000E+01 0. -1.
         -5    1    4    4    0  501 -0.22380805691E+03 -0.49731663440E+03 -0.19379069034E+03  0.57877991089E+03  0.41800000000E+01 0. -1.
</event>
<event>
11    1  0.8299058E-009  0.1357214E+03  0.7561462E-02  0.1112432E+00
         22   -1    0    0    0    0  0.00000000000E+00  0.00000000000E+00  0.13933244531E+04  0.13933244531E+04  0.00000000000E+00 0.  1.
         22   -1    0    0    0    0 -0.00000000000E+00 -0.00000000000E+00 -0.44702473931E+02  0.44702473931E+02  0.00000000000E+00 0. -1.
         24    2    1    2    0    0 -0.32919298326E+00 -0.53240073440E+02  0.34708864534E+02  0.10369769112E+03  0.81938343147E+02 0.  0.
         25    2    1    2    0    0  0.10685346926E+02  0.47845947004E+02  0.54013353673E+03  0.55659250803E+03  0.12509025227E+03 0.  0.
        -24    2    1    2    0    0 -0.10356153943E+02  0.53941264359E+01  0.77377957795E+03  0.77773672793E+03  0.77480553634E+02 0.  0.
        -11    1    3    3    0    0  0.73093023665E+01  0.69047391234E+01  0.41490662580E+02  0.42691643266E+02  0.00000000000E+00 0.  1.
         12    1    3    3    0    0 -0.76384953498E+01 -0.60144812563E+02 -0.67817980459E+01  0.61006047849E+02  0.00000000000E+00 0. -1.
         13    1    5    5    0    0  0.11370147694E+02 -0.24472462341E+02  0.12371270672E+03  0.12662154428E+03  0.00000000000E+00 0. -1.
        -14    1    5    5    0    0 -0.21726301637E+02  0.29866588776E+02  0.65006687123E+03  0.65111518365E+03  0.00000000000E+00 0.  1.
          5    1    4    4  501    0 -0.50157821812E+02  0.20191151395E+02  0.12739985270E+03  0.13846185233E+03  0.41800000000E+01 0. -1.
         -5    1    4    4    0  501  0.60843168738E+02  0.27654795608E+02  0.41273368403E+03  0.41813065570E+03  0.41800000000E+01 0. -1.
</event>
<event>
11    1  0.8299058E-009  0.1315512E+03  0.7561462E-02  0.1117378E+00
         22   -1    0    0    0    0  0.00000000000E+00  0.00000000000E+00  0.13973512879E+04  0.13973512879E+04  0.00000000000E+00 0.  1.
         22   -1    0    0    0    0 -0.00000000000E+00 -0.00000000000E+00 -0.13736334527E+03  0.13736334527E+03  0.00000000000E+00 0.  1.
         24    2    1    2    0    0 -0.27175604380E+02 -0.47956581093E+01 -0.10169780472E+03  0.13246839179E+03  0.80274027739E+02 0.  0.
         25    2    1    2    0    0  0.49028073774E+02  0.37154311544E+02  0.24411097581E+03  0.28110084042E+03  0.12507325489E+03 0.  0.
        -24    2    1    2    0    0 -0.21852469394E+02 -0.32358653435E+02  0.11175747715E+04  0.11211454009E+04  0.80430263227E+02 0.  0.
        -11    1    3    3    0    0 -0.40761620755E+02  0.14316081778E+02 -0.10002964351E+03  0.10896049516E+03  0.00000000000E+00 0.  1.
         12    1    3    3    0    0  0.13586016375E+02 -0.19111739888E+02 -0.16681612100E+01  0.23507896637E+02  0.00000000000E+00 0. -1.
         13    1    5    5    0    0 -0.48666460291E+02 -0.17197834936E+02  0.46740340927E+03  0.47024476274E+03  0.00000000000E+00 0. -1.
        -14    1    5    5    0    0  0.26813990897E+02 -0.15160818499E+02  0.65017136223E+03  0.65090063819E+03  0.00000000000E+00 0.  1.
          5    1    4    4  501    0  0.47709398280E+02  0.70693544845E+02  0.93017216585E+02  0.12626733128E+03  0.41800000000E+01 0. -1.
         -5    1    4    4    0  501  0.13186754939E+01 -0.33539233301E+02  0.15109375923E+03  0.15483350914E+03  0.41800000000E+01 0. -1.
</event>
<event>
11    1  0.8299058E-009  0.2464576E+03  0.7561462E-02  0.1025803E+00
         22   -1    0    0    0    0  0.00000000000E+00  0.00000000000E+00  0.24182482103E+03  0.24182482103E+03  0.00000000000E+00 0. -1.
         22   -1    0    0    0    0 -0.00000000000E+00 -0.00000000000E+00 -0.13056647412E+04  0.13056647412E+04  0.00000000000E+00 0. -1.
        -24    2    1    2    0    0 -0.12234360190E+02 -0.91058555559E+02 -0.95152410448E+03  0.95922295387E+03  0.79178366448E+02 0.  0.
         25    2    1    2    0    0  0.34248704975E+00 -0.14013284330E+03 -0.24519698218E+03  0.30887848357E+03  0.12508807487E+03 0.  0.
         24    2    1    2    0    0  0.11891873140E+02  0.23119139886E+03  0.13288116645E+03  0.27938812482E+03  0.82519333122E+02 0.  0.
        -13    1    5    5    0    0 -0.23365209022E+02  0.17647329274E+02  0.17662566188E+02  0.34195430506E+02  0.00000000000E+00 0.  1.
         14    1    5    5    0    0  0.35257082162E+02  0.21354406958E+03  0.11521860026E+03  0.24519269431E+03  0.00000000000E+00 0. -1.
         11    1    3    3    0    0 -0.39872237457E+02 -0.61392793071E+02 -0.75620273293E+03  0.75973774663E+03  0.00000000000E+00 0. -1.
        -12    1    3    3    0    0  0.27637877267E+02 -0.29665762488E+02 -0.19532137155E+03  0.19948520724E+03  0.00000000000E+00 0.  1.
          5    1    4    4  501    0  0.24637112081E+02  0.13734892098E+02 -0.62857401975E+02  0.69022894287E+02  0.41800000000E+01 0.  1.
         -5    1    4    4    0  501 -0.24294625032E+02 -0.15386773540E+03 -0.18233958020E+03  0.23985558928E+03  0.41800000000E+01 0.  1.
</event>
<event>
11    1  0.8299058E-009  0.1521845E+03  0.7561462E-02  0.1094667E+00
         22   -1    0    0    0    0  0.00000000000E+00  0.00000000000E+00  0.62616672816E+03  0.62616672816E+03  0.00000000000E+00 0. -1.
         22   -1    0    0    0    0 -0.00000000000E+00 -0.00000000000E+00 -0.32294900625E+04  0.32294900625E+04  0.00000000000E+00 0. -1.
         24    2    1    2    0    0 -0.15365538574E+02  0.37093410768E+01 -0.15694036752E+04  0.15715201979E+04  0.79987360734E+02 0.  0.
         25    2    1    2    0    0  0.51815267261E+01 -0.89779097556E+02 -0.16499643373E+04  0.16571411448E+04  0.12508926776E+03 0.  0.
        -24    2    1    2    0    0  0.10184011848E+02  0.86069756479E+02  0.61604467811E+03  0.62699544794E+03  0.78105884794E+02 0.  0.
        -13    1    3    3    0    0  0.28302663144E+02 -0.79514310803E+01 -0.95674143972E+03  0.95719300482E+03  0.00000000000E+00 0.  1.
         14    1    3    3    0    0 -0.43668201717E+02  0.11660772157E+02 -0.61266223543E+03  0.61432719309E+03  0.00000000000E+00 0. -1.
         11    1    5    5    0    0 -0.13926198964E+02  0.85163683450E+02  0.37769888733E+03  0.38743159588E+03  0.00000000000E+00 0. -1.
        -12    1    5    5    0    0  0.24110210812E+02  0.90607302890E+00  0.23834579078E+03  0.23956385206E+03  0.00000000000E+00 0.  1.
          5    1    4    4  501    0  0.27787295281E+02 -0.11512040960E+03 -0.11809539120E+04  0.11868843487E+04  0.41800000000E+01 0.  1.
         -5    1    4    4    0  501 -0.22605768555E+02  0.25341312048E+02 -0.46901042529E+03  0.47025679612E+03  0.41800000000E+01 0.  1.
</event>
<event>
11    1  0.8299058E-009  0.1651684E+03  0.7561462E-02  0.1082314E+00
         22   -1    0    0    0    0  0.00000000000E+00  0.00000000000E+00  0.18082438502E+04  0.18082438502E+04  0.00000000000E+00 0. -1.
         22   -1    0    0    0    0 -0.00000000000E+00 -0.00000000000E+00 -0.24726251737E+03  0.24726251737E+03  0.00000000000E+00 0.  1.
         24    2    1    2    0    0  0.40263844361E+02 -0.22752918189E+02 -0.19308096713E+03  0.21396620579E+03  0.79764684572E+02 0.  0.
         25    2    1    2    0    0 -0.11527941312E+03 -0.53626527699E+02  0.15322375507E+03  0.23513900315E+03  0.12509070359E+03 0.  0.
        -24    2    1    2    0    0  0.75015568756E+02  0.76379445888E+02  0.16008385449E+04  0.16064011586E+04  0.79871649046E+02 0.  0.
        -13    1    3    3    0    0 -0.59066123967E+01 -0.61435355555E+00 -0.14031352467E+03  0.14043913523E+03  0.00000000000E+00 0.  1.
         14    1    3    3    0    0  0.46170456757E+02 -0.22138564633E+02 -0.52767442463E+02  0.73527070561E+02  0.00000000000E+00 0. -1.
         11    1    5    5    0    0  0.73275277506E+02  0.83688121960E+02  0.11212940893E+04  0.11267978535E+04  0.00000000000E+00 0. -1.
        -12    1    5    5    0    0  0.17402912503E+01 -0.73086760721E+01  0.47954445561E+03  0.47960330510E+03  0.00000000000E+00 0.  1.
          5    1    4    4  501    0 -0.17705654148E+02  0.37340651851E+02  0.57330082174E+02  0.70795657999E+02  0.41800000000E+01 0. -1.
         -5    1    4    4    0  501 -0.97573758969E+02 -0.90967179549E+02  0.95893672897E+02  0.16434334515E+03  0.41800000000E+01 0. -1.
</event>
<event>
11    1  0.8299058E-009  0.9943437E+03  0.7561462E-02  0.8684413E-01
         22   -1    0    0    0    0  0.00000000000E+00  0.00000000000E+00  0.77726339678E+03  0.77726339678E+03  0.00000000000E+00 0.  1.
         22   -1    0    0    0    0 -0.00000000000E+00 -0.00000000000E+00 -0.27888735039E+04  0.27888735039E+04  0.00000000000E+00 0.  1.
         24    2    1    2    0    0 -0.42488620975E+03 -0.25723881639E+03 -0.10439037238E+04  0.11585240031E+04  0.75781140046E+02 0.  0.
         25    2    1    2    0    0 -0.29569254736E+03  0.96873764917E+03 -0.94613181586E+03  0.13916537030E+04  0.12509156894E+03 0.  0.
        -24    2    1    2    0    0  0.72057875712E+03 -0.71149883278E+03 -0.21574567399E+02  0.10159591946E+04  0.79014484780E+02 0.  0.
        -13    1    3    3    0    0 -0.16019754921E+03 -0.62510333302E+02 -0.40731838664E+03  0.44213014446E+03  0.00000000000E+00 0.  1.
         14    1    3    3    0    0 -0.26468866054E+03 -0.19472848308E+03 -0.63658533720E+03  0.71639385863E+03  0.00000000000E+00 0. -1.
         13    1    5    5    0    0  0.33928975435E+02 -0.60593298580E+02  0.29623918236E+01  0.69508984830E+02  0.00000000000E+00 0. -1.
        -14    1    5    5    0    0  0.68664978168E+03 -0.65090553420E+03 -0.24536959223E+02  0.94645020973E+03  0.00000000000E+00 0.  1.
          5    1    4    4  501    0 -0.29273353968E+03  0.87852628634E+03 -0.89494140284E+03  0.12878039245E+04  0.41800000000E+01 0.  1.
         -5    1    4    4    0  501 -0.29590076843E+01  0.90211362829E+02 -0.51190413018E+02  0.10384977850E+03  0.41800000000E+01 0.  1.
</event>
<event>
11    1  0.8299058E-009  0.1350850E+03  0.7561462E-02  0.1113174E+00
         22   -1    0    0    0    0  0.00000000000E+00  0.00000000000E+00  0.11361024861E+03  0.11361024861E+03  0.00000000000E+00 0. -1.
         22   -1    0    0    0    0 -0.00000000000E+00 -0.00000000000E+00 -0.68772575788E+03  0.68772575788E+03  0.00000000000E+00 0.  1.
         24    2    1    2    0    0  0.48226064983E+02 -0.33854508215E+02 -0.42636923911E+03  0.43766851564E+03  0.79316583705E+02 0.  0.
         25    2    1    2    0    0  0.44241423768E+01  0.11306852259E+02 -0.21040575224E+03  0.24508415390E+03  0.12509294133E+03 0.  0.
        -24    2    1    2    0    0 -0.52650207360E+02  0.22547655956E+02  0.62659482083E+02  0.11858333695E+03  0.82797077146E+02 0.  0.
        -13    1    3    3    0    0  0.63526440045E+02 -0.99205549687E+01 -0.21527855781E+03  0.22467506192E+03  0.00000000000E+00 0.  1.
         14    1    3    3    0    0 -0.15300375062E+02 -0.23933953246E+02 -0.21109068130E+03  0.21299345372E+03  0.00000000000E+00 0. -1.
         13    1    5    5    0    0 -0.52154248759E+02 -0.46583238444E-02  0.76151155570E+02  0.92298776698E+02  0.00000000000E+00 0. -1.
        -14    1    5    5    0    0 -0.49595860098E+00  0.22552314280E+02 -0.13491673487E+02  0.26284560255E+02  0.00000000000E+00 0.  1.
          5    1    4    4  501    0  0.31584254294E+02  0.20737689287E+02 -0.21257772398E+03  0.21594994329E+03  0.41800000000E+01 0.  1.
         -5    1    4    4    0  501 -0.27160111917E+02 -0.94308370283E+01  0.21719717325E+01  0.29134210606E+02  0.41800000000E+01 0.  1.
</event>
<event>
11    1  0.1092834E-008  0.1469833E+03  0.7561462E-02  0.1100002E+00
         22   -1    0    0    0    0  0.00000000000E+00  0.00000000000E+00  0.10660032215E+04  0.10660032215E+04  0.00000000000E+00 0.  1.
         22   -1    0    0    0    0 -0.00000000000E+00 -0.00000000000E+00 -0.67953085806E+03  0.67953085806E+03  0.00000000000E+00 0.  1.
        -24    2    1    2    0    0  0.24945412168E+02  0.31243921849E+02 -0.36266991897E+03  0.37366271590E+03  0.80597139447E+02 0.  0.
         25    2    1    2    0    0 -0.48915362008E+02 -0.10421646939E+03 -0.28487280131E+03  0.33174418166E+03  0.12509158248E+03 0.  0.
         24    2    1    2    0    0  0.23969949840E+02  0.72972547537E+02  0.10340150837E+04  0.10401271820E+04  0.82327457129E+02 0.  0.
        -11    1    5    5    0    0  0.28774032117E+02  0.49764805822E+02  0.97260948356E+03  0.97430677322E+03  0.00000000000E+00 0.  1.
         12    1    5    5    0    0 -0.48040822772E+01  0.23207741716E+02  0.61405600131E+02  0.65820408762E+02  0.00000000000E+00 0. -1.
         11    1    3    3    0    0  0.52622812339E+02  0.23970269864E+02 -0.18890744985E+03  0.19755950704E+03  0.00000000000E+00 0. -1.
        -12    1    3    3    0    0 -0.27677400171E+02  0.72736519848E+01 -0.17376246912E+03  0.17610320885E+03  0.00000000000E+00 0.  1.
          5    1    4    4  501    0 -0.70650278727E+02 -0.54657022391E+02 -0.25404431184E+03  0.26932292283E+03  0.41800000000E+01 0. -1.
         -5    1    4    4    0  501  0.21734916719E+02 -0.49559446995E+02 -0.30828489465E+02  0.62421258830E+02  0.41800000000E+01 0. -1.
</event>
<event>
11    1  0.8299058E-009  0.3118655E+03  0.7561462E-02  0.9952909E-01
         22   -1    0    0    0    0  0.00000000000E+00  0.00000000000E+00  0.47397952715E+03  0.47397952715E+03  0.00000000000E+00 0.  1.
         22   -1    0    0    0    0 -0.00000000000E+00 -0.00000000000E+00 -0.13454233388E+04  0.13454233388E+04  0.00000000000E+00 0.  1.
         24    2    1    2    0    0  0.19067203176E+03 -0.14816521650E+03 -0.41154374490E+03  0.48386448040E+03  0.80298358315E+02 0.  0.
         25    2    1    2    0    0 -0.28753384620E+03  0.16203052727E+03 -0.85297310266E+03  0.92311397283E+03  0.12508672388E+03 0.  0.
        -24    2    1    2    0    0  0.96861814443E+02 -0.13865310764E+02  0.39307303591E+03  0.41242441274E+03  0.77543708467E+02 0.  0.
        -11    1    3    3    0    0  0.13758605720E+03 -0.65316768374E+02 -0.28927974203E+03  0.32692349643E+03  0.00000000000E+00 0.  1.
         12    1    3    3    0    0  0.53085974559E+02 -0.82848448128E+02 -0.12226400287E+03  0.15694098397E+03  0.00000000000E+00 0. -1.
         11    1    5    5    0    0  0.41151509398E+02  0.18922464694E+02  0.26627084340E+03  0.27009566535E+03  0.00000000000E+00 0. -1.
        -12    1    5    5    0    0  0.55710305045E+02 -0.32787775457E+02  0.12680219251E+03  0.14232874739E+03  0.00000000000E+00 0.  1.
          5    1    4    4  501    0 -0.44091846242E+02  0.12057755737E+02 -0.26896226634E+03  0.27285097304E+03  0.41800000000E+01 0.  1.
         -5    1    4    4    0  501 -0.24344199996E+03  0.14997277153E+03 -0.58401083632E+03  0.65026299978E+03  0.41800000000E+01 0.  1.
</event>
<event>
11    1  0.8299058E-009  0.1308555E+03  0.7561462E-02  0.1118222E+00
         22   -1    0    0    0    0  0.00000000000E+00  0.00000000000E+00  0.10478748967E+04  0.10478748967E+04  0.00000000000E+00 0. -1.
         22   -1    0    0    0    0 -0.00000000000E+00 -0.00000000000E+00 -0.22888127267E+03  0.22888127267E+03  0.00000000000E+00 0. -1.
        -24    2    1    2    0    0 -0.28670688266E+02 -0.29878168363E+02 -0.17824567434E+03  0.19997592096E+03  0.80648219037E+02 0.  0.
         25    2    1    2    0    0  0.24545633769E+02 -0.12948829490E+02  0.71599708988E+02  0.14677529978E+03  0.12508521086E+03 0.  0.
         24    2    1    2    0    0  0.41250544978E+01  0.42826997853E+02  0.92563958935E+03  0.93000494860E+03  0.79053065966E+02 0.  0.
        -11    1    5    5    0    0  0.20226504192E+02 -0.17627107676E+02  0.33000672090E+03  0.33109554850E+03  0.00000000000E+00 0.  1.
         12    1    5    5    0    0 -0.16101449694E+02  0.60454105529E+02  0.59563286845E+03  0.59890940010E+03  0.00000000000E+00 0. -1.
         13    1    3    3    0    0 -0.36182743370E+02  0.66356245943E+01 -0.31067089841E+02  0.48149626195E+02  0.00000000000E+00 0. -1.
        -14    1    3    3    0    0  0.75120551036E+01 -0.36513792958E+02 -0.14717858449E+03  0.15182629476E+03  0.00000000000E+00 0.  1.
          5    1    4    4  501    0  0.11599261911E+02  0.40135246530E+02  0.80943290260E+02  0.91184809749E+02  0.41800000000E+01 0. -1.
         -5    1    4    4    0  501  0.12946371858E+02 -0.53084076020E+02 -0.93435812716E+01  0.55590490033E+02  0.41800000000E+01 0. -1.
</event>
<event>
11    1  0.8299058E-009  0.3051593E+03  0.7561462E-02  0.9980310E-01
         22   -1    0    0    0    0  0.00000000000E+00  0.00000000000E+00  0.59664822853E+03  0.59664822853E+03  0.00000000000E+00 0. -1.
         22   -1    0    0    0    0 -0.00000000000E+00 -0.00000000000E+00 -0.38623364262E+04  0.38623364262E+04  0.00000000000E+00 0. -1.
        -24    2    1    2    0    0  0.27035046681E+03 -0.75906587322E+02 -0.35009595332E+04  0.35131179390E+04  0.80179897563E+02 0.  0.
         25    2    1    2    0    0 -0.27004596754E+03 -0.36041432581E+02 -0.28117157573E+03  0.41101060170E+03  0.12509376590E+03 0.  0.
         24    2    1    2    0    0 -0.30449927198E+00  0.11194801990E+03  0.51644291119E+03  0.53485611401E+03  0.82615557267E+02 0.  0.
        -13    1    5    5    0    0  0.11314608179E+02  0.58082009972E+02  0.41689965199E+03  0.42107821135E+03  0.00000000000E+00 0.  1.
         14    1    5    5    0    0 -0.11619107451E+02  0.53866009932E+02  0.99543259193E+02  0.11377790266E+03  0.00000000000E+00 0. -1.
         13    1    3    3    0    0  0.12803846038E+03 -0.48748081011E+01 -0.18849488466E+04  0.18892987497E+04  0.00000000000E+00 0. -1.
        -14    1    3    3    0    0  0.14231200643E+03 -0.71031779221E+02 -0.16160106865E+04  0.16238191894E+04  0.00000000000E+00 0.  1.
          5    1    4    4  501    0 -0.65910187496E+02 -0.23081845661E+02 -0.90253388228E+01  0.70539730335E+02  0.41800000000E+01 0.  1.
         -5    1    4    4    0  501 -0.20413578004E+03 -0.12959586920E+02 -0.27214623691E+03  0.34047087137E+03  0.41800000000E+01 0.  1.
</event>
<event>
11    1  0.8299058E-009  0.1394187E+03  0.7561462E-02  0.1108209E+00
         22   -1    0    0    0    0  0.00000000000E+00  0.00000000000E+00  0.79842434853E+02  0.79842434853E+02  0.00000000000E+00 0. -1.
         22   -1    0    0    0    0 -0.00000000000E+00 -0.00000000000E+00 -0.52946125920E+03  0.52946125920E+03  0.00000000000E+00 0. -1.
        -24    2    1    2    0    0 -0.20357146053E+02 -0.60845521437E+02 -0.24309898074E+03  0.26386603648E+03  0.80072341634E+02 0.  0.
         25    2    1    2    0    0  0.67514402952E+02  0.27979475574E+02 -0.19827887129E+03  0.24556759998E+03  0.12509152529E+03 0.  0.
         24    2    1    2    0    0 -0.47157256899E+02  0.32866045863E+02 -0.82409723094E+01  0.99870057590E+02  0.81253497953E+02 0.  0.
        -11    1    5    5    0    0  0.14128321127E+02  0.20063489740E+01 -0.25405725250E+02  0.29139076333E+02  0.00000000000E+00 0.  1.
         12    1    5    5    0    0 -0.61285578026E+02  0.30859696889E+02  0.17164752941E+02  0.70730981257E+02  0.00000000000E+00 0. -1.
         11    1    3    3    0    0 -0.40485568253E+02 -0.67432112442E+02 -0.21304206501E+03  0.22709709926E+03  0.00000000000E+00 0. -1.
        -12    1    3    3    0    0  0.20128422200E+02  0.65865910056E+01 -0.30056915728E+02  0.36768937222E+02  0.00000000000E+00 0.  1.
          5    1    4    4  501    0  0.19862102597E+02  0.75028229375E+02 -0.10303960775E+03  0.12906731378E+03  0.41800000000E+01 0. -1.
         -5    1    4    4    0  501  0.47652300355E+02 -0.47048753801E+02 -0.95239263546E+02  0.11650028620E+03  0.41800000000E+01 0. -1.
</event>
<event>
11    1  0.8299058E-009  0.1417714E+03  0.7561462E-02  0.1105596E+00
         22   -1    0    0    0    0  0.00000000000E+00  0.00000000000E+00  0.77829321656E+03  0.77829321656E+03  0.00000000000E+00 0. -1.
         22   -1    0    0    0    0 -0.00000000000E+00 -0.00000000000E+00 -0.81485828506E+03  0.81485828506E+03  0.00000000000E+00 0. -1.
        -24    2    1    2    0    0  0.56750081684E+02 -0.12973173162E+02 -0.73640339157E+03  0.74337426880E+03  0.83225437266E+02 0.  0.
         25    2    1    2    0    0 -0.33799619526E+02 -0.51377482978E+02 -0.26199546568E+01  0.13941396783E+03  0.12508928902E+03 0.  0.
         24    2    1    2    0    0 -0.22950462158E+02  0.64350656141E+02  0.70245827773E+03  0.71036326498E+03  0.80626333320E+02 0.  0.
        -11    1    5    5    0    0  0.14826012240E+02 -0.10762609538E+02  0.70715912490E+02  0.73050562505E+02  0.00000000000E+00 0.  1.
         12    1    5    5    0    0 -0.37776474398E+02  0.75113265679E+02  0.63174236524E+03  0.63731270248E+03  0.00000000000E+00 0. -1.
         13    1    3    3    0    0  0.38169453694E+02  0.43136389392E+01 -0.68471482980E+03  0.68579144995E+03  0.00000000000E+00 0. -1.
        -14    1    3    3    0    0  0.18580627989E+02 -0.17286812102E+02 -0.51688561771E+02  0.57582818853E+02  0.00000000000E+00 0.  1.
          5    1    4    4  501    0 -0.79702347597E+02 -0.18285826537E+02 -0.87327654255E+01  0.82344212041E+02  0.41800000000E+01 0.  1.
         -5    1    4    4    0  501  0.45902728071E+02 -0.33091656442E+02  0.61128107687E+01  0.57069755790E+02  0.41800000000E+01 0.  1.
</event>
<event>
11    1  0.8299058E-009  0.1411168E+03  0.7561462E-02  0.1106318E+00
         22   -1    0    0    0    0  0.00000000000E+00  0.00000000000E+00  0.79314717947E+03  0.79314717947E+03  0.00000000000E+00 0.  1.
         22   -1    0    0    0    0 -0.00000000000E+00 -0.00000000000E+00 -0.63708655151E+03  0.63708655151E+03  0.00000000000E+00 0. -1.
        -24    2    1    2    0    0 -0.48756021818E+01  0.70402888715E+02 -0.53175939353E+03  0.54167535856E+03  0.75258243616E+02 0.  0.
         25    2    1    2    0    0  0.20492174794E+02 -0.18954760917E+02 -0.54747099169E+02  0.13936342306E+03  0.12508279910E+03 0.  0.
         24    2    1    2    0    0 -0.15616572612E+02 -0.51448127798E+02  0.74256712065E+03  0.74919494936E+03  0.83644224439E+02 0.  0.
        -11    1    5    5    0    0 -0.28347196411E+02  0.57789802656E+01  0.44308819175E+03  0.44403164958E+03  0.00000000000E+00 0.  1.
         12    1    5    5    0    0  0.12730623799E+02 -0.57227108064E+02  0.29947892890E+03  0.30516329978E+03  0.00000000000E+00 0. -1.
         13    1    3    3    0    0 -0.32832348144E+02  0.62640840207E+02 -0.30642636076E+03  0.31448203846E+03  0.00000000000E+00 0. -1.
        -14    1    3    3    0    0  0.27956745962E+02  0.77620485080E+01 -0.22533303277E+03  0.22719332010E+03  0.00000000000E+00 0.  1.
          5    1    4    4  501    0  0.10428795263E+02 -0.51281490507E+02  0.20802280293E+02  0.56469091587E+02  0.41800000000E+01 0. -1.
         -5    1    4    4    0  501  0.10063379531E+02  0.32326729591E+02 -0.75549379462E+02  0.82894331475E+02  0.41800000000E+01 0. -1.
</event>
<event>
11    1  0.8299058E-009  0.1424506E+03  0.7561462E-02  0.1104852E+00
         22   -1    0    0    0    0  0.00000000000E+00  0.00000000000E+00  0.59002456216E+03  0.59002456216E+03  0.00000000000E+00 0.  1.
         22   -1    0    0    0    0 -0.00000000000E+00 -0.00000000000E+00 -0.23080553604E+03  0.23080553604E+03  0.00000000000E+00 0. -1.
         24    2    1    2    0    0  0.15913162650E+02 -0.69148726217E+02 -0.17433450430E+03  0.20380943280E+03  0.78172824094E+02 0.  0.
         25    2    1    2    0    0  0.32664543420E+02  0.72349646862E+01  0.85830115464E+02  0.15535031611E+03  0.12509034688E+03 0.  0.
        -24    2    1    2    0    0 -0.48577706069E+02  0.61913761531E+02  0.44772341495E+03  0.46167034929E+03  0.80561453104E+02 0.  0.
        -13    1    3    3    0    0  0.18881042263E+02 -0.23389624959E+02 -0.77688595641E+01  0.31047117283E+02  0.00000000000E+00 0.  1.
         14    1    3    3    0    0 -0.29678796132E+01 -0.45759101258E+02 -0.16656564474E+03  0.17276231552E+03  0.00000000000E+00 0. -1.
         13    1    5    5    0    0 -0.70475182696E+02  0.45148083038E+02  0.30324306252E+03  0.31458139765E+03  0.00000000000E+00 0. -1.
        -14    1    5    5    0    0  0.21897476627E+02  0.16765678493E+02  0.14448035243E+03  0.14708895164E+03  0.00000000000E+00 0.  1.
          5    1    4    4  501    0  0.36695229989E+01 -0.13479242787E+02 -0.30395874485E+02  0.33712563991E+02  0.41800000000E+01 0.  1.
         -5    1    4    4    0  501  0.28995020421E+02  0.20714207474E+02  0.11622598995E+03  0.12163775212E+03  0.41800000000E+01 0.  1.
</event>
<event>
11    1  0.8299058E-009  0.1364276E+03  0.7561462E-02  0.1111614E+00
         22   -1    0    0    0    0  0.00000000000E+00  0.00000000000E+00  0.45280809049E+03  0.45280809049E+03  0.00000000000E+00 0.  1.
         22   -1    0    0    0    0 -0.00000000000E+00 -0.00000000000E+00 -0.23975399394E+03  0.23975399394E+03  0.00000000000E+00 0. -1.
         24    2    1    2    0    0 -0.54477562289E+02 -0.45083070154E+01 -0.92072521101E+02  0.13423463119E+03  0.80953427618E+02 0.  0.
         25    2    1    2    0    0  0.54364865799E+02 -0.11936738423E+02 -0.83931771025E+02  0.16059219767E+03  0.12508911787E+03 0.  0.
        -24    2    1    2    0    0  0.11269648984E+00  0.16445045438E+02  0.38905838868E+03  0.39773525557E+03  0.80971918021E+02 0.  0.
        -11    1    3    3    0    0 -0.46898224895E+01  0.32518379629E+02 -0.17499271469E+02  0.37224507392E+02  0.00000000000E+00 0.  1.
         12    1    3    3    0    0 -0.49787739799E+02 -0.37026686644E+02 -0.74573249632E+02  0.97010123796E+02  0.00000000000E+00 0. -1.
         11    1    5    5    0    0 -0.24584741637E+01 -0.40022653658E+01 -0.27116335075E+01  0.54235762695E+01  0.00000000000E+00 0. -1.
        -12    1    5    5    0    0  0.25711706535E+01  0.20447310804E+02  0.39177002218E+03  0.39231167930E+03  0.00000000000E+00 0.  1.
          5    1    4    4  501    0  0.15987339025E+02  0.50484600034E+02 -0.66580568407E+02  0.85174728289E+02  0.41800000000E+01 0. -1.
         -5    1    4    4    0  501  0.38377526773E+02 -0.62421338457E+02 -0.17351202618E+02  0.75417469384E+02  0.41800000000E+01 0. -1.
</event>
<event>
11    1  0.8299058E-009  0.1902498E+03  0.7561462E-02  0.1061641E+00
         22   -1    0    0    0    0  0.00000000000E+00  0.00000000000E+00  0.67694590385E+03  0.67694590385E+03  0.00000000000E+00 0. -1.
         22   -1    0    0    0    0 -0.00000000000E+00 -0.00000000000E+00 -0.37467913030E+03  0.37467913030E+03  0.00000000000E+00 0. -1.
        -24    2    1    2    0    0  0.56376756443E+02  0.10163894860E+03 -0.28708008474E+03  0.31988111462E+03  0.80000861856E+02 0.  0.
         25    2    1    2    0    0 -0.13036775225E+03 -0.19380461002E+03  0.26002437592E+03  0.37123644276E+03  0.12509133728E+03 0.  0.
         24    2    1    2    0    0  0.73990995804E+02  0.92165661420E+02  0.32932248237E+03  0.36050747677E+03  0.86851406496E+02 0.  0.
        -13    1    5    5    0    0  0.37082698754E+02 -0.95841301159E+01  0.79480170584E+02  0.88227431183E+02  0.00000000000E+00 0.  1.
         14    1    5    5    0    0  0.36908297050E+02  0.10174979154E+03  0.24984231178E+03  0.27228004559E+03  0.00000000000E+00 0. -1.
         13    1    3    3    0    0  0.16890991388E+02  0.98765844414E+02 -0.22425534378E+03  0.24562259022E+03  0.00000000000E+00 0. -1.
        -14    1    3    3    0    0  0.39485765055E+02  0.28731041899E+01 -0.62824740959E+02  0.74258524401E+02  0.00000000000E+00 0.  1.
          5    1    4    4  501    0 -0.57177222992E+02 -0.26455866770E+02  0.13735883909E+03  0.15117562896E+03  0.41800000000E+01 0.  1.
         -5    1    4    4    0  501 -0.73190529256E+02 -0.16734874325E+03  0.12266553683E+03  0.22006081379E+03  0.41800000000E+01 0.  1.
</event>
<event>
11    1  0.8299058E-009  0.2403050E+03  0.7561462E-02  0.1029194E+00
         22   -1    0    0    0    0  0.00000000000E+00  0.00000000000E+00  0.38128168445E+03  0.38128168445E+03  0.00000000000E+00 0.  1.
         22   -1    0    0    0    0 -0.00000000000E+00 -0.00000000000E+00 -0.64802934384E+03  0.64802934384E+03  0.00000000000E+00 0.  1.
        -24    2    1    2    0    0 -0.97090025898E+01  0.87297164527E+02 -0.15781340101E+03  0.19784120418E+03  0.80752788592E+02 0.  0.
         25    2    1    2    0    0 -0.44941997825E+02 -0.27828575786E+03 -0.37757382133E+03  0.48751700171E+03  0.12509232672E+03 0.  0.
         24    2    1    2    0    0  0.54651000415E+02  0.19098859333E+03  0.26863956296E+03  0.34395282240E+03  0.81688154739E+02 0.  0.
        -11    1    5    5    0    0  0.23102495260E+02  0.17679651980E+03  0.20642502312E+03  0.27276734568E+03  0.00000000000E+00 0.  1.
         12    1    5    5    0    0  0.31548505155E+02  0.14192073528E+02  0.62214539841E+02  0.71185476722E+02  0.00000000000E+00 0. -1.
         13    1    3    3    0    0 -0.38188174235E+02  0.26218148883E+02 -0.95107441905E+02  0.10578824835E+03  0.00000000000E+00 0. -1.
        -14    1    3    3    0    0  0.28479171645E+02  0.61079015645E+02 -0.62705959106E+02  0.92052955830E+02  0.00000000000E+00 0.  1.
          5    1    4    4  501    0  0.15082769518E+02 -0.12079878199E+03 -0.80708357231E+02  0.14612031684E+03  0.41800000000E+01 0.  1.
         -5    1    4    4    0  501 -0.60024767344E+02 -0.15748697587E+03 -0.29686546410E+03  0.34139668487E+03  0.41800000000E+01 0.  1.
</event>
<event>
11    1  0.8299058E-009  0.1338282E+03  0.7561462E-02  0.1114653E+00
         22   -1    0    0    0    0  0.00000000000E+00  0.00000000000E+00  0.43843595616E+03  0.43843595616E+03  0.00000000000E+00 0.  1.
         22   -1    0    0    0    0 -0.00000000000E+00 -0.00000000000E+00 -0.90254795480E+03  0.90254795480E+03  0.00000000000E+00 0. -1.
        -24    2    1    2    0    0  0.31035901995E+02  0.35100139551E+02 -0.63558679586E+03  0.64238217426E+03  0.80554551237E+02 0.  0.
         25    2    1    2    0    0 -0.71571597155E+02 -0.58238714759E+02 -0.23485165181E+03  0.28163185915E+03  0.12508782641E+03 0.  0.
         24    2    1    2    0    0  0.40535695159E+02  0.23138575208E+02  0.40632644903E+03  0.41696987755E+03  0.81142833104E+02 0.  0.
        -13    1    5    5    0    0  0.58327790440E+02  0.36894905756E+02  0.26375057876E+03  0.27263112993E+03  0.00000000000E+00 0.  1.
         14    1    5    5    0    0 -0.17792095281E+02 -0.13756330548E+02  0.14257587026E+03  0.14433874762E+03  0.00000000000E+00 0. -1.
         11    1    3    3    0    0  0.56084516904E+02  0.37655851232E+02 -0.48990406777E+03  0.49453961599E+03  0.00000000000E+00 0. -1.
        -12    1    3    3    0    0 -0.25048614909E+02 -0.25557116809E+01 -0.14568272809E+03  0.14784255826E+03  0.00000000000E+00 0.  1.
          5    1    4    4  501    0  0.40590231921E+01 -0.74661774477E+02 -0.14321479661E+03  0.16161313872E+03  0.41800000000E+01 0. -1.
         -5    1    4    4    0  501 -0.75630620347E+02  0.16423059718E+02 -0.91636855195E+02  0.12001872043E+03  0.41800000000E+01 0. -1.
</event>
<event>
11    1  0.8299058E-009  0.1488860E+03  0.7561462E-02  0.1098023E+00
         22   -1    0    0    0    0  0.00000000000E+00  0.00000000000E+00  0.23548995126E+03  0.23548995126E+03  0.00000000000E+00 0. -1.
         22   -1    0    0    0    0 -0.00000000000E+00 -0.00000000000E+00 -0.28949759765E+04  0.28949759765E+04  0.00000000000E+00 0. -1.
         24    2    1    2    0    0 -0.53543213103E+02  0.59476455245E+02 -0.27125091125E+04  0.27148556927E+04  0.79570238313E+02 0.  0.
         25    2    1    2    0    0  0.52306932140E+02 -0.94246460732E+02 -0.13165942158E+03  0.21118612115E+03  0.12508782500E+03 0.  0.
        -24    2    1    2    0    0  0.12362809634E+01  0.34770005487E+02  0.18468250879E+03  0.20442411390E+03  0.80443194987E+02 0.  0.
        -11    1    3    3    0    0 -0.69306592130E+02  0.23233611883E+02 -0.16756767095E+04  0.16772702940E+04  0.00000000000E+00 0.  1.
         12    1    3    3    0    0  0.15763379026E+02  0.36242843362E+02 -0.10368324030E+04  0.10375853988E+04  0.00000000000E+00 0. -1.
         13    1    5    5    0    0  0.27887679524E+02  0.38764397339E+02  0.59095176188E+02  0.75977898227E+02  0.00000000000E+00 0. -1.
        -14    1    5    5    0    0 -0.26651398560E+02 -0.39943918520E+01  0.12558733260E+03  0.12844621567E+03  0.00000000000E+00 0.  1.
          5    1    4    4  501    0  0.33366590436E+02 -0.10894174059E+03 -0.47384383637E+02  0.12346815141E+03  0.41800000000E+01 0.  1.
         -5    1    4    4    0  501  0.18940341704E+02  0.14695279859E+02 -0.84275037946E+02  0.87717969737E+02  0.41800000000E+01 0.  1.
</event>
<event>
11    1  0.8299058E-009  0.3812551E+03  0.7561462E-02  0.9706744E-01
         22   -1    0    0    0    0  0.00000000000E+00  0.00000000000E+00  0.15051594781E+04  0.15051594781E+04  0.00000000000E+00 0.  1.
         22   -1    0    0    0    0 -0.00000000000E+00 -0.00000000000E+00 -0.15960762225E+03  0.15960762225E+03  0.00000000000E+00 0.  1.
        -24    2    1    2    0    0 -0.12189672403E+02 -0.35583904460E+03  0.18678306844E+03  0.41035268284E+03  0.82045084462E+02 0.  0.
         25    2    1    2    0    0 -0.12714392206E+02  0.37423769261E+03  0.95360839740E+03  0.10321006735E+04  0.12508924117E+03 0.  0.
         24    2    1    2    0    0  0.24904064609E+02 -0.18398648007E+02  0.20516039003E+03  0.22231374406E+03  0.79836661251E+02 0.  0.
        -13    1    5    5    0    0  0.19414015028E+02 -0.49943762567E+02  0.13110899654E+03  0.14163633846E+03  0.00000000000E+00 0.  1.
         14    1    5    5    0    0  0.54900495814E+01  0.31545114560E+02  0.74051393487E+02  0.80677405600E+02  0.00000000000E+00 0. -1.
         13    1    3    3    0    0  0.12016950414E+02 -0.35702290903E+02 -0.23327353902E+01  0.37742579766E+02  0.00000000000E+00 0. -1.
        -14    1    3    3    0    0 -0.24206622817E+02 -0.32013675370E+03  0.18911580383E+03  0.37261010308E+03  0.00000000000E+00 0.  1.
          5    1    4    4  501    0  0.15302645254E+02  0.36448726927E+03  0.88248059801E+03  0.95492126307E+03  0.41800000000E+01 0.  1.
         -5    1    4    4    0  501 -0.28017037460E+02  0.97504233388E+01  0.71127799393E+02  0.77179410401E+02  0.41800000000E+01 0.  1.
</event>
<event>
11    1  0.8299058E-009  0.1650961E+03  0.7561462E-02  0.1082380E+00
         22   -1    0    0    0    0  0.00000000000E+00  0.00000000000E+00  0.74941955627E+03  0.74941955627E+03  0.00000000000E+00 0.  1.
         22   -1    0    0    0    0 -0.00000000000E+00 -0.00000000000E+00 -0.83019575206E+03  0.83019575206E+03  0.00000000000E+00 0.  1.
        -24    2    1    2    0    0 -0.43741373531E+02  0.15398646941E+02 -0.79559132221E+03  0.80124036502E+03  0.82886334589E+02 0.  0.
         25    2    1    2    0    0  0.13497830416E+03 -0.22926345708E+02  0.40190711588E+03  0.44262991851E+03  0.12508858878E+03 0.  0.
         24    2    1    2    0    0 -0.91236930625E+02  0.75276987668E+01  0.31290801054E+03  0.33574502480E+03  0.80202586401E+02 0.  0.
        -13    1    5    5    0    0 -0.10016865993E+03  0.82272532100E+01  0.31065248831E+03  0.32650638067E+03  0.00000000000E+00 0.  1.
         14    1    5    5    0    0  0.89317293089E+01 -0.69955444322E+00  0.22555222268E+01  0.92386441312E+01  0.00000000000E+00 0. -1.
         13    1    3    3    0    0  0.12562230179E+02 -0.91552902263E+01 -0.36555467439E+02  0.39723181719E+02  0.00000000000E+00 0. -1.
        -14    1    3    3    0    0 -0.56303603711E+02  0.24553937167E+02 -0.75903585478E+03  0.76151718330E+03  0.00000000000E+00 0.  1.
          5    1    4    4  501    0  0.56184100316E+02 -0.42418154508E+02  0.64495578877E+02  0.95567280252E+02  0.41800000000E+01 0.  1.
         -5    1    4    4    0  501  0.78794203841E+02  0.19491808800E+02  0.33741153701E+03  0.34706263826E+03  0.41800000000E+01 0.  1.
</event>
<event>
11    1  0.8299058E-009  0.2065142E+03  0.7561462E-02  0.1050010E+00
         22   -1    0    0    0    0  0.00000000000E+00  0.00000000000E+00  0.13191157351E+04  0.13191157351E+04  0.00000000000E+00 0. -1.
         22   -1    0    0    0    0 -0.00000000000E+00 -0.00000000000E+00 -0.15021411952E+03  0.15021411952E+03  0.00000000000E+00 0.  1.
        -24    2    1    2    0    0 -0.48356355919E+02 -0.75251730774E+02 -0.76918686896E+02  0.14261455704E+03  0.80132810652E+02 0.  0.
         25    2    1    2    0    0 -0.86723090147E+02 -0.49918763925E+02  0.17477120113E+03  0.23707060437E+03  0.12507886054E+03 0.  0.
         24    2    1    2    0    0  0.13507944607E+03  0.12517049470E+03  0.10710491013E+04  0.10896446932E+04  0.79153461395E+02 0.  0.
        -11    1    5    5    0    0 -0.10142482198E+02  0.34557333191E+01  0.46218360857E+02  0.47444166325E+02  0.00000000000E+00 0.  1.
         12    1    5    5    0    0  0.14522192826E+03  0.12171476138E+03  0.10248307405E+04  0.10422005269E+04  0.00000000000E+00 0. -1.
         11    1    3    3    0    0 -0.50136871428E+02 -0.18887190152E+02 -0.89850074525E+01  0.54324600204E+02  0.00000000000E+00 0. -1.
        -12    1    3    3    0    0  0.17805155083E+01 -0.56364540622E+02 -0.67933679443E+02  0.88289956834E+02  0.00000000000E+00 0.  1.
          5    1    4    4  501    0  0.17007590808E+02 -0.12489480524E+02  0.10347466488E+03  0.10568691471E+03  0.41800000000E+01 0.  1.
         -5    1    4    4    0  501 -0.10373068095E+03 -0.37429283402E+02  0.71296536256E+02  0.13138368966E+03  0.41800000000E+01 0.  1.
</event>
<event>
11    1  0.8299058E-009  0.4026089E+03  0.7561462E-02  0.9642091E-01
         22   -1    0    0    0    0  0.00000000000E+00  0.00000000000E+00  0.68983540089E+03  0.68983540089E+03  0.00000000000E+00 0. -1.
         22   -1    0    0    0    0 -0.00000000000E+00 -0.00000000000E+00 -0.18261010144E+04  0.18261010144E+04  0.00000000000E+00 0. -1.
         24    2    1    2    0    0 -0.11413632537E+03 -0.22773098451E+03 -0.15206358812E+04  0.15439707258E+04  0.81385606806E+02 0.  0.
         25    2    1    2    0    0  0.36562030312E+03 -0.95817522642E+02 -0.92061907959E+01  0.39823482774E+03  0.12508805051E+03 0.  0.
        -24    2    1    2    0    0 -0.25148397775E+03  0.32354850715E+03  0.39357645844E+03  0.57373086175E+03  0.79604306050E+02 0.  0.
        -13    1    3    3    0    0 -0.22977489856E+02 -0.13247205974E+03 -0.83820600777E+03  0.84892056349E+03  0.00000000000E+00 0.  1.
         14    1    3    3    0    0 -0.91158835512E+02 -0.95258924765E+02 -0.68242987342E+03  0.69505016234E+03  0.00000000000E+00 0. -1.
         11    1    5    5    0    0 -0.19229496637E+03  0.18794660621E+03  0.23894401609E+03  0.35971589303E+03  0.00000000000E+00 0. -1.
        -12    1    5    5    0    0 -0.59189011382E+02  0.13560190094E+03  0.15463244235E+03  0.21401496872E+03  0.00000000000E+00 0.  1.
          5    1    4    4  501    0  0.10078561116E+03 -0.82776791474E+02 -0.23817074521E+02  0.13264411808E+03  0.41800000000E+01 0.  1.
         -5    1    4    4    0  501  0.26483469196E+03 -0.13040731169E+02  0.14610883725E+02  0.26559070966E+03  0.41800000000E+01 0.  1.
</event>
<event>
11    1  0.9816625E-009  0.2105179E+03  0.7561462E-02  0.1047325E+00
         22   -1    0    0    0    0  0.00000000000E+00  0.00000000000E+00  0.14905989019E+04  0.14905989019E+04  0.00000000000E+00 0. -1.
         22   -1    0    0    0    0 -0.00000000000E+00 -0.00000000000E+00 -0.32191184203E+03  0.32191184203E+03  0.00000000000E+00 0.  1.
         24    2    1    2    0    0  0.11899104516E+02  0.81545567384E+00 -0.18630898479E+03  0.20324600906E+03  0.80347051782E+02 0.  0.
         25    2    1    2    0    0 -0.75010727812E+02 -0.15765948624E+03 -0.25457433341E+02  0.21628432670E+03  0.12509079172E+03 0.  0.
        -24    2    1    2    0    0  0.63111623296E+02  0.15684403057E+03  0.13804534780E+04  0.13929804082E+04  0.78482390938E+02 0.  0.
        -11    1    3    3    0    0  0.25502711145E+02 -0.14744891592E+02 -0.17887014387E+03  0.18127969680E+03  0.00000000000E+00 0.  1.
         12    1    3    3    0    0 -0.13603606629E+02  0.15560347266E+02 -0.74388409269E+01  0.21966312269E+02  0.00000000000E+00 0. -1.
         13    1    5    5    0    0  0.25438769781E+02  0.11256094379E+03  0.11295166235E+04  0.11353963624E+04  0.00000000000E+00 0. -1.
        -14    1    5    5    0    0  0.37672853515E+02  0.44283086782E+02  0.25093685454E+03  0.25758404577E+03  0.00000000000E+00 0.  1.
          5    1    4    4  501    0 -0.10395668496E+03 -0.12748589543E+03 -0.44032344041E+02  0.17034073383E+03  0.41800000000E+01 0.  1.
         -5    1    4    4    0  501  0.28945957145E+02 -0.30173590813E+02  0.18574910700E+02  0.45943592863E+02  0.41800000000E+01 0.  1.
</event>
<event>
11    1  0.8299058E-009  0.1596157E+03  0.7561462E-02  0.1087439E+00
         22   -1    0    0    0    0  0.00000000000E+00  0.00000000000E+00  0.22305120806E+04  0.22305120806E+04  0.00000000000E+00 0.  1.
         22   -1    0    0    0    0 -0.00000000000E+00 -0.00000000000E+00 -0.20780154899E+03  0.20780154899E+03  0.00000000000E+00 0. -1.
         24    2    1    2    0    0 -0.57345030640E+02 -0.76407432667E+02 -0.15028005194E+03  0.19269133047E+03  0.73615939331E+02 0.  0.
         25    2    1    2    0    0  0.43573464602E+02  0.15242156967E+03  0.25917365383E+03  0.32855750370E+03  0.12509224067E+03 0.  0.
        -24    2    1    2    0    0  0.13771566038E+02 -0.76014137008E+02  0.19138169297E+04  0.19170647954E+04  0.80463558934E+02 0.  0.
        -11    1    3    3    0    0  0.13870600273E+02 -0.23482633057E+02 -0.15625913716E+02  0.31432416177E+02  0.00000000000E+00 0.  1.
         12    1    3    3    0    0 -0.71215630914E+02 -0.52924799609E+02 -0.13465413822E+03  0.16125891430E+03  0.00000000000E+00 0. -1.
         13    1    5    5    0    0 -0.20758335804E+02 -0.13699558268E+02  0.17172260331E+03  0.17351437661E+03  0.00000000000E+00 0. -1.
        -14    1    5    5    0    0  0.34529901842E+02 -0.62314578739E+02  0.17420943264E+04  0.17435504188E+04  0.00000000000E+00 0.  1.
          5    1    4    4  501    0  0.39666532236E+02 -0.24992602134E+00  0.10127016533E+03  0.10884215649E+03  0.41800000000E+01 0. -1.
         -5    1    4    4    0  501  0.39069323661E+01  0.15267149570E+03  0.15790348850E+03  0.21971534721E+03  0.41800000000E+01 0. -1.
</event>
<event>
11    1  0.8299058E-009  0.1275373E+03  0.7561462E-02  0.1122332E+00
         22   -1    0    0    0    0  0.00000000000E+00  0.00000000000E+00  0.11530280277E+04  0.11530280277E+04  0.00000000000E+00 0. -1.
         22   -1    0    0    0    0 -0.00000000000E+00 -0.00000000000E+00 -0.59473221201E+03  0.59473221201E+03  0.00000000000E+00 0. -1.
         24    2    1    2    0    0 -0.58134727945E+01  0.22237290473E+02 -0.49708312020E+03  0.50258917879E+03  0.70540489751E+02 0.  0.
         25    2    1    2    0    0  0.23847837714E+02 -0.38911576101E+02 -0.45783040249E+02  0.14080190960E+03  0.12508501451E+03 0.  0.
        -24    2    1    2    0    0 -0.18034364919E+02  0.16674285628E+02  0.11011619762E+04  0.11043691514E+04  0.80437892732E+02 0.  0.
        -13    1    3    3    0    0  0.12717385087E+02  0.34425584627E+02 -0.13721059138E+03  0.14203379579E+03  0.00000000000E+00 0.  1.
         14    1    3    3    0    0 -0.18530857881E+02 -0.12188294154E+02 -0.35987252882E+03  0.36055538300E+03  0.00000000000E+00 0. -1.
         13    1    5    5    0    0 -0.34848401793E+02  0.90960107951E+01  0.10365765786E+04  0.10372020786E+04  0.00000000000E+00 0. -1.
        -14    1    5    5    0    0  0.16814036874E+02  0.75782748325E+01  0.64585397574E+02  0.67167072775E+02  0.00000000000E+00 0.  1.
          5    1    4    4  501    0 -0.31286310306E+02  0.25468637598E+02 -0.38004104653E+02  0.55581193619E+02  0.41800000000E+01 0. -1.
         -5    1    4    4    0  501  0.55134148020E+02 -0.64380213699E+02 -0.77789355963E+01  0.85220715984E+02  0.41800000000E+01 0. -1.
</event>
<event>
11    1  0.8299058E-009  0.1340644E+03  0.7561462E-02  0.1114374E+00
         22   -1    0    0    0    0  0.00000000000E+00  0.00000000000E+00  0.12955648587E+03  0.12955648587E+03  0.00000000000E+00 0. -1.
         22   -1    0    0    0    0 -0.00000000000E+00 -0.00000000000E+00 -0.12610808158E+04  0.12610808158E+04  0.00000000000E+00 0. -1.
        -24    2    1    2    0    0 -0.82277199979E+01 -0.47539233098E+02 -0.10512831484E+04  0.10554500947E+04  0.80317932258E+02 0.  0.
         25    2    1    2    0    0  0.11812115364E+02  0.46584845711E+02 -0.16922024631E+03  0.21585473754E+03  0.12509237402E+03 0.  0.
         24    2    1    2    0    0 -0.35843953659E+01  0.95438738687E+00  0.88979064745E+02  0.11933246946E+03  0.79430507736E+02 0.  0.
        -11    1    5    5    0    0 -0.66422889518E+01  0.68631480806E+01 -0.13555461369E+02  0.16582320013E+02  0.00000000000E+00 0.  1.
         12    1    5    5    0    0  0.30578935860E+01 -0.59087606937E+01  0.10253452611E+03  0.10275014945E+03  0.00000000000E+00 0. -1.
         11    1    3    3    0    0 -0.29427793210E+02 -0.30285205251E+01 -0.71087395657E+03  0.71148924734E+03  0.00000000000E+00 0. -1.
        -12    1    3    3    0    0  0.21200073212E+02 -0.44510712572E+02 -0.34040919181E+03  0.34396084734E+03  0.00000000000E+00 0.  1.
          5    1    4    4  501    0  0.52938803287E+02  0.44257540884E+02 -0.39348197390E+02  0.79542440599E+02  0.41800000000E+01 0.  1.
         -5    1    4    4    0  501 -0.41126687923E+02  0.23273048263E+01 -0.12987204892E+03  0.13631229694E+03  0.41800000000E+01 0.  1.
</event>
<event>
11    1  0.8299058E-009  0.1400431E+03  0.7561462E-02  0.1107510E+00
         22   -1    0    0    0    0  0.00000000000E+00  0.00000000000E+00  0.25428398332E+03  0.25428398332E+03  0.00000000000E+00 0. -1.
         22   -1    0    0    0    0 -0.00000000000E+00 -0.00000000000E+00 -0.10478634279E+04  0.10478634279E+04  0.00000000000E+00 0.  1.
         24    2    1    2    0    0 -0.31663334244E+02 -0.53591635569E+02 -0.92991038890E+03  0.93531772683E+03  0.78811728779E+02 0.  0.
         25    2    1    2    0    0  0.47135773454E+02  0.60525687763E+02 -0.56332332210E+02  0.15718618115E+03  0.12509605859E+03 0.  0.
        -24    2    1    2    0    0 -0.15472439210E+02 -0.69340521938E+01  0.19266327656E+03  0.20964350321E+03  0.80893651475E+02 0.  0.
        -13    1    3    3    0    0 -0.24120223269E+02 -0.73177878473E+02 -0.80246789506E+03  0.80615848917E+03  0.00000000000E+00 0.  1.
         14    1    3    3    0    0 -0.75431109749E+01  0.19586242905E+02 -0.12744249385E+03  0.12915923766E+03  0.00000000000E+00 0. -1.
         11    1    5    5    0    0  0.18707681793E+02  0.14890193764E+02  0.14546100166E+03  0.14741301921E+03  0.00000000000E+00 0. -1.
        -12    1    5    5    0    0 -0.34180121003E+02 -0.21824245958E+02  0.47202274898E+02  0.62230484001E+02  0.00000000000E+00 0.  1.
          5    1    4    4  501    0  0.79954832757E+02  0.10884538791E+02 -0.95265875517E+01  0.81360166766E+02  0.41800000000E+01 0. -1.
         -5    1    4    4    0  501 -0.32819059303E+02  0.49641148972E+02 -0.46805744659E+02  0.75826014387E+02  0.41800000000E+01 0. -1.
</event>
<event>
11    1  0.8299058E-009  0.1337663E+03  0.7561462E-02  0.1114726E+00
         22   -1    0    0    0    0  0.00000000000E+00  0.00000000000E+00  0.93815450862E+03  0.93815450862E+03  0.00000000000E+00 0.  1.
         22   -1    0    0    0    0 -0.00000000000E+00 -0.00000000000E+00 -0.19142286066E+04  0.19142286066E+04  0.00000000000E+00 0.  1.
         24    2    1    2    0    0 -0.29440964646E+02 -0.16738324983E+02 -0.17547933313E+04  0.17569872950E+04  0.80980102598E+02 0.  0.
         25    2    1    2    0    0  0.15102007498E+02 -0.28833013336E+02 -0.12913606038E+03  0.18270874973E+03  0.12508777658E+03 0.  0.
        -24    2    1    2    0    0  0.14338957148E+02  0.45571338320E+02  0.90785529374E+03  0.91268707053E+03  0.80709985603E+02 0.  0.
        -13    1    3    3    0    0 -0.30166983581E+01 -0.37676205072E+02 -0.14195263331E+04  0.14200294389E+04  0.00000000000E+00 0.  1.
         14    1    3    3    0    0 -0.26424266288E+02  0.20937880089E+02 -0.33526699820E+03  0.33695785605E+03  0.00000000000E+00 0. -1.
         11    1    5    5    0    0  0.53677739039E+01  0.74819020442E+01  0.86600101546E+01  0.12640713222E+02  0.00000000000E+00 0. -1.
        -12    1    5    5    0    0  0.89711832438E+01  0.38089436275E+02  0.89919528359E+03  0.90004635731E+03  0.00000000000E+00 0.  1.
          5    1    4    4  501    0  0.99829821147E+01  0.28445912517E+02  0.10050714926E+02  0.32051819626E+02  0.41800000000E+01 0. -1.
         -5    1    4    4    0  501  0.51190253834E+01 -0.57278925853E+02 -0.13918677531E+03  0.15065693011E+03  0.41800000000E+01 0. -1.
</event>
<event>
11    1  0.8299058E-009  0.1380976E+03  0.7561462E-02  0.1109702E+00
         22   -1    0    0    0    0  0.00000000000E+00  0.00000000000E+00  0.39765797363E+03  0.39765797363E+03  0.00000000000E+00 0. -1.
         22   -1    0    0    0    0 -0.00000000000E+00 -0.00000000000E+00 -0.22777299487E+04  0.22777299487E+04  0.00000000000E+00 0. -1.
         24    2    1    2    0    0  0.49269468370E+02 -0.14475498349E+02 -0.13804842193E+04  0.13844510691E+04  0.91274653522E+02 0.  0.
         25    2    1    2    0    0 -0.74055724944E+02  0.34723752094E+02 -0.88415814488E+03  0.89670100883E+03  0.12508830769E+03 0.  0.
        -24    2    1    2    0    0  0.24786256574E+02 -0.20248253745E+02  0.38457038908E+03  0.39423584445E+03  0.80642213478E+02 0.  0.
        -11    1    3    3    0    0  0.32270026091E+02  0.32255277413E+02 -0.95169348315E+03  0.95278656759E+03  0.00000000000E+00 0.  1.
         12    1    3    3    0    0  0.16999442279E+02 -0.46730775762E+02 -0.42879073616E+03  0.43166450151E+03  0.00000000000E+00 0. -1.
         11    1    5    5    0    0 -0.15260011479E+02 -0.33941181949E+02  0.26052038151E+03  0.26316485511E+03  0.00000000000E+00 0. -1.
        -12    1    5    5    0    0  0.40046268053E+02  0.13692928204E+02  0.12405000757E+03  0.13107098934E+03  0.00000000000E+00 0.  1.
          5    1    4    4  501    0  0.20796971270E+01  0.31594528111E+02 -0.64219152186E+03  0.64298519617E+03  0.41800000000E+01 0. -1.
         -5    1    4    4    0  501 -0.76135422071E+02  0.31292239829E+01 -0.24196662302E+03  0.25371581266E+03  0.41800000000E+01 0. -1.
</event>
<event>
11    1  0.8299058E-009  0.2092304E+03  0.7561462E-02  0.1048182E+00
         22   -1    0    0    0    0  0.00000000000E+00  0.00000000000E+00  0.23333795245E+03  0.23333795245E+03  0.00000000000E+00 0. -1.
         22   -1    0    0    0    0 -0.00000000000E+00 -0.00000000000E+00 -0.53247383541E+03  0.53247383541E+03  0.00000000000E+00 0.  1.
         24    2    1    2    0    0 -0.66957115945E+02 -0.75445887068E+02 -0.32358821806E+03  0.35028875515E+03  0.88416852826E+02 0.  0.
         25    2    1    2    0    0  0.58080593253E+02  0.21399192712E+03  0.10834765104E+02  0.25481672839E+03  0.12509305635E+03 0.  0.
        -24    2    1    2    0    0  0.88765226920E+01 -0.13854604005E+03  0.13617569998E+02  0.16070630432E+03  0.79795238988E+02 0.  0.
        -13    1    3    3    0    0 -0.79878081122E+02 -0.51212465846E+02 -0.29804081801E+03  0.31278036016E+03  0.00000000000E+00 0.  1.
         14    1    3    3    0    0  0.12920965177E+02 -0.24233421222E+02 -0.25547400054E+02  0.37508394991E+02  0.00000000000E+00 0. -1.
         13    1    5    5    0    0 -0.12081667175E+02 -0.87068906958E+02  0.42978827527E+02  0.97847538836E+02  0.00000000000E+00 0. -1.
        -14    1    5    5    0    0  0.20958189867E+02 -0.51477133094E+02 -0.29361257529E+02  0.62858765481E+02  0.00000000000E+00 0.  1.
          5    1    4    4  501    0  0.32758492887E+02  0.17651914607E+03 -0.42722578148E+02  0.18459365880E+03  0.41800000000E+01 0.  1.
         -5    1    4    4    0  501  0.25322100366E+02  0.37472781049E+02  0.53557343252E+02  0.70223069591E+02  0.41800000000E+01 0.  1.
</event>
<event>
11    1  0.8299058E-009  0.1730184E+03  0.7561462E-02  0.1075434E+00
         22   -1    0    0    0    0  0.00000000000E+00  0.00000000000E+00  0.62944003038E+03  0.62944003038E+03  0.00000000000E+00 0. -1.
         22   -1    0    0    0    0 -0.00000000000E+00 -0.00000000000E+00 -0.64879381550E+03  0.64879381550E+03  0.00000000000E+00 0. -1.
        -24    2    1    2    0    0  0.83258765301E+02 -0.86482282130E+02 -0.59269363663E+03  0.61017565387E+03  0.81347246767E+02 0.  0.
         25    2    1    2    0    0 -0.87423028493E+02  0.68428743450E+02  0.11704519940E+03  0.20414084897E+03  0.12509447900E+03 0.  0.
         24    2    1    2    0    0  0.41642631922E+01  0.18053538680E+02  0.45629465211E+03  0.46391734304E+03  0.81677538437E+02 0.  0.
        -11    1    5    5    0    0 -0.28361661686E+02 -0.59370621379E+01  0.33098857450E+03  0.33225452444E+03  0.00000000000E+00 0.  1.
         12    1    5    5    0    0  0.32525924878E+02  0.23990600817E+02  0.12530607760E+03  0.13166281860E+03  0.00000000000E+00 0. -1.
         13    1    3    3    0    0  0.60048796614E+02 -0.70253431823E+02 -0.55698025777E+03  0.56459579364E+03  0.00000000000E+00 0. -1.
        -14    1    3    3    0    0  0.23209968687E+02 -0.16228850306E+02 -0.35713378859E+02  0.45579860227E+02  0.00000000000E+00 0.  1.
          5    1    4    4  501    0 -0.11580692760E+03  0.63191098373E+02  0.11472960182E+03  0.17488485734E+03  0.41800000000E+01 0. -1.
         -5    1    4    4    0  501  0.28383899103E+02  0.52376450769E+01  0.23155975749E+01  0.29255991632E+02  0.41800000000E+01 0. -1.
</event>
<event>
11    1  0.8299058E-009  0.2782439E+03  0.7561462E-02  0.1009844E+00
         22   -1    0    0    0    0  0.00000000000E+00  0.00000000000E+00  0.48345002162E+04  0.48345002162E+04  0.00000000000E+00 0. -1.
         22   -1    0    0    0    0 -0.00000000000E+00 -0.00000000000E+00 -0.33432475424E+03  0.33432475424E+03  0.00000000000E+00 0.  1.
        -24    2    1    2    0    0 -0.18642169463E+03  0.15691462878E+03 -0.21298866527E+03  0.33364271089E+03  0.81105104918E+02 0.  0.
         25    2    1    2    0    0  0.22997680729E+03 -0.16145402220E+03  0.33016506910E+03  0.45123516220E+03  0.12508983003E+03 0.  0.
         24    2    1    2    0    0 -0.43555112659E+02  0.45393934147E+01  0.43829990582E+04  0.43839470974E+04  0.79960958272E+02 0.  0.
        -13    1    5    5    0    0 -0.52061536384E+02  0.32613663568E+02  0.27680076308E+04  0.27686892745E+04  0.00000000000E+00 0.  1.
         14    1    5    5    0    0  0.85064237244E+01 -0.28074270154E+02  0.16149914274E+04  0.16152578229E+04  0.00000000000E+00 0. -1.
         11    1    3    3    0    0 -0.24075950557E+02  0.46959114535E+02 -0.83121311264E+02  0.98457921059E+02  0.00000000000E+00 0. -1.
        -12    1    3    3    0    0 -0.16234574408E+03  0.10995551425E+03 -0.12986735400E+03  0.23518478983E+03  0.00000000000E+00 0.  1.
          5    1    4    4  501    0  0.18202857091E+02 -0.77027473508E+02  0.76630566072E+02  0.11024650442E+03  0.41800000000E+01 0. -1.
         -5    1    4    4    0  501  0.21177395020E+03 -0.84426548690E+02  0.25353450302E+03  0.34098865778E+03  0.41800000000E+01 0. -1.
</event>
<event>
11    1  0.8299058E-009  0.1384125E+03  0.7561462E-02  0.1109344E+00
         22   -1    0    0    0    0  0.00000000000E+00  0.00000000000E+00  0.12500498254E+04  0.12500498254E+04  0.00000000000E+00 0.  1.
         22   -1    0    0    0    0 -0.00000000000E+00 -0.00000000000E+00 -0.16376176479E+04  0.16376176479E+04  0.00000000000E+00 0. -1.
        -24    2    1    2    0    0 -0.80230556186E+02  0.18827601603E+02 -0.16119943671E+04  0.16160116343E+04  0.78589705285E+02 0.  0.
         25    2    1    2    0    0  0.36734050417E+02 -0.66447805806E+02  0.24922858625E+03  0.28901027722E+03  0.12508937115E+03 0.  0.
         24    2    1    2    0    0  0.43496505769E+02  0.47620204204E+02  0.97519795839E+03  0.98264556171E+03  0.10208629702E+03 0.  0.
        -13    1    5    5    0    0  0.42214799218E+02  0.69041595371E+02  0.91790699012E+03  0.92146734813E+03  0.00000000000E+00 0.  1.
         14    1    5    5    0    0  0.12817065509E+01 -0.21421391167E+02  0.57290968275E+02  0.61178213582E+02  0.00000000000E+00 0. -1.
         13    1    3    3    0    0 -0.87631804592E+02  0.10141752736E+02 -0.15705304698E+04  0.15730060854E+04  0.00000000000E+00 0. -1.
        -14    1    3    3    0    0  0.74012484059E+01  0.86858488671E+01 -0.41463897354E+02  0.43005548855E+02  0.00000000000E+00 0.  1.
          5    1    4    4  501    0  0.34111088911E+02  0.32401148052E+02  0.86162183374E+02  0.98258816528E+02  0.41800000000E+01 0. -1.
         -5    1    4    4    0  501  0.26229615065E+01 -0.98848953859E+02  0.16306640288E+03  0.19075146069E+03  0.41800000000E+01 0. -1.
</event>
<event>
11    1  0.8299058E-009  0.1460081E+03  0.7561462E-02  0.1101029E+00
         22   -1    0    0    0    0  0.00000000000E+00  0.00000000000E+00  0.37859253986E+04  0.37859253986E+04  0.00000000000E+00 0. -1.
         22   -1    0    0    0    0 -0.00000000000E+00 -0.00000000000E+00 -0.15686070723E+03  0.15686070723E+03  0.00000000000E+00 0. -1.
        -24    2    1    2    0    0  0.31979337420E+02  0.68042281241E+02 -0.13287809778E+03  0.17261234488E+03  0.80535722991E+02 0.  0.
         25    2    1    2    0    0 -0.50092947313E+02 -0.71765633706E+02  0.18079975763E+04  0.18144317802E+04  0.12509132531E+03 0.  0.
         24    2    1    2    0    0  0.18113609893E+02  0.37233524648E+01  0.19539452128E+04  0.19557419807E+04  0.81748602930E+02 0.  0.
        -13    1    5    5    0    0 -0.23759446548E+02 -0.23464333449E+02  0.68126580761E+03  0.68208370957E+03  0.00000000000E+00 0.  1.
         14    1    5    5    0    0  0.41873056441E+02  0.27187685913E+02  0.12726794052E+04  0.12736582711E+04  0.00000000000E+00 0. -1.
         11    1    3    3    0    0 -0.71399366567E+00  0.65757531679E+02 -0.12106985647E+03  0.13777689540E+03  0.00000000000E+00 0. -1.
        -12    1    3    3    0    0  0.32693331086E+02  0.22847495623E+01 -0.11808241311E+02  0.34835449486E+02  0.00000000000E+00 0.  1.
          5    1    4    4  501    0 -0.59273383107E+01  0.17436894666E+02  0.47484657129E+02  0.51102286619E+02  0.41800000000E+01 0. -1.
         -5    1    4    4    0  501 -0.44165609002E+02 -0.89202528372E+02  0.17605129192E+04  0.17633294936E+04  0.41800000000E+01 0. -1.
</event>
<event>
11    1  0.8299058E-009  0.1383412E+03  0.7561462E-02  0.1109425E+00
         22   -1    0    0    0    0  0.00000000000E+00  0.00000000000E+00  0.45959450875E+03  0.45959450875E+03  0.00000000000E+00 0.  1.
         22   -1    0    0    0    0 -0.00000000000E+00 -0.00000000000E+00 -0.31352132884E+03  0.31352132884E+03  0.00000000000E+00 0.  1.
         24    2    1    2    0    0 -0.67735703093E+01  0.40737523101E+01 -0.26490911481E+03  0.27916575098E+03  0.87716593061E+02 0.  0.
         25    2    1    2    0    0 -0.52966661613E+02  0.60789038606E+01  0.10767882946E+03  0.17345218443E+03  0.12509400327E+03 0.  0.
        -24    2    1    2    0    0  0.59740231922E+02 -0.10152656171E+02  0.30330346525E+03  0.32049790218E+03  0.83987746300E+02 0.  0.
        -13    1    3    3    0    0 -0.24765706729E+02  0.40335701692E+02 -0.13204556992E+03  0.14027238358E+03  0.00000000000E+00 0.  1.
         14    1    3    3    0    0  0.17992136420E+02 -0.36261949382E+02 -0.13286354489E+03  0.13889336739E+03  0.00000000000E+00 0. -1.
         11    1    5    5    0    0 -0.11421468578E+02  0.17553063146E+01  0.34115511464E+01  0.12048640005E+02  0.00000000000E+00 0. -1.
        -12    1    5    5    0    0  0.71161700500E+02 -0.11907962485E+02  0.29989191411E+03  0.30844926217E+03  0.00000000000E+00 0.  1.
          5    1    4    4  501    0 -0.75271041382E+02  0.35300066527E+02  0.31939882245E+02  0.89159704157E+02  0.41800000000E+01 0. -1.
         -5    1    4    4    0  501  0.22304379769E+02 -0.29221162666E+02  0.75738947218E+02  0.84292480270E+02  0.41800000000E+01 0. -1.
</event>
<event>
11    1  0.8299058E-009  0.1855352E+03  0.7561462E-02  0.1065251E+00
         22   -1    0    0    0    0  0.00000000000E+00  0.00000000000E+00  0.30120024414E+03  0.30120024414E+03  0.00000000000E+00 0. -1.
         22   -1    0    0    0    0 -0.00000000000E+00 -0.00000000000E+00 -0.65453722164E+03  0.65453722164E+03  0.00000000000E+00 0.  1.
        -24    2    1    2    0    0  0.12321013709E+03 -0.66230792588E+02 -0.48085690943E+03  0.50720427398E+03  0.80408658932E+02 0.  0.
         25    2    1    2    0    0 -0.12616856352E+03  0.28300698109E+02 -0.98641297402E+02  0.20518354149E+03  0.12510293447E+03 0.  0.
         24    2    1    2    0    0  0.29584264283E+01  0.37930094480E+02  0.22616122932E+03  0.24334965031E+03  0.81380011680E+02 0.  0.
        -11    1    5    5    0    0  0.33568916403E+02  0.84426060766E+01  0.42389127594E+02  0.54726482475E+02  0.00000000000E+00 0.  1.
         12    1    5    5    0    0 -0.30610489975E+02  0.29487488403E+02  0.18377210173E+03  0.18862316783E+03  0.00000000000E+00 0. -1.
         13    1    3    3    0    0  0.36526926850E+02  0.41575736280E+01 -0.22583486800E+03  0.22880753792E+03  0.00000000000E+00 0. -1.
        -14    1    3    3    0    0  0.86683210240E+02 -0.70388366216E+02 -0.25502204142E+03  0.27839673606E+03  0.00000000000E+00 0.  1.
          5    1    4    4  501    0 -0.27653295350E+02  0.67039796218E+02 -0.27992527821E+02  0.77846599376E+02  0.41800000000E+01 0. -1.
         -5    1    4    4    0  501 -0.98515268168E+02 -0.38739098109E+02 -0.70648769581E+02  0.12733694212E+03  0.41800000000E+01 0. -1.
</event>
<event>
11    1  0.8299058E-009  0.2019275E+03  0.7561462E-02  0.1053169E+00
         22   -1    0    0    0    0  0.00000000000E+00  0.00000000000E+00  0.33869692143E+03  0.33869692143E+03  0.00000000000E+00 0.  1.
         22   -1    0    0    0    0 -0.00000000000E+00 -0.00000000000E+00 -0.35162151323E+03  0.35162151323E+03  0.00000000000E+00 0.  1.
        -24    2    1    2    0    0  0.23391404765E+02  0.15110877547E+02 -0.23246047520E+03  0.24765730174E+03  0.80751285670E+02 0.  0.
         25    2    1    2    0    0  0.10158615972E+03 -0.11748383802E+03  0.80779234218E+02  0.21516230922E+03  0.12508930643E+03 0.  0.
         24    2    1    2    0    0 -0.12497756449E+03  0.10237296047E+03  0.13875664918E+03  0.22749882371E+03  0.80016825949E+02 0.  0.
        -13    1    5    5    0    0 -0.72707451608E+02  0.88631689369E+02  0.12900297542E+03  0.17257959771E+03  0.00000000000E+00 0.  1.
         14    1    5    5    0    0 -0.52270112878E+02  0.13741271101E+02  0.97536737620E+01  0.54919225993E+02  0.00000000000E+00 0. -1.
         13    1    3    3    0    0 -0.80283194207E+00  0.34158039915E+02 -0.39377675846E+02  0.52134610241E+02  0.00000000000E+00 0. -1.
        -14    1    3    3    0    0  0.24194236707E+02 -0.19047162368E+02 -0.19308279936E+03  0.19552269150E+03  0.00000000000E+00 0.  1.
          5    1    4    4  501    0  0.10056784084E+03 -0.34812352712E+02  0.78569181892E+02  0.13234945884E+03  0.41800000000E+01 0.  1.
         -5    1    4    4    0  501  0.10183188844E+01 -0.82671485306E+02  0.22100523253E+01  0.82812850375E+02  0.41800000000E+01 0.  1.
</event>
<event>
11    1  0.8299058E-009  0.1445930E+03  0.7561462E-02  0.1102535E+00
         22   -1    0    0    0    0  0.00000000000E+00  0.00000000000E+00  0.48342143813E+03  0.48342143813E+03  0.00000000000E+00 0. -1.
         22   -1    0    0    0    0 -0.00000000000E+00 -0.00000000000E+00 -0.75159132112E+03  0.75159132112E+03  0.00000000000E+00 0.  1.
        -24    2    1    2    0    0 -0.54913999264E+02 -0.21280329602E+02 -0.69861183598E+03  0.70572036341E+03  0.80711425560E+02 0.  0.
         25    2    1    2    0    0  0.71307525931E+02 -0.50150504347E+02  0.10255489068E+03  0.18375021084E+03  0.12508716177E+03 0.  0.
         24    2    1    2    0    0 -0.16393526668E+02  0.71430833949E+02  0.32788706231E+03  0.34554218501E+03  0.80736387309E+02 0.  0.
        -11    1    5    5    0    0 -0.12137244164E+02  0.45094711895E+02  0.58577123202E+02  0.74914118158E+02  0.00000000000E+00 0.  1.
         12    1    5    5    0    0 -0.42562825038E+01  0.26336122054E+02  0.26930993910E+03  0.27062806685E+03  0.00000000000E+00 0. -1.
         11    1    3    3    0    0 -0.32381523768E+02 -0.50124396704E+02 -0.33523693969E+03  0.34050671647E+03  0.00000000000E+00 0. -1.
        -12    1    3    3    0    0 -0.22532475496E+02  0.28844067102E+02 -0.36337489629E+03  0.36521364695E+03  0.00000000000E+00 0.  1.
          5    1    4    4  501    0 -0.15715459416E+02 -0.59895262424E+02  0.25733422118E+02  0.67187048897E+02  0.41800000000E+01 0.  1.
         -5    1    4    4    0  501  0.87022985347E+02  0.97447580772E+01  0.76821468565E+02  0.11656316194E+03  0.41800000000E+01 0.  1.
</event>
<event>
11    1  0.8299058E-009  0.1309110E+03  0.7561462E-02  0.1118155E+00
         22   -1    0    0    0    0  0.00000000000E+00  0.00000000000E+00  0.33058583401E+03  0.33058583401E+03  0.00000000000E+00 0.  1.
         22   -1    0    0    0    0 -0.00000000000E+00 -0.00000000000E+00 -0.76863942626E+03  0.76863942626E+03  0.00000000000E+00 0. -1.
         24    2    1    2    0    0  0.14399948766E+02  0.39081817956E+02 -0.61468649048E+03  0.62139776206E+03  0.80999691929E+02 0.  0.
         25    2    1    2    0    0  0.18627300623E+02 -0.19608330407E+02 -0.11533199873E+03  0.17227967925E+03  0.12508938805E+03 0.  0.
        -24    2    1    2    0    0 -0.33027249389E+02 -0.19473487549E+02  0.29196489695E+03  0.30554781896E+03  0.81522712776E+02 0.  0.
        -13    1    3    3    0    0 -0.12991562426E+02  0.32447067982E+02 -0.99850132796E+02  0.10579055692E+03  0.00000000000E+00 0.  1.
         14    1    3    3    0    0  0.27391511192E+02  0.66347499735E+01 -0.51483635769E+03  0.51560720514E+03  0.00000000000E+00 0. -1.
         11    1    5    5    0    0  0.17501718597E+02 -0.12119083740E+02  0.21320704274E+02  0.30128969037E+02  0.00000000000E+00 0. -1.
        -12    1    5    5    0    0 -0.50528967986E+02 -0.73544038091E+01  0.27064419268E+03  0.27541884992E+03  0.00000000000E+00 0.  1.
          5    1    4    4  501    0  0.64287286032E+02 -0.40137131519E+02 -0.54807736116E+02  0.93622672522E+02  0.41800000000E+01 0.  1.
         -5    1    4    4    0  501 -0.45659985409E+02  0.20528801112E+02 -0.60524262613E+02  0.78657006729E+02  0.41800000000E+01 0.  1.
</event>
<event>
11    1  0.8299058E-009  0.2549745E+03  0.7561462E-02  0.1021282E+00
         22   -1    0    0    0    0  0.00000000000E+00  0.00000000000E+00  0.47173133650E+03  0.47173133650E+03  0.00000000000E+00 0. -1.
         22   -1    0    0    0    0 -0.00000000000E+00 -0.00000000000E+00 -0.31117225480E+03  0.31117225480E+03  0.00000000000E+00 0. -1.
        -24    2    1    2    0    0  0.73006573883E+02 -0.22792363254E+03 -0.15324399639E+03  0.29526925907E+03  0.80131584409E+02 0.  0.
         25    2    1    2    0    0 -0.74323205377E+02  0.16832130640E+03  0.84585209829E+02  0.23802839047E+03  0.12508739305E+03 0.  0.
         24    2    1    2    0    0  0.13166314933E+01  0.59602326141E+02  0.22921786826E+03  0.24960594176E+03  0.78791650765E+02 0.  0.
        -11    1    5    5    0    0  0.33037241679E+02  0.57652369151E+02  0.16719237470E+03  0.17991260424E+03  0.00000000000E+00 0.  1.
         12    1    5    5    0    0 -0.31720610185E+02  0.19499569893E+01  0.62025493565E+02  0.69693337521E+02  0.00000000000E+00 0. -1.
         11    1    3    3    0    0  0.20940488213E+02 -0.18040709685E+03 -0.10406115332E+03  0.20931781642E+03  0.00000000000E+00 0. -1.
        -12    1    3    3    0    0  0.52066085670E+02 -0.47516535697E+02 -0.49182843071E+02  0.85951442654E+02  0.00000000000E+00 0.  1.
          5    1    4    4  501    0  0.16033111053E+02 -0.69814405132E+01 -0.85206062635E+01  0.19896589979E+02  0.41800000000E+01 0.  1.
         -5    1    4    4    0  501 -0.90356316430E+02  0.17530274692E+03  0.93105816092E+02  0.21813180049E+03  0.41800000000E+01 0.  1.
</event>
<event>
11    1  0.8299058E-009  0.1652398E+03  0.7561462E-02  0.1082250E+00
         22   -1    0    0    0    0  0.00000000000E+00  0.00000000000E+00  0.10462251373E+03  0.10462251373E+03  0.00000000000E+00 0.  1.
         22   -1    0    0    0    0 -0.00000000000E+00 -0.00000000000E+00 -0.64390424868E+03  0.64390424868E+03  0.00000000000E+00 0.  1.
        -24    2    1    2    0    0  0.73149405857E+02 -0.71673756826E+02 -0.36592445440E+03  0.38855271363E+03  0.81145190563E+02 0.  0.
         25    2    1    2    0    0 -0.74067211891E+02  0.10124727629E+03 -0.20330983575E+03  0.26966514619E+03  0.12508972349E+03 0.  0.
         24    2    1    2    0    0  0.91780603391E+00 -0.29573519461E+02  0.29952555206E+02  0.90308902591E+02  0.79894348377E+02 0.  0.
        -13    1    5    5    0    0  0.23192950797E+02 -0.46914440358E+02  0.33071314929E+02  0.61907911868E+02  0.00000000000E+00 0.  1.
         14    1    5    5    0    0 -0.22275144763E+02  0.17340920897E+02 -0.31187597235E+01  0.28400990722E+02  0.00000000000E+00 0. -1.
         13    1    3    3    0    0  0.41043554896E+02 -0.75993684383E+02 -0.17789463628E+03  0.19775266138E+03  0.00000000000E+00 0. -1.
        -14    1    3    3    0    0  0.32105850961E+02  0.43199275570E+01 -0.18802981811E+03  0.19080005225E+03  0.00000000000E+00 0.  1.
          5    1    4    4  501    0 -0.37789868375E+02 -0.19494332503E+02 -0.91982939511E+02  0.10142207212E+03  0.41800000000E+01 0.  1.
         -5    1    4    4    0  501 -0.36277343516E+02  0.12074160879E+03 -0.11132689624E+03  0.16824307407E+03  0.41800000000E+01 0.  1.
</event>
<event>
11    1  0.8299058E-009  0.1904750E+03  0.7561462E-02  0.1061471E+00
         22   -1    0    0    0    0  0.00000000000E+00  0.00000000000E+00  0.12827666390E+04  0.12827666390E+04  0.00000000000E+00 0.  1.
         22   -1    0    0    0    0 -0.00000000000E+00 -0.00000000000E+00 -0.39186214728E+03  0.39186214728E+03  0.00000000000E+00 0. -1.
         24    2    1    2    0    0 -0.83186355955E+02 -0.84028850268E+01 -0.29928909417E+03  0.32080684019E+03  0.79702500161E+02 0.  0.
         25    2    1    2    0    0  0.19516664364E+03  0.89655422625E+02  0.12770195844E+03  0.27943631186E+03  0.12509495833E+03 0.  0.
        -24    2    1    2    0    0 -0.11198028768E+03 -0.81252537599E+02  0.10624916275E+04  0.10743856343E+04  0.79211570747E+02 0.  0.
        -11    1    3    3    0    0  0.10678080312E+02  0.40730799694E+01 -0.94470164551E+02  0.95158937415E+02  0.00000000000E+00 0.  1.
         12    1    3    3    0    0 -0.93864436267E+02 -0.12475964996E+02 -0.20481892962E+03  0.22564790278E+03  0.00000000000E+00 0. -1.
         13    1    5    5    0    0  0.31488482626E+01 -0.27411390651E+02  0.10797860242E+03  0.11144809628E+03  0.00000000000E+00 0. -1.
        -14    1    5    5    0    0 -0.11512913595E+03 -0.53841146948E+02  0.95451302506E+03  0.96293753798E+03  0.00000000000E+00 0.  1.
          5    1    4    4  501    0  0.98352980594E+01  0.57046700458E+02  0.46819144435E+02  0.74569188051E+02  0.41800000000E+01 0.  1.
         -5    1    4    4    0  501  0.18533134558E+03  0.32608722167E+02  0.80882814003E+02  0.20486712381E+03  0.41800000000E+01 0.  1.
</event>
<event>
11    1  0.8299058E-009  0.1293480E+03  0.7561462E-02  0.1120073E+00
         22   -1    0    0    0    0  0.00000000000E+00  0.00000000000E+00  0.35488800197E+03  0.35488800197E+03  0.00000000000E+00 0.  1.
         22   -1    0    0    0    0 -0.00000000000E+00 -0.00000000000E+00 -0.38665083082E+03  0.38665083082E+03  0.00000000000E+00 0.  1.
        -24    2    1    2    0    0 -0.18282749179E+02  0.20042579851E+02 -0.32149826599E+03  0.33268016180E+03  0.81110980110E+02 0.  0.
         25    2    1    2    0    0  0.41826091228E+02 -0.37960067530E+02  0.38173353889E+02  0.14246082787E+03  0.12508994323E+03 0.  0.
         24    2    1    2    0    0 -0.23543342049E+02  0.17917487679E+02  0.25156208325E+03  0.26639784312E+03  0.82516687830E+02 0.  0.
        -13    1    5    5    0    0 -0.50622984873E+02  0.12492311993E+02  0.21085514126E+03  0.21720643419E+03  0.00000000000E+00 0.  1.
         14    1    5    5    0    0  0.27079642824E+02  0.54251756868E+01  0.40706941992E+02  0.49191408935E+02  0.00000000000E+00 0. -1.
         13    1    3    3    0    0  0.23091414114E+02  0.14820014120E+02 -0.42534131966E+02  0.50616189173E+02  0.00000000000E+00 0. -1.
        -14    1    3    3    0    0 -0.41374163293E+02  0.52225657303E+01 -0.27896413402E+03  0.28206397263E+03  0.00000000000E+00 0.  1.
          5    1    4    4  501    0 -0.11423517772E+02 -0.32543531959E+02 -0.36564792686E+02  0.50438424786E+02  0.41800000000E+01 0. -1.
         -5    1    4    4    0  501  0.53249609001E+02 -0.54165355709E+01  0.74738146575E+02  0.92022403086E+02  0.41800000000E+01 0. -1.
</event>
<event>
11    1  0.8299058E-009  0.1280072E+03  0.7561462E-02  0.1121742E+00
         22   -1    0    0    0    0  0.00000000000E+00  0.00000000000E+00  0.25457208497E+03  0.25457208497E+03  0.00000000000E+00 0. -1.
         22   -1    0    0    0    0 -0.00000000000E+00 -0.00000000000E+00 -0.12071982152E+04  0.12071982152E+04  0.00000000000E+00 0. -1.
        -24    2    1    2    0    0  0.10158534279E+02 -0.32540572296E+02 -0.11180483207E+04  0.11214398957E+04  0.80207902768E+02 0.  0.
         25    2    1    2    0    0 -0.17216611593E+02  0.25573566481E+01 -0.24145030098E+02  0.12858289199E+03  0.12509047064E+03 0.  0.
         24    2    1    2    0    0  0.70580773137E+01  0.29983215648E+02  0.18956722050E+03  0.21174751251E+03  0.89176612914E+02 0.  0.
        -13    1    5    5    0    0 -0.27088959369E+02  0.14835830163E+02  0.17145158030E+02  0.35325203754E+02  0.00000000000E+00 0.  1.
         14    1    5    5    0    0  0.34147036683E+02  0.15147385485E+02  0.17242206247E+03  0.17642230876E+03  0.00000000000E+00 0. -1.
         11    1    3    3    0    0 -0.31702869850E+02 -0.32204122218E+02 -0.55373574211E+03  0.55557668195E+03  0.00000000000E+00 0. -1.
        -12    1    3    3    0    0  0.41861404129E+02 -0.33645007847E+00 -0.56431257856E+03  0.56586321375E+03  0.00000000000E+00 0.  1.
          5    1    4    4  501    0 -0.39044560093E+02  0.74767744396E+01  0.42388380063E+02  0.58263427579E+02  0.41800000000E+01 0.  1.
         -5    1    4    4    0  501  0.21827948500E+02 -0.49194177915E+01 -0.66533410161E+02  0.70319464409E+02  0.41800000000E+01 0.  1.
</event>
<event>
11    1  0.8299058E-009  0.1536889E+03  0.7561462E-02  0.1093168E+00
         22   -1    0    0    0    0  0.00000000000E+00  0.00000000000E+00  0.42924798603E+03  0.42924798603E+03  0.00000000000E+00 0. -1.
         22   -1    0    0    0    0 -0.00000000000E+00 -0.00000000000E+00 -0.54753486906E+03  0.54753486906E+03  0.00000000000E+00 0. -1.
        -24    2    1    2    0    0 -0.53861636429E+02 -0.79518425277E+02 -0.28177982352E+03  0.30851407722E+03  0.80974138223E+02 0.  0.
         25    2    1    2    0    0  0.20632963518E+02  0.78338830420E+02 -0.22520240870E+03  0.27005102639E+03  0.12509492569E+03 0.  0.
         24    2    1    2    0    0  0.33228672911E+02  0.11795948576E+01  0.38869534920E+03  0.39821775147E+03  0.79923506894E+02 0.  0.
        -13    1    5    5    0    0  0.23261457925E+02 -0.20431396718E+02  0.50839343925E+02  0.59524585570E+02  0.00000000000E+00 0.  1.
         14    1    5    5    0    0  0.99672149865E+01  0.21610991575E+02  0.33785600527E+03  0.33869316590E+03  0.00000000000E+00 0. -1.
         11    1    3    3    0    0 -0.71790731039E+02 -0.79850467839E+02 -0.24859379039E+03  0.27079305549E+03  0.00000000000E+00 0. -1.
        -12    1    3    3    0    0  0.17929094610E+02  0.33204256183E+00 -0.33186033131E+02  0.37721021736E+02  0.00000000000E+00 0.  1.
          5    1    4    4  501    0 -0.40364750288E+02  0.77503467379E+02 -0.12266987115E+03  0.15067007071E+03  0.41800000000E+01 0. -1.
         -5    1    4    4    0  501  0.60997713806E+02  0.83536304071E+00 -0.10253253756E+03  0.11938095568E+03  0.41800000000E+01 0. -1.
</event>
<event>
11    1  0.8299058E-009  0.1253894E+03  0.7561462E-02  0.1125067E+00
         22   -1    0    0    0    0  0.00000000000E+00  0.00000000000E+00  0.78715280446E+03  0.78715280446E+03  0.00000000000E+00 0.  1.
         22   -1    0    0    0    0 -0.00000000000E+00 -0.00000000000E+00 -0.36179811524E+03  0.36179811524E+03  0.00000000000E+00 0.  1.
        -24    2    1    2    0    0  0.49428863838E+01  0.73070925639E+01 -0.31378352869E+03  0.32732191121E+03  0.92745377000E+02 0.  0.
         25    2    1    2    0    0  0.12627599724E+02 -0.14761175095E+02  0.64781122670E+02  0.14220131525E+03  0.12508905484E+03 0.  0.
         24    2    1    2    0    0 -0.17570486108E+02  0.74540825311E+01  0.67435709525E+03  0.67942769323E+03  0.80623898976E+02 0.  0.
        -11    1    5    5    0    0  0.69907501718E+01  0.37354862731E+02  0.46304634469E+03  0.46460324330E+03  0.00000000000E+00 0.  1.
         12    1    5    5    0    0 -0.24561236279E+02 -0.29900780199E+02  0.21131075056E+03  0.21482444993E+03  0.00000000000E+00 0. -1.
         11    1    3    3    0    0  0.23955730382E+02  0.23514713036E+02 -0.39219336594E+02  0.51623396926E+02  0.00000000000E+00 0. -1.
        -12    1    3    3    0    0 -0.19012843999E+02 -0.16207620472E+02 -0.27456419210E+03  0.27569851429E+03  0.00000000000E+00 0.  1.
          5    1    4    4  501    0  0.24185786911E+01 -0.55442629731E+02  0.79942867118E+02  0.97406720084E+02  0.41800000000E+01 0.  1.
         -5    1    4    4    0  501  0.10209021033E+02  0.40681454636E+02 -0.15161744448E+02  0.44794595170E+02  0.41800000000E+01 0.  1.
</event>
<event>
11    1  0.8299058E-009  0.1417750E+03  0.7561462E-02  0.1105592E+00
         22   -1    0    0    0    0  0.00000000000E+00  0.00000000000E+00  0.13532551788E+04  0.13532551788E+04  0.00000000000E+00 0. -1.
         22   -1    0    0    0    0 -0.00000000000E+00 -0.00000000000E+00 -0.22761766394E+03  0.22761766394E+03  0.00000000000E+00 0. -1.
        -24    2    1    2    0    0  0.78315356246E+01  0.69194277069E+02 -0.19480364166E+03  0.22204587216E+03  0.80664301963E+02 0.  0.
         25    2    1    2    0    0  0.18123445574E+02 -0.17658326060E+02  0.22189269566E+03  0.25597754808E+03  0.12509141047E+03 0.  0.
         24    2    1    2    0    0 -0.25954981198E+02 -0.51535951009E+02  0.10985484608E+04  0.11028494225E+04  0.78348660222E+02 0.  0.
        -13    1    5    5    0    0 -0.21164490289E+02 -0.68930235392E+00  0.72461766207E+02  0.75492505249E+02  0.00000000000E+00 0.  1.
         14    1    5    5    0    0 -0.47904909090E+01 -0.50846648655E+02  0.10260866946E+04  0.10273569172E+04  0.00000000000E+00 0. -1.
         13    1    3    3    0    0  0.70934206530E+01  0.86008415054E+02 -0.13765516685E+03  0.16247064054E+03  0.00000000000E+00 0. -1.
        -14    1    3    3    0    0  0.73811497164E+00 -0.16814137985E+02 -0.57148474812E+02  0.59575231625E+02  0.00000000000E+00 0.  1.
          5    1    4    4  501    0  0.62872179295E+02 -0.38614610503E+00  0.18465339901E+03  0.19510871381E+03  0.41800000000E+01 0. -1.
         -5    1    4    4    0  501 -0.44748733721E+02 -0.17272179955E+02  0.37239296654E+02  0.60868834269E+02  0.41800000000E+01 0. -1.
</event>
<event>
11    1  0.8299058E-009  0.3949214E+03  0.7561462E-02  0.9664862E-01
         22   -1    0    0    0    0  0.00000000000E+00  0.00000000000E+00  0.58467060028E+03  0.58467060028E+03  0.00000000000E+00 0.  1.
         22   -1    0    0    0    0 -0.00000000000E+00 -0.00000000000E+00 -0.11610977661E+04  0.11610977661E+04  0.00000000000E+00 0.  1.
         24    2    1    2    0    0 -0.18189300208E+03 -0.33828415480E+03 -0.80753147390E+03  0.89788475418E+03  0.81047620902E+02 0.  0.
         25    2    1    2    0    0  0.58392188872E+02  0.35843329925E+03 -0.17009406973E+03  0.42007452419E+03  0.12508611266E+03 0.  0.
        -24    2    1    2    0    0  0.12350081321E+03 -0.20149144452E+02  0.40119837779E+03  0.42780908804E+03  0.80012740142E+02 0.  0.
        -11    1    3    3    0    0 -0.18424554028E+03 -0.28704127223E+03 -0.71038607038E+03  0.78802758839E+03  0.00000000000E+00 0.  1.
         12    1    3    3    0    0  0.23525381934E+01 -0.51242882575E+02 -0.97145403525E+02  0.10985716579E+03  0.00000000000E+00 0. -1.
         13    1    5    5    0    0  0.49008756799E+02  0.27820464968E+02  0.11257734074E+03  0.12589477416E+03  0.00000000000E+00 0. -1.
        -14    1    5    5    0    0  0.74492056413E+02 -0.47969609421E+02  0.28862103705E+03  0.30191431388E+03  0.00000000000E+00 0.  1.
          5    1    4    4  501    0  0.89404298630E+02  0.29292903003E+03 -0.16343991899E+03  0.34717520759E+03  0.41800000000E+01 0. -1.
         -5    1    4    4    0  501 -0.31012109759E+02  0.65504269222E+02 -0.66541507454E+01  0.72899316596E+02  0.41800000000E+01 0. -1.
</event>
<event>
11    1  0.8299058E-009  0.1579478E+03  0.7561462E-02  0.1089023E+00
         22   -1    0    0    0    0  0.00000000000E+00  0.00000000000E+00  0.40518490879E+03  0.40518490879E+03  0.00000000000E+00 0. -1.
         22   -1    0    0    0    0 -0.00000000000E+00 -0.00000000000E+00 -0.21275594966E+04  0.21275594966E+04  0.00000000000E+00 0. -1.
        -24    2    1    2    0    0 -0.59750546546E+01 -0.24944770609E+02 -0.20407314135E+04  0.20426060761E+04  0.83647698535E+02 0.  0.
         25    2    1    2    0    0 -0.49333432344E+02  0.10086066620E+03  0.23267380751E+02  0.16969849188E+03  0.12509814389E+03 0.  0.
         24    2    1    2    0    0  0.55308486999E+02 -0.75915895594E+02  0.29508944497E+03  0.32043983731E+03  0.82350815820E+02 0.  0.
        -13    1    5    5    0    0  0.43995819331E+01  0.17357822225E+02  0.56169770788E+02  0.58955012204E+02  0.00000000000E+00 0.  1.
         14    1    5    5    0    0  0.50908905066E+02 -0.93273717820E+02  0.23891967418E+03  0.26148482511E+03  0.00000000000E+00 0. -1.
         13    1    3    3    0    0 -0.98668764396E+01 -0.49165364309E+02 -0.17841674968E+04  0.17848720528E+04  0.00000000000E+00 0. -1.
        -14    1    3    3    0    0  0.38918217850E+01  0.24220593700E+02 -0.25656391669E+03  0.25773402333E+03  0.00000000000E+00 0.  1.
          5    1    4    4  501    0 -0.74535050771E+02  0.30549098900E+02  0.44252215308E+02  0.92002457558E+02  0.41800000000E+01 0.  1.
         -5    1    4    4    0  501  0.25201618427E+02  0.70311567304E+02 -0.20984834556E+02  0.77696034322E+02  0.41800000000E+01 0.  1.
</event>
<event>
11    1  0.8299058E-009  0.1374667E+03  0.7561462E-02  0.1110421E+00
         22   -1    0    0    0    0  0.00000000000E+00  0.00000000000E+00  0.76502435780E+03  0.76502435780E+03  0.00000000000E+00 0. -1.
         22   -1    0    0    0    0 -0.00000000000E+00 -0.00000000000E+00 -0.16387404205E+04  0.16387404205E+04  0.00000000000E+00 0.  1.
         24    2    1    2    0    0  0.37906133101E+02  0.36075207874E+02 -0.15672590990E+04  0.15700200479E+04  0.76964743468E+02 0.  0.
         25    2    1    2    0    0 -0.92881883594E+02 -0.30895396811E+02  0.28274084050E+02  0.16133362021E+03  0.12509014085E+03 0.  0.
        -24    2    1    2    0    0  0.54975750492E+02 -0.51798110628E+01  0.66526895224E+03  0.67241111023E+03  0.80652084670E+02 0.  0.
        -11    1    3    3    0    0  0.11192982574E+02  0.43570716606E+02 -0.13783989498E+04  0.13791328272E+04  0.00000000000E+00 0.  1.
         12    1    3    3    0    0  0.26713150527E+02 -0.74955087314E+01 -0.18886014919E+03  0.19088722067E+03  0.00000000000E+00 0. -1.
         13    1    5    5    0    0 -0.12532857749E+02  0.15728529004E+02  0.27945997933E+03  0.28018268897E+03  0.00000000000E+00 0. -1.
        -14    1    5    5    0    0  0.67508608241E+02 -0.20908340067E+02  0.38580897291E+03  0.39222842126E+03  0.00000000000E+00 0.  1.
          5    1    4    4  501    0 -0.28982550661E+01 -0.34799006224E+02  0.56762897774E+02  0.66774768291E+02  0.41800000000E+01 0.  1.
         -5    1    4    4    0  501 -0.89983628528E+02  0.39036094123E+01 -0.28488813724E+02  0.94558851922E+02  0.41800000000E+01 0.  1.
</event>
<event>
11    1  0.8299058E-009  0.1746452E+03  0.7561462E-02  0.1074059E+00
         22   -1    0    0    0    0  0.00000000000E+00  0.00000000000E+00  0.83345649977E+03  0.83345649977E+03  0.00000000000E+00 0. -1.
         22   -1    0    0    0    0 -0.00000000000E+00 -0.00000000000E+00 -0.10759718381E+03  0.10759718381E+03  0.00000000000E+00 0.  1.
        -24    2    1    2    0    0  0.43708805331E+02  0.57386430028E+02  0.21034079038E+02  0.11049979405E+03  0.81019195194E+02 0.  0.
         25    2    1    2    0    0 -0.15817906634E+03 -0.67816152524E+02  0.15454016187E+03  0.26296480941E+03  0.12509269279E+03 0.  0.
         24    2    1    2    0    0  0.11447026101E+03  0.10429722495E+02  0.55028507505E+03  0.56758908012E+03  0.78303769287E+02 0.  0.
        -13    1    5    5    0    0 -0.38797853001E+01  0.14422157289E+02  0.24996476268E+02  0.29118296321E+02  0.00000000000E+00 0.  1.
         14    1    5    5    0    0  0.11835004631E+03 -0.39924347936E+01  0.52528859878E+03  0.53847078380E+03  0.00000000000E+00 0. -1.
         13    1    3    3    0    0 -0.20292082486E+02  0.30351480221E+02 -0.38247371981E+01  0.36709802204E+02  0.00000000000E+00 0. -1.
        -14    1    3    3    0    0  0.64000887817E+02  0.27034949807E+02  0.24858816236E+02  0.73789991849E+02  0.00000000000E+00 0.  1.
          5    1    4    4  501    0 -0.10980340834E+03 -0.10008831076E+03  0.13684606907E+03  0.20203657455E+03  0.41800000000E+01 0.  1.
         -5    1    4    4    0  501 -0.48375657994E+02  0.32272158240E+02  0.17694092801E+02  0.60928234866E+02  0.41800000000E+01 0.  1.
</event>
<event>
11    1  0.8299058E-009  0.3293945E+03  0.7561462E-02  0.9884651E-01
         22   -1    0    0    0    0  0.00000000000E+00  0.00000000000E+00  0.40982881455E+03  0.40982881455E+03  0.00000000000E+00 0.  1.
         22   -1    0    0    0    0 -0.00000000000E+00 -0.00000000000E+00 -0.67877362361E+03  0.67877362361E+03  0.00000000000E+00 0.  1.
        -24    2    1    2    0    0 -0.38456254115E+03 -0.72796174192E+02 -0.36949613025E+03  0.54416522743E+03  0.80004833848E+02 0.  0.
         25    2    1    2    0    0  0.18640479090E+03  0.11840845089E+03 -0.74508976461E+02  0.26450996846E+03  0.12508648421E+03 0.  0.
         24    2    1    2    0    0  0.19815775025E+03 -0.45612276695E+02  0.17506029765E+03  0.27992724227E+03  0.79788341113E+02 0.  0.
        -13    1    5    5    0    0  0.16866165541E+03 -0.66442796849E+02  0.15564662376E+03  0.23892942629E+03  0.00000000000E+00 0.  1.
         14    1    5    5    0    0  0.29496094846E+02  0.20830520153E+02  0.19413673892E+02  0.40997815979E+02  0.00000000000E+00 0. -1.
         13    1    3    3    0    0 -0.13080961557E+03 -0.54267785245E+02 -0.98862504333E+02  0.17271347024E+03  0.00000000000E+00 0. -1.
        -14    1    3    3    0    0 -0.25375292558E+03 -0.18528388947E+02 -0.27063362592E+03  0.37145175718E+03  0.00000000000E+00 0.  1.
          5    1    4    4  501    0 -0.11438764134E+02  0.17402808490E+02  0.13906926859E+02  0.25388542355E+02  0.41800000000E+01 0. -1.
         -5    1    4    4    0  501  0.19784355503E+03  0.10100564240E+03 -0.88415903320E+02  0.23912142611E+03  0.41800000000E+01 0. -1.
</event>
<event>
11    1  0.8299058E-009  0.1948040E+03  0.7561462E-02  0.1058260E+00
         22   -1    0    0    0    0  0.00000000000E+00  0.00000000000E+00  0.45759100176E+03  0.45759100176E+03  0.00000000000E+00 0.  1.
         22   -1    0    0    0    0 -0.00000000000E+00 -0.00000000000E+00 -0.44971917983E+03  0.44971917983E+03  0.00000000000E+00 0.  1.
         24    2    1    2    0    0 -0.11476036508E+03 -0.92443863026E+02 -0.28317240274E+03  0.32919079494E+03  0.80400003734E+02 0.  0.
         25    2    1    2    0    0  0.14610967974E+03  0.64853797436E+02 -0.62587136662E+02  0.21240426272E+03  0.12507744638E+03 0.  0.
        -24    2    1    2    0    0 -0.31349314659E+02  0.27590065590E+02  0.35363136133E+03  0.36571512393E+03  0.83357188689E+02 0.  0.
        -11    1    3    3    0    0 -0.43815282696E+02 -0.20467256351E+02 -0.17323629467E+03  0.17985967133E+03  0.00000000000E+00 0.  1.
         12    1    3    3    0    0 -0.70945082383E+02 -0.71976606675E+02 -0.10993610806E+03  0.14933112361E+03  0.00000000000E+00 0. -1.
         13    1    5    5    0    0 -0.17822554530E+02 -0.22189496390E+02  0.48338120840E+02  0.56094483921E+02  0.00000000000E+00 0. -1.
        -14    1    5    5    0    0 -0.13526760129E+02  0.49779561980E+02  0.30529324049E+03  0.30962064001E+03  0.00000000000E+00 0.  1.
          5    1    4    4  501    0 -0.15733257900E+02  0.30379338356E+02  0.24636514805E+01  0.34554038574E+02  0.41800000000E+01 0. -1.
         -5    1    4    4    0  501  0.16184293764E+03  0.34474459079E+02 -0.65050788143E+02  0.17785022415E+03  0.41800000000E+01 0. -1.
</event>
<event>
11    1  0.8299058E-009  0.1594312E+03  0.7561462E-02  0.1087613E+00
         22   -1    0    0    0    0  0.00000000000E+00  0.00000000000E+00  0.94481465826E+03  0.94481465826E+03  0.00000000000E+00 0. -1.
         22   -1    0    0    0    0 -0.00000000000E+00 -0.00000000000E+00 -0.12670840510E+03  0.12670840510E+03  0.00000000000E+00 0.  1.
         24    2    1    2    0    0 -0.35690254745E+02 -0.26540578404E+02 -0.81624930289E+02  0.12203659099E+03  0.79070245416E+02 0.  0.
         25    2    1    2    0    0  0.11209550291E+03  0.65254101423E+02  0.44904858895E+03  0.48385463465E+03  0.12508865941E+03 0.  0.
        -24    2    1    2    0    0 -0.76405248161E+02 -0.38713523018E+02  0.45068259450E+03  0.46563183771E+03  0.79760319039E+02 0.  0.
        -11    1    3    3    0    0 -0.31969366090E+02 -0.41463463255E+02 -0.90298601145E+02  0.10437957905E+03  0.00000000000E+00 0.  1.
         12    1    3    3    0    0 -0.37208886546E+01  0.14922884851E+02  0.86736708561E+01  0.17657011943E+02  0.00000000000E+00 0. -1.
         11    1    5    5    0    0 -0.35253399951E+02 -0.34627837991E+02  0.38400337825E+03  0.38716983854E+03  0.00000000000E+00 0. -1.
        -12    1    5    5    0    0 -0.41151848210E+02 -0.40856850274E+01  0.66679216254E+02  0.78461999168E+02  0.00000000000E+00 0.  1.
          5    1    4    4  501    0  0.78339114201E+02 -0.22180073666E+02  0.15398235251E+03  0.17423263118E+03  0.41800000000E+01 0.  1.
         -5    1    4    4    0  501  0.33756388705E+02  0.87434175088E+02  0.29506623643E+03  0.30962200347E+03  0.41800000000E+01 0.  1.
</event>
<event>
11    1  0.8299058E-009  0.1276044E+03  0.7561462E-02  0.1122248E+00
         22   -1    0    0    0    0  0.00000000000E+00  0.00000000000E+00  0.21070479600E+03  0.21070479600E+03  0.00000000000E+00 0.  1.
         22   -1    0    0    0    0 -0.00000000000E+00 -0.00000000000E+00 -0.55208847872E+03  0.55208847872E+03  0.00000000000E+00 0.  1.
        -24    2    1    2    0    0  0.13103623895E+02  0.21377619633E+02 -0.40345764894E+03  0.41236662429E+03  0.81482824896E+02 0.  0.
         25    2    1    2    0    0 -0.87157007045E+00 -0.31675624414E+02 -0.10332980522E+03  0.16527624912E+03  0.12504033373E+03 0.  0.
         24    2    1    2    0    0 -0.12232053825E+02  0.10298004782E+02  0.16540377144E+03  0.18515040132E+03  0.81649197530E+02 0.  0.
        -13    1    5    5    0    0 -0.24539422756E+02 -0.40010466494E+01  0.16438715249E+03  0.16625681203E+03  0.00000000000E+00 0.  1.
         14    1    5    5    0    0  0.12307368931E+02  0.14299051431E+02  0.10166189491E+01  0.18893589281E+02  0.00000000000E+00 0. -1.
         11    1    3    3    0    0  0.12588995625E+02 -0.38444019730E+01 -0.66308223046E+01  0.14738725922E+02  0.00000000000E+00 0. -1.
        -12    1    3    3    0    0  0.51462826990E+00  0.25222021606E+02 -0.39682682664E+03  0.39762789836E+03  0.00000000000E+00 0.  1.
          5    1    4    4  501    0 -0.48210048672E+01 -0.63998518081E+02 -0.11388465319E+03  0.13079082168E+03  0.41800000000E+01 0. -1.
         -5    1    4    4    0  501  0.39494347967E+01  0.32322893666E+02  0.10554847966E+02  0.34485427440E+02  0.41800000000E+01 0. -1.
</event>
<event>
11    1  0.8299058E-009  0.1296416E+03  0.7561462E-02  0.1119710E+00
         22   -1    0    0    0    0  0.00000000000E+00  0.00000000000E+00  0.84546642441E+03  0.84546642441E+03  0.00000000000E+00 0. -1.
         22   -1    0    0    0    0 -0.00000000000E+00 -0.00000000000E+00 -0.79256120433E+02  0.79256120433E+02  0.00000000000E+00 0.  1.
         24    2    1    2    0    0  0.27150334607E+02 -0.25349011840E+02 -0.29779894636E+02  0.94980070592E+02  0.82186730161E+02 0.  0.
         25    2    1    2    0    0 -0.81574722644E+00  0.79828941991E+01  0.28071823977E+03  0.30743294851E+03  0.12509154906E+03 0.  0.
        -24    2    1    2    0    0 -0.26334587380E+02  0.17366117641E+02  0.51527195885E+03  0.52230952575E+03  0.79416349551E+02 0.  0.
        -13    1    3    3    0    0  0.13985081801E+02 -0.30855384978E+02 -0.55814547051E+02  0.65290894906E+02  0.00000000000E+00 0.  1.
         14    1    3    3    0    0  0.13165252805E+02  0.55063731372E+01  0.26034652415E+02  0.29689175686E+02  0.00000000000E+00 0. -1.
         13    1    5    5    0    0 -0.18406326576E+02  0.17200918919E+02  0.51358448026E+03  0.51420198642E+03  0.00000000000E+00 0. -1.
        -14    1    5    5    0    0 -0.79282608040E+01  0.16519872205E+00  0.16874785861E+01  0.81075393291E+01  0.00000000000E+00 0.  1.
          5    1    4    4  501    0 -0.59915826120E+02  0.19931900293E+02  0.11883012959E+03  0.13463008196E+03  0.41800000000E+01 0.  1.
         -5    1    4    4    0  501  0.59100078893E+02 -0.11949006094E+02  0.16188811018E+03  0.17280286655E+03  0.41800000000E+01 0.  1.
</event>
<event>
11    1  0.8299058E-009  0.1388229E+03  0.7561462E-02  0.1108880E+00
         22   -1    0    0    0    0  0.00000000000E+00  0.00000000000E+00  0.62133112143E+03  0.62133112143E+03  0.00000000000E+00 0.  1.
         22   -1    0    0    0    0 -0.00000000000E+00 -0.00000000000E+00 -0.20811414143E+03  0.20811414143E+03  0.00000000000E+00 0. -1.
        -24    2    1    2    0    0 -0.57465198242E+01  0.13240875420E+02 -0.70568232261E+02  0.10693303188E+03  0.79034515442E+02 0.  0.
         25    2    1    2    0    0  0.31045716351E+02  0.41779012943E+02 -0.75022670903E+02  0.15487140886E+03  0.12508968665E+03 0.  0.
         24    2    1    2    0    0 -0.25299196527E+02 -0.55019888364E+02  0.55880788317E+03  0.56764082212E+03  0.79262949648E+02 0.  0.
        -13    1    5    5    0    0 -0.30744195075E+02 -0.11274285360E+02  0.43478389898E+03  0.43601531378E+03  0.00000000000E+00 0.  1.
         14    1    5    5    0    0  0.54449985485E+01 -0.43745603003E+02  0.12402398419E+03  0.13162550834E+03  0.00000000000E+00 0. -1.
         13    1    3    3    0    0 -0.39201377080E+02  0.90190445249E+01 -0.58750577794E+02  0.71201976941E+02  0.00000000000E+00 0. -1.
        -14    1    3    3    0    0  0.33454857256E+02  0.42218308954E+01 -0.11817654467E+02  0.35731054942E+02  0.00000000000E+00 0.  1.
          5    1    4    4  501    0 -0.24668082780E+02  0.63492410020E+02 -0.64716393730E+02  0.94050435701E+02  0.41800000000E+01 0.  1.
         -5    1    4    4    0  501  0.55713799131E+02 -0.21713397077E+02 -0.10306277174E+02  0.60820973154E+02  0.41800000000E+01 0.  1.
</event>
<event>
11    1  0.8299058E-009  0.1526719E+03  0.7561462E-02  0.1094180E+00
         22   -1    0    0    0    0  0.00000000000E+00  0.00000000000E+00  0.39637326092E+03  0.39637326092E+03  0.00000000000E+00 0. -1.
         22   -1    0    0    0    0 -0.00000000000E+00 -0.00000000000E+00 -0.66910839736E+03  0.66910839736E+03  0.00000000000E+00 0. -1.
        -24    2    1    2    0    0  0.21181541479E+02  0.68842012840E+01 -0.51059213862E+03  0.51705131419E+03  0.78368868557E+02 0.  0.
         25    2    1    2    0    0  0.64365682490E+02 -0.30686235905E+02 -0.10877082801E+03  0.18045431482E+03  0.12509228815E+03 0.  0.
         24    2    1    2    0    0 -0.85547223969E+02  0.23802034621E+02  0.34662783018E+03  0.36797602927E+03  0.85852437797E+02 0.  0.
        -11    1    5    5    0    0  0.45292893447E+01  0.14219000706E+01 -0.34079780085E+01  0.58438494064E+01  0.00000000000E+00 0.  1.
         12    1    5    5    0    0 -0.90076513313E+02  0.22380134551E+02  0.35003580819E+03  0.36213217986E+03  0.00000000000E+00 0. -1.
         13    1    3    3    0    0  0.48571348759E+02 -0.22488967252E+01 -0.39156668353E+03  0.39457407557E+03  0.00000000000E+00 0. -1.
        -14    1    3    3    0    0 -0.27389807280E+02  0.91330980092E+01 -0.11902545509E+03  0.12247723862E+03  0.00000000000E+00 0.  1.
          5    1    4    4  501    0  0.15200737212E+02  0.29204979398E+02 -0.96301272705E+02  0.10185971116E+03  0.41800000000E+01 0.  1.
         -5    1    4    4    0  501  0.49164945278E+02 -0.59891215304E+02 -0.12469555305E+02  0.78594603659E+02  0.41800000000E+01 0.  1.
</event>
<event>
11    1  0.8299058E-009  0.1682212E+03  0.7561462E-02  0.1079590E+00
         22   -1    0    0    0    0  0.00000000000E+00  0.00000000000E+00  0.33104214005E+03  0.33104214005E+03  0.00000000000E+00 0. -1.
         22   -1    0    0    0    0 -0.00000000000E+00 -0.00000000000E+00 -0.33657249792E+03  0.33657249792E+03  0.00000000000E+00 0. -1.
        -24    2    1    2    0    0 -0.90065804715E+02 -0.32332244685E+02 -0.23196708726E+03  0.26369826104E+03  0.81060595109E+02 0.  0.
         25    2    1    2    0    0 -0.55085888212E+02  0.34029453096E+02  0.33315386845E+02  0.14474285573E+03  0.12509244792E+03 0.  0.
         24    2    1    2    0    0  0.14515169293E+03 -0.16972084108E+01  0.19312134254E+03  0.25917352120E+03  0.93825192101E+02 0.  0.
        -13    1    5    5    0    0  0.45782149833E+02 -0.26923990307E+02  0.17687949494E+02  0.55980086234E+02  0.00000000000E+00 0.  1.
         14    1    5    5    0    0  0.99369543094E+02  0.25226781896E+02  0.17543339305E+03  0.20319343497E+03  0.00000000000E+00 0. -1.
         11    1    3    3    0    0 -0.32494422829E+02 -0.54005566697E+02 -0.13285652161E+03  0.14704878131E+03  0.00000000000E+00 0. -1.
        -12    1    3    3    0    0 -0.57571381886E+02  0.21673322012E+02 -0.99110565646E+02  0.11664947973E+03  0.00000000000E+00 0.  1.
          5    1    4    4  501    0 -0.69870553427E-01  0.56744496844E+02 -0.24234286323E+02  0.61844287025E+02  0.41800000000E+01 0. -1.
         -5    1    4    4    0  501 -0.55016017659E+02 -0.22715043748E+02  0.57549673169E+02  0.82898568705E+02  0.41800000000E+01 0. -1.
</event>
<event>
11    1  0.8299058E-009  0.1444299E+03  0.7561462E-02  0.1102710E+00
         22   -1    0    0    0    0  0.00000000000E+00  0.00000000000E+00  0.68348399395E+03  0.68348399395E+03  0.00000000000E+00 0. -1.
         22   -1    0    0    0    0 -0.00000000000E+00 -0.00000000000E+00 -0.55861065631E+03  0.55861065631E+03  0.00000000000E+00 0. -1.
        -24    2    1    2    0    0  0.18651813201E+02  0.66946125936E+02 -0.45138159966E+03  0.46333531075E+03  0.78131861336E+02 0.  0.
         25    2    1    2    0    0 -0.81724046847E+02 -0.30285135404E+02 -0.36244906585E+02  0.15670788901E+03  0.12509060702E+03 0.  0.
         24    2    1    2    0    0  0.63072233645E+02 -0.36660990532E+02  0.61249984389E+03  0.62205145050E+03  0.80435150414E+02 0.  0.
        -11    1    5    5    0    0  0.53343039682E+02 -0.10127818645E+02  0.16591502530E+03  0.17457333191E+03  0.00000000000E+00 0.  1.
         12    1    5    5    0    0  0.97291939635E+01 -0.26533171887E+02  0.44658481859E+03  0.44747811859E+03  0.00000000000E+00 0. -1.
         13    1    3    3    0    0 -0.18813529762E+01  0.69083123804E+02 -0.42080524061E+03  0.42644233843E+03  0.00000000000E+00 0. -1.
        -14    1    3    3    0    0  0.20533166177E+02 -0.21369978673E+01 -0.30576359057E+02  0.36892972316E+02  0.00000000000E+00 0.  1.
          5    1    4    4  501    0 -0.48838019231E+02 -0.32545156753E+02  0.41606644895E+02  0.72061950084E+02  0.41800000000E+01 0. -1.
         -5    1    4    4    0  501 -0.32886027616E+02  0.22600213483E+01 -0.77851551480E+02  0.84645938926E+02  0.41800000000E+01 0. -1.
</event>
<event>
11    1  0.8299058E-009  0.2652742E+03  0.7561462E-02  0.1016063E+00
         22   -1    0    0    0    0  0.00000000000E+00  0.00000000000E+00  0.21781512444E+03  0.21781512444E+03  0.00000000000E+00 0.  1.
         22   -1    0    0    0    0 -0.00000000000E+00 -0.00000000000E+00 -0.16134640397E+04  0.16134640397E+04  0.00000000000E+00 0.  1.
         24    2    1    2    0    0 -0.24986833295E+03  0.24568773620E+02 -0.12470788666E+04  0.12746532672E+04  0.80606722490E+02 0.  0.
         25    2    1    2    0    0  0.18766373235E+03  0.38727405917E+02 -0.29151400468E+03  0.37060042190E+03  0.12508704720E+03 0.  0.
        -24    2    1    2    0    0  0.62204600602E+02 -0.63296179536E+02  0.14294395602E+03  0.18602547501E+03  0.79351648444E+02 0.  0.
        -11    1    3    3    0    0 -0.18070973258E+03 -0.39475234220E+01 -0.72248059258E+03  0.74474814336E+03  0.00000000000E+00 0.  1.
         12    1    3    3    0    0 -0.69158600371E+02  0.28516297042E+02 -0.52459827401E+03  0.52990512386E+03  0.00000000000E+00 0. -1.
         11    1    5    5    0    0  0.26563578559E+02  0.74826437025E+01  0.66810157663E+01  0.28394535289E+02  0.00000000000E+00 0. -1.
        -12    1    5    5    0    0  0.35641022043E+02 -0.70778823239E+02  0.13626294025E+03  0.15763093972E+03  0.00000000000E+00 0.  1.
          5    1    4    4  501    0  0.13782307047E+03  0.75614136956E+02 -0.25172058489E+03  0.29680535999E+03  0.41800000000E+01 0. -1.
         -5    1    4    4    0  501  0.49840661879E+02 -0.36886731039E+02 -0.39793419787E+02  0.73795061905E+02  0.41800000000E+01 0. -1.
</event>
<event>
11    1  0.8299058E-009  0.1667756E+03  0.7561462E-02  0.1080872E+00
         22   -1    0    0    0    0  0.00000000000E+00  0.00000000000E+00  0.33428820777E+03  0.33428820777E+03  0.00000000000E+00 0. -1.
         22   -1    0    0    0    0 -0.00000000000E+00 -0.00000000000E+00 -0.45834273871E+03  0.45834273871E+03  0.00000000000E+00 0. -1.
        -24    2    1    2    0    0 -0.49270632186E+02  0.99925475039E+01 -0.19397286438E+03  0.21509288335E+03  0.78179473961E+02 0.  0.
         25    2    1    2    0    0 -0.48133068364E+02  0.47791368043E+02 -0.21674365465E+03  0.25927934075E+03  0.12508859893E+03 0.  0.
         24    2    1    2    0    0  0.97403700550E+02 -0.57783915546E+02  0.28666198809E+03  0.31825872238E+03  0.79290965323E+02 0.  0.
        -13    1    5    5    0    0  0.68029987199E+02  0.53447764277E+01  0.13004247226E+03  0.14685942389E+03  0.00000000000E+00 0.  1.
         14    1    5    5    0    0  0.29373713351E+02 -0.63128691974E+02  0.15661951583E+03  0.17139929849E+03  0.00000000000E+00 0. -1.
         13    1    3    3    0    0 -0.14264175741E+01 -0.19899401052E+02 -0.12212324483E+03  0.12374210179E+03  0.00000000000E+00 0. -1.
        -14    1    3    3    0    0 -0.47844214612E+02  0.29891948556E+02 -0.71849619554E+02  0.91350781553E+02  0.00000000000E+00 0.  1.
          5    1    4    4  501    0 -0.71171035070E+02 -0.85254636294E+01 -0.16250388616E+03  0.17765974552E+03  0.41800000000E+01 0.  1.
         -5    1    4    4    0  501  0.23037966705E+02  0.56316831672E+02 -0.54239768487E+02  0.81619595227E+02  0.41800000000E+01 0.  1.
</event>
<event>
11    1  0.8299058E-009  0.5190562E+03  0.7561462E-02  0.9351920E-01
         22   -1    0    0    0    0  0.00000000000E+00  0.00000000000E+00  0.18008810046E+04  0.18008810046E+04  0.00000000000E+00 0. -1.
         22   -1    0    0    0    0 -0.00000000000E+00 -0.00000000000E+00 -0.15224192583E+04  0.15224192583E+04  0.00000000000E+00 0. -1.
         24    2    1    2    0    0 -0.57429711548E+02 -0.29683282828E+02 -0.12826920028E+04  0.12870643392E+04  0.84003393924E+02 0.  0.
         25    2    1    2    0    0 -0.23726198161E+03 -0.39214944951E+03  0.10062320390E+03  0.48564072351E+03  0.12508974578E+03 0.  0.
        -24    2    1    2    0    0  0.29469169316E+03  0.42183273233E+03  0.14605305452E+04  0.15505952002E+04  0.80062183730E+02 0.  0.
        -13    1    3    3    0    0 -0.31807280722E+02 -0.47951864207E+02 -0.43511175069E+03  0.43890012529E+03  0.00000000000E+00 0.  1.
         14    1    3    3    0    0 -0.25622430826E+02  0.18268581379E+02 -0.84758025210E+03  0.84816421392E+03  0.00000000000E+00 0. -1.
         11    1    5    5    0    0  0.17647706621E+03  0.19007716654E+03  0.78239872964E+03  0.82427013550E+03  0.00000000000E+00 0. -1.
        -12    1    5    5    0    0  0.11821462695E+03  0.23175556579E+03  0.67813181558E+03  0.72632506470E+03  0.00000000000E+00 0.  1.
          5    1    4    4  501    0 -0.31843943055E+02 -0.16762214267E+03  0.40554576208E+02  0.17542338918E+03  0.41800000000E+01 0.  1.
         -5    1    4    4    0  501 -0.20541803856E+03 -0.22452730684E+03  0.60068627689E+02  0.31021733432E+03  0.41800000000E+01 0.  1.
</event>
<event>
11    1  0.8299058E-009  0.2011345E+03  0.7561462E-02  0.1053724E+00
         22   -1    0    0    0    0  0.00000000000E+00  0.00000000000E+00  0.25043980470E+04  0.25043980470E+04  0.00000000000E+00 0. -1.
         22   -1    0    0    0    0 -0.00000000000E+00 -0.00000000000E+00 -0.13103811532E+04  0.13103811532E+04  0.00000000000E+00 0.  1.
         24    2    1    2    0    0  0.44735295176E+02 -0.23416641884E+02 -0.12078668023E+04  0.12115515499E+04  0.79783207182E+02 0.  0.
         25    2    1    2    0    0  0.11271059690E+03  0.12366313387E+01 -0.24792140894E+02  0.17020092750E+03  0.12509395494E+03 0.  0.
        -24    2    1    2    0    0 -0.15744589208E+03  0.22180010545E+02  0.24266758370E+04  0.24330267228E+04  0.74714484361E+02 0.  0.
        -11    1    3    3    0    0  0.45389916830E+02 -0.48954458026E+02 -0.97631865648E+03  0.97859843782E+03  0.00000000000E+00 0.  1.
         12    1    3    3    0    0 -0.65462165379E+00  0.25537816142E+02 -0.23154814582E+03  0.23295311206E+03  0.00000000000E+00 0. -1.
         11    1    5    5    0    0 -0.12809483770E+03  0.15560924339E+02  0.14063430842E+04  0.14122504382E+04  0.00000000000E+00 0. -1.
        -12    1    5    5    0    0 -0.29351054373E+02  0.66190862059E+01  0.10203327528E+04  0.10207762845E+04  0.00000000000E+00 0.  1.
          5    1    4    4  501    0  0.47603506663E+01  0.48915936976E+02 -0.15716158441E+02  0.51767749273E+02  0.41800000000E+01 0. -1.
         -5    1    4    4    0  501  0.10795024624E+03 -0.47679305637E+02 -0.90759824533E+01  0.11843317823E+03  0.41800000000E+01 0. -1.
</event>
<event>
11    1  0.8299058E-009  0.1352575E+03  0.7561462E-02  0.1112973E+00
         22   -1    0    0    0    0  0.00000000000E+00  0.00000000000E+00  0.72788700325E+03  0.72788700325E+03  0.00000000000E+00 0.  1.
         22   -1    0    0    0    0 -0.00000000000E+00 -0.00000000000E+00 -0.19499199663E+03  0.19499199663E+03  0.00000000000E+00 0.  1.
         24    2    1    2    0    0  0.38247933405E+02 -0.32646649363E+02 -0.14979432355E+03  0.17736257433E+03  0.80563237780E+02 0.  0.
         25    2    1    2    0    0 -0.61679235147E+02  0.30139536518E+02  0.15227526891E+03  0.20868159902E+03  0.12509009768E+03 0.  0.
        -24    2    1    2    0    0  0.23431301742E+02  0.25071128454E+01  0.53041406126E+03  0.53683482654E+03  0.79355170522E+02 0.  0.
        -13    1    3    3    0    0  0.51861937883E+02 -0.12807561809E+02 -0.14255609590E+03  0.15223644346E+03  0.00000000000E+00 0.  1.
         14    1    3    3    0    0 -0.13614004478E+02 -0.19839087555E+02 -0.72382276510E+01  0.25126130869E+02  0.00000000000E+00 0. -1.
         13    1    5    5    0    0  0.32457735062E+02  0.30179904316E+02  0.18661927562E+03  0.19181002378E+03  0.00000000000E+00 0. -1.
        -14    1    5    5    0    0 -0.90264333204E+01 -0.27672791471E+02  0.34379478563E+03  0.34502480275E+03  0.00000000000E+00 0.  1.
          5    1    4    4  501    0 -0.23774365030E+02 -0.19592543125E+02 -0.11637889145E+02  0.33196401047E+02  0.41800000000E+01 0.  1.
         -5    1    4    4    0  501 -0.37904870117E+02  0.49732079643E+02  0.16391315805E+03  0.17548519797E+03  0.41800000000E+01 0.  1.
</event>
<event>
11    1  0.8299058E-009  0.1844566E+03  0.7561462E-02  0.1066094E+00
         22   -1    0    0    0    0  0.00000000000E+00  0.00000000000E+00  0.34818145871E+03  0.34818145871E+03  0.00000000000E+00 0. -1.
         22   -1    0    0    0    0 -0.00000000000E+00 -0.00000000000E+00 -0.57720055020E+03  0.57720055020E+03  0.00000000000E+00 0. -1.
        -24    2    1    2    0    0  0.28353619111E+02  0.33882100016E+02 -0.43072372603E+03  0.44016888173E+03  0.79207271514E+02 0.  0.
         25    2    1    2    0    0  0.74756995813E+02  0.64779726771E+02 -0.65107250123E+02  0.17225164161E+03  0.12508658040E+03 0.  0.
         24    2    1    2    0    0 -0.10311061492E+03 -0.98661826787E+02  0.26681188467E+03  0.31296148557E+03  0.79939693998E+02 0.  0.
        -11    1    5    5    0    0 -0.86758742346E+02 -0.56403940773E+02  0.11580885528E+03  0.15530671225E+03  0.00000000000E+00 0.  1.
         12    1    5    5    0    0 -0.16351872578E+02 -0.42257886014E+02  0.15100302939E+03  0.15765477333E+03  0.00000000000E+00 0. -1.
         11    1    3    3    0    0  0.14678783125E+02 -0.20639568154E+01 -0.35433447778E+03  0.35464439758E+03  0.00000000000E+00 0. -1.
        -12    1    3    3    0    0  0.13674835986E+02  0.35946056831E+02 -0.76389248252E+02  0.85524484152E+02  0.00000000000E+00 0.  1.
          5    1    4    4  501    0  0.10268603474E+03  0.17494238363E+02 -0.39062930466E+02  0.11132769217E+03  0.41800000000E+01 0.  1.
         -5    1    4    4    0  501 -0.27929038927E+02  0.47285488408E+02 -0.26044319657E+02  0.60923949444E+02  0.41800000000E+01 0.  1.
</event>
<event>
11    1  0.8299058E-009  0.1674947E+03  0.7561462E-02  0.1080233E+00
         22   -1    0    0    0    0  0.00000000000E+00  0.00000000000E+00  0.75579847278E+03  0.75579847278E+03  0.00000000000E+00 0.  1.
         22   -1    0    0    0    0 -0.00000000000E+00 -0.00000000000E+00 -0.53539661935E+03  0.53539661935E+03  0.00000000000E+00 0. -1.
        -24    2    1    2    0    0 -0.63496510808E+02 -0.65315926441E+02 -0.46504844494E+03  0.47790169899E+03  0.61822331122E+02 0.  0.
         25    2    1    2    0    0  0.78304497352E+02  0.16629890333E+03  0.16463505702E+03  0.27665184714E+03  0.12507846725E+03 0.  0.
         24    2    1    2    0    0 -0.14807986544E+02 -0.10098297689E+03  0.52081524135E+03  0.53664154599E+03  0.79490849667E+02 0.  0.
        -11    1    5    5    0    0 -0.17066802903E+02 -0.98959919040E+02  0.52322109782E+03  0.53277073732E+03  0.00000000000E+00 0.  1.
         12    1    5    5    0    0  0.22588163591E+01 -0.20230578494E+01 -0.24058564761E+01  0.38708086739E+01  0.00000000000E+00 0. -1.
         13    1    3    3    0    0 -0.22834265381E+02 -0.23957818563E+02 -0.31970081311E+03  0.32140938170E+03  0.00000000000E+00 0. -1.
        -14    1    3    3    0    0 -0.40662245427E+02 -0.41358107879E+02 -0.14534763184E+03  0.15649231729E+03  0.00000000000E+00 0.  1.
          5    1    4    4  501    0  0.42841459251E+02 -0.36499273195E+01  0.59903594905E+02  0.73855437733E+02  0.41800000000E+01 0.  1.
         -5    1    4    4    0  501  0.35463038101E+02  0.16994883065E+03  0.10473146212E+03  0.20279640941E+03  0.41800000000E+01 0.  1.
</event>
<event>
11    1  0.8299058E-009  0.1752198E+03  0.7561462E-02  0.1073576E+00
         22   -1    0    0    0    0  0.00000000000E+00  0.00000000000E+00  0.83501061988E+02  0.83501061988E+02  0.00000000000E+00 0.  1.
         22   -1    0    0    0    0 -0.00000000000E+00 -0.00000000000E+00 -0.32303185573E+04  0.32303185573E+04  0.00000000000E+00 0. -1.
        -24    2    1    2    0    0 -0.10667909315E+03  0.64276050793E+02 -0.23952427532E+04  0.23997127697E+04  0.76952522043E+02 0.  0.
         25    2    1    2    0    0  0.50559986411E+02 -0.12708678656E+03 -0.77343368533E+03  0.79533280037E+03  0.12508890516E+03 0.  0.
         24    2    1    2    0    0  0.56119106738E+02  0.62810735764E+02  0.21858943147E+02  0.11877404930E+03  0.80838844145E+02 0.  0.
        -11    1    5    5    0    0  0.49773437081E+02  0.74784600584E+02 -0.36293730725E+01  0.89907195887E+02  0.00000000000E+00 0.  1.
         12    1    5    5    0    0  0.63456696569E+01 -0.11973864820E+02  0.25488316220E+02  0.28866853411E+02  0.00000000000E+00 0. -1.
         13    1    3    3    0    0 -0.91262853540E+02  0.23570727765E+02 -0.19686414093E+04  0.19708966198E+04  0.00000000000E+00 0. -1.
        -14    1    3    3    0    0 -0.15416239609E+02  0.40705323028E+02 -0.42660134390E+03  0.42881614987E+03  0.00000000000E+00 0.  1.
          5    1    4    4  501    0  0.72682050610E+01 -0.75261589998E+02 -0.65149992077E+03  0.65588623472E+03  0.41800000000E+01 0. -1.
         -5    1    4    4    0  501  0.43291781350E+02 -0.51825196559E+02 -0.12193376456E+03  0.13944656565E+03  0.41800000000E+01 0. -1.
</event>
<event>
11    1  0.8299058E-009  0.1927826E+03  0.7561462E-02  0.1059748E+00
         22   -1    0    0    0    0  0.00000000000E+00  0.00000000000E+00  0.92329262137E+03  0.92329262137E+03  0.00000000000E+00 0. -1.
         22   -1    0    0    0    0 -0.00000000000E+00 -0.00000000000E+00 -0.46557452869E+03  0.46557452869E+03  0.00000000000E+00 0. -1.
        -24    2    1    2    0    0 -0.70505644364E+02 -0.13967775478E+03 -0.39072179616E+03  0.42860539990E+03  0.80982379337E+02 0.  0.
         25    2    1    2    0    0  0.10411418362E+03  0.29020613717E+02  0.88638105304E+02  0.18757694962E+03  0.12508572686E+03 0.  0.
         24    2    1    2    0    0 -0.33608539256E+02  0.11065714106E+03  0.75980178354E+03  0.77268480054E+03  0.79802969528E+02 0.  0.
        -13    1    5    5    0    0  0.34518172167E+01 -0.11039843489E+02  0.10537453789E+03  0.10600748286E+03  0.00000000000E+00 0.  1.
         14    1    5    5    0    0 -0.37060356473E+02  0.12169698455E+03  0.65442724564E+03  0.66667731768E+03  0.00000000000E+00 0. -1.
         11    1    3    3    0    0 -0.80696236734E+02 -0.13746328564E+03 -0.38503922516E+03  0.41672921956E+03  0.00000000000E+00 0. -1.
        -12    1    3    3    0    0  0.10190592370E+02 -0.22144691399E+01 -0.56825710045E+01  0.11876180348E+02  0.00000000000E+00 0.  1.
          5    1    4    4  501    0 -0.40697288577E+01  0.47329038879E+02  0.20321356530E+01  0.47730520524E+02  0.41800000000E+01 0.  1.
         -5    1    4    4    0  501  0.10818391248E+03 -0.18308425162E+02  0.86605969651E+02  0.13984642909E+03  0.41800000000E+01 0.  1.
</event>
<event>
11    1  0.8299058E-009  0.1613969E+03  0.7561462E-02  0.1085771E+00
         22   -1    0    0    0    0  0.00000000000E+00  0.00000000000E+00  0.52874971935E+03  0.52874971935E+03  0.00000000000E+00 0.  1.
         22   -1    0    0    0    0 -0.00000000000E+00 -0.00000000000E+00 -0.88311923374E+03  0.88311923374E+03  0.00000000000E+00 0.  1.
         24    2    1    2    0    0  0.71839069643E+02  0.72818522377E+02 -0.80114326271E+03  0.81161185273E+03  0.80124172232E+02 0.  0.
         25    2    1    2    0    0 -0.82125797478E+02 -0.54913605006E+02  0.15217061422E+02  0.16012364650E+03  0.12509145688E+03 0.  0.
        -24    2    1    2    0    0  0.10286727834E+02 -0.17904917371E+02  0.43155668690E+03  0.44013345386E+03  0.83963565706E+02 0.  0.
        -11    1    3    3    0    0  0.72555644293E+02  0.86722274654E+02 -0.75481105926E+03  0.76323312928E+03  0.00000000000E+00 0.  1.
         12    1    3    3    0    0 -0.71657464940E+00 -0.13903752277E+02 -0.46332203448E+02  0.48378723453E+02  0.00000000000E+00 0. -1.
         11    1    5    5    0    0  0.45674067501E+01  0.33526956024E+02  0.14089524908E+03  0.14490130848E+03  0.00000000000E+00 0. -1.
        -12    1    5    5    0    0  0.57193210841E+01 -0.51431873396E+02  0.29066143781E+03  0.29523214538E+03  0.00000000000E+00 0.  1.
          5    1    4    4  501    0 -0.31700155662E+02 -0.23712151199E+02  0.69194786564E+02  0.79828296181E+02  0.41800000000E+01 0. -1.
         -5    1    4    4    0  501 -0.50425641815E+02 -0.31201453807E+02 -0.53977725142E+02  0.80295350324E+02  0.41800000000E+01 0. -1.
</event>
<event>
11    1  0.8299058E-009  0.1799936E+03  0.7561462E-02  0.1069648E+00
         22   -1    0    0    0    0  0.00000000000E+00  0.00000000000E+00  0.11986665784E+04  0.11986665784E+04  0.00000000000E+00 0. -1.
         22   -1    0    0    0    0 -0.00000000000E+00 -0.00000000000E+00 -0.72176981482E+02  0.72176981482E+02  0.00000000000E+00 0. -1.
        -24    2    1    2    0    0  0.11001964965E+03 -0.10463249148E+03  0.93885348472E+02  0.19215231067E+03  0.71103939818E+02 0.  0.
         25    2    1    2    0    0 -0.93517295318E+02 -0.30556722911E+01  0.36040902807E+03  0.39280745803E+03  0.12509280521E+03 0.  0.
         24    2    1    2    0    0 -0.16502354333E+02  0.10768816377E+03  0.67219522041E+03  0.68588379121E+03  0.81982268734E+02 0.  0.
        -11    1    5    5    0    0  0.49221750305E+00  0.60601124213E+01  0.28938165935E+03  0.28944552512E+03  0.00000000000E+00 0.  1.
         12    1    5    5    0    0 -0.16994571836E+02  0.10162805135E+03  0.38281356106E+03  0.39643826609E+03  0.00000000000E+00 0. -1.
         11    1    3    3    0    0  0.65714503362E+02 -0.86997336268E+02  0.94769429936E+02  0.14445821998E+03  0.00000000000E+00 0. -1.
        -12    1    3    3    0    0  0.44305146290E+02 -0.17635155209E+02 -0.88408146341E+00  0.47694090693E+02  0.00000000000E+00 0.  1.
          5    1    4    4  501    0 -0.77378663594E+02 -0.53080143568E+02  0.29007178341E+03  0.30490010028E+03  0.41800000000E+01 0.  1.
         -5    1    4    4    0  501 -0.16138631724E+02  0.50024471277E+02  0.70337244660E+02  0.87907357751E+02  0.41800000000E+01 0.  1.
</event>
<event>
11    1  0.8299058E-009  0.1324967E+03  0.7561462E-02  0.1116239E+00
         22   -1    0    0    0    0  0.00000000000E+00  0.00000000000E+00  0.13365264132E+04  0.13365264132E+04  0.00000000000E+00 0. -1.
         22   -1    0    0    0    0 -0.00000000000E+00 -0.00000000000E+00 -0.36010848002E+03  0.36010848002E+03  0.00000000000E+00 0. -1.
         24    2    1    2    0    0 -0.18608506862E+02 -0.28792669820E+02 -0.33964858647E+03  0.35046195156E+03  0.79291379340E+02 0.  0.
         25    2    1    2    0    0 -0.56645981295E+01  0.60550106099E+02  0.41898273781E+03  0.44146682827E+03  0.12509205757E+03 0.  0.
        -24    2    1    2    0    0  0.24273104992E+02 -0.31757436279E+02  0.89708378184E+03  0.90470611340E+03  0.11016406670E+03 0.  0.
        -11    1    3    3    0    0 -0.48937230405E+00  0.12362497655E+02 -0.59165606422E+01  0.13714099437E+02  0.00000000000E+00 0.  1.
         12    1    3    3    0    0 -0.18119134558E+02 -0.41155167475E+02 -0.33373202582E+03  0.33674785212E+03  0.00000000000E+00 0. -1.
         11    1    5    5    0    0  0.64505827178E+02 -0.28223234682E+02  0.69963689851E+03  0.70317091982E+03  0.00000000000E+00 0. -1.
        -12    1    5    5    0    0 -0.40232722187E+02 -0.35342015970E+01  0.19744688333E+03  0.20153519358E+03  0.00000000000E+00 0.  1.
          5    1    4    4  501    0 -0.38976846803E+02  0.31444228092E+02  0.53910089247E+02  0.73700096266E+02  0.41800000000E+01 0. -1.
         -5    1    4    4    0  501  0.33312248673E+02  0.29105878007E+02  0.36507264856E+03  0.36776673201E+03  0.41800000000E+01 0. -1.
</event>
<event>
11    1  0.8299058E-009  0.1553832E+03  0.7561462E-02  0.1091502E+00
         22   -1    0    0    0    0  0.00000000000E+00  0.00000000000E+00  0.31913404830E+03  0.31913404830E+03  0.00000000000E+00 0.  1.
         22   -1    0    0    0    0 -0.00000000000E+00 -0.00000000000E+00 -0.89546772094E+03  0.89546772094E+03  0.00000000000E+00 0.  1.
        -24    2    1    2    0    0  0.18255153830E+02  0.79056883119E+02 -0.73095986465E+03  0.74018051594E+03  0.83556154982E+02 0.  0.
         25    2    1    2    0    0 -0.75524607196E+02 -0.14279098577E+03 -0.73686068255E+02  0.21718820248E+03  0.12509135354E+03 0.  0.
         24    2    1    2    0    0  0.57269453366E+02  0.63734102653E+02  0.22831226026E+03  0.25723305082E+03  0.81856753666E+02 0.  0.
        -11    1    5    5    0    0  0.72469462651E+02  0.43772802586E+02  0.20923327977E+03  0.22571319550E+03  0.00000000000E+00 0.  1.
         12    1    5    5    0    0 -0.15200009285E+02  0.19961300067E+02  0.19078980496E+02  0.31519855320E+02  0.00000000000E+00 0. -1.
         11    1    3    3    0    0  0.32287967453E+02  0.77393303157E+01 -0.10783686449E+03  0.11283261682E+03  0.00000000000E+00 0. -1.
        -12    1    3    3    0    0 -0.14032813623E+02  0.71317552803E+02 -0.62312300016E+03  0.62734789911E+03  0.00000000000E+00 0.  1.
          5    1    4    4  501    0 -0.43728935978E+02 -0.10826345572E+03 -0.10783392461E+03  0.15899315515E+03  0.41800000000E+01 0.  1.
         -5    1    4    4    0  501 -0.31795671217E+02 -0.34527530055E+02  0.34147856359E+02  0.58195047330E+02  0.41800000000E+01 0.  1.
</event>
<event>
11    1  0.8299058E-009  0.1829305E+03  0.7561462E-02  0.1067297E+00
         22   -1    0    0    0    0  0.00000000000E+00  0.00000000000E+00  0.19005065468E+04  0.19005065468E+04  0.00000000000E+00 0.  1.
         22   -1    0    0    0    0 -0.00000000000E+00 -0.00000000000E+00 -0.25398685347E+03  0.25398685347E+03  0.00000000000E+00 0. -1.
        -24    2    1    2    0    0 -0.11856672608E+03 -0.64488665047E+02 -0.21342957424E+03  0.26442611893E+03  0.78435532498E+02 0.  0.
         25    2    1    2    0    0  0.11785074674E+03 -0.88137706145E+01  0.56829253563E+03  0.59377157999E+03  0.12506719032E+03 0.  0.
         24    2    1    2    0    0  0.71597933665E+00  0.73302435661E+02  0.12916567319E+04  0.12962957013E+04  0.81435081228E+02 0.  0.
        -11    1    5    5    0    0  0.73662632626E+01 -0.14965149141E+02  0.37615478803E+03  0.37652442428E+03  0.00000000000E+00 0.  1.
         12    1    5    5    0    0 -0.66502839260E+01  0.88267584802E+02  0.91550194390E+03  0.91977127705E+03  0.00000000000E+00 0. -1.
         11    1    3    3    0    0 -0.27276912634E+02 -0.44384076652E+02 -0.34301538406E+02  0.62374447975E+02  0.00000000000E+00 0. -1.
        -12    1    3    3    0    0 -0.91289813443E+02 -0.20104588395E+02 -0.17912803583E+03  0.20205167095E+03  0.00000000000E+00 0.  1.
          5    1    4    4  501    0  0.99292095370E+02 -0.59380209017E+02  0.33983873480E+03  0.35901638890E+03  0.41800000000E+01 0.  1.
         -5    1    4    4    0  501  0.18558651371E+02  0.50566438402E+02  0.22845380083E+03  0.23475519109E+03  0.41800000000E+01 0.  1.
</event>
<event>
11    1  0.8299058E-009  0.1325591E+03  0.7561462E-02  0.1116164E+00
         22   -1    0    0    0    0  0.00000000000E+00  0.00000000000E+00  0.10265840990E+04  0.10265840990E+04  0.00000000000E+00 0. -1.
         22   -1    0    0    0    0 -0.00000000000E+00 -0.00000000000E+00 -0.11272651344E+03  0.11272651344E+03  0.00000000000E+00 0. -1.
         24    2    1    2    0    0 -0.50184440309E+02 -0.11156926762E+01 -0.33008309212E+02  0.10097473239E+03  0.81158026621E+02 0.  0.
         25    2    1    2    0    0  0.23543736451E+02  0.24332444429E+02  0.53675174008E+02  0.14027091339E+03  0.12509408244E+03 0.  0.
        -24    2    1    2    0    0  0.26640703858E+02 -0.23216751752E+02  0.89319072073E+03  0.89806496662E+03  0.86500150288E+02 0.  0.
        -11    1    3    3    0    0  0.86362329440E+01  0.14109390352E+02  0.15924046503E+02  0.22961591247E+02  0.00000000000E+00 0.  1.
         12    1    3    3    0    0 -0.58820673253E+02 -0.15225083029E+02 -0.48932355715E+02  0.78013141143E+02  0.00000000000E+00 0. -1.
         13    1    5    5    0    0 -0.20751401391E+02 -0.10832634136E+02  0.62496495339E+03  0.62540319762E+03  0.00000000000E+00 0. -1.
        -14    1    5    5    0    0  0.47392105249E+02 -0.12384117617E+02  0.26822576734E+03  0.27266176900E+03  0.00000000000E+00 0.  1.
          5    1    4    4  501    0  0.38891734213E+02  0.22140093425E+02  0.89975648778E+02  0.10057753477E+03  0.41800000000E+01 0. -1.
         -5    1    4    4    0  501 -0.15347997761E+02  0.21923510035E+01 -0.36300474771E+02  0.39693378626E+02  0.41800000000E+01 0. -1.
</event>
<event>
11    1  0.8299058E-009  0.1331667E+03  0.7561462E-02  0.1115438E+00
         22   -1    0    0    0    0  0.00000000000E+00  0.00000000000E+00  0.43472079486E+03  0.43472079486E+03  0.00000000000E+00 0. -1.
         22   -1    0    0    0    0 -0.00000000000E+00 -0.00000000000E+00 -0.50621745093E+03  0.50621745093E+03  0.00000000000E+00 0. -1.
        -24    2    1    2    0    0  0.44181291208E+02  0.96863113969E+01 -0.47045589437E+03  0.47948340712E+03  0.80807041978E+02 0.  0.
         25    2    1    2    0    0 -0.63146588381E+02 -0.27397805247E+02  0.20466346706E+03  0.24954603006E+03  0.12509178637E+03 0.  0.
         24    2    1    2    0    0  0.18965297173E+02  0.17711493850E+02  0.19429577125E+03  0.21190880861E+03  0.80505384481E+02 0.  0.
        -11    1    5    5    0    0 -0.19923165194E+02 -0.54801049151E+01  0.13859202084E+03  0.14012391766E+03  0.00000000000E+00 0.  1.
         12    1    5    5    0    0  0.38888462368E+02  0.23191598765E+02  0.55703750411E+02  0.71784890948E+02  0.00000000000E+00 0. -1.
         11    1    3    3    0    0  0.24774291247E+02 -0.27040481706E+02 -0.35297439671E+03  0.35487445370E+03  0.00000000000E+00 0. -1.
        -12    1    3    3    0    0  0.19406999961E+02  0.36726793103E+02 -0.11748149766E+03  0.12460895342E+03  0.00000000000E+00 0.  1.
          5    1    4    4  501    0 -0.84189558366E+01 -0.40439693199E+02  0.18530925572E+03  0.18990323921E+03  0.41800000000E+01 0. -1.
         -5    1    4    4    0  501 -0.54727632545E+02  0.13041887952E+02  0.19354211331E+02  0.59642790860E+02  0.41800000000E+01 0. -1.
</event>
<event>
11    1  0.8299058E-009  0.1527300E+03  0.7561462E-02  0.1094121E+00
         22   -1    0    0    0    0  0.00000000000E+00  0.00000000000E+00  0.12157943979E+04  0.12157943979E+04  0.00000000000E+00 0. -1.
         22   -1    0    0    0    0 -0.00000000000E+00 -0.00000000000E+00 -0.14228101503E+03  0.14228101503E+03  0.00000000000E+00 0. -1.
        -24    2    1    2    0    0  0.33004455285E+02 -0.92769434033E+02 -0.60785036540E+02  0.14047467519E+03  0.79642022466E+02 0.  0.
         25    2    1    2    0    0 -0.58136314563E+02  0.11346332873E+01  0.88215413279E+02  0.16373632094E+03  0.12508599119E+03 0.  0.
         24    2    1    2    0    0  0.25131859277E+02  0.91634800746E+02  0.10460830061E+04  0.10538644168E+04  0.85510269722E+02 0.  0.
        -11    1    5    5    0    0 -0.20640907129E+02  0.14654446354E+02  0.48663733789E+03  0.48729528878E+03  0.00000000000E+00 0.  1.
         12    1    5    5    0    0  0.45772766407E+02  0.76980354392E+02  0.55944566822E+03  0.56656912799E+03  0.00000000000E+00 0. -1.
         11    1    3    3    0    0 -0.22609217001E+02 -0.10675786118E+02 -0.24161846605E+02  0.34769871067E+02  0.00000000000E+00 0. -1.
        -12    1    3    3    0    0  0.55613672287E+02 -0.82093647915E+02 -0.36623189935E+02  0.10570480412E+03  0.00000000000E+00 0.  1.
          5    1    4    4  501    0 -0.33834512949E+02  0.11491931495E+02 -0.27301999662E+02  0.45163152476E+02  0.41800000000E+01 0. -1.
         -5    1    4    4    0  501 -0.24301801614E+02 -0.10357298208E+02  0.11551741294E+03  0.11857316847E+03  0.41800000000E+01 0. -1.
</event>
<event>
11    1  0.8871667E-009  0.1644923E+03  0.7561462E-02  0.1082927E+00
         22   -1    0    0    0    0  0.00000000000E+00  0.00000000000E+00  0.85435926348E+03  0.85435926348E+03  0.00000000000E+00 0. -1.
         22   -1    0    0    0    0 -0.00000000000E+00 -0.00000000000E+00 -0.66513133985E+03  0.66513133985E+03  0.00000000000E+00 0. -1.
         24    2    1    2    0    0  0.35061003862E+01  0.65777162942E+02 -0.56688116976E+03  0.57661749225E+03  0.82429022984E+02 0.  0.
         25    2    1    2    0    0 -0.10989997629E+03 -0.68277238821E+02  0.49951192629E+01  0.18003321861E+03  0.12508885825E+03 0.  0.
        -24    2    1    2    0    0  0.10639387590E+03  0.25000758788E+01  0.75111397412E+03  0.76283989247E+03  0.80166029068E+02 0.  0.
        -11    1    3    3    0    0 -0.26079358533E+02 -0.37162201376E+01 -0.22232550769E+03  0.22388071512E+03  0.00000000000E+00 0.  1.
         12    1    3    3    0    0  0.29585458919E+02  0.69493383080E+02 -0.34455566207E+03  0.35273677713E+03  0.00000000000E+00 0. -1.
         11    1    5    5    0    0  0.77470365392E+02 -0.30610792222E+02  0.58936176921E+03  0.59521926474E+03  0.00000000000E+00 0. -1.
        -12    1    5    5    0    0  0.28923510507E+02  0.33110868100E+02  0.16175220492E+03  0.16762062773E+03  0.00000000000E+00 0.  1.
          5    1    4    4  501    0 -0.85312307983E+02 -0.99059412094E+02  0.28637141208E+02  0.13389740578E+03  0.41800000000E+01 0. -1.
         -5    1    4    4    0  501 -0.24587668302E+02  0.30782173274E+02 -0.23642021945E+02  0.46135812832E+02  0.41800000000E+01 0. -1.
</event>
<event>
11    1  0.8299058E-009  0.1545706E+03  0.7561462E-02  0.1092298E+00
         22   -1    0    0    0    0  0.00000000000E+00  0.00000000000E+00  0.49290605451E+03  0.49290605451E+03  0.00000000000E+00 0.  1.
         22   -1    0    0    0    0 -0.00000000000E+00 -0.00000000000E+00 -0.45095036426E+03  0.45095036426E+03  0.00000000000E+00 0. -1.
        -24    2    1    2    0    0  0.32615600507E+02  0.87001540862E+02 -0.36224400744E+03  0.38257726513E+03  0.80694469194E+02 0.  0.
         25    2    1    2    0    0 -0.60853451098E+01 -0.77724524822E+02 -0.52240879162E+00  0.14741929422E+03  0.12511611492E+03 0.  0.
         24    2    1    2    0    0 -0.26530255397E+02 -0.92770160399E+01  0.40472210648E+03  0.41385985943E+03  0.81792923222E+02 0.  0.
        -13    1    5    5    0    0 -0.41097080802E+02 -0.23913183719E+02  0.37293782505E+03  0.37595668868E+03  0.00000000000E+00 0.  1.
         14    1    5    5    0    0  0.14566825405E+02  0.14636167679E+02  0.31784281431E+02  0.37903170748E+02  0.00000000000E+00 0. -1.
         13    1    3    3    0    0  0.43656532045E+02  0.82423768921E+02 -0.35790959664E+03  0.36986328534E+03  0.00000000000E+00 0. -1.
        -14    1    3    3    0    0 -0.11040931539E+02  0.45777719410E+01 -0.43344108018E+01  0.12713979793E+02  0.00000000000E+00 0.  1.
          5    1    4    4  501    0 -0.33146756391E+02 -0.18790749461E+02 -0.51940597837E+02  0.64553062113E+02  0.41800000000E+01 0.  1.
         -5    1    4    4    0  501  0.27061411281E+02 -0.58933775361E+02  0.51418189046E+02  0.82866232106E+02  0.41800000000E+01 0.  1.
</event>
<event>
11    1  0.8299058E-009  0.1468891E+03  0.7561462E-02  0.1100101E+00
         22   -1    0    0    0    0  0.00000000000E+00  0.00000000000E+00  0.30407876452E+03  0.30407876452E+03  0.00000000000E+00 0. -1.
         22   -1    0    0    0    0 -0.00000000000E+00 -0.00000000000E+00 -0.89636175275E+03  0.89636175275E+03  0.00000000000E+00 0.  1.
        -24    2    1    2    0    0 -0.34808780386E+02  0.70323572378E+02 -0.83559161911E+03  0.84313059172E+03  0.80615040394E+02 0.  0.
         25    2    1    2    0    0  0.40874015466E+02 -0.23385797516E+02  0.51158380695E+02  0.14311471524E+03  0.12508821342E+03 0.  0.
         24    2    1    2    0    0 -0.60652350804E+01 -0.46937774862E+02  0.19215025019E+03  0.21419521030E+03  0.81962965313E+02 0.  0.
        -11    1    5    5    0    0  0.37948480245E+02 -0.20082959752E+02  0.93366045043E+02  0.10276492978E+03  0.00000000000E+00 0.  1.
         12    1    5    5    0    0 -0.44013715325E+02 -0.26854815111E+02  0.98784205147E+02  0.11143028053E+03  0.00000000000E+00 0. -1.
         13    1    3    3    0    0 -0.11907752161E+02 -0.88181131181E+01 -0.31298800284E+02  0.34629013554E+02  0.00000000000E+00 0. -1.
        -14    1    3    3    0    0 -0.22901028225E+02  0.79141685496E+02 -0.80429281883E+03  0.80850157817E+03  0.00000000000E+00 0.  1.
          5    1    4    4  501    0  0.80280797544E+02 -0.40524734221E+02  0.40052190014E+02  0.98533805686E+02  0.41800000000E+01 0.  1.
         -5    1    4    4    0  501 -0.39406782077E+02  0.17138936705E+02  0.11106190680E+02  0.44580909552E+02  0.41800000000E+01 0.  1.
</event>
<event>
11    1  0.8299058E-009  0.1255276E+03  0.7561462E-02  0.1124889E+00
         22   -1    0    0    0    0  0.00000000000E+00  0.00000000000E+00  0.31362817113E+04  0.31362817113E+04  0.00000000000E+00 0.  1.
         22   -1    0    0    0    0 -0.00000000000E+00 -0.00000000000E+00 -0.11903177550E+04  0.11903177550E+04  0.00000000000E+00 0.  1.
        -24    2    1    2    0    0  0.12270103116E+02  0.22516294264E+02 -0.11830153662E+04  0.11862342439E+04  0.83479254317E+02 0.  0.
         25    2    1    2    0    0 -0.34145457420E+01 -0.11497139545E+02  0.80646662901E+03  0.81619814085E+03  0.12508852097E+03 0.  0.
         24    2    1    2    0    0 -0.88555573741E+01 -0.11019154719E+02  0.23225126935E+04  0.23241670815E+04  0.86530738245E+02 0.  0.
        -13    1    5    5    0    0 -0.26826311630E+02  0.13895061471E+02  0.19921900839E+04  0.19924191462E+04  0.00000000000E+00 0.  1.
         14    1    5    5    0    0  0.17970754256E+02 -0.24914216190E+02  0.33032260956E+03  0.33174793529E+03  0.00000000000E+00 0. -1.
         11    1    3    3    0    0  0.22441087334E+02  0.36339127919E+02 -0.29725340818E+03  0.30030604937E+03  0.00000000000E+00 0. -1.
        -12    1    3    3    0    0 -0.10170984218E+02 -0.13822833655E+02 -0.88576195799E+03  0.88592819453E+03  0.00000000000E+00 0.  1.
          5    1    4    4  501    0 -0.49012373808E+02 -0.43996051319E+02  0.33835690533E+03  0.34473284308E+03  0.41800000000E+01 0.  1.
         -5    1    4    4    0  501  0.45597828066E+02  0.32498911774E+02  0.46810972368E+03  0.47146529776E+03  0.41800000000E+01 0.  1.
</event>
<event>
11    1  0.8299058E-009  0.1599850E+03  0.7561462E-02  0.1087091E+00
         22   -1    0    0    0    0  0.00000000000E+00  0.00000000000E+00  0.75892839828E+03  0.75892839828E+03  0.00000000000E+00 0. -1.
         22   -1    0    0    0    0 -0.00000000000E+00 -0.00000000000E+00 -0.55419633647E+03  0.55419633647E+03  0.00000000000E+00 0. -1.
         24    2    1    2    0    0 -0.98844426144E+01  0.19255454311E+02 -0.46962182497E+03  0.47718908617E+03  0.81830866698E+02 0.  0.
         25    2    1    2    0    0 -0.85230946680E+02 -0.50076647073E+02  0.10345805022E+02  0.15977122023E+03  0.12509125580E+03 0.  0.
        -24    2    1    2    0    0  0.95115389294E+02  0.30821192762E+02  0.66400808176E+03  0.67616442835E+03  0.79339260951E+02 0.  0.
        -11    1    3    3    0    0 -0.33598223127E+02  0.34479484467E+01 -0.84292065721E+02  0.90806835036E+02  0.00000000000E+00 0.  1.
         12    1    3    3    0    0  0.23713780513E+02  0.15807505864E+02 -0.38532975925E+03  0.38638225113E+03  0.00000000000E+00 0. -1.
         11    1    5    5    0    0  0.43367803912E+02 -0.24103324108E+02  0.20013935861E+03  0.20619771947E+03  0.00000000000E+00 0. -1.
        -12    1    5    5    0    0  0.51747585383E+02  0.54924516870E+02  0.46386872314E+03  0.46996670888E+03  0.00000000000E+00 0.  1.
          5    1    4    4  501    0  0.12586016388E+02 -0.58339083475E+01  0.44687557489E+02  0.46977574325E+02  0.41800000000E+01 0. -1.
         -5    1    4    4    0  501 -0.97816963068E+02 -0.44242738725E+02 -0.34341752467E+02  0.11279364590E+03  0.41800000000E+01 0. -1.
</event>
<event>
11    1  0.8299058E-009  0.1412156E+03  0.7561462E-02  0.1106209E+00
         22   -1    0    0    0    0  0.00000000000E+00  0.00000000000E+00  0.22350272897E+03  0.22350272897E+03  0.00000000000E+00 0.  1.
         22   -1    0    0    0    0 -0.00000000000E+00 -0.00000000000E+00 -0.88234459789E+03  0.88234459789E+03  0.00000000000E+00 0. -1.
        -24    2    1    2    0    0  0.67894107794E+02 -0.12177835294E+02 -0.75112445663E+03  0.75868414032E+03  0.81582877357E+02 0.  0.
         25    2    1    2    0    0 -0.34570463283E+02 -0.38597933471E+02 -0.72933624816E+02  0.15379789365E+03  0.12509820567E+03 0.  0.
         24    2    1    2    0    0 -0.33323644511E+02  0.50775768765E+02  0.16521621252E+03  0.19336529289E+03  0.80031841416E+02 0.  0.
        -11    1    5    5    0    0 -0.24617402686E+02  0.62128639159E+02  0.68874512165E+02  0.95967091988E+02  0.00000000000E+00 0.  1.
         12    1    5    5    0    0 -0.87062418244E+01 -0.11352870394E+02  0.96341700352E+02  0.97398200906E+02  0.00000000000E+00 0. -1.
         13    1    3    3    0    0  0.49226655977E+02 -0.12542275146E+01 -0.71416934715E+03  0.71586499646E+03  0.00000000000E+00 0. -1.
        -14    1    3    3    0    0  0.18667451817E+02 -0.10923607779E+02 -0.36955109478E+02  0.42819143859E+02  0.00000000000E+00 0.  1.
          5    1    4    4  501    0  0.39678863929E+02 -0.45299430776E+02 -0.38287538854E+02  0.71483275687E+02  0.41800000000E+01 0.  1.
         -5    1    4    4    0  501 -0.74249327212E+02  0.67014973049E+01 -0.34646085961E+02  0.82314617961E+02  0.41800000000E+01 0.  1.
</event>
<event>
11    1  0.8299058E-009  0.1507623E+03  0.7561462E-02  0.1096102E+00
         22   -1    0    0    0    0  0.00000000000E+00  0.00000000000E+00  0.50195515218E+03  0.50195515218E+03  0.00000000000E+00 0.  1.
         22   -1    0    0    0    0 -0.00000000000E+00 -0.00000000000E+00 -0.16188051207E+03  0.16188051207E+03  0.00000000000E+00 0. -1.
         24    2    1    2    0    0  0.36858291894E+02 -0.76072833881E+02 -0.10206478463E+03  0.15479334070E+03  0.79988426199E+02 0.  0.
         25    2    1    2    0    0 -0.65590392342E+02  0.57303317863E+02  0.19941580160E+03  0.25099890951E+03  0.12509204947E+03 0.  0.
        -24    2    1    2    0    0  0.28732100448E+02  0.18769516018E+02  0.24272362315E+03  0.25804341404E+03  0.80584229029E+02 0.  0.
        -13    1    3    3    0    0 -0.22887645740E+02 -0.15195698860E+02 -0.43056408821E+02  0.51074533105E+02  0.00000000000E+00 0.  1.
         14    1    3    3    0    0  0.59745937634E+02 -0.60877135021E+02 -0.59008375813E+02  0.10371880759E+03  0.00000000000E+00 0. -1.
         13    1    5    5    0    0  0.39533786167E+01 -0.23302218345E+01 -0.58011321599E+01  0.73967743390E+01  0.00000000000E+00 0. -1.
        -14    1    5    5    0    0  0.24778721831E+02  0.21099737853E+02  0.24852475531E+03  0.25064663970E+03  0.00000000000E+00 0.  1.
          5    1    4    4  501    0 -0.96384646109E+02  0.36755382003E+02  0.18336916961E+03  0.21043450970E+03  0.41800000000E+01 0. -1.
         -5    1    4    4    0  501  0.30794253767E+02  0.20547935860E+02  0.16046631994E+02  0.40564399805E+02  0.41800000000E+01 0. -1.
</event>
<event>
11    1  0.8299058E-009  0.1287929E+03  0.7561462E-02  0.1120761E+00
         22   -1    0    0    0    0  0.00000000000E+00  0.00000000000E+00  0.26300863993E+04  0.26300863993E+04  0.00000000000E+00 0.  1.
         22   -1    0    0    0    0 -0.00000000000E+00 -0.00000000000E+00 -0.95140958568E+02  0.95140958568E+02  0.00000000000E+00 0. -1.
        -24    2    1    2    0    0 -0.27712193470E+02 -0.11415702269E+02 -0.61311725738E+02  0.10596722546E+03  0.81065660012E+02 0.  0.
         25    2    1    2    0    0  0.44115268326E+02  0.64441877732E+01  0.39967948908E+03  0.42116372315E+03  0.12508998063E+03 0.  0.
         24    2    1    2    0    0 -0.16403074856E+02  0.49715144960E+01  0.21965776774E+04  0.21980964093E+04  0.79878374797E+02 0.  0.
        -13    1    5    5    0    0 -0.19442957953E+02  0.33070527478E+02  0.18401812456E+04  0.18405810781E+04  0.00000000000E+00 0.  1.
         14    1    5    5    0    0  0.30398830962E+01 -0.28099012982E+02  0.35639643180E+03  0.35751533116E+03  0.00000000000E+00 0. -1.
         11    1    3    3    0    0 -0.48556140714E+02 -0.52662123090E+01 -0.94643029514E+01  0.49749420333E+02  0.00000000000E+00 0. -1.
        -12    1    3    3    0    0  0.20843947244E+02 -0.61494899602E+01 -0.51847422786E+02  0.56217805125E+02  0.00000000000E+00 0.  1.
          5    1    4    4  501    0  0.38671568643E+02 -0.51823426553E+02  0.28586809944E+03  0.29311977149E+03  0.41800000000E+01 0.  1.
         -5    1    4    4    0  501  0.54436996834E+01  0.58267614326E+02  0.11381138964E+03  0.12804395166E+03  0.41800000000E+01 0.  1.
</event>
<event>
11    1  0.8299058E-009  0.1927918E+03  0.7561462E-02  0.1059741E+00
         22   -1    0    0    0    0  0.00000000000E+00  0.00000000000E+00  0.34484874742E+03  0.34484874742E+03  0.00000000000E+00 0.  1.
         22   -1    0    0    0    0 -0.00000000000E+00 -0.00000000000E+00 -0.11337483957E+04  0.11337483957E+04  0.00000000000E+00 0.  1.
        -24    2    1    2    0    0 -0.26802380003E+02 -0.84387656135E+01 -0.10079461423E+04  0.10116426241E+04  0.81705525180E+02 0.  0.
         25    2    1    2    0    0  0.95356568459E+02 -0.11974127915E+03  0.72809673436E+01  0.19781468478E+03  0.12508712143E+03 0.  0.
         24    2    1    2    0    0 -0.68554188456E+02  0.12818004476E+03  0.21176552662E+03  0.26913983425E+03  0.80385393488E+02 0.  0.
        -13    1    5    5    0    0 -0.38576009287E+02  0.76216871827E+02  0.55795804968E+02  0.10203083796E+03  0.00000000000E+00 0.  1.
         14    1    5    5    0    0 -0.29978179170E+02  0.51963172933E+02  0.15596972166E+03  0.16710899629E+03  0.00000000000E+00 0. -1.
         11    1    3    3    0    0  0.16227005034E+02  0.14519546572E+02 -0.97977317894E+02  0.10036776249E+03  0.00000000000E+00 0. -1.
        -12    1    3    3    0    0 -0.43029385037E+02 -0.22958312186E+02 -0.90996882436E+03  0.91127486160E+03  0.00000000000E+00 0.  1.
          5    1    4    4  501    0 -0.10019182881E+02 -0.50462687522E+02  0.42445354018E+02  0.66827743755E+02  0.41800000000E+01 0. -1.
         -5    1    4    4    0  501  0.10537575134E+03 -0.69278591624E+02 -0.35164386675E+02  0.13098694102E+03  0.41800000000E+01 0. -1.
</event>
<event>
11    1  0.8299058E-009  0.2405713E+03  0.7561462E-02  0.1029045E+00
         22   -1    0    0    0    0  0.00000000000E+00  0.00000000000E+00  0.11189571789E+04  0.11189571789E+04  0.00000000000E+00 0. -1.
         22   -1    0    0    0    0 -0.00000000000E+00 -0.00000000000E+00 -0.46176656924E+03  0.46176656924E+03  0.00000000000E+00 0. -1.
         24    2    1    2    0    0  0.19816726558E+02 -0.67301413827E+02 -0.13970458696E+03  0.17581641987E+03  0.80447864623E+02 0.  0.
         25    2    1    2    0    0  0.62386125761E+02 -0.12393664203E+03 -0.26253172860E+03  0.32221556131E+03  0.12509052522E+03 0.  0.
        -24    2    1    2    0    0 -0.82202852319E+02  0.19123805586E+03  0.10594269252E+04  0.10826917669E+04  0.80664424821E+02 0.  0.
        -11    1    3    3    0    0  0.18912700116E+02 -0.85280277619E+02 -0.10389883167E+03  0.13574013113E+03  0.00000000000E+00 0.  1.
         12    1    3    3    0    0  0.90402644168E+00  0.17978863793E+02 -0.35805755288E+02  0.40076288736E+02  0.00000000000E+00 0. -1.
         11    1    5    5    0    0 -0.83169718986E+02  0.18425942710E+03  0.10553783742E+04  0.10745660758E+04  0.00000000000E+00 0. -1.
        -12    1    5    5    0    0  0.96686666690E+00  0.69786287551E+01  0.40485509811E+01  0.81256910783E+01  0.00000000000E+00 0.  1.
          5    1    4    4  501    0 -0.35426483558E+02 -0.11022798262E+02 -0.50113735346E+02  0.62493173140E+02  0.41800000000E+01 0.  1.
         -5    1    4    4    0  501  0.97812609319E+02 -0.11291384377E+03 -0.21241799326E+03  0.25972238817E+03  0.41800000000E+01 0.  1.
</event>
<event>
11    1  0.8299058E-009  0.1266599E+03  0.7561462E-02  0.1123442E+00
         22   -1    0    0    0    0  0.00000000000E+00  0.00000000000E+00  0.14872394623E+04  0.14872394623E+04  0.00000000000E+00 0.  1.
         22   -1    0    0    0    0 -0.00000000000E+00 -0.00000000000E+00 -0.60253724887E+03  0.60253724887E+03  0.00000000000E+00 0.  1.
        -24    2    1    2    0    0 -0.21354179465E+02  0.12233127311E+02 -0.55937547029E+03  0.56564796067E+03  0.80318417943E+02 0.  0.
         25    2    1    2    0    0  0.35983182390E+02  0.82224756869E+00  0.70867509872E+02  0.14820565909E+03  0.12508896004E+03 0.  0.
         24    2    1    2    0    0 -0.14629002925E+02 -0.13055374880E+02  0.13732101738E+04  0.13759230914E+04  0.84105418458E+02 0.  0.
        -13    1    5    5    0    0 -0.48903160387E+02 -0.28815207879E+01  0.65878183676E+03  0.66060073471E+03  0.00000000000E+00 0.  1.
         14    1    5    5    0    0  0.34274157462E+02 -0.10173854092E+02  0.71442833704E+03  0.71532235666E+03  0.00000000000E+00 0. -1.
         11    1    3    3    0    0 -0.15826622559E+02  0.33712661673E+02 -0.11849300184E+03  0.12420795878E+03  0.00000000000E+00 0. -1.
        -12    1    3    3    0    0 -0.55275569061E+01 -0.21479534362E+02 -0.44088246845E+03  0.44144000189E+03  0.00000000000E+00 0.  1.
          5    1    4    4  501    0 -0.37026612313E+02 -0.32384760803E+02  0.20862271188E+02  0.53595237762E+02  0.41800000000E+01 0.  1.
         -5    1    4    4    0  501  0.73009794702E+02  0.33207008371E+02  0.50005238684E+02  0.94610421325E+02  0.41800000000E+01 0.  1.
</event>
<event>
11    1  0.8299058E-009  0.1252771E+03  0.7561462E-02  0.1125212E+00
         22   -1    0    0    0    0  0.00000000000E+00  0.00000000000E+00  0.23870196865E+03  0.23870196865E+03  0.00000000000E+00 0.  1.
         22   -1    0    0    0    0 -0.00000000000E+00 -0.00000000000E+00 -0.37336551274E+03  0.37336551274E+03  0.00000000000E+00 0. -1.
         24    2    1    2    0    0 -0.23849894305E+01  0.59739458948E+01 -0.28280571926E+03  0.29372858286E+03  0.79095065220E+02 0.  0.
         25    2    1    2    0    0  0.31941634539E+01 -0.92112629913E+01 -0.31708174131E+02  0.12941806549E+03  0.12509427374E+03 0.  0.
        -24    2    1    2    0    0 -0.80917402343E+00  0.32373170964E+01  0.17985034929E+03  0.18892083303E+03  0.57739051157E+02 0.  0.
        -13    1    3    3    0    0  0.17909643193E+02 -0.31177237654E+02 -0.10625513675E+03  0.11217365802E+03  0.00000000000E+00 0.  1.
         14    1    3    3    0    0 -0.20294632623E+02  0.37151183549E+02 -0.17655058251E+03  0.18155492485E+03  0.00000000000E+00 0. -1.
         11    1    5    5    0    0 -0.26868525046E+02  0.12409347813E+02  0.10666634422E+03  0.11069606380E+03  0.00000000000E+00 0. -1.
        -12    1    5    5    0    0  0.26059351023E+02 -0.91720307170E+01  0.73184005070E+02  0.78224769231E+02  0.00000000000E+00 0.  1.
          5    1    4    4  501    0 -0.54332693677E+02 -0.29750230875E+02 -0.27920952518E+02  0.68074737082E+02  0.41800000000E+01 0. -1.
         -5    1    4    4    0  501  0.57526857130E+02  0.20538967883E+02 -0.37872216129E+01  0.61343328411E+02  0.41800000000E+01 0. -1.
</event>
<event>
11    1  0.8299058E-009  0.1414473E+03  0.7561462E-02  0.1105953E+00
         22   -1    0    0    0    0  0.00000000000E+00  0.00000000000E+00  0.36880717460E+03  0.36880717460E+03  0.00000000000E+00 0. -1.
         22   -1    0    0    0    0 -0.00000000000E+00 -0.00000000000E+00 -0.67161940768E+03  0.67161940768E+03  0.00000000000E+00 0. -1.
        -24    2    1    2    0    0  0.74398856061E+02  0.10952025514E+02 -0.59233187586E+03  0.60247518267E+03  0.80399987070E+02 0.  0.
         25    2    1    2    0    0  0.10306683682E+01 -0.19194392240E+02 -0.16696699853E+01  0.12656915342E+03  0.12508987101E+03 0.  0.
         24    2    1    2    0    0 -0.75429524429E+02  0.82423667261E+01  0.29118931277E+03  0.31138224619E+03  0.80063334979E+02 0.  0.
        -13    1    5    5    0    0 -0.29155443570E+02  0.95982430144E+01  0.20846820252E+02  0.37104663768E+02  0.00000000000E+00 0.  1.
         14    1    5    5    0    0 -0.46274080859E+02 -0.13558762884E+01  0.27034249252E+03  0.27427758242E+03  0.00000000000E+00 0. -1.
         13    1    3    3    0    0  0.11148779304E+02 -0.29566080243E+02 -0.25066409489E+03  0.25264785146E+03  0.00000000000E+00 0. -1.
        -14    1    3    3    0    0  0.63250076757E+02  0.40518105757E+02 -0.34166778097E+03  0.34982733120E+03  0.00000000000E+00 0.  1.
          5    1    4    4  501    0  0.55920284779E+01 -0.67819619404E+02 -0.24564923261E+02  0.72468471858E+02  0.41800000000E+01 0. -1.
         -5    1    4    4    0  501 -0.45613601097E+01  0.48625227163E+02  0.22895253276E+02  0.54100681560E+02  0.41800000000E+01 0. -1.
</event>
<event>
11    1  0.8299058E-009  0.2695787E+03  0.7561462E-02  0.1013957E+00
         22   -1    0    0    0    0  0.00000000000E+00  0.00000000000E+00  0.16493893359E+03  0.16493893359E+03  0.00000000000E+00 0. -1.
         22   -1    0    0    0    0 -0.00000000000E+00 -0.00000000000E+00 -0.23783495561E+04  0.23783495561E+04  0.00000000000E+00 0. -1.
         24    2    1    2    0    0  0.20967325275E+02  0.10756854704E+03 -0.10286272163E+04  0.10376436081E+04  0.81361454277E+02 0.  0.
         25    2    1    2    0    0  0.10435351170E+03 -0.30317169679E+03 -0.12123535527E+04  0.12602581037E+04  0.12508644273E+03 0.  0.
        -24    2    1    2    0    0 -0.12532083698E+03  0.19560314975E+03  0.27570146406E+02  0.24538677795E+03  0.74085446931E+02 0.  0.
        -13    1    3    3    0    0  0.11880679639E+02  0.12253174332E+02 -0.30631082298E+02  0.35064997257E+02  0.00000000000E+00 0.  1.
         14    1    3    3    0    0  0.90866456356E+01  0.95315372707E+02 -0.99799613399E+03  0.10025786108E+04  0.00000000000E+00 0. -1.
         11    1    5    5    0    0 -0.12116186387E+03  0.20196629216E+03  0.29956169998E+02  0.23741936009E+03  0.00000000000E+00 0. -1.
        -12    1    5    5    0    0 -0.41589731117E+01 -0.63631424142E+01 -0.23860235918E+01  0.79674178570E+01  0.00000000000E+00 0.  1.
          5    1    4    4  501    0  0.79646653280E+02 -0.21531716214E+03 -0.10415231742E+04  0.10665331989E+04  0.41800000000E+01 0. -1.
         -5    1    4    4    0  501  0.24706858424E+02 -0.87854534654E+02 -0.17083037848E+03  0.19372490476E+03  0.41800000000E+01 0. -1.
</event>
<event>
11    1  0.8299058E-009  0.2056497E+03  0.7561462E-02  0.1050599E+00
         22   -1    0    0    0    0  0.00000000000E+00  0.00000000000E+00  0.32570638920E+03  0.32570638920E+03  0.00000000000E+00 0. -1.
         22   -1    0    0    0    0 -0.00000000000E+00 -0.00000000000E+00 -0.20431900037E+04  0.20431900037E+04  0.00000000000E+00 0.  1.
        -24    2    1    2    0    0 -0.54052225027E+01 -0.12977135374E+03 -0.18972639698E+04  0.19033659772E+04  0.79508813033E+02 0.  0.
         25    2    1    2    0    0 -0.15193476343E+03  0.13844697718E+03  0.48907116106E+02  0.24554404290E+03  0.12509289816E+03 0.  0.
         24    2    1    2    0    0  0.15733998594E+03 -0.86756234346E+01  0.13087323914E+03  0.21998637286E+03  0.80218837607E+02 0.  0.
        -13    1    5    5    0    0  0.13523490459E+03 -0.24671301331E+02  0.72188539858E+02  0.15526859894E+03  0.00000000000E+00 0.  1.
         14    1    5    5    0    0  0.22105081347E+02  0.15995677897E+02  0.58684699278E+02  0.64717773927E+02  0.00000000000E+00 0. -1.
         11    1    3    3    0    0 -0.81337406417E+01 -0.60876156707E+02 -0.41715733991E+03  0.42165425462E+03  0.00000000000E+00 0. -1.
        -12    1    3    3    0    0  0.27285181390E+01 -0.68895197034E+02 -0.14801066299E+04  0.14817117226E+04  0.00000000000E+00 0.  1.
          5    1    4    4  501    0 -0.13344372583E+02  0.27876938686E+02 -0.37082096821E+02  0.48453589081E+02  0.41800000000E+01 0.  1.
         -5    1    4    4    0  501 -0.13859039085E+03  0.11057003849E+03  0.85989212927E+02  0.19709045382E+03  0.41800000000E+01 0.  1.
</event>
<event>
11    1  0.8299058E-009  0.1638133E+03  0.7561462E-02  0.1083545E+00
         22   -1    0    0    0    0  0.00000000000E+00  0.00000000000E+00  0.32299880729E+03  0.32299880729E+03  0.00000000000E+00 0. -1.
         22   -1    0    0    0    0 -0.00000000000E+00 -0.00000000000E+00 -0.14620583155E+04  0.14620583155E+04  0.00000000000E+00 0.  1.
        -24    2    1    2    0    0 -0.39974140489E+02  0.10237377187E+03 -0.12577561597E+04  0.12649311561E+04  0.77601233473E+02 0.  0.
         25    2    1    2    0    0  0.17338332193E+02 -0.72886211007E+02 -0.16666345566E+03  0.22144179924E+03  0.12508695168E+03 0.  0.
         24    2    1    2    0    0  0.22635808296E+02 -0.29487560861E+02  0.28536010715E+03  0.29868416740E+03  0.79999656480E+02 0.  0.
        -11    1    5    5    0    0  0.47958023221E+02 -0.16823727821E+02  0.11153751612E+03  0.12257090728E+03  0.00000000000E+00 0.  1.
         12    1    5    5    0    0 -0.25322214926E+02 -0.12663833039E+02  0.17382259103E+03  0.17611326012E+03  0.00000000000E+00 0. -1.
         11    1    3    3    0    0  0.21673202357E+02  0.29432245272E+02 -0.24968077182E+03  0.25234197546E+03  0.00000000000E+00 0. -1.
        -12    1    3    3    0    0 -0.61647342846E+02  0.72941526595E+02 -0.10080753879E+04  0.10125891807E+04  0.00000000000E+00 0.  1.
          5    1    4    4  501    0  0.49749612105E+02 -0.50790519042E+02 -0.16747055847E+03  0.18198505731E+03  0.41800000000E+01 0.  1.
         -5    1    4    4    0  501 -0.32411279911E+02 -0.22095691965E+02  0.80710281353E+00  0.39456741931E+02  0.41800000000E+01 0.  1.
</event>
<event>
11    1  0.8299058E-009  0.6825850E+03  0.7561462E-02  0.9058369E-01
         22   -1    0    0    0    0  0.00000000000E+00  0.00000000000E+00  0.18195670141E+04  0.18195670141E+04  0.00000000000E+00 0.  1.
         22   -1    0    0    0    0 -0.00000000000E+00 -0.00000000000E+00 -0.78230267206E+03  0.78230267206E+03  0.00000000000E+00 0.  1.
        -24    2    1    2    0    0  0.63447300195E+03 -0.26960614748E+03 -0.50648406055E+03  0.85918521057E+03  0.80185145180E+02 0.  0.
         25    2    1    2    0    0 -0.56746935989E+03  0.83512208264E+02  0.10158149156E+04  0.11732533277E+04  0.12509062678E+03 0.  0.
         24    2    1    2    0    0 -0.67003642060E+02  0.18609393922E+03  0.52793348704E+03  0.56943114792E+03  0.80110069386E+02 0.  0.
        -11    1    5    5    0    0  0.94229154880E+01  0.84167715196E+01  0.86924164607E+01  0.15335953933E+02  0.00000000000E+00 0.  1.
         12    1    5    5    0    0 -0.76426557548E+02  0.17767716770E+03  0.51924107058E+03  0.55409519398E+03  0.00000000000E+00 0. -1.
         11    1    3    3    0    0  0.49231102638E+03 -0.17199373134E+03 -0.38652926066E+03  0.64912006567E+03  0.00000000000E+00 0. -1.
        -12    1    3    3    0    0  0.14216197557E+03 -0.97612416144E+02 -0.11995479989E+03  0.21006514490E+03  0.00000000000E+00 0.  1.
          5    1    4    4  501    0 -0.21657744922E+03  0.27932483107E+02  0.51319197017E+03  0.55773603592E+03  0.41800000000E+01 0.  1.
         -5    1    4    4    0  501 -0.35089191067E+03  0.55579725157E+02  0.50262294539E+03  0.61551729176E+03  0.41800000000E+01 0.  1.
</event>
<event>
11    1  0.8299058E-009  0.1705279E+03  0.7561462E-02  0.1077573E+00
         22   -1    0    0    0    0  0.00000000000E+00  0.00000000000E+00  0.33618642883E+03  0.33618642883E+03  0.00000000000E+00 0.  1.
         22   -1    0    0    0    0 -0.00000000000E+00 -0.00000000000E+00 -0.13358794909E+04  0.13358794909E+04  0.00000000000E+00 0. -1.
        -24    2    1    2    0    0  0.25706547869E+02 -0.12566926107E+03 -0.11833743805E+04  0.11934888491E+04  0.87104068930E+02 0.  0.
         25    2    1    2    0    0  0.67922414210E+00  0.39070825151E+02 -0.10342948927E+03  0.16694985910E+03  0.12509038924E+03 0.  0.
         24    2    1    2    0    0 -0.26385772011E+02  0.86598435916E+02  0.28711080765E+03  0.31162721153E+03  0.80519594061E+02 0.  0.
        -11    1    5    5    0    0 -0.20548660227E+02 -0.31594852917E+01  0.12056313237E+03  0.12234254645E+03  0.00000000000E+00 0.  1.
         12    1    5    5    0    0 -0.58371117836E+01  0.89757921208E+02  0.16654767528E+03  0.18928466508E+03  0.00000000000E+00 0. -1.
         11    1    3    3    0    0  0.12980219697E+02 -0.12076156981E+03 -0.73972591816E+03  0.74963076034E+03  0.00000000000E+00 0. -1.
        -12    1    3    3    0    0  0.12726328172E+02 -0.49076912610E+01 -0.44364846230E+03  0.44385808877E+03  0.00000000000E+00 0.  1.
          5    1    4    4  501    0 -0.52535524031E+02 -0.25968356834E+01 -0.78920251713E+02  0.94934732165E+02  0.41800000000E+01 0.  1.
         -5    1    4    4    0  501  0.53214748173E+02  0.41667660834E+02 -0.24509237558E+02  0.72015126940E+02  0.41800000000E+01 0.  1.
</event>
<event>
11    1  0.8299058E-009  0.3097632E+03  0.7561462E-02  0.9961419E-01
         22   -1    0    0    0    0  0.00000000000E+00  0.00000000000E+00  0.10265499648E+04  0.10265499648E+04  0.00000000000E+00 0. -1.
         22   -1    0    0    0    0 -0.00000000000E+00 -0.00000000000E+00 -0.45510909257E+03  0.45510909257E+03  0.00000000000E+00 0. -1.
        -24    2    1    2    0    0  0.24465492989E+03 -0.55442161747E+02 -0.20128691281E+03  0.33459191143E+03  0.92225039488E+02 0.  0.
         25    2    1    2    0    0 -0.46497385166E+03  0.13124366848E+01  0.19181572687E+03  0.51830815711E+03  0.12509063685E+03 0.  0.
         24    2    1    2    0    0  0.22031892177E+03  0.54129725062E+02  0.58091205813E+03  0.62875898879E+03  0.80053683760E+02 0.  0.
        -11    1    5    5    0    0  0.71606685210E+02  0.40785744462E+02  0.29387288655E+03  0.30520856437E+03  0.00000000000E+00 0.  1.
         12    1    5    5    0    0  0.14871223656E+03  0.13343980599E+02  0.28703917158E+03  0.32355042442E+03  0.00000000000E+00 0. -1.
         13    1    3    3    0    0  0.12182684722E+03 -0.45539587691E+02 -0.15647532764E+03  0.20347029983E+03  0.00000000000E+00 0. -1.
        -14    1    3    3    0    0  0.12282808267E+03 -0.99025740555E+01 -0.44811585173E+02  0.13112161161E+03  0.00000000000E+00 0.  1.
          5    1    4    4  501    0 -0.11482502207E+03  0.23501831112E+02 -0.23261115743E+01  0.11730304750E+03  0.41800000000E+01 0.  1.
         -5    1    4    4    0  501 -0.35014882960E+03 -0.22189394427E+02  0.19414183845E+03  0.40100510960E+03  0.41800000000E+01 0.  1.
</event>
<event>
11    1  0.8299058E-009  0.1535686E+03  0.7561462E-02  0.1093287E+00
         22   -1    0    0    0    0  0.00000000000E+00  0.00000000000E+00  0.35074959741E+03  0.35074959741E+03  0.00000000000E+00 0. -1.
         22   -1    0    0    0    0 -0.00000000000E+00 -0.00000000000E+00 -0.38668601940E+03  0.38668601940E+03  0.00000000000E+00 0.  1.
         24    2    1    2    0    0 -0.24052691315E+02  0.83283108356E+02 -0.29771471917E+03  0.32053807597E+03  0.81215737648E+02 0.  0.
         25    2    1    2    0    0  0.82841048493E+02 -0.93003020651E+02  0.51591320585E+02  0.18390742426E+03  0.12509226664E+03 0.  0.
        -24    2    1    2    0    0 -0.58788357179E+02  0.97199122950E+01  0.21018697660E+03  0.23299011657E+03  0.80964693858E+02 0.  0.
        -11    1    3    3    0    0  0.29147216643E+02  0.43145344361E+02 -0.13633729285E+03  0.14594155817E+03  0.00000000000E+00 0.  1.
         12    1    3    3    0    0 -0.53199907957E+02  0.40137763994E+02 -0.16137742632E+03  0.17459651781E+03  0.00000000000E+00 0. -1.
         13    1    5    5    0    0 -0.41755389728E+02 -0.29954908861E+02  0.15256076072E+03  0.16098321293E+03  0.00000000000E+00 0. -1.
        -14    1    5    5    0    0 -0.17032967451E+02  0.39674821156E+02  0.57626215880E+02  0.72006903631E+02  0.00000000000E+00 0.  1.
          5    1    4    4  501    0  0.16599596594E+02 -0.10668524423E+03  0.23669847078E+02  0.11061203372E+03  0.41800000000E+01 0.  1.
         -5    1    4    4    0  501  0.66241451899E+02  0.13682223577E+02  0.27921473508E+02  0.73295390541E+02  0.41800000000E+01 0.  1.
</event>
<event>
11    1  0.8299058E-009  0.1392941E+03  0.7561462E-02  0.1108349E+00
         22   -1    0    0    0    0  0.00000000000E+00  0.00000000000E+00  0.12317466151E+03  0.12317466151E+03  0.00000000000E+00 0. -1.
         22   -1    0    0    0    0 -0.00000000000E+00 -0.00000000000E+00 -0.15486677994E+04  0.15486677994E+04  0.00000000000E+00 0. -1.
        -24    2    1    2    0    0  0.24834638806E+02 -0.10766166388E+02 -0.13916020741E+04  0.13942911619E+04  0.82212176527E+02 0.  0.
         25    2    1    2    0    0 -0.42325529029E+02 -0.48409325803E+02 -0.84590551305E+02  0.16412671733E+03  0.12508838771E+03 0.  0.
         24    2    1    2    0    0  0.17490890223E+02  0.59175492191E+02  0.50699487465E+02  0.11342458171E+03  0.80542085831E+02 0.  0.
        -13    1    5    5    0    0  0.15950781145E+02  0.54810914986E+02 -0.52117300253E+01  0.57322124443E+02  0.00000000000E+00 0.  1.
         14    1    5    5    0    0  0.15401090778E+01  0.43645772047E+01  0.55911217490E+02  0.56102457267E+02  0.00000000000E+00 0. -1.
         13    1    3    3    0    0  0.47907906181E+02  0.12944835536E+02 -0.10245130308E+04  0.10257142324E+04  0.00000000000E+00 0. -1.
        -14    1    3    3    0    0 -0.23073267375E+02 -0.23711001923E+02 -0.36708904327E+03  0.36857692952E+03  0.00000000000E+00 0.  1.
          5    1    4    4  501    0 -0.80808934675E+02 -0.18493521357E+02 -0.24306172755E+02  0.86489055316E+02  0.41800000000E+01 0.  1.
         -5    1    4    4    0  501  0.38483405646E+02 -0.29915804446E+02 -0.60284378550E+02  0.77637662013E+02  0.41800000000E+01 0.  1.
</event>
<event>
11    1  0.8299058E-009  0.1860569E+03  0.7561462E-02  0.1064846E+00
         22   -1    0    0    0    0  0.00000000000E+00  0.00000000000E+00  0.21944299979E+04  0.21944299979E+04  0.00000000000E+00 0. -1.
         22   -1    0    0    0    0 -0.00000000000E+00 -0.00000000000E+00 -0.14624729932E+03  0.14624729932E+03  0.00000000000E+00 0. -1.
         24    2    1    2    0    0 -0.82905263597E+02  0.58437545953E+02 -0.75021529388E+02  0.14932540954E+03  0.79885033345E+02 0.  0.
         25    2    1    2    0    0  0.17799580231E+03  0.38260918718E+02  0.36911780253E+03  0.43016480861E+03  0.12508959543E+03 0.  0.
        -24    2    1    2    0    0 -0.95090538716E+02 -0.96698464671E+02  0.17540864255E+04  0.17611870791E+04  0.81042802932E+02 0.  0.
        -13    1    3    3    0    0 -0.69730320970E+00 -0.14931841852E+02  0.17215289017E+01  0.15046919772E+02  0.00000000000E+00 0.  1.
         14    1    3    3    0    0 -0.82207960388E+02  0.73369387805E+02 -0.76743058290E+02  0.13427848977E+03  0.00000000000E+00 0. -1.
         13    1    5    5    0    0 -0.78658523404E+02 -0.10584292372E+03  0.16606154920E+04  0.16658432400E+04  0.00000000000E+00 0. -1.
        -14    1    5    5    0    0 -0.16432015311E+02  0.91444590494E+01  0.93470933459E+02  0.95343839130E+02  0.00000000000E+00 0.  1.
          5    1    4    4  501    0  0.18999339075E+03  0.14134655750E+02  0.34313704741E+03  0.39250195252E+03  0.41800000000E+01 0. -1.
         -5    1    4    4    0  501 -0.11997588437E+02  0.24126262968E+02  0.25980755114E+02  0.37662856097E+02  0.41800000000E+01 0. -1.
</event>
<event>
11    1  0.8299058E-009  0.1538650E+03  0.7561462E-02  0.1092994E+00
         22   -1    0    0    0    0  0.00000000000E+00  0.00000000000E+00  0.97660792920E+02  0.97660792920E+02  0.00000000000E+00 0. -1.
         22   -1    0    0    0    0 -0.00000000000E+00 -0.00000000000E+00 -0.11309930806E+04  0.11309930806E+04  0.00000000000E+00 0.  1.
         24    2    1    2    0    0  0.62971072616E+02 -0.75226408387E+02 -0.89784893292E+03  0.90672071392E+03  0.79908561499E+02 0.  0.
         25    2    1    2    0    0 -0.26071009460E+02  0.37910308538E+02 -0.17175040944E+03  0.21739840855E+03  0.12508787260E+03 0.  0.
        -24    2    1    2    0    0 -0.36900063157E+02  0.37316099850E+02  0.36267054720E+02  0.10453475100E+03  0.82813700194E+02 0.  0.
        -13    1    3    3    0    0  0.82027782153E+02 -0.55281263630E+02 -0.70968599131E+03  0.71654642656E+03  0.00000000000E+00 0.  1.
         14    1    3    3    0    0 -0.19056709537E+02 -0.19945144757E+02 -0.18816294161E+03  0.19017428736E+03  0.00000000000E+00 0. -1.
         11    1    5    5    0    0 -0.36443132399E+02  0.59334095736E+02  0.42587345914E+02  0.81623028907E+02  0.00000000000E+00 0. -1.
        -12    1    5    5    0    0 -0.45693075763E+00 -0.22017995886E+02 -0.63202911946E+01  0.22911722095E+02  0.00000000000E+00 0.  1.
          5    1    4    4  501    0 -0.58182843860E+01 -0.15418347545E+02 -0.15754935414E+03  0.15846403146E+03  0.41800000000E+01 0. -1.
         -5    1    4    4    0  501 -0.20252725074E+02  0.53328656083E+02 -0.14201055292E+02  0.58934377098E+02  0.41800000000E+01 0. -1.
</event>
<event>
11    1  0.8299058E-009  0.2206160E+03  0.7561462E-02  0.1040832E+00
         22   -1    0    0    0    0  0.00000000000E+00  0.00000000000E+00  0.16535116519E+03  0.16535116519E+03  0.00000000000E+00 0. -1.
         22   -1    0    0    0    0 -0.00000000000E+00 -0.00000000000E+00 -0.23667774005E+04  0.23667774005E+04  0.00000000000E+00 0. -1.
        -24    2    1    2    0    0  0.49882883528E+02  0.92921777539E+02 -0.18504277037E+04  0.18551559458E+04  0.79988362396E+02 0.  0.
         25    2    1    2    0    0  0.31922002712E+02 -0.24497088030E+03 -0.39426013559E+03  0.48178657941E+03  0.12508999611E+03 0.  0.
         24    2    1    2    0    0 -0.81804886240E+02  0.15204910276E+03  0.43261603900E+02  0.19518604048E+03  0.80094038264E+02 0.  0.
        -13    1    5    5    0    0  0.13171696560E+02  0.32450729249E+02  0.21036446124E+02  0.40854320268E+02  0.00000000000E+00 0.  1.
         14    1    5    5    0    0 -0.94976582800E+02  0.11959837351E+03  0.22225157776E+02  0.15433172022E+03  0.00000000000E+00 0. -1.
         13    1    3    3    0    0  0.77049057385E+01  0.77678552541E+02 -0.14740989189E+04  0.14761642678E+04  0.00000000000E+00 0. -1.
        -14    1    3    3    0    0  0.42177977789E+02  0.15243224998E+02 -0.37632878480E+03  0.37899167800E+03  0.00000000000E+00 0.  1.
          5    1    4    4  501    0  0.12196560533E+02 -0.61711046902E+02 -0.21721235431E+03  0.22617623364E+03  0.41800000000E+01 0. -1.
         -5    1    4    4    0  501  0.19725442180E+02 -0.18325983340E+03 -0.17704778128E+03  0.25561034576E+03  0.41800000000E+01 0. -1.
</event>
<event>
11    1  0.8299058E-009  0.3291622E+03  0.7561462E-02  0.9885525E-01
         22   -1    0    0    0    0  0.00000000000E+00  0.00000000000E+00  0.62516966256E+02  0.62516966256E+02  0.00000000000E+00 0. -1.
         22   -1    0    0    0    0 -0.00000000000E+00 -0.00000000000E+00 -0.34267230809E+04  0.34267230809E+04  0.00000000000E+00 0.  1.
        -24    2    1    2    0    0 -0.51348695565E+01 -0.22288038937E+02 -0.11591957992E+04  0.11620476261E+04  0.78081118066E+02 0.  0.
         25    2    1    2    0    0 -0.28676655028E+03 -0.73737142774E+02 -0.17035946829E+04  0.17336537686E+04  0.12509326621E+03 0.  0.
         24    2    1    2    0    0  0.29190141984E+03  0.96025181711E+02 -0.50141563262E+03  0.59353865247E+03  0.80269676121E+02 0.  0.
        -11    1    5    5    0    0  0.15020923776E+02  0.26860985739E+02 -0.67488476102E+02  0.74174356165E+02  0.00000000000E+00 0.  1.
         12    1    5    5    0    0  0.27688049606E+03  0.69164195972E+02 -0.43392715652E+03  0.51936429630E+03  0.00000000000E+00 0. -1.
         13    1    3    3    0    0 -0.38833646208E+02 -0.62702801642E+00 -0.42928908647E+03  0.43104241671E+03  0.00000000000E+00 0. -1.
        -14    1    3    3    0    0  0.33698776652E+02 -0.21661010921E+02 -0.72990671271E+03  0.73100520942E+03  0.00000000000E+00 0.  1.
          5    1    4    4  501    0 -0.32334280393E+02 -0.45570170666E+02 -0.17453837653E+03  0.18331192930E+03  0.41800000000E+01 0. -1.
         -5    1    4    4    0  501 -0.25443226989E+03 -0.28166972108E+02 -0.15290563064E+04  0.15503418393E+04  0.41800000000E+01 0. -1.
</event>
